/*--------------------------------*- C++ -*----------------------------------*\
  =========                 |
  \\      /  F ield         | OpenFOAM: The Open Source CFD Toolbox
   \\    /   O peration     | Website:  https://openfoam.org
    \\  /    A nd           | Version:  dev
     \\/     M anipulation  |
\*---------------------------------------------------------------------------*/
FoamFile
{
    format      ascii;
    class       volScalarField;
    location    "21.15";
    object      Ux;
}
// * * * * * * * * * * * * * * * * * * * * * * * * * * * * * * * * * * * * * //

dimensions      [0 1 -1 0 0 0 0];

internalField   nonuniform List<scalar> 
5184
(
1.24042e-05
4.52572e-05
8.03004e-05
9.58743e-05
8.20008e-05
3.62905e-05
-4.07081e-05
-0.000146978
-0.000279732
-0.000435914
-0.000612406
-0.000806176
-0.00101436
-0.00123429
-0.00146352
-0.00169979
-0.00194102
-0.0021853
-0.00243085
-0.002676
-0.00291912
-0.00315868
-0.00339312
-0.00362095
-0.00384062
-0.0040506
-0.00424934
-0.00443526
-0.00460679
-0.00476235
-0.00490038
-0.00501937
-0.00511784
-0.00519443
-0.00524788
-0.00527708
-0.00528107
-0.00525914
-0.00521078
-0.00513576
-0.00503416
-0.00490633
-0.00475298
-0.00457518
-0.00437431
-0.00415214
-0.00391075
-0.00365256
-0.00338031
-0.00309699
-0.00280584
-0.00251027
-0.00221386
-0.00192025
-0.00163312
-0.00135611
-0.00109274
-0.000846383
-0.000620189
-0.000417005
-0.000239327
-8.9231e-05
3.16938e-05
0.000122433
0.000182652
0.000212853
0.000214618
0.000190991
0.000146996
9.07154e-05
3.66027e-05
6.22495e-06
2.08783e-05
6.56383e-05
9.46273e-05
7.26356e-05
-1.91379e-05
-0.000187499
-0.000433023
-0.000752495
-0.00114037
-0.00158988
-0.00209368
-0.00264433
-0.00323452
-0.00385727
-0.00450597
-0.00517445
-0.0058569
-0.00654788
-0.00724226
-0.00793516
-0.00862189
-0.0092979
-0.00995872
-0.0105999
-0.0112171
-0.0118059
-0.0123619
-0.0128806
-0.0133578
-0.013789
-0.01417
-0.0144967
-0.0147653
-0.0149721
-0.0151139
-0.0151877
-0.0151913
-0.0151228
-0.0149812
-0.014766
-0.0144777
-0.0141175
-0.0136875
-0.0131907
-0.0126311
-0.0120134
-0.0113436
-0.0106282
-0.00987446
-0.00909062
-0.00828531
-0.00746771
-0.00664734
-0.00583392
-0.00503725
-0.00426696
-0.00353244
-0.0028426
-0.00220571
-0.00162924
-0.00111968
-0.000682309
-0.00032105
-3.81855e-05
0.000165911
0.000293158
0.000348294
0.000339575
0.000279478
0.000185833
8.62805e-05
1.96617e-05
1.76356e-05
4.12974e-05
1.95035e-05
-8.41292e-05
-0.000290347
-0.000607879
-0.00103798
-0.00157682
-0.00221726
-0.0029501
-0.00376508
-0.0046515
-0.00559864
-0.00659605
-0.00763368
-0.00870199
-0.00979189
-0.0108948
-0.0120025
-0.0131072
-0.0142012
-0.0152773
-0.0163282
-0.0173468
-0.018326
-0.0192587
-0.020138
-0.0209569
-0.0217085
-0.0223861
-0.022983
-0.0234931
-0.0239104
-0.0242294
-0.0244453
-0.0245537
-0.0245514
-0.0244358
-0.0242055
-0.02386
-0.0234003
-0.0228283
-0.0221478
-0.0213633
-0.0204813
-0.0195093
-0.0184561
-0.0173322
-0.0161487
-0.0149182
-0.0136538
-0.0123697
-0.0110804
-0.00980067
-0.0085454
-0.00732928
-0.00616655
-0.00507073
-0.00405435
-0.00312868
-0.00230346
-0.00158656
-0.000983738
-0.000498216
-0.000130317
0.000123021
0.000268882
0.000319091
0.000290763
0.000207099
0.000102325
2.49495e-05
8.82955e-06
-7.04358e-06
-0.00010762
-0.000322347
-0.000669436
-0.00115727
-0.00178659
-0.00255263
-0.00344684
-0.00445821
-0.00557425
-0.00678179
-0.00806742
-0.0094179
-0.0108203
-0.0122623
-0.0137319
-0.0152178
-0.016709
-0.0181949
-0.0196655
-0.0211106
-0.0225207
-0.0238859
-0.0251969
-0.0264441
-0.0276182
-0.0287099
-0.0297102
-0.0306101
-0.0314011
-0.0320751
-0.0326243
-0.0330419
-0.0333215
-0.0334579
-0.0334468
-0.0332854
-0.0329718
-0.032506
-0.0318891
-0.0311243
-0.0302163
-0.0291715
-0.0279982
-0.0267065
-0.025308
-0.023816
-0.0222453
-0.020612
-0.0189334
-0.0172275
-0.0155131
-0.0138093
-0.0121354
-0.0105102
-0.0089522
-0.00747868
-0.00610581
-0.00484808
-0.00371799
-0.00272562
-0.00187832
-0.00118022
-0.000631782
-0.000229329
3.56019e-05
0.000176886
0.000214226
0.000173759
9.28842e-05
2.3997e-05
-2.13325e-06
-6.72931e-05
-0.000264038
-0.000609526
-0.00111623
-0.00179033
-0.00263085
-0.00363139
-0.00478185
-0.00606951
-0.00748003
-0.00899819
-0.0106084
-0.0122951
-0.014043
-0.0158374
-0.0176638
-0.0195084
-0.0213579
-0.0231994
-0.0250202
-0.0268081
-0.028551
-0.0302369
-0.0318541
-0.033391
-0.0348362
-0.0361782
-0.037406
-0.0385089
-0.0394766
-0.0402992
-0.0409677
-0.0414738
-0.0418102
-0.0419707
-0.0419505
-0.0417461
-0.041356
-0.0407799
-0.0400198
-0.0390795
-0.0379648
-0.0366838
-0.0352463
-0.0336646
-0.0319527
-0.0301265
-0.0282038
-0.0262038
-0.024147
-0.0220551
-0.0199505
-0.017856
-0.0157944
-0.0137884
-0.0118599
-0.0100295
-0.00831662
-0.00673852
-0.00531014
-0.00404362
-0.00294781
-0.00202787
-0.00128473
-0.000714661
-0.000308676
-5.20317e-05
7.61219e-05
0.000103261
6.73608e-05
1.96349e-05
-1.36961e-05
-0.000132785
-0.000435608
-0.000924115
-0.00160292
-0.00247456
-0.00353521
-0.00477616
-0.00618534
-0.00774822
-0.0094487
-0.0112697
-0.0131938
-0.0152034
-0.0172814
-0.0194107
-0.021575
-0.0237583
-0.0259452
-0.0281204
-0.0302695
-0.0323779
-0.0344315
-0.0364163
-0.0383186
-0.0401248
-0.0418215
-0.0433955
-0.0448341
-0.0461248
-0.0472558
-0.048216
-0.0489948
-0.0495829
-0.0499722
-0.0501557
-0.050128
-0.0498855
-0.0494263
-0.0487507
-0.0478609
-0.0467614
-0.0454592
-0.0439633
-0.0422853
-0.0404391
-0.0384408
-0.0363086
-0.0340628
-0.0317252
-0.0293193
-0.0268698
-0.0244021
-0.0219424
-0.0195166
-0.0171505
-0.0148693
-0.0126967
-0.0106547
-0.00876329
-0.0070397
-0.00549803
-0.00414874
-0.00299821
-0.00204821
-0.00129548
-0.000731273
-0.000340877
-0.000103366
8.86263e-06
3.23649e-05
1.35924e-05
-2.51773e-05
-0.0001999
-0.000613687
-0.00125205
-0.00211051
-0.00318692
-0.0044737
-0.00595915
-0.00762878
-0.00946604
-0.011453
-0.0135708
-0.0158003
-0.0181222
-0.0205176
-0.0229676
-0.0254542
-0.0279594
-0.030466
-0.0329571
-0.0354159
-0.0378263
-0.0401723
-0.0424381
-0.0446081
-0.0466671
-0.0485998
-0.0503915
-0.0520279
-0.0534952
-0.05478
-0.0558699
-0.0567536
-0.0574205
-0.0578616
-0.0580695
-0.0580382
-0.0577639
-0.0572446
-0.0564806
-0.0554745
-0.0542315
-0.0527593
-0.0510679
-0.0491702
-0.0470816
-0.0448199
-0.0424053
-0.03986
-0.0372084
-0.0344763
-0.0316911
-0.028881
-0.0260749
-0.0233017
-0.0205903
-0.0179684
-0.0154627
-0.0130978
-0.0108962
-0.00887749
-0.00705768
-0.00544904
-0.00405943
-0.00289184
-0.00194401
-0.001208
-0.000669904
-0.000309533
-0.000100087
-7.82343e-06
6.8357e-06
-3.63193e-05
-0.000266756
-0.000793161
-0.00158441
-0.00262635
-0.00391141
-0.00542765
-0.00715978
-0.00909049
-0.0112009
-0.0134712
-0.0158806
-0.0184084
-0.0210338
-0.0237361
-0.026495
-0.0292908
-0.0321041
-0.0349159
-0.0377075
-0.040461
-0.0431582
-0.0457816
-0.0483138
-0.0507376
-0.0530362
-0.0551929
-0.0571916
-0.0590165
-0.0606524
-0.0620849
-0.0633004
-0.0642864
-0.0650316
-0.0655264
-0.0657625
-0.0657335
-0.0654353
-0.0648658
-0.0640253
-0.0629166
-0.0615454
-0.0599197
-0.0580506
-0.055952
-0.0536403
-0.0511349
-0.0484575
-0.0456321
-0.0426852
-0.0396449
-0.0365406
-0.0334033
-0.0302643
-0.0271553
-0.0241077
-0.0211522
-0.018318
-0.0156324
-0.0131204
-0.0108039
-0.00870114
-0.00682635
-0.00518916
-0.00379418
-0.00264058
-0.0017218
-0.00102529
-0.000532247
-0.000217356
-5.05393e-05
-1.04368e-07
-4.7027e-05
-0.000332375
-0.000971037
-0.00191559
-0.00314202
-0.004637
-0.00638371
-0.00836288
-0.010554
-0.0129358
-0.015486
-0.0181823
-0.0210022
-0.0239233
-0.0269236
-0.0299814
-0.0330755
-0.0361851
-0.0392898
-0.0423697
-0.0454051
-0.0483766
-0.0512653
-0.0540524
-0.0567192
-0.0592475
-0.0616194
-0.0638174
-0.0658245
-0.0676244
-0.0692015
-0.0705412
-0.07163
-0.072456
-0.0730085
-0.0732788
-0.07326
-0.0729475
-0.0723389
-0.0714346
-0.0702373
-0.0687529
-0.0669899
-0.0649598
-0.0626773
-0.0601599
-0.0574278
-0.0545042
-0.0514148
-0.0481876
-0.0448527
-0.0414418
-0.0379878
-0.0345248
-0.0310869
-0.0277081
-0.0244218
-0.0212598
-0.0182523
-0.0154266
-0.0128074
-0.0104151
-0.00826632
-0.00637278
-0.00474104
-0.00337214
-0.00226132
-0.00139791
-0.000764943
-0.000339045
-9.4226e-05
-6.9581e-06
-5.72889e-05
-0.000396275
-0.00114558
-0.00224206
-0.00365198
-0.00535604
-0.00733231
-0.00955726
-0.012007
-0.0146573
-0.0174837
-0.0204621
-0.0235682
-0.0267781
-0.0300685
-0.0334165
-0.0367995
-0.0401955
-0.0435829
-0.0469406
-0.0502476
-0.0534835
-0.0566279
-0.0596608
-0.0625624
-0.0653133
-0.0678943
-0.0702868
-0.0724728
-0.0744347
-0.0761561
-0.0776214
-0.0788162
-0.0797276
-0.0803443
-0.0806569
-0.0806579
-0.0803422
-0.0797071
-0.0787525
-0.0774812
-0.0758989
-0.0740144
-0.0718394
-0.069389
-0.0666815
-0.0637379
-0.0605825
-0.0572424
-0.0537469
-0.050128
-0.0464192
-0.0426557
-0.0388738
-0.0351101
-0.0314013
-0.0277834
-0.0242911
-0.0209572
-0.0178121
-0.0148829
-0.0121929
-0.00976121
-0.00760195
-0.00572407
-0.00413085
-0.00281974
-0.00178229
-0.00100376
-0.000462943
-0.000138068
-1.361e-05
-6.71229e-05
-0.000458232
-0.0013158
-0.00256163
-0.00415252
-0.0060632
-0.00826655
-0.0107346
-0.0134397
-0.0163549
-0.0194533
-0.0227087
-0.0260951
-0.0295874
-0.0331607
-0.036791
-0.0404546
-0.0441285
-0.04779
-0.0514168
-0.0549871
-0.0584792
-0.0618718
-0.0651437
-0.0682743
-0.0712429
-0.0740294
-0.0766141
-0.078978
-0.0811027
-0.0829705
-0.0845651
-0.0858712
-0.0868751
-0.0875647
-0.0879296
-0.0879619
-0.0876557
-0.0870078
-0.0860176
-0.0846875
-0.0830231
-0.0810329
-0.0787287
-0.0761259
-0.0732431
-0.0701019
-0.0667275
-0.0631479
-0.0593939
-0.0554989
-0.0514984
-0.0474295
-0.0433308
-0.0392414
-0.0352007
-0.0312475
-0.0274194
-0.0237523
-0.0202795
-0.0170311
-0.0140335
-0.0113086
-0.00887345
-0.00673963
-0.00491307
-0.00339376
-0.00217578
-0.00124684
-0.00058804
-0.00018174
-2.00338e-05
-7.65532e-05
-0.000518144
-0.00148109
-0.00287285
-0.00464111
-0.00675471
-0.00918131
-0.0118884
-0.0148448
-0.0180203
-0.0213857
-0.0249126
-0.0285735
-0.0323416
-0.036191
-0.0400964
-0.0440333
-0.0479775
-0.0519056
-0.0557943
-0.0596208
-0.0633627
-0.0669977
-0.0705039
-0.0738594
-0.0770429
-0.0800333
-0.0828101
-0.0853531
-0.0876432
-0.0896619
-0.0913917
-0.0928167
-0.0939221
-0.0946949
-0.0951241
-0.0952008
-0.0949182
-0.0942726
-0.0932626
-0.09189
-0.0901598
-0.0880802
-0.0856628
-0.0829229
-0.079879
-0.0765534
-0.0729716
-0.0691626
-0.0651583
-0.0609934
-0.0567052
-0.0523329
-0.0479171
-0.0434997
-0.0391227
-0.0348279
-0.0306562
-0.0266465
-0.0228356
-0.0192569
-0.0159401
-0.0129105
-0.0101881
-0.00778784
-0.00571844
-0.00398283
-0.00257785
-0.00149382
-0.000714182
-0.000225242
-2.6256e-05
-8.56013e-05
-0.000575959
-0.00164108
-0.00317476
-0.00511592
-0.00742774
-0.0100727
-0.0130139
-0.0162163
-0.0196467
-0.0232733
-0.0270658
-0.0309948
-0.0350322
-0.039151
-0.0433247
-0.0475279
-0.0517356
-0.0559236
-0.0600679
-0.064145
-0.0681315
-0.0720046
-0.0757415
-0.0793197
-0.0827169
-0.0859114
-0.0888818
-0.0916071
-0.0940672
-0.0962429
-0.0981158
-0.0996689
-0.100887
-0.101755
-0.102262
-0.102398
-0.102155
-0.101528
-0.100515
-0.0991169
-0.0973381
-0.0951861
-0.0926719
-0.0898103
-0.0866198
-0.0831227
-0.0793449
-0.0753158
-0.0710684
-0.0666387
-0.0620655
-0.05739
-0.0526553
-0.0479056
-0.0431859
-0.0385413
-0.034016
-0.0296524
-0.0254911
-0.0215691
-0.0179198
-0.0145723
-0.0115502
-0.00887177
-0.00654919
-0.00458851
-0.00298958
-0.00174543
-0.000841817
-0.000268798
-3.23353e-05
-9.42826e-05
-0.000631642
-0.00179549
-0.0034666
-0.00557556
-0.00808006
-0.0109376
-0.0141068
-0.017549
-0.021228
-0.0251095
-0.0291609
-0.0333514
-0.0376514
-0.0420326
-0.0464679
-0.0509308
-0.0553957
-0.0598376
-0.0642319
-0.0685545
-0.0727815
-0.0768894
-0.0808548
-0.0846545
-0.0882657
-0.0916658
-0.0948327
-0.0977448
-0.100381
-0.102722
-0.104747
-0.106439
-0.107781
-0.108759
-0.109359
-0.10957
-0.109383
-0.108793
-0.107795
-0.106391
-0.104582
-0.102375
-0.0997813
-0.0968142
-0.093492
-0.0898365
-0.0858739
-0.081634
-0.0771505
-0.0724605
-0.0676043
-0.0626251
-0.0575682
-0.0524806
-0.0474105
-0.0424062
-0.0375155
-0.032785
-0.0282591
-0.023979
-0.0199824
-0.0163022
-0.0129663
-0.00999681
-0.00740952
-0.00521397
-0.00341324
-0.00200318
-0.000971825
-0.000312777
-3.83496e-05
-0.000102605
-0.000685149
-0.00194408
-0.00374776
-0.00601885
-0.0087098
-0.0117733
-0.0151637
-0.0188387
-0.0227592
-0.0268882
-0.0311914
-0.0356361
-0.0401915
-0.0448283
-0.0495182
-0.0542342
-0.05895
-0.0636401
-0.0682793
-0.0728431
-0.0773071
-0.0816472
-0.0858396
-0.0898606
-0.0936869
-0.0972952
-0.100663
-0.103767
-0.106587
-0.109101
-0.111289
-0.113133
-0.114614
-0.115716
-0.116425
-0.116729
-0.116617
-0.116082
-0.115119
-0.113727
-0.111908
-0.109666
-0.107011
-0.103955
-0.100517
-0.0967173
-0.092582
-0.0881409
-0.0834285
-0.0784827
-0.0733453
-0.0680614
-0.0626786
-0.0572468
-0.0518174
-0.0464423
-0.0411733
-0.0360613
-0.031155
-0.0265005
-0.0221398
-0.0181106
-0.0144453
-0.0111701
-0.00830514
-0.00586358
-0.00385199
-0.00226917
-0.00110539
-0.000357652
-4.43893e-05
-0.000110569
-0.000736421
-0.00208658
-0.00401762
-0.00644469
-0.00931523
-0.0125773
-0.0161813
-0.0200813
-0.0242352
-0.028604
-0.033151
-0.0378421
-0.0426453
-0.0475301
-0.0524675
-0.0574299
-0.0623904
-0.0673229
-0.0722021
-0.0770029
-0.0817006
-0.0862709
-0.0906894
-0.0949321
-0.0989752
-0.102795
-0.106368
-0.109672
-0.112683
-0.115381
-0.117743
-0.119751
-0.121385
-0.122628
-0.123464
-0.123879
-0.123861
-0.123402
-0.122496
-0.121138
-0.119328
-0.117071
-0.114374
-0.111249
-0.107712
-0.103783
-0.0994878
-0.0948563
-0.089923
-0.0847266
-0.0793103
-0.0737209
-0.0680085
-0.0622258
-0.0564277
-0.0506699
-0.0450087
-0.0394994
-0.0341957
-0.0291487
-0.0244057
-0.0200095
-0.0159973
-0.0124003
-0.00924292
-0.00654264
-0.00430968
-0.00254591
-0.0012439
-0.000403966
-5.05518e-05
-0.000118168
-0.000785377
-0.00222271
-0.00427558
-0.00685198
-0.00989467
-0.0133474
-0.0171564
-0.0212728
-0.0256516
-0.0302513
-0.0350335
-0.0399626
-0.0450052
-0.0501302
-0.0553076
-0.0605093
-0.0657079
-0.0708771
-0.0759911
-0.0810248
-0.0859531
-0.0907514
-0.0953952
-0.0998602
-0.104122
-0.108157
-0.111941
-0.11545
-0.118662
-0.121553
-0.124102
-0.126288
-0.128091
-0.129491
-0.130472
-0.131018
-0.131116
-0.130755
-0.129926
-0.128624
-0.126847
-0.124597
-0.121879
-0.118704
-0.115087
-0.111046
-0.106605
-0.101796
-0.0966508
-0.0912103
-0.0855184
-0.0796236
-0.0735783
-0.0674384
-0.0612621
-0.0551095
-0.0490414
-0.0431181
-0.0373988
-0.0319401
-0.0267949
-0.0220118
-0.0176336
-0.0136967
-0.0102306
-0.00725709
-0.00479059
-0.00283622
-0.0013889
-0.000452306
-5.69395e-05
-0.000125389
-0.000831912
-0.00235215
-0.00452095
-0.0072396
-0.0104464
-0.0140811
-0.0180862
-0.0224095
-0.0270036
-0.0318247
-0.0368327
-0.0419906
-0.0472639
-0.0526203
-0.0580296
-0.063463
-0.0688928
-0.0742924
-0.0796359
-0.0848979
-0.0900534
-0.0950775
-0.0999457
-0.104633
-0.109116
-0.113369
-0.117369
-0.121091
-0.124512
-0.127608
-0.130356
-0.132734
-0.134721
-0.136296
-0.137441
-0.138139
-0.138373
-0.138132
-0.137404
-0.136182
-0.134461
-0.132242
-0.129527
-0.126324
-0.122646
-0.118512
-0.113943
-0.108969
-0.103624
-0.0979477
-0.091985
-0.0857862
-0.0794061
-0.0729034
-0.0663402
-0.0597807
-0.0532908
-0.0469364
-0.0407823
-0.0348914
-0.0293229
-0.0241316
-0.0193664
-0.0150696
-0.0112763
-0.00801334
-0.00529937
-0.00314313
-0.00154205
-0.000503295
-6.36574e-05
-0.000132216
-0.000875901
-0.00247453
-0.00475302
-0.00760636
-0.0109688
-0.014776
-0.0189673
-0.0234875
-0.0282866
-0.0333189
-0.0385426
-0.0439192
-0.0494133
-0.054992
-0.0606244
-0.0662811
-0.0719345
-0.0775577
-0.0831247
-0.0886101
-0.0939888
-0.099236
-0.104327
-0.109237
-0.113942
-0.118417
-0.122638
-0.126579
-0.130217
-0.133528
-0.136487
-0.139071
-0.141258
-0.143026
-0.144354
-0.145224
-0.145618
-0.145519
-0.144917
-0.143799
-0.14216
-0.139996
-0.137308
-0.134102
-0.130387
-0.12618
-0.121502
-0.116381
-0.110849
-0.104948
-0.0987215
-0.0922222
-0.0855069
-0.0786373
-0.0716793
-0.0647017
-0.0577755
-0.0509726
-0.0443642
-0.0380197
-0.0320054
-0.0263829
-0.021208
-0.0165297
-0.0123889
-0.00881812
-0.00584087
-0.0034698
-0.00170507
-0.000557573
-7.0812e-05
-0.000138626
-0.000917201
-0.00258945
-0.004971
-0.007951
-0.0114599
-0.0154298
-0.0197968
-0.0245029
-0.029496
-0.0347283
-0.0401566
-0.0457411
-0.0514457
-0.0572364
-0.0630821
-0.0689533
-0.0748218
-0.0806609
-0.0864446
-0.0921475
-0.0977446
-0.103211
-0.108523
-0.113655
-0.118583
-0.123282
-0.127727
-0.131894
-0.135757
-0.139292
-0.142473
-0.145277
-0.14768
-0.149658
-0.151189
-0.152251
-0.152826
-0.152895
-0.152443
-0.151456
-0.149925
-0.147844
-0.14521
-0.142026
-0.138299
-0.134043
-0.129278
-0.124029
-0.118327
-0.112214
-0.105734
-0.0989403
-0.0918918
-0.0846533
-0.0772943
-0.0698885
-0.0625124
-0.055244
-0.0481614
-0.0413415
-0.0348579
-0.0287801
-0.0231713
-0.0180877
-0.0135772
-0.00967834
-0.0064201
-0.00381949
-0.00187971
-0.000615796
-7.85112e-05
-0.000144593
-0.000955653
-0.00269647
-0.00517408
-0.00827224
-0.0119178
-0.0160398
-0.0205713
-0.0254518
-0.0306269
-0.0360473
-0.0416683
-0.0474491
-0.0533525
-0.0593444
-0.0653928
-0.0714682
-0.0775425
-0.0835888
-0.0895814
-0.0954949
-0.101305
-0.106986
-0.112515
-0.117867
-0.123018
-0.127942
-0.132615
-0.137011
-0.141106
-0.144873
-0.148287
-0.151324
-0.153957
-0.156161
-0.157913
-0.15919
-0.159968
-0.160229
-0.159952
-0.159123
-0.157728
-0.155757
-0.153206
-0.150073
-0.146362
-0.142084
-0.137256
-0.131902
-0.126051
-0.119742
-0.113022
-0.105944
-0.0985671
-0.0909604
-0.0831967
-0.0753546
-0.0675162
-0.0597662
-0.0521901
-0.0448726
-0.0378957
-0.0313371
-0.0252687
-0.0197545
-0.0148501
-0.010601
-0.00704215
-0.0041955
-0.00206778
-0.000678628
-8.68631e-05
-0.000150089
-0.00099109
-0.00279514
-0.00536139
-0.00856872
-0.0123408
-0.0166037
-0.0212876
-0.0263301
-0.0316746
-0.0372703
-0.0430712
-0.0490356
-0.0551255
-0.0613063
-0.0675459
-0.0738144
-0.0800839
-0.0863276
-0.09252
-0.098636
-0.104651
-0.110542
-0.116283
-0.121852
-0.127223
-0.132371
-0.137273
-0.141902
-0.146233
-0.15024
-0.153897
-0.157177
-0.160053
-0.1625
-0.164491
-0.166001
-0.167006
-0.167481
-0.167406
-0.166762
-0.165531
-0.163701
-0.161263
-0.158211
-0.154547
-0.150277
-0.145415
-0.139981
-0.134005
-0.127523
-0.120579
-0.113229
-0.105533
-0.0975627
-0.0893936
-0.0811096
-0.0727987
-0.0645526
-0.0564644
-0.0486275
-0.0411328
-0.0340675
-0.0275124
-0.0215409
-0.0162167
-0.0115931
-0.00771211
-0.00460118
-0.00227108
-0.000746736
-9.59766e-05
-0.000155086
-0.00102334
-0.00288498
-0.00553209
-0.00883909
-0.0127269
-0.0171187
-0.0219426
-0.0271338
-0.0326342
-0.0383916
-0.0443587
-0.050493
-0.056756
-0.0631126
-0.0695304
-0.0759798
-0.0824326
-0.0888625
-0.0952442
-0.101553
-0.107765
-0.113857
-0.119804
-0.125584
-0.131171
-0.136542
-0.141672
-0.146535
-0.151106
-0.155357
-0.159263
-0.162796
-0.165927
-0.16863
-0.170877
-0.172639
-0.173891
-0.174605
-0.174757
-0.174325
-0.173289
-0.17163
-0.169337
-0.166399
-0.162815
-0.158585
-0.153721
-0.148239
-0.142165
-0.135534
-0.12839
-0.120786
-0.112785
-0.104458
-0.0958871
-0.087159
-0.0783682
-0.0696134
-0.0609962
-0.0526189
-0.0445824
-0.0369837
-0.0299142
-0.023457
-0.0176854
-0.0126616
-0.00843505
-0.00503984
-0.00249141
-0.000820793
-0.000105961
-0.000159553
-0.00105222
-0.00296555
-0.0056853
-0.00908203
-0.0130741
-0.0175825
-0.0225329
-0.0278591
-0.0335011
-0.0394056
-0.0455243
-0.0518139
-0.0582354
-0.0647534
-0.0713355
-0.0779519
-0.0845749
-0.0911783
-0.0977372
-0.104228
-0.110626
-0.116909
-0.123054
-0.129037
-0.134835
-0.140424
-0.145779
-0.150874
-0.155685
-0.160184
-0.164343
-0.168136
-0.171532
-0.174503
-0.177019
-0.179051
-0.180569
-0.181544
-0.181949
-0.181757
-0.180944
-0.179489
-0.177374
-0.174585
-0.171116
-0.166963
-0.162132
-0.156636
-0.150498
-0.143749
-0.136431
-0.128596
-0.120307
-0.111639
-0.102673
-0.0935029
-0.0842284
-0.0749555
-0.0657945
-0.0568574
-0.0482556
-0.0400973
-0.0324849
-0.0255128
-0.0192649
-0.0138131
-0.00921597
-0.00551478
-0.00273059
-0.000901471
-0.000116928
-0.000163461
-0.00107757
-0.00303638
-0.00582022
-0.00929628
-0.0133808
-0.0179926
-0.0230557
-0.0285021
-0.0342707
-0.0403069
-0.0465615
-0.0529908
-0.0595552
-0.0662191
-0.0729501
-0.0797185
-0.0864968
-0.0932593
-0.0999815
-0.10664
-0.113212
-0.119675
-0.126007
-0.132184
-0.138184
-0.143983
-0.149557
-0.154881
-0.15993
-0.164675
-0.169091
-0.173147
-0.176814
-0.180062
-0.18286
-0.185176
-0.186978
-0.188235
-0.188916
-0.188991
-0.188431
-0.187211
-0.185309
-0.182706
-0.17939
-0.175352
-0.170594
-0.165123
-0.158958
-0.152127
-0.144667
-0.136631
-0.128079
-0.119087
-0.109741
-0.100136
-0.090378
-0.0805815
-0.070865
-0.0613509
-0.0521618
-0.043418
-0.0352343
-0.0277173
-0.020963
-0.0150543
-0.0100597
-0.00602926
-0.0029904
-0.000989442
-0.000128989
-0.000166783
-0.00109923
-0.00309708
-0.0059361
-0.00948066
-0.0136452
-0.0183469
-0.0235082
-0.0290595
-0.0349388
-0.0410904
-0.0474646
-0.0540168
-0.0607073
-0.0675003
-0.0743634
-0.0812671
-0.0881844
-0.0950899
-0.10196
-0.108771
-0.115502
-0.122131
-0.128635
-0.134994
-0.141185
-0.147184
-0.152969
-0.158515
-0.163795
-0.168784
-0.173454
-0.177774
-0.181716
-0.185248
-0.188336
-0.190948
-0.19305
-0.194607
-0.195586
-0.195952
-0.195674
-0.194722
-0.193068
-0.190688
-0.187565
-0.183684
-0.179042
-0.173639
-0.16749
-0.160617
-0.153055
-0.144852
-0.136069
-0.126779
-0.117071
-0.107044
-0.0968099
-0.0864887
-0.076209
-0.0661037
-0.0563076
-0.0469538
-0.0381708
-0.0300788
-0.0227871
-0.0163912
-0.0109711
-0.00658645
-0.00327261
-0.00108538
-0.000142257
-0.000169495
-0.00111706
-0.00314728
-0.00603226
-0.00963415
-0.0138659
-0.0186434
-0.0238877
-0.0295281
-0.0355016
-0.0417516
-0.0482277
-0.0548852
-0.0616838
-0.0685878
-0.0755649
-0.0825859
-0.089624
-0.0966545
-0.103654
-0.110601
-0.117474
-0.124252
-0.130914
-0.137439
-0.143805
-0.149992
-0.155975
-0.161731
-0.167235
-0.17246
-0.177378
-0.18196
-0.186176
-0.189993
-0.193377
-0.196294
-0.198708
-0.200581
-0.201877
-0.202559
-0.20259
-0.201937
-0.200565
-0.198448
-0.195559
-0.191879
-0.187398
-0.182111
-0.176025
-0.169158
-0.161538
-0.153211
-0.144234
-0.13468
-0.124637
-0.114209
-0.10351
-0.092669
-0.0818233
-0.0711168
-0.0606968
-0.0507106
-0.0413014
-0.0326045
-0.024744
-0.0178296
-0.0119544
-0.00718943
-0.00357896
-0.00118995
-0.000156846
-0.000171576
-0.00113095
-0.0031867
-0.00610819
-0.00975594
-0.0140419
-0.0188806
-0.0241923
-0.0299053
-0.0359557
-0.0422862
-0.0488461
-0.0555901
-0.0624778
-0.0694735
-0.0765451
-0.0836635
-0.0908026
-0.0979382
-0.105048
-0.112111
-0.119106
-0.126013
-0.132813
-0.139486
-0.146012
-0.152368
-0.158534
-0.164486
-0.1702
-0.17565
-0.180807
-0.185644
-0.19013
-0.19423
-0.197912
-0.201138
-0.203871
-0.206073
-0.207703
-0.20872
-0.209086
-0.208761
-0.207707
-0.205889
-0.203277
-0.199845
-0.195575
-0.190454
-0.184484
-0.177674
-0.170049
-0.161647
-0.152521
-0.142744
-0.132402
-0.121599
-0.110456
-0.0991076
-0.0876991
-0.0763862
-0.0653296
-0.0546914
-0.0446309
-0.0353001
-0.0268395
-0.0193748
-0.013014
-0.00784116
-0.00391116
-0.00130381
-0.000172875
-0.000173011
-0.00114083
-0.00321512
-0.00616351
-0.00984545
-0.0141721
-0.0190573
-0.0244204
-0.030189
-0.0362985
-0.0426912
-0.0493156
-0.0561264
-0.0630831
-0.0701499
-0.0772949
-0.0844895
-0.091708
-0.0989269
-0.106125
-0.113281
-0.120376
-0.127391
-0.134308
-0.141107
-0.14777
-0.154277
-0.160606
-0.166736
-0.172642
-0.178301
-0.183684
-0.188764
-0.19351
-0.197887
-0.201863
-0.205399
-0.208456
-0.210994
-0.21297
-0.214341
-0.215064
-0.215094
-0.21439
-0.21291
-0.210618
-0.207481
-0.203471
-0.198572
-0.192774
-0.186081
-0.178507
-0.170087
-0.160867
-0.150916
-0.140318
-0.129178
-0.117619
-0.105782
-0.0938214
-0.0819032
-0.0702022
-0.0588963
-0.0481622
-0.0381699
-0.0290784
-0.0210314
-0.0141537
-0.00854445
-0.00427084
-0.00142763
-0.000190463
-0.000173793
-0.00114664
-0.00323246
-0.00619806
-0.00990239
-0.0142562
-0.0191729
-0.0245712
-0.030378
-0.0365284
-0.042964
-0.0496332
-0.0564903
-0.0634947
-0.0706108
-0.0778068
-0.0850546
-0.0923291
-0.0996075
-0.106869
-0.114094
-0.121265
-0.128363
-0.135371
-0.142272
-0.149048
-0.155681
-0.16215
-0.168434
-0.174513
-0.18036
-0.185951
-0.191257
-0.196249
-0.200892
-0.205153
-0.208993
-0.212374
-0.215251
-0.217582
-0.21932
-0.220418
-0.220829
-0.220505
-0.219399
-0.217468
-0.214673
-0.210978
-0.206357
-0.200792
-0.194278
-0.186821
-0.178446
-0.169194
-0.159127
-0.148326
-0.136896
-0.12496
-0.112663
-0.100168
-0.0876532
-0.0753062
-0.0633218
-0.0518951
-0.0412162
-0.0314643
-0.0228033
-0.0153771
-0.00930192
-0.0046596
-0.00156206
-0.000209732
-0.000173921
-0.00114841
-0.00323875
-0.00621189
-0.00992684
-0.0142943
-0.0192273
-0.0246443
-0.0304719
-0.0366444
-0.0431034
-0.0497969
-0.0566789
-0.0637089
-0.0708513
-0.0780747
-0.0853513
-0.0926567
-0.0999687
-0.107268
-0.114535
-0.121753
-0.128907
-0.135979
-0.142954
-0.149815
-0.156546
-0.163127
-0.16954
-0.175764
-0.181775
-0.18755
-0.193061
-0.198279
-0.203172
-0.207705
-0.211839
-0.215536
-0.218752
-0.22144
-0.223553
-0.225041
-0.225853
-0.225935
-0.225237
-0.223709
-0.221302
-0.217975
-0.213691
-0.208423
-0.202155
-0.194885
-0.186627
-0.177413
-0.167298
-0.156358
-0.144693
-0.132428
-0.11971
-0.10671
-0.0936151
-0.080628
-0.0679603
-0.0558269
-0.0444394
-0.0339995
-0.0246934
-0.016687
-0.010116
-0.00507894
-0.00170773
-0.000230805
-0.000173402
-0.00114619
-0.00323416
-0.00620533
-0.00991929
-0.0142869
-0.0192214
-0.0246407
-0.0304712
-0.0366471
-0.0431095
-0.0498062
-0.0566911
-0.0637236
-0.0708683
-0.0780941
-0.0853737
-0.0926831
-0.100001
-0.107309
-0.114589
-0.121826
-0.129004
-0.136109
-0.143127
-0.150042
-0.156839
-0.163501
-0.170011
-0.17635
-0.182497
-0.188428
-0.194117
-0.199537
-0.204656
-0.209441
-0.213855
-0.217856
-0.221402
-0.224445
-0.226936
-0.228823
-0.230051
-0.230563
-0.230303
-0.229214
-0.227241
-0.224334
-0.220447
-0.215541
-0.209592
-0.202584
-0.19452
-0.185423
-0.175337
-0.164331
-0.152499
-0.139964
-0.126876
-0.113409
-0.0997611
-0.0861482
-0.0727996
-0.0599511
-0.0478372
-0.0366844
-0.0267039
-0.0180859
-0.0109887
-0.00553027
-0.00186526
-0.000253809
-0.000172258
-0.00114012
-0.00321905
-0.00617902
-0.0098807
-0.0142354
-0.0191565
-0.0245619
-0.0303778
-0.0365382
-0.0429839
-0.0496624
-0.0565275
-0.0635388
-0.0706608
-0.0778628
-0.085118
-0.0924031
-0.0996978
-0.106984
-0.114246
-0.121469
-0.128639
-0.135743
-0.142768
-0.149702
-0.156531
-0.163239
-0.169811
-0.176231
-0.182478
-0.188532
-0.194368
-0.19996
-0.205278
-0.21029
-0.21496
-0.219248
-0.22311
-0.2265
-0.229366
-0.231655
-0.233309
-0.234268
-0.234471
-0.233855
-0.232358
-0.229922
-0.22649
-0.222015
-0.216457
-0.20979
-0.202005
-0.19311
-0.183139
-0.17215
-0.160231
-0.147498
-0.134101
-0.120218
-0.106055
-0.0918409
-0.0778226
-0.0642574
-0.0514047
-0.0395177
-0.0288355
-0.0195756
-0.0119219
-0.00601485
-0.00203524
-0.000278873
-0.000170518
-0.00113038
-0.00319395
-0.00613396
-0.00981256
-0.0141417
-0.0190351
-0.0244108
-0.0301949
-0.0363209
-0.0427296
-0.0493683
-0.0561907
-0.0631562
-0.0702297
-0.0773808
-0.0845831
-0.0918141
-0.0990543
-0.106287
-0.113497
-0.120671
-0.127797
-0.134864
-0.14186
-0.148774
-0.155596
-0.162311
-0.168907
-0.175368
-0.181678
-0.187816
-0.193762
-0.199491
-0.204975
-0.210184
-0.215082
-0.219632
-0.22379
-0.227511
-0.230742
-0.233429
-0.235513
-0.23693
-0.237616
-0.237502
-0.23652
-0.234601
-0.231682
-0.227703
-0.222611
-0.216368
-0.20895
-0.20035
-0.190589
-0.179711
-0.167794
-0.154948
-0.141317
-0.127081
-0.112453
-0.0976735
-0.0830063
-0.0687312
-0.0551336
-0.0424959
-0.0310876
-0.021157
-0.0129169
-0.00653383
-0.00221824
-0.000306126
-0.000168226
-0.00111725
-0.00315961
-0.00607151
-0.00971696
-0.0140087
-0.0188609
-0.0241916
-0.0299269
-0.0360002
-0.0423518
-0.0489291
-0.0556854
-0.0625803
-0.0695788
-0.0766508
-0.0837706
-0.0909163
-0.0980693
-0.105214
-0.112336
-0.119425
-0.126469
-0.133459
-0.140386
-0.147241
-0.154013
-0.160693
-0.16727
-0.17373
-0.180059
-0.18624
-0.192255
-0.19808
-0.203692
-0.20906
-0.214153
-0.218934
-0.223362
-0.227391
-0.230971
-0.234046
-0.236556
-0.238436
-0.239617
-0.240027
-0.239592
-0.238235
-0.235882
-0.232462
-0.227912
-0.222176
-0.215216
-0.207009
-0.197559
-0.186896
-0.175083
-0.162219
-0.148443
-0.133932
-0.118902
-0.103606
-0.0883219
-0.0733531
-0.0590123
-0.0456129
-0.033458
-0.0228301
-0.0139748
-0.00708815
-0.00241478
-0.000335699
-0.00016544
-0.00110111
-0.00311704
-0.0059935
-0.00959663
-0.0138401
-0.0186383
-0.0239098
-0.0295802
-0.0355828
-0.0418577
-0.0483519
-0.0550188
-0.0618179
-0.0687143
-0.0756784
-0.082685
-0.089713
-0.0967447
-0.103766
-0.110763
-0.117728
-0.12465
-0.131522
-0.138337
-0.145088
-0.151767
-0.158367
-0.164878
-0.171291
-0.177593
-0.183771
-0.189808
-0.195685
-0.20138
-0.206866
-0.212115
-0.21709
-0.221754
-0.226063
-0.229967
-0.233412
-0.236337
-0.238677
-0.240359
-0.241308
-0.241445
-0.240686
-0.238947
-0.236148
-0.232211
-0.227066
-0.220657
-0.212946
-0.203915
-0.193578
-0.18198
-0.169208
-0.155388
-0.140693
-0.12534
-0.109589
-0.0937336
-0.0780986
-0.0630253
-0.0488601
-0.0359428
-0.0245939
-0.0150958
-0.00767856
-0.00262535
-0.000367723
-0.000162235
-0.0010824
-0.00306746
-0.00590221
-0.00945507
-0.0136406
-0.0183735
-0.0235724
-0.0291628
-0.0350776
-0.0412567
-0.0476466
-0.0542008
-0.0608786
-0.0676456
-0.0744723
-0.0813342
-0.0882111
-0.0950863
-0.101947
-0.108781
-0.115581
-0.122339
-0.12905
-0.135708
-0.142309
-0.148847
-0.155319
-0.161716
-0.168032
-0.174258
-0.180382
-0.186393
-0.192272
-0.198002
-0.20356
-0.208918
-0.214045
-0.218906
-0.223459
-0.227657
-0.231446
-0.234767
-0.237554
-0.239735
-0.241231
-0.241957
-0.241824
-0.240742
-0.238618
-0.235361
-0.230888
-0.225124
-0.218011
-0.209512
-0.19962
-0.18836
-0.175799
-0.162051
-0.147278
-0.131696
-0.115566
-0.0991988
-0.0829375
-0.0671526
-0.0522258
-0.0385363
-0.0264463
-0.01628
-0.00830556
-0.00285036
-0.000402328
-0.000158701
-0.00106171
-0.00301243
-0.00580047
-0.00929657
-0.0134159
-0.0180737
-0.0231882
-0.0286847
-0.0344957
-0.0405605
-0.0468256
-0.053244
-0.0597753
-0.066385
-0.0730444
-0.0797295
-0.086421
-0.0931034
-0.0997646
-0.106395
-0.112989
-0.119539
-0.126044
-0.132498
-0.138902
-0.145251
-0.151543
-0.157775
-0.163942
-0.170039
-0.176058
-0.181988