/*--------------------------------*- C++ -*----------------------------------*\
  =========                 |
  \\      /  F ield         | OpenFOAM: The Open Source CFD Toolbox
   \\    /   O peration     | Website:  https://openfoam.org
    \\  /    A nd           | Version:  dev
     \\/     M anipulation  |
\*---------------------------------------------------------------------------*/
FoamFile
{
    format      ascii;
    class       volScalarField;
    location    "40.95";
    object      p;
}
// * * * * * * * * * * * * * * * * * * * * * * * * * * * * * * * * * * * * * //

dimensions      [0 2 -2 0 0 0 0];

internalField   nonuniform List<scalar> 
5184
(
1.52149e-06
-9.98764e-06
-9.58582e-05
-0.000248762
-0.000448222
-0.00067696
-0.000920736
-0.00116756
-0.0014083
-0.0016358
-0.00184465
-0.00203082
-0.00219137
-0.00232421
-0.00242785
-0.00250128
-0.00254385
-0.0025551
-0.00253477
-0.00248269
-0.00239877
-0.00228299
-0.00213541
-0.00195615
-0.00174546
-0.00150372
-0.00123146
-0.000929441
-0.000598651
-0.000240361
0.000143844
0.000552035
0.000981921
0.00143083
0.00189569
0.00237307
0.00285914
0.00334973
0.00384038
0.00432633
0.00480265
0.00526426
0.00570604
0.00612288
0.00650986
0.00686224
0.00717567
0.00744621
0.0076705
0.00784579
0.00797009
0.00804217
0.0080617
0.00802924
0.00794629
0.0078153
0.00763967
0.0074237
0.00717261
0.00689247
0.00659013
0.00627321
0.00595002
0.00562952
0.00532128
0.00503537
0.00478231
0.00457271
0.00441656
0.00432228
0.00429537
0.00432267
1.50888e-05
2.63525e-06
-7.1956e-05
-0.000199744
-0.000365046
-0.000555385
-0.000759823
-0.000968747
-0.00117423
-0.00136988
-0.00155066
-0.00171266
-0.0018529
-0.00196914
-0.00205975
-0.00212353
-0.00215962
-0.00216741
-0.00214649
-0.00209656
-0.00201744
-0.00190905
-0.0017714
-0.00160459
-0.00140884
-0.00118452
-0.000932168
-0.000652505
-0.000346492
-1.53468e-05
0.000339424
0.000716001
0.00111224
0.00152564
0.00195336
0.00239222
0.00283871
0.00328899
0.00373898
0.00418435
0.00462061
0.00504314
0.0054473
0.00582852
0.00618232
0.00650448
0.00679111
0.00703871
0.0072443
0.0074055
0.00752059
0.00758856
0.00760924
0.00758323
0.00751202
0.00739794
0.00724416
0.00705471
0.00683438
0.00658873
0.00632401
0.0060471
0.00576544
0.00548695
0.00521996
0.00497303
0.00475484
0.00457376
0.0044371
0.00435079
0.00432223
0.00434986
0.00010181
7.71055e-05
1.76413e-06
-0.000115804
-0.000263563
-0.000431871
-0.00061201
-0.000796141
-0.000977564
-0.00115072
-0.00131111
-0.00145513
-0.00157998
-0.00168349
-0.00176399
-0.00182025
-0.00185135
-0.00185661
-0.00183551
-0.00178771
-0.00171295
-0.00161109
-0.0014821
-0.00132604
-0.00114309
-0.000933593
-0.000698024
-0.000437069
-0.000151625
0.000157167
0.000487893
0.000838852
0.00120803
0.0015931
0.00199142
0.0024
0.00281559
0.00323461
0.00365328
0.00406756
0.0044733
0.00486621
0.00524201
0.00559645
0.00592542
0.00622502
0.00649167
0.00672216
0.00691379
0.00706439
0.00717242
0.00723703
0.00725811
0.00723631
0.00717306
0.00707061
0.00693197
0.00676091
0.00656192
0.00634015
0.00610139
0.00585192
0.00559851
0.00534828
0.00510861
0.00488693
0.00469075
0.00452713
0.00440208
0.00432084
0.00429305
0.00432371
0.000256911
0.000205511
0.000117698
-1.28453e-06
-0.000143768
-0.00030197
-0.000468756
-0.000637757
-0.000803431
-0.000961095
-0.00110687
-0.00123763
-0.00135086
-0.00144458
-0.00151728
-0.00156777
-0.00159514
-0.00159872
-0.00157797
-0.0015325
-0.00146202
-0.00136635
-0.00124539
-0.00109917
-0.000927806
-0.000731573
-0.000510893
-0.000266372
1.17785e-06
0.000290711
0.000600926
0.000930243
0.00127679
0.0016384
0.00201258
0.00239656
0.00278726
0.00318135
0.00357522
0.00396511
0.00434708
0.0047171
0.00507112
0.00540512
0.00571523
0.00599776
0.00624932
0.00646692
0.00664798
0.00679048
0.006893
0.00695475
0.00697566
0.00695638
0.00689831
0.00680358
0.00667509
0.00651641
0.00633177
0.00612604
0.00590458
0.00567325
0.00543826
0.0052061
0.00498342
0.00477691
0.00459317
0.00443849
0.0043183
0.00423765
0.00420661
0.00423189
0.000461739
0.000373133
0.000264521
0.00013679
-7.60808e-06
-0.000162505
-0.000322127
-0.000481471
-0.000636129
-0.000782303
-0.000916811
-0.00103704
-0.00114087
-0.00122661
-0.00129294
-0.00133879
-0.00136336
-0.00136599
-0.00134616
-0.00130347
-0.0012376
-0.00114832
-0.0010355
-0.000899089
-0.000739153
-0.00055588
-0.000349611
-0.000120855
0.000129679
0.000401061
0.000692113
0.00100139
0.00132718
0.00166745
0.00201989
0.0023819
0.00275058
0.00312278
0.00349511
0.00386397
0.00422562
0.00457621
0.00491188
0.00522879
0.00552321
0.00579162
0.00603077
0.00623776
0.00641013
0.00654594
0.00664381
0.006703
0.00672344
0.00670576
0.0066513
0.00656212
0.00644098
0.00629128
0.00611704
0.00592285
0.00571376
0.00549521
0.00527296
0.00505296
0.00484127
0.00464392
0.0044668
0.00431557
0.00419516
0.00411036
0.00406997
0.00407982
0.000700126
0.000568089
0.000432902
0.000290832
0.000138867
-1.82177e-05
-0.000175815
-0.000330184
-0.00047799
-0.000616309
-0.000742665
-0.000855006
-0.000951658
-0.00103127
-0.00109275
-0.00113524
-0.00115804
-0.00116055
-0.00114232
-0.00110293
-0.00104207
-0.000959454
-0.000854904
-0.000728305
-0.000579643
-0.000409018
-0.000216668
-2.99227e-06
0.000231421
0.000485769
0.000759015
0.00104986
0.00135673
0.00167777
0.00201081
0.00235343
0.00270289
0.00305619
0.0034101
0.00376119
0.00410585
0.00444038
0.00476104
0.0050641
0.00534594
0.00560312
0.00583247
0.00603114
0.00619672
0.0063273
0.0064215
0.00647858
0.00649845
0.00648168
0.00642957
0.00634407
0.00622783
0.0060841
0.00591672
0.00573005
0.00552885
0.00531824
0.0051036
0.00489043
0.00468429
0.00449066
0.00431488
0.00416201
0.0040366
0.00394305
0.00388786
0.00387481
0.000958291
0.000779508
0.000613943
0.000453371
0.000289418
0.000125693
-3.41819e-05
-0.000187608
-0.000332252
-0.000466025
-0.00058715
-0.000694153
-0.000785825
-0.000861184
-0.000919429
-0.000959904
-0.000982054
-0.000985404
-0.000969534
-0.000934067
-0.000878664
-0.000803031
-0.000706922
-0.000590152
-0.000452621
-0.000294326
-0.00011539
8.39097e-05
0.000303119
0.000541579
0.000798396
0.00107242
0.00136225
0.00166616
0.00198216
0.00230795
0.00264096
0.00297832
0.00331694
0.00365349
0.00398447
0.00430628
0.00461525
0.0049077
0.00518008
0.00542895
0.00565117
0.0058439
0.0060047
0.00613164
0.00622331
0.00627893
0.00629834
0.00628206
0.0062313
0.00614792
0.00603446
0.00589404
0.00573034
0.00554753
0.00535015
0.00514305
0.0049313
0.00472005
0.00451445
0.00431956
0.00414023
0.00398103
0.0038462
0.00373979
0.00366547
0.00362448
0.00122411
0.00099725
0.000799049
0.000617117
0.000437969
0.000264244
9.87311e-05
-5.69986e-05
-0.000201536
-0.000333582
-0.000452036
-0.000555997
-0.000644729
-0.000717632
-0.000774207
-0.000814028
-0.000836711
-0.000841897
-0.000829235
-0.00079838
-0.000748993
-0.000680747
-0.000593338
-0.000486508
-0.000360057
-0.00021387
-4.79482e-05
0.00013757
0.000342376
0.00056596
0.000807584
0.00106626
0.00134073
0.00162944
0.00193054
0.00224188
0.002561
0.00288517
0.00321138
0.00353641
0.00385682
0.00416905
0.00446946
0.00475441
0.00502031
0.00526372
0.00548144
0.00567059
0.00582868
0.00595368
0.00604413
0.00609914
0.00611848
0.00610258
0.00605253
0.00597012
0.00585777
0.00571849
0.00555582
0.00537376
0.0051767
0.00496927
0.0047563
0.00454266
0.00433321
0.00413264
0.00394545
0.00377581
0.00362772
0.00350492
0.00340814
0.00333598
0.00148732
0.00121216
0.000980155
0.000775029
0.00057846
0.000392281
0.000218576
5.7986e-05
-8.89307e-05
-0.000221614
-0.000339611
-0.000442573
-0.000530231
-0.000602368
-0.000658792
-0.000699314
-0.000723728
-0.000731799
-0.000723253
-0.000697783
-0.000655046
-0.000594683
-0.000516333
-0.00041965
-0.000304332
-0.000170143
-1.69473e-05
0.000155262
0.000346331
0.000555911
0.000783427
0.00102806
0.00128869
0.00156394
0.0018521
0.00215115
0.00245874
0.00277226
0.00308876
0.00340508
0.00371784
0.00402348
0.00431835
0.00459877
0.00486111
0.00510186
0.00531773
0.00550572
0.00566325
0.00578818
0.0058789
0.00593441
0.00595436
0.00593905
0.00588948
0.00580731
0.00569485
0.005555
0.0053912
0.00520732
0.0050076
0.00479654
0.00457878
0.004359
0.00414183
0.00393173
0.0037329
0.00354921
0.00338454
0.00324242
0.00312066
0.00301533
0.00173894
0.00141598
0.00114976
0.000920372
0.000704917
0.000504551
0.00032075
0.000153314
2.0147e-06
-0.000133277
-0.00025272
-0.000356494
-0.00044478
-0.000517734
-0.000575466
-0.000618024
-0.000645381
-0.000657425
-0.000653962
-0.000634717
-0.000599346
-0.000547454
-0.000478613
-0.000392388
-0.000288363
-0.000166174
-2.55376e-05
0.000133708
0.000311573
0.000507878
0.00072222
0.000953941
0.0012021
0.00146547
0.00174246
0.0020312
0.00232946
0.00263468
0.00294401
0.0032543
0.00356219
0.00386411
0.00415636
0.00443519
0.00469687
0.00493778
0.00515449
0.00534387
0.00550316
0.00563005
0.00572278
0.00578018
0.00580173
0.0057876
0.00573864
0.00565639
0.00554303
0.00540138
0.00523475
0.00504695
0.00484209
0.00462458
0.00439895
0.00416975
0.00394147
0.00371842
0.00350462
0.00330373
0.00311961
0.0029557
0.00280704
0.00266732
0.00197101
0.00160119
0.00130088
0.00104674
0.000811518
0.000595801
0.000400534
0.000224739
6.74659e-05
-7.20622e-05
-0.000194575
-0.000300757
-0.000391215
-0.000466461
-0.000526898
-0.000572803
-0.000604319
-0.000621456
-0.000624092
-0.000611982
-0.000584774
-0.000542031
-0.000483252
-0.000407905
-0.000315452
-0.000205388
-7.72772e-05
6.92095e-05
0.000234255
0.000417859
0.000619795
0.000839583
0.00107645
0.00132932
0.00159676
0.001877
0.00216793
0.00246706
0.00277159
0.00307841
0.00338411
0.0036851
0.00397759
0.00425775
0.00452169
0.00476565
0.00498601
0.00517945
0.005343
0.00547414
0.00557089
0.00563187
0.00565638
0.00564439
0.00559659
0.00551435
0.00539976
0.00525551
0.00508483
0.00489144
0.00467942
0.00445309
0.00421693
0.00397545
0.00373308
0.00349406
0.00326232
0.00304144
0.00283535
0.00264755
0.00247047
0.00229554
0.00217639
0.00176091
0.00142699
0.00114802
0.000892614
0.000660833
0.000453153
0.00026788
0.000103385
-4.17106e-05
-0.000168676
-0.000278666
-0.000372692
-0.000451606
-0.000516082
-0.000566615
-0.00060351
-0.000626887
-0.000636688
-0.00063269
-0.000614525
-0.000581707
-0.000533653
-0.000469722
-0.000389248
-0.000291576
-0.000176105
-4.23307e-05
0.000110115
0.000281416
0.000471538
0.00068018
0.000906749
0.00115032
0.00140962
0.001683
0.00196843
0.00226353
0.0025655
0.00287125
0.00317735
0.00348013
0.00377572
0.00406012
0.00432931
0.0045793
0.00480626
0.00500663
0.00517717
0.00531511
0.00541821
0.00548483
0.00551402
0.00550553
0.00545985
0.00537819
0.00526247
0.00511527
0.00493975
0.00473957
0.00451878
0.00428168
0.00403276
0.00377653
0.00351744
0.00325976
0.00300744
0.00276406
0.00253376
0.00232019
0.00211334
0.00190252
0.00234853
0.00188876
0.00152198
0.00121842
0.000942736
0.000694526
0.000473826
0.000278269
0.000105589
-4.61577e-05
-0.000178747
-0.000293778
-0.000392642
-0.000476504
-0.000546299
-0.000602718
-0.000646215
-0.000677008
-0.000695091
-0.000700253
-0.0006921
-0.000670085
-0.000633535
-0.000581691
-0.000513746
-0.000428886
-0.000326335
-0.000205401
-6.55211e-05
9.3687e-05
0.000272385
0.000470468
0.000687523
0.0009228
0.00117517
0.00144312
0.00172473
0.00201766
0.00231918
0.00262617
0.00293517
0.00324243
0.00354394
0.00383555
0.00411303
0.00437216
0.00460885
0.00481923
0.00499977
0.00514738
0.0052595
0.0053342
0.00537021
0.00536703
0.00532488
0.0052448
0.00512852
0.0049785
0.00479782
0.00459009
0.00435934
0.00410991
0.00384635
0.00357324
0.00329512
0.0030164
0.00274109
0.00247293
0.00221634
0.00197527
0.00173736
0.00148995
0.00248133
0.00197878
0.00158006
0.00125238
0.000956595
0.00069186
0.000457796
0.000251402
6.98057e-05
-8.94725e-05
-0.000228685
-0.000349848
-0.000454707
-0.000544725
-0.00062107
-0.000684616
-0.000735947
-0.000775365
-0.000802903
-0.000818349
-0.000821272
-0.000811051
-0.000786912
-0.000747968
-0.000693261
-0.000621804
-0.000532636
-0.000424864
-0.000297722
-0.000150613
1.68325e-05
0.000204717
0.000412823
0.000640581
0.000887026
0.00115078
0.00143003
0.0017225
0.00202551
0.00233593
0.00265025
0.00296462
0.00327489
0.00357672
0.00386565
0.00413718
0.00438692
0.00461066
0.00480451
0.00496501
0.00508922
0.00517485
0.00522028
0.00522467
0.00518798
0.00511097
0.00499519
0.00484296
0.00465726
0.00444165
0.00420018
0.00393726
0.00365754
0.00336573
0.00306657
0.00276463
0.00246415
0.00216906
0.00188421
0.00161395
0.00134365
0.00105873
0.00256909
0.00202534
0.00159575
0.0012446
0.000929083
0.000647931
0.000400369
0.000182782
-8.27956e-06
-0.000175805
-0.000322499
-0.00045077
-0.000562698
-0.000660015
-0.000744109
-0.000816015
-0.00087643
-0.000925723
-0.000963952
-0.00099089
-0.00100605
-0.00100874
-0.000998062
-0.00097299
-0.000932401
-0.000875129
-0.00080001
-0.000705942
-0.000591936
-0.000457171
-0.000301051
-0.000123254
7.62161e-05
0.000296983
0.00053826
0.000798817
0.00107696
0.0013705
0.00167679
0.0019927
0.00231467
0.00263874
0.00296061
0.00327573
0.00357937
0.00386673
0.00413307
0.0043738
0.0045846
0.00476159
0.0049014
0.00500128
0.00505922
0.00507398
0.00504518
0.00497328
0.0048596
0.00470627
0.00451616
0.00429281
0.00404029
0.00376311
0.00346605
0.00315405
0.00283206
0.00250495
0.00217725
0.00185319
0.00153814
0.00123696
0.000932811
0.00060919
0.00260638
0.00202313
0.00156385
0.00119
0.000855274
0.000557975
0.000296939
6.79569e-05
-0.000132975
-0.000309336
-0.000464261
-0.00060053
-0.000720531
-0.000826252
-0.000919272
-0.00100077
-0.00107155
-0.00113202
-0.00118225
-0.00122198
-0.00125067
-0.00126751
-0.00127149
-0.00126143
-0.00123604
-0.00119394
-0.00113376
-0.00105418
-0.000953961
-0.000832049
-0.000687602
-0.000520059
-0.000329194
-0.000115167
0.000121429
0.000379533
0.000657582
0.000953497
0.00126467
0.00158799
0.00191983
0.00225614
0.00259244
0.00292397
0.00324571
0.00355252
0.00383926
0.00410091
0.00433268
0.00453018
0.00468954
0.00480752
0.0048816
0.0049101
0.0048922
0.00482803
0.0047186
0.00456584
0.00437248
0.00414202
0.00387857
0.00358675
0.00327153
0.0029381
0.00259175
0.0022377
0.00188085
0.00152584
0.00117865
0.00084472
0.000505048
0.000141182
0.00258806
0.00196707
0.00147938
0.00108372
0.000730436
0.000417382
0.000143017
-9.74443e-05
-0.000308545
-0.000494235
-0.00065806
-0.000803151
-0.000932188
-0.00104739
-0.00115051
-0.00124286
-0.00132531
-0.00139832
-0.00146194
-0.00151587
-0.00155948
-0.00159188
-0.00161189
-0.00161818
-0.00160926
-0.00158356
-0.00153946
-0.00147541
-0.00138991
-0.00128166
-0.00114953
-0.00099272
-0.00081074
-0.000603515
-0.000371416
-0.000115314
0.000163389
0.000462732
0.000780183
0.00111264
0.00145645
0.00180746
0.00216102
0.00251212
0.00285546
0.00318551
0.0034967
0.00378352
0.00404065
0.00426316
0.00444655
0.00458702
0.00468147
0.00472768
0.00472435
0.00467116
0.00456877
0.00441885
0.00422397
0.00398756
0.00371377
0.00340735
0.00307351
0.00271775
0.00234573
0.00196312
0.00157529
0.00118735
0.00080601
0.0004374
6.02785e-05
-0.00034578
0.00250921
0.00185236
0.00133763
0.000921156
0.000550036
0.000221715
-6.57406e-05
-0.00031768
-0.00053917
-0.000734614
-0.000907953
-0.00106265
-0.00120166
-0.00132741
-0.00144182
-0.0015463
-0.00164179
-0.00172876
-0.00180725
-0.0018769
-0.00193699
-0.00198649
-0.00202409
-0.00204827
-0.00205734
-0.00204949
-0.00202289
-0.0019757
-0.00190617
-0.00181269
-0.00169388
-0.00154862
-0.00137615
-0.00117614
-0.000948699
-0.000694478
-0.000414692
-0.000111152
0.000213709
0.000556833
0.000914547
0.0012826
0.00165619
0.00203006
0.00239858
0.00275584
0.00309578
0.00341237
0.00369968
0.00395214
0.0041646
0.00433256
0.00445226
0.00452085
0.00453643
0.00449817
0.00440632
0.00426219
0.00406814
0.00382752
0.00354451
0.003224
0.00287146
0.00249276
0.00209401
0.00168139
0.00126081
0.000837979
0.000420402
1.4996e-05
-0.000401781
-0.000852419
0.00236519
0.00167444
0.00113413
0.000697897
0.000309758
-3.32693e-05
-0.000333509
-0.000596864
-0.000828909
-0.00103449
-0.00121792
-0.00138299
-0.00153289
-0.00167026
-0.00179717
-0.00191511
-0.00202506
-0.00212751
-0.00222245
-0.00230947
-0.00238772
-0.00245605
-0.00251299
-0.00255681
-0.00258562
-0.00259738
-0.00258998
-0.0025613
-0.00250931
-0.00243209
-0.00232794
-0.00219543
-0.0020335
-0.0018415
-0.00161926
-0.00136718
-0.00108624
-0.000778072
-0.000444969
-8.99173e-05
0.000283419
0.000670712
0.00106702
0.00146684
0.00186421
0.00225279
0.00262604
0.00297731
0.00330004
0.00358791
0.00383504
0.00403614
0.00418669
0.00428306
0.00432268
0.00430409
0.00422701
0.00409235
0.00390221
0.00365977
0.00336924
0.00303565
0.00266477
0.00226287
0.00183657
0.00139264
0.000937636
0.000477925
2.19248e-05
-0.00042257
-0.000881519
-0.00137959
0.00215156
0.001429
0.000864656
0.000409799
5.51812e-06
-0.000351598
-0.000664267
-0.000938933
-0.00118167
-0.00139774
-0.00159182
-0.00176801
-0.00192974
-0.00207984
-0.00222047
-0.00235324
-0.00247916
-0.00259868
-0.00271178
-0.00281793
-0.00291619
-0.00300527
-0.00308349
-0.00314896
-0.00319953
-0.00323291
-0.00324672
-0.00323854
-0.00320603
-0.00314692
-0.00305919
-0.00294106
-0.00279111
-0.00260835
-0.0023923
-0.00214304
-0.00186129
-0.00154845
-0.00120663
-0.000838703
-0.000448293
-3.97646e-05
0.000381807
0.000810695
0.0012406
0.00166476
0.00207608
0.00246727
0.00283106
0.00316033
0.00344834
0.00368891
0.00387663
0.004007
0.00407662
0.0040833
0.0040261
0.00390544
0.00372305
0.00348192
0.00318622
0.00284115
0.00245276
0.00202778
0.0015734
0.00109705
0.000606017
0.00010742
-0.000389302
-0.000875379
-0.00137934
-0.00192816
0.00186418
0.00111201
0.000525262
5.29757e-05
-0.000366518
-0.000737063
-0.00106177
-0.00134761
-0.00160115
-0.00182805
-0.00203335
-0.00222142
-0.00239594
-0.00255987
-0.00271552
-0.00286455
-0.00300799
-0.00314629
-0.00327934
-0.00340654
-0.00352683
-0.00363874
-0.00374043
-0.00382978
-0.00390439
-0.00396172
-0.00399909
-0.00401376
-0.00400303
-0.00396431
-0.00389518
-0.00379349
-0.00365743
-0.00348562
-0.00327722
-0.00303195
-0.0027502
-0.00243309
-0.00208251
-0.00170115
-0.00129255
-0.00086107
-0.000411886
4.90688e-05
0.000515171
0.000979217
0.00143355
0.0018702
0.0022811
0.00265826
0.00299397
0.00328107
0.0035131
0.00368455
0.00379106
0.00382952
0.00379826
0.00369704
0.00352714
0.00329127
0.00299352
0.00263921
0.0022347
0.0017872
0.00130452
0.000794852
0.000266277
-0.000273221
-0.000813072
-0.00134343
-0.00189556
-0.00249895
0.00149918
0.000719715
0.000112283
-0.000376179
-0.00080991
-0.00119319
-0.00152952
-0.00182639
-0.00209083
-0.00232891
-0.00254599
-0.00274672
-0.00293498
-0.0031139
-0.0032859
-0.00345269
-0.0036153
-0.00377415
-0.00392909
-0.0040794
-0.00422389
-0.00436092
-0.00448847
-0.00460417
-0.0047054
-0.00478931
-0.00485291
-0.00489314
-0.00490693
-0.00489129
-0.0048434
-0.0047607
-0.00464094
-0.00448232
-0.00428355
-0.00404396
-0.00376356
-0.00344311
-0.0030842
-0.0026893
-0.00226181
-0.00180601
-0.00132715
-0.000831325
-0.000325466
0.000182785
0.000685189
0.00117307
0.00163751
0.00206954
0.00246041
0.00280181
0.00308611
0.00330665
0.0034579
0.00353572
0.00353749
0.00346219
0.00331051
0.00308478
0.00278894
0.00242838
0.00200977
0.00154081
0.00103001
0.000486371
-8.11215e-05
-0.000663528
-0.00124902
-0.00182655
-0.00243036
-0.00309263
0.00105298
0.000248677
-0.000377638
-0.000880967
-0.00132792
-0.00172321
-0.00207074
-0.00237848
-0.00265392
-0.00290352
-0.00313295
-0.00334713
-0.00355013
-0.00374524
-0.00393496
-0.00412105
-0.00430455
-0.00448585
-0.00466471
-0.00484032
-0.00501134
-0.00517597
-0.00533198
-0.00547678
-0.00560746
-0.00572089
-0.00581376
-0.00588263
-0.00592407
-0.00593465
-0.00591113
-0.00585046
-0.00574995
-0.00560729
-0.00542073
-0.00518911
-0.00491197
-0.00458968
-0.00422345
-0.00381546
-0.00336885
-0.00288782
-0.00237759
-0.00184439
-0.0012954
-0.000738707
-0.000183123
0.000361934
0.00088664
0.00138099
0.00183506
0.00223928
0.00258468
0.00286326
0.00306817
0.00319402
0.00323705
0.00319529
0.00306868
0.00285902
0.00257002
0.00220706
0.00177709
0.00128834
0.000750041
0.000172091
-0.000435528
-0.00106281
-0.00169654
-0.00232432
-0.00298366
-0.00370959
0.000522381
-0.000304205
-0.000947527
-0.00146436
-0.0019235
-0.00233005
-0.00268832
-0.00300678
-0.00329332
-0.00355478
-0.00379715
-0.00402558
-0.00424435
-0.00445687
-0.00466573
-0.00487272
-0.0050789
-0.00528461
-0.00548953
-0.00569276
-0.0058928
-0.00608768
-0.00627496
-0.00645181
-0.00661507
-0.00676127
-0.00688677
-0.00698776
-0.00706038
-0.00710079
-0.00710523
-0.00707019
-0.00699242
-0.00686911
-0.00669792
-0.00647716
-0.00620587
-0.00588389
-0.00551198
-0.00509194
-0.00462661
-0.00411997
-0.00357715
-0.00300445
-0.00240928
-0.00180008
-0.00118627
-0.000578007
1.39382e-05
0.000578448
0.00110432
0.00158057
0.00199677
0.00234334
0.00261193
0.00279565
0.00288941
0.00289007
0.00279659
0.00261013
0.00233397
0.00197345
0.00153573
0.00102955
0.000464912
-0.000147312
-0.000796045
-0.0014701
-0.00215471
-0.00283602
-0.00355502
-0.0043499
-9.54876e-05
-0.000941671
-0.00160005
-0.00212899
-0.00259922
-0.00301627
-0.00338484
-0.00371383
-0.00401158
-0.00428526
-0.00454116
-0.00478466
-0.00502022
-0.00525139
-0.00548083
-0.00571037
-0.00594107
-0.00617323
-0.00640645
-0.00663971
-0.00687139
-0.00709933
-0.00732089
-0.00753299
-0.00773218
-0.00791469
-0.00807652
-0.00821346
-0.00832122
-0.00839549
-0.008432
-0.00842669
-0.00837574
-0.00827574
-0.00812374
-0.00791744
-0.00765525
-0.00733643
-0.0069612
-0.00653087
-0.00604787
-0.00551587
-0.00493985
-0.00432606
-0.00368205
-0.00301662
-0.00233971
-0.00166224
-0.000995957
-0.00035315
0.000253604
0.000811785
0.00130929
0.00173481
0.00207821
0.00233091
0.00248619
0.00253949
0.00248859
0.00233375
0.00207771
0.00172558
0.00128468
0.000764244
0.000175071
-0.000470922
-0.00116146
-0.00188406
-0.00262222
-0.00336047
-0.0041436
-0.00501321
-0.000803071
-0.00166607
-0.00233747
-0.00287708
-0.0033573
-0.00378408
-0.00416246
-0.00450182
-0.00481087
-0.00509711
-0.00536713
-0.00562651
-0.00587991
-0.00613097
-0.00638245
-0.00663622
-0.00689332
-0.007154
-0.00741782
-0.00768363
-0.00794967
-0.00821361
-0.00847261
-0.00872333
-0.00896205
-0.00918467
-0.00938682
-0.00956389
-0.00971114
-0.00982373
-0.00989689
-0.00992595
-0.00990646
-0.00983436
-0.00970603
-0.00951845
-0.00926935
-0.00895731
-0.0085819
-0.0081438
-0.00764496
-0.00708863
-0.00647948
-0.00582364
-0.00512873
-0.00440378
-0.00365923
-0.00290674
-0.00215901
-0.00142959
-0.000732491
-8.19136e-05
0.0005082
0.00102458
0.0014551
0.00178915
0.00201814
0.00213577
0.00213837
0.00202505
0.00179775
0.00146123
0.00102286
0.000492301
-0.000118838
-0.00079753
-0.0015302
-0.00230292
-0.00309727
-0.00389601
-0.00474803
-0.0056986
-0.00160238
-0.00247931
-0.00316168
-0.00371047
-0.00419955
-0.00463525
-0.00502298
-0.00537252
-0.00569295
-0.00599209
-0.00627679
-0.00655286
-0.0068251
-0.0070973
-0.00737228
-0.00765193
-0.0079373
-0.00822862
-0.00852536
-0.00882627
-0.00912947
-0.00943245
-0.00973217
-0.010025
-0.0103071
-0.0105738
-0.0108206
-0.0110422
-0.0112337
-0.0113895
-0.0115043
-0.0115729
-0.01159
-0.011551
-0.0114515
-0.0112876
-0.0110564
-0.0107555
-0.0103839
-0.00994139
-0.00942939
-0.00885058
-0.00820922
-0.00751117
-0.00676397
-0.00597684
-0.00516061
-0.00432761
-0.00349153
-0.00266714
-0.00187
-0.0011161
-0.000421383
0.0001987
0.000729728
0.00115882
0.00147515
0.00167035
0.00173897
0.00167863
0.00149026
0.00117801
0.000749149
0.000213697
-0.000415942
-0.00112558
-0.00190023
-0.00272438
-0.0035775
-0.00444034
-0.00536627
-0.00640453
-0.00249498
-0.00338288
-0.00407409
-0.00463057
-0.00512737
-0.00557118
-0.00596775
-0.00632726
-0.00665912
-0.00697148
-0.0072714
-0.00756491
-0.00785698
-0.00815151
-0.00845138
-0.00875854
-0.00907404
-0.00939808
-0.00973005
-0.0100686
-0.0104118
-0.0107569
-0.0111007
-0.0114394
-0.0117686
-0.0120837
-0.0123795
-0.0126505
-0.0128911
-0.0130954
-0.0132573
-0.0133709
-0.0134305
-0.0134304
-0.0133654
-0.0132309
-0.013023
-0.0127386
-0.0123755
-0.0119329
-0.0114114
-0.0108129
-0.0101412
-0.00940166
-0.00860168
-0.00775049
-0.00685921
-0.00594077
-0.00500977
-0.00408224
-0.00317531
-0.00230685
-0.00149499
-0.000757565
-0.000111557
0.000427534
0.000846286
0.00113391
0.00128274
0.0012886
0.00115102
0.000873306
0.000462388
-7.14613e-05
-0.000715086
-0.0014531
-0.00226901
-0.00314554
-0.00405986
-0.00499046
-0.00599557
-0.00712866
-0.0034819
-0.00437779
-0.00507568
-0.00563834
-0.00614169
-0.00659278
-0.00699769
-0.00736693
-0.00771025
-0.00803606
-0.00835168
-0.00866334
-0.00897615
-0.00929411
-0.00962021
-0.00995643
-0.0103038
-0.0106626
-0.0110321
-0.0114108
-0.0117968
-0.0121871
-0.0125783
-0.0129664
-0.0133469
-0.0137146
-0.0140641
-0.0143894
-0.0146844
-0.0149426
-0.0151574
-0.0153221
-0.0154302
-0.0154753
-0.0154513
-0.0153525
-0.0151742
-0.0149122
-0.0145634
-0.0141259
-0.0135995
-0.0129852
-0.012286
-0.0115067
-0.0106545
-0.0097383
-0.00876948
-0.00776141
-0.00672953
-0.00569107
-0.00466475
-0.00367041
-0.00272849
-0.00185943
-0.00108304
-0.000417786
0.000119931
0.000516451
0.000761478
0.000848571
0.000775484
0.000544311
0.000161407
-0.000362898
-0.00101478
-0.00177762
-0.00263335
-0.00356279
-0.0045405
-0.00554251
-0.00663227
-0.00786779
-0.0045637
-0.00546455
-0.00616699
-0.00673429
-0.00724303
-0.00770056
-0.00811325
-0.00849194
-0.00884668
-0.00918614
-0.00951785
-0.00984825
-0.0101826
-0.010525
-0.0108785
-0.0112452
-0.0116262
-0.0120215
-0.0124306
-0.012852
-0.0132834
-0.0137219
-0.0141639
-0.0146051
-0.0150407
-0.0154654
-0.0158732
-0.0162579
-0.0166126
-0.0169305
-0.0172042
-0.0174264
-0.0175896
-0.0176866
-0.0177104
-0.0176544
-0.0175126
-0.0172798
-0.0169518
-0.0165257
-0.0159999
-0.0153746
-0.0146519
-0.013836
-0.0129331
-0.0119522
-0.0109044
-0.00980344
-0.00866555
-0.00750902
-0.00635415
-0.00522277
-0.00413774
-0.00312229
-0.00219935
-0.00139068
-0.000716091
-0.000192581
0.000166422
0.00035171
0.000358781
0.000188095
-0.000154916
-0.000660109
-0.00131311
-0.00209613
-0.00298939
-0.00397166
-0.00501465
-0.00609165
-0.00727169
-0.00861763
-0.0057404
-0.0066432
-0.00734804
-0.00791848
-0.00843144
-0.00889453
-0.00931442
-0.00970223
-0.0100683
-0.0104215
-0.0107695
-0.0111191
-0.0114756
-0.0118433
-0.0122253
-0.0126237
-0.0130396
-0.0134733
-0.013924
-0.0143902
-0.0148696
-0.0153591
-0.015855
-0.0163528
-0.0168476
-0.0173334
-0.0178043
-0.0182533
-0.0186732
-0.0190566
-0.0193954
-0.0196815
-0.0199067
-0.0200628
-0.0201418
-0.020136
-0.0200382
-0.0198421
-0.0195423
-0.0191346
-0.0186161
-0.0179859
-0.0172449
-0.0163964
-0.0154458
-0.0144016
-0.0132746
-0.0120789
-0.0108309
-0.0095501
-0.00825822
-0.00697909
-0.00573804
-0.00456128
-0.00347507
-0.00250484
-0.00167424
-0.0010041
-0.00051154
-0.000209118
-0.000104156
-0.000198339
-0.000487596
-0.000962287
-0.0016077
-0.00240491
-0.00333241
-0.00436675
-0.0054765
-0.0066319
-0.00790796
-0.00937268
-0.00701146
-0.00791327
-0.00861841
-0.0091905
-0.00970652
-0.0101743
-0.0106008
-0.0109973
-0.0113744
-0.0117412
-0.0121058
-0.0124749
-0.012854
-0.0132475
-0.0136587
-0.0140898
-0.0145419
-0.0150154
-0.0155093
-0.0160223
-0.016552
-0.0170951
-0.0176479
-0.0182056
-0.0187631
-0.0193143
-0.0198526
-0.0203709
-0.0208615
-0.0213161
-0.0217262
-0.0220829
-0.0223771
-0.0225996
-0.0227414
-0.0227937
-0.0227481
-0.0225969
-0.0223333
-0.0219518
-0.0214483
-0.0208202
-0.0200673
-0.0191916
-0.0181977
-0.0170931
-0.0158883
-0.014597
-0.0132363
-0.0118262
-0.0103899
-0.00895307
-0.0075436
-0.00619073
-0.0049243
-0.00377372
-0.00276691
-0.00192909
-0.00128167
-0.000841198
-0.000618473
-0.000617944
-0.000837432
-0.00126823
-0.00189555
-0.00269947
-0.00365674
-0.00474153
-0.005919
-0.00715596
-0.00853385
-0.0101261
-0.00837582
-0.0092738
-0.00997721
-0.0105495
-0.0110674
-0.011539
-0.0119713
-0.012376
-0.0127639
-0.0131442
-0.0135251
-0.0139137
-0.0143155
-0.0147352
-0.0151762
-0.0156406
-0.0161298
-0.0166441
-0.0171826
-0.017744
-0.0183259
-0.0189249
-0.0195371
-0.0201578
-0.0207815
-0.0214018
-0.0220119
-0.0226042
-0.0231705
-0.023702
-0.0241895
-0.0246234
-0.0249935
-0.02529
-0.0255024
-0.025621
-0.0256359
-0.0255382
-0.0253196
-0.024973
-0.0244928
-0.0238749
-0.0231177
-0.0222216
-0.02119
-0.0200294
-0.0187496
-0.0173638
-0.0158892
-0.0143463
-0.0127595
-0.0111562
-0.00956677
-0.00802352
-0.00656003
-0.00521
-0.00400603
-0.00297827
-0.00215308
-0.00155172
-0.0011892
-0.00107346
-0.00120488
-0.00157619
-0.00217293
-0.0029744
-0.0039556
-0.00508822
-0.00633368
-0.00765504
-0.00914054
-0.0108693
-0.00983189
-0.0107233
-0.0114231
-0.0119942
-0.0125129
-0.0129873
-0.0134248
-0.0138371
-0.0142351
-0.0146284
-0.0150254
-0.0154332
-0.0158576
-0.0163035
-0.0167742
-0.0172723
-0.017799
-0.0183547
-0.0189388
-0.0195498
-0.0201853
-0.020842
-0.0215159
-0.0222021
-0.0228949
-0.0235878
-0.0242735
-0.0249442
-0.0255911
-0.0262049
-0.0267757
-0.027293
-0.0277461
-0.0281237
-0.0284146
-0.0286077
-0.0286918
-0.0286565
-0.028492
-0.0281896
-0.0277419
-0.0271433
-0.0263902
-0.0254817
-0.0244196
-0.023209
-0.0218586
-0.0203811
-0.0187932
-0.0171158
-0.015374
-0.013597
-0.0118173
-0.0100703
-0.00839346
-0.00682494
-0.00540244
-0.00416158
-0.00313434
-0.00234745
-0.00182099
-0.00156723
-0.00158985
-0.00188374
-0.00243525
-0.00322317
-0.0042209
-0.00539754
-0.00671047
-0.00811863
-0.00971743
-0.0115919
-0.0113776
-0.01226
-0.0129544
-0.013523
-0.0140413
-0.0145176
-0.0149594
-0.0153784
-0.015786
-0.0161916
-0.016604
-0.0170303
-0.0174769
-0.0179484
-0.0184485
-0.0189799
-0.0195441
-0.0201414
-0.0207714
-0.0214327
-0.0221228
-0.0228385
-0.0235757
-0.0243294
-0.0250938
-0.0258621
-0.0266269
-0.0273798
-0.0281116
-0.0288126
-0.0294721
-0.030079
-0.0306215
-0.0310875
-0.0314645
-0.0317402
-0.0319022
-0.0319383
-0.0318373
-0.0315886
-0.0311832
-0.0306135
-0.0298742
-0.0289624
-0.0278782
-0.026625
-0.0252103
-0.0236456
-0.021947
-0.0201353
-0.0182362
-0.0162801
-0.0143014
-0.0123387
-0.0104332
-0.0086277
-0.00696532
-0.00548766
-0.00423298
-0.00323434
-0.00251778
-0.00210086
-0.00199151
-0.00218755
-0.0026768
-0.00343798
-0.00444307
-0.00565856
-0.00703749
-0.00853425
-0.0102519
-0.0122815
-0.0130103
-0.0138815
-0.0145688
-0.0151338
-0.0156507
-0.0161279
-0.016573
-0.0169979
-0.0174139
-0.0178309
-0.0182576
-0.0187015
-0.019169
-0.0196652
-0.0201939
-0.0207579
-0.0213588
-0.0219973
-0.022673
-0.0233845
-0.0241295
-0.0249048
-0.0257063