/*--------------------------------*- C++ -*----------------------------------*\
  =========                 |
  \\      /  F ield         | OpenFOAM: The Open Source CFD Toolbox
   \\    /   O peration     | Website:  https://openfoam.org
    \\  /    A nd           | Version:  dev
     \\/     M anipulation  |
\*---------------------------------------------------------------------------*/
FoamFile
{
    format      ascii;
    class       surfaceScalarField;
    location    "40.95";
    object      phi;
}
// * * * * * * * * * * * * * * * * * * * * * * * * * * * * * * * * * * * * * //

dimensions      [0 3 -1 0 0 0 0];

internalField   nonuniform List<scalar> 
10224
(
3.38506e-08
-3.48502e-08
8.7907e-08
-5.40671e-08
1.24479e-07
-3.65804e-08
1.25456e-07
-9.78483e-10
8.38329e-08
4.16247e-08
-1.66767e-09
8.55008e-08
-1.29217e-07
1.27548e-07
-2.95513e-07
1.66293e-07
-4.9649e-07
2.00976e-07
-7.27847e-07
2.31356e-07
-9.85312e-07
2.57465e-07
-1.26479e-06
2.79481e-07
-1.56245e-06
2.97657e-07
-1.87473e-06
3.12276e-07
-2.19835e-06
3.23622e-07
-2.53032e-06
3.31964e-07
-2.86785e-06
3.37537e-07
-3.2084e-06
3.40544e-07
-3.54954e-06
3.41144e-07
-3.889e-06
3.3946e-07
-4.22458e-06
3.35578e-07
-4.55413e-06
3.2955e-07
-4.87553e-06
3.21401e-07
-5.18666e-06
3.11133e-07
-5.4854e-06
2.98736e-07
-5.76959e-06
2.84187e-07
-6.03705e-06
2.67466e-07
-6.28561e-06
2.48554e-07
-6.51306e-06
2.27448e-07
-6.71722e-06
2.04161e-07
-6.89595e-06
1.78732e-07
-7.04718e-06
1.51228e-07
-7.16893e-06
1.21752e-07
-7.25937e-06
9.04431e-08
-7.31685e-06
5.74818e-08
-7.33994e-06
2.30908e-08
-7.32748e-06
-1.24639e-08
-7.27861e-06
-4.88739e-08
-7.19282e-06
-8.57895e-08
-7.06999e-06
-1.22823e-07
-6.91044e-06
-1.59554e-07
-6.71491e-06
-1.95533e-07
-6.48462e-06
-2.3029e-07
-6.22128e-06
-2.63341e-07
-5.92708e-06
-2.94198e-07
-5.6047e-06
-3.2238e-07
-5.25728e-06
-3.47421e-07
-4.8884e-06
-3.6888e-07
-4.50204e-06
-3.86358e-07
-4.10254e-06
-3.99498e-07
-3.69454e-06
-4.08007e-07
-3.28288e-06
-4.11653e-07
-2.8726e-06
-4.10282e-07
-2.46879e-06
-4.03818e-07
-2.07652e-06
-3.9227e-07
-1.70078e-06
-3.75735e-07
-1.34638e-06
-3.54399e-07
-1.01785e-06
-3.28535e-07
-7.1934e-07
-2.98506e-07
-4.5458e-07
-2.6476e-07
-2.26743e-07
-2.27837e-07
-3.83749e-08
-1.88368e-07
1.08718e-07
-1.47093e-07
2.13598e-07
-1.04881e-07
2.76382e-07
-6.27842e-08
2.98501e-07
-2.21207e-08
2.83138e-07
1.53616e-08
2.35891e-07
4.72447e-08
1.65829e-07
7.00623e-08
8.72506e-08
7.85798e-08
2.2545e-08
6.47088e-08
2.25475e-08
5.39483e-08
-8.88086e-08
1.12503e-07
-1.12632e-07
1.1834e-07
-4.2418e-08
3.9048e-08
7.83163e-08
-1.41789e-07
2.22464e-07
-4.295e-07
3.73212e-07
-8.22324e-07
5.2037e-07
-1.31411e-06
6.58079e-07
-1.8963e-06
7.83159e-07
-2.55906e-06
8.94122e-07
-3.29213e-06
9.90535e-07
-4.08525e-06
1.0726e-06
-4.9285e-06
1.1409e-06
-5.81243e-06
1.19621e-06
-6.72816e-06
1.23934e-06
-7.66734e-06
1.27115e-06
-8.62217e-06
1.29237e-06
-9.58531e-06
1.30368e-06
-1.05498e-05
1.30563e-06
-1.1509e-05
1.29864e-06
-1.24564e-05
1.28302e-06
-1.33859e-05
1.25899e-06
-1.42911e-05
1.22666e-06
-1.5166e-05
1.18607e-06
-1.60045e-05
1.13724e-06
-1.68005e-05
1.08013e-06
-1.75477e-05
1.01471e-06
-1.82402e-05
9.40996e-07
-1.88717e-05
8.59022e-07
-1.94365e-05
7.68904e-07
-1.99286e-05
6.70845e-07
-2.03425e-05
5.65158e-07
-2.06731e-05
4.52274e-07
-2.09154e-05
3.32764e-07
-2.10652e-05
2.07343e-07
-2.1119e-05
7.68741e-08
-2.10739e-05
-5.76256e-08
-2.09277e-05
-1.94991e-07
-2.06796e-05
-3.33914e-07
-2.03295e-05
-4.72955e-07
-1.98785e-05
-6.10563e-07
-1.93289e-05
-7.4509e-07
-1.86844e-05
-8.7482e-07
-1.79497e-05
-9.97996e-07
-1.71311e-05
-1.11285e-06
-1.62358e-05
-1.21765e-06
-1.52725e-05
-1.31072e-06
-1.42509e-05
-1.39048e-06
-1.31818e-05
-1.45549e-06
-1.20768e-05
-1.5045e-06
-1.09483e-05
-1.53646e-06
-9.80943e-06
-1.55055e-06
-8.67348e-06
-1.54623e-06
-7.55404e-06
-1.52326e-06
-6.46462e-06
-1.48169e-06
-5.41845e-06
-1.4219e-06
-4.42825e-06
-1.3446e-06
-3.50596e-06
-1.25082e-06
-2.66254e-06
-1.14193e-06
-1.90768e-06
-1.01963e-06
-1.24955e-06
-8.85966e-07
-6.94552e-07
-7.43363e-07
-2.46997e-07
-5.94648e-07
9.12751e-08
-4.43154e-07
3.21346e-07
-2.92857e-07
4.47818e-07
-1.48594e-07
4.79694e-07
-1.65162e-08
4.31462e-07
9.5476e-08
3.24575e-07
1.76948e-07
1.89062e-07
2.1409e-07
6.43991e-08
1.89367e-07
8.69488e-08
3.73755e-08
-1.26193e-07
4.33921e-08
-1.1865e-07
-4.31857e-08
4.41631e-08
-2.58656e-07
2.93789e-07
-6.22645e-07
5.86455e-07
-1.14228e-06
8.92843e-07
-1.81582e-06
1.19391e-06
-2.63561e-06
1.47787e-06
-3.59028e-06
1.73783e-06
-4.66631e-06
1.97015e-06
-5.84911e-06
2.17334e-06
-7.1238e-06
2.34729e-06
-8.47567e-06
2.49277e-06
-9.89046e-06
2.61099e-06
-1.13545e-05
2.70343e-06
-1.2855e-05
2.77158e-06
-1.43795e-05
2.81687e-06
-1.59164e-05
2.84058e-06
-1.74545e-05
2.84377e-06
-1.89832e-05
2.82731e-06
-2.0492e-05
2.79183e-06
-2.19708e-05
2.7378e-06
-2.34096e-05
2.66549e-06
-2.47986e-05
2.57505e-06
-2.61279e-05
2.46654e-06
-2.73878e-05
2.33999e-06
-2.85685e-05
2.19542e-06
-2.96604e-05
2.03292e-06
-3.06541e-05
1.85269e-06
-3.15402e-05
1.65506e-06
-3.23099e-05
1.44055e-06
-3.29547e-05
1.20991e-06
-3.34666e-05
9.64164e-07
-3.38384e-05
7.04586e-07
-3.40638e-05
4.32766e-07
-3.41376e-05
1.50599e-07
-3.40555e-05
-1.3971e-07
-3.38148e-05
-4.35653e-07
-3.34143e-05
-7.34433e-07
-3.28543e-05
-1.03299e-06
-3.21368e-05
-1.32805e-06
-3.12657e-05
-1.61613e-06
-3.02469e-05
-1.89362e-06
-2.90881e-05
-2.15687e-06
-2.77988e-05
-2.40216e-06
-2.63905e-05
-2.6259e-06
-2.48766e-05
-2.82458e-06
-2.32722e-05
-2.99496e-06
-2.15936e-05
-3.13405e-06
-1.98589e-05
-3.23924e-06
-1.80869e-05
-3.30839e-06
-1.62977e-05
-3.33981e-06
-1.45115e-05
-3.33242e-06
-1.2749e-05
-3.28572e-06
-1.10309e-05
-3.19986e-06
-9.3771e-06
-3.07567e-06
-7.80702e-06
-2.91468e-06
-6.33875e-06
-2.71909e-06
-4.98883e-06
-2.49185e-06
-3.77186e-06
-2.2366e-06
-2.70008e-06
-1.95775e-06
-1.78296e-06
-1.66049e-06
-1.02672e-06
-1.35088e-06
-4.33843e-07
-1.03603e-06
-2.40805e-09
-7.24293e-07
2.74675e-07
-4.25678e-07
4.10477e-07
-1.52318e-07
4.25251e-07
8.07018e-08
3.47644e-07
2.54557e-07
2.15876e-07
3.4586e-07
7.8682e-08
3.26559e-07
1.65631e-07
1.93053e-09
-1.28125e-07
-7.89075e-08
-3.78101e-08
-2.97619e-07
2.62877e-07
-6.87949e-07
6.84122e-07
-1.26823e-06
1.16673e-06
-2.04474e-06
1.66935e-06
-3.01469e-06
2.16385e-06
-4.16882e-06
2.632e-06
-5.49352e-06
3.06254e-06
-6.97248e-06
3.4491e-06
-8.58783e-06
3.78869e-06
-1.03211e-05
4.08056e-06
-1.21538e-05
4.32543e-06
-1.40676e-05
4.52487e-06
-1.60452e-05
4.68094e-06
-1.80694e-05
4.79582e-06
-2.01242e-05
4.87164e-06
-2.21939e-05
4.91035e-06
-2.42638e-05
4.91363e-06
-2.63193e-05
4.88284e-06
-2.83465e-05
4.81901e-06
-3.03316e-05
4.72292e-06
-3.22612e-05
4.59505e-06
-3.41219e-05
4.43574e-06
-3.59005e-05
4.24516e-06
-3.75839e-05
4.02345e-06
-3.91593e-05
3.77078e-06
-4.06138e-05
3.48743e-06
-4.1935e-05
3.17383e-06
-4.31106e-05
2.8307e-06
-4.41291e-05
2.45906e-06
-4.49795e-05
2.0603e-06
-4.56516e-05
1.63624e-06
-4.61361e-05
1.18917e-06
-4.64252e-05
7.21861e-07
-4.65122e-05
2.37603e-07
-4.63921e-05
-2.59824e-07
-4.60616e-05
-7.6614e-07
-4.55195e-05
-1.2766e-06
-4.47664e-05
-1.78605e-06
-4.38055e-05
-2.28896e-06
-4.26421e-05
-2.7795e-06
-4.12841e-05
-3.25166e-06
-3.97417e-05
-3.69931e-06
-3.80275e-05
-4.1163e-06
-3.61568e-05
-4.49664e-06
-3.41468e-05
-4.83453e-06
-3.20172e-05
-5.12458e-06
-2.97894e-05
-5.36186e-06
-2.74866e-05
-5.54208e-06
-2.51333e-05
-5.66166e-06
-2.27552e-05
-5.71788e-06
-2.03787e-05
-5.70892e-06
-1.80304e-05
-5.63401e-06
-1.57369e-05
-5.49344e-06
-1.35239e-05
-5.28861e-06
-1.14165e-05
-5.02212e-06
-9.43786e-06
-4.69772e-06
-7.60933e-06
-4.32038e-06
-5.94964e-06
-3.89629e-06
-4.47449e-06
-3.4329e-06
-3.196e-06
-2.93898e-06
-2.12212e-06
-2.42476e-06
-1.25606e-06
-1.9021e-06
-5.95538e-07
-1.38481e-06
-1.32127e-07
-8.89088e-07
1.49691e-07
-4.34137e-07
2.73394e-07
-4.30023e-08
2.71462e-07
2.56487e-07
1.86418e-07
4.30904e-07
7.22546e-08
4.40721e-07
2.37885e-07
-4.20431e-08
-8.608e-08
-2.30035e-07
1.50183e-07
-6.06618e-07
6.39462e-07
-1.1984e-06
1.2759e-06
-2.01913e-06
1.98746e-06
-3.07199e-06
2.72221e-06
-4.35179e-06
3.44365e-06
-5.8471e-06
4.12731e-06
-7.54205e-06
4.75749e-06
-9.41784e-06
5.32489e-06
-1.14539e-05
5.82475e-06
-1.36288e-05
6.25546e-06
-1.59209e-05
6.61753e-06
-1.83088e-05
6.91275e-06
-2.07715e-05
7.14367e-06
-2.32888e-05
7.31312e-06
-2.58411e-05
7.42394e-06
-2.84095e-05
7.47874e-06
-3.09757e-05
7.47982e-06
-3.35219e-05
7.42908e-06
-3.60309e-05
7.32801e-06
-3.84857e-05
7.17771e-06
-4.08696e-05
6.97897e-06
-4.31662e-05
6.73232e-06
-4.53592e-05
6.43814e-06
-4.74325e-05
6.09676e-06
-4.93703e-05
5.70857e-06
-5.1157e-05
5.27414e-06
-5.27775e-05
4.79429e-06
-5.4217e-05
4.27025e-06
-5.54617e-05
3.70371e-06
-5.64983e-05
3.09692e-06
-5.73148e-05
2.45273e-06
-5.79003e-05
1.77471e-06
-5.82456e-05
1.06709e-06
-5.83428e-05
3.34877e-07
-5.81864e-05
-4.16228e-07
-5.77728e-05
-1.1798e-06
-5.71006e-05
-1.94876e-06
-5.61712e-05
-2.71542e-06
-5.49886e-05
-3.47158e-06
-5.35595e-05
-4.20865e-06
-5.18934e-05
-4.91772e-06
-5.00029e-05
-5.58978e-06
-4.79034e-05
-6.2158e-06
-4.56131e-05
-6.78696e-06
-4.31529e-05
-7.29479e-06
-4.05461e-05
-7.73135e-06
-3.78185e-05
-8.08946e-06
-3.49978e-05
-8.36281e-06
-3.21132e-05
-8.54618e-06
-2.91955e-05
-8.63558e-06
-2.62761e-05
-8.62839e-06
-2.33866e-05
-8.52347e-06
-2.05588e-05
-8.32127e-06
-1.78235e-05
-8.02391e-06
-1.52104e-05
-7.63521e-06
-1.27474e-05
-7.16078e-06
-1.04598e-05
-6.60798e-06
-8.37004e-06
-5.98601e-06
-6.497e-06
-5.30594e-06
-4.85522e-06
-4.58076e-06
-3.45444e-06
-3.82554e-06
-2.29887e-06
-3.05767e-06
-1.38655e-06
-2.29713e-06
-7.08618e-07
-1.56702e-06
-2.48595e-07
-8.94159e-07
1.83901e-08
-3.09987e-07
1.26408e-07
1.48468e-07
1.19625e-07
4.37685e-07
5.37e-08
5.06645e-07
2.91584e-07
-8.94444e-08
3.36473e-09
-3.95406e-07
4.56144e-07
-9.45289e-07
1.18934e-06
-1.75569e-06
2.0863e-06
-2.83342e-06
3.06519e-06
-4.17671e-06
4.0655e-06
-5.77673e-06
5.04367e-06
-7.61907e-06
5.96966e-06
-9.68527e-06
6.82369e-06
-1.1954e-05
7.59364e-06
-1.44023e-05
8.27299e-06
-1.7006e-05
8.85919e-06
-1.97409e-05
9.35242e-06
-2.25828e-05
9.75464e-06
-2.55079e-05
1.00688e-05
-2.84931e-05
1.02983e-05
-3.15158e-05
1.04466e-05
-3.45541e-05
1.05171e-05
-3.7587e-05
1.05126e-05
-4.05935e-05
1.04356e-05
-4.35536e-05
1.02881e-05
-4.64473e-05
1.00714e-05
-4.92551e-05
9.78675e-06
-5.19577e-05
9.43492e-06
-5.4536e-05
9.01652e-06
-5.69714e-05
8.53217e-06
-5.92454e-05
7.98256e-06
-6.13399e-05
7.36865e-06
-6.32375e-05
6.6918e-06
-6.49211e-05
5.95389e-06
-6.63748e-05
5.15744e-06
-6.75836e-05
4.30573e-06
-6.85338e-05
3.4029e-06
-6.92131e-05
2.45399e-06
-6.9611e-05
1.46498e-06
-6.97189e-05
4.4285e-07
-6.95307e-05
-6.04455e-07
-6.90425e-05
-1.66805e-06
-6.8253e-05
-2.73818e-06
-6.71642e-05
-3.80429e-06
-6.57806e-05
-4.85514e-06
-6.41103e-05
-5.87898e-06
-6.21643e-05
-6.86368e-06
-5.99571e-05
-7.79694e-06
-5.75065e-05
-8.66649e-06
-5.48331e-05
-9.46032e-06
-5.19609e-05
-1.01669e-05
-4.89167e-05
-1.07756e-05
-4.57298e-05
-1.12764e-05
-4.24316e-05
-1.1661e-05
-3.90557e-05
-1.19221e-05
-3.56369e-05
-1.20544e-05
-3.22111e-05
-1.20542e-05
-2.88145e-05
-1.19201e-05
-2.54831e-05
-1.16526e-05
-2.22524e-05
-1.12546e-05
-1.91562e-05
-1.07314e-05
-1.62264e-05
-1.00905e-05
-1.34923e-05
-9.34213e-06
-1.09795e-05
-8.49873e-06
-8.71003e-06
-7.57544e-06
-6.70081e-06
-6.58998e-06
-4.96355e-06
-5.5628e-06
-3.50392e-06
-4.5173e-06
-2.32087e-06
-3.48019e-06
-1.40601e-06
-2.48187e-06
-7.43045e-07
-1.55713e-06
-3.071e-07
-7.45932e-07
-6.41888e-08
-9.4445e-08
2.94654e-08
3.44029e-07
2.83484e-08
5.07759e-07
3.19932e-07
-1.37669e-07
1.41032e-07
-5.66441e-07
8.84914e-07
-1.2978e-06
1.92069e-06
-2.33683e-06
3.12533e-06
-3.68186e-06
4.41021e-06
-5.32481e-06
5.70845e-06
-7.25208e-06
6.97093e-06
-9.44554e-06
8.16312e-06
-1.18836e-05
9.26178e-06
-1.45424e-05
1.02524e-05
-1.73962e-05
1.11268e-05
-2.04186e-05
1.18816e-05
-2.3583e-05
1.25168e-05
-2.68628e-05
1.30344e-05
-3.02316e-05
1.34376e-05
-3.36639e-05
1.37306e-05
-3.71345e-05
1.39173e-05
-4.06191e-05
1.40017e-05
-4.40937e-05
1.39873e-05
-4.75352e-05
1.38771e-05
-5.09207e-05
1.36735e-05
-5.42277e-05
1.33784e-05
-5.74341e-05
1.29932e-05
-6.05182e-05
1.2519e-05
-6.34584e-05
1.19567e-05
-6.62335e-05
1.13073e-05
-6.88229e-05
1.0572e-05
-7.12063e-05
9.75203e-06
-7.3364e-05
8.84951e-06
-7.52772e-05
7.8671e-06
-7.69281e-05
6.80829e-06
-7.83e-05
5.6776e-06
-7.93777e-05
4.48059e-06
-8.01477e-05
3.22401e-06
-8.05985e-05
1.91581e-06
-8.07209e-05
5.65192e-07
-8.05079e-05
-8.17411e-07
-7.99556e-05
-2.22038e-06
-7.90628e-05
-3.63099e-06
-7.78315e-05
-5.03552e-06
-7.62673e-05
-6.4194e-06
-7.43789e-05
-7.7674e-06
-7.21787e-05
-9.06384e-06
-6.96828e-05
-1.02928e-05
-6.69108e-05
-1.14385e-05
-6.38857e-05
-1.24854e-05
-6.0634e-05
-1.34187e-05
-5.71852e-05
-1.42244e-05
-5.35716e-05
-1.48899e-05
-4.98283e-05
-1.54043e-05
-4.59922e-05
-1.57582e-05
-4.2102e-05
-1.59446e-05
-3.81973e-05
-1.59589e-05
-3.43184e-05
-1.5799e-05
-3.05054e-05
-1.54656e-05
-2.67977e-05
-1.49624e-05
-2.32331e-05
-1.4296e-05
-1.98474e-05
-1.34763e-05
-1.66731e-05
-1.25163e-05
-1.37396e-05
-1.14322e-05
-1.10716e-05
-1.02435e-05
-8.68875e-06
-8.97283e-06
-6.60504e-06
-7.64651e-06
-4.82797e-06
-6.29437e-06
-3.35806e-06
-4.9501e-06
-2.18817e-06
-3.65175e-06
-1.30311e-06
-2.44219e-06
-6.79117e-07
-1.36993e-06
-2.83537e-07
-4.90026e-07
-7.44937e-08
1.34984e-07
-5.52027e-10
4.33815e-07
3.19379e-07
-1.85469e-07
3.26498e-07
-7.38246e-07
1.43769e-06
-1.65435e-06
2.8368e-06
-2.9268e-06
4.39778e-06
-4.54451e-06
6.02793e-06
-6.49217e-06
7.6561e-06
-8.75054e-06
9.2293e-06
-1.12971e-05
1.07097e-05
-1.41067e-05
1.20714e-05
-1.71524e-05
1.32981e-05
-2.0406e-05
1.43804e-05
-2.38387e-05
1.53143e-05
-2.74215e-05
1.60996e-05
-3.11257e-05
1.67385e-05
-3.49227e-05
1.72347e-05
-3.87848e-05
1.75926e-05
-4.26846e-05
1.78171e-05
-4.65955e-05
1.79126e-05
-5.04915e-05
1.78832e-05
-5.43468e-05
1.77325e-05
-5.81364e-05
1.74632e-05
-6.18357e-05
1.70776e-05
-6.54202e-05
1.65777e-05
-6.88659e-05
1.59647e-05
-7.21492e-05
1.524e-05
-7.52467e-05
1.44049e-05
-7.81357e-05
1.3461e-05
-8.07939e-05
1.24102e-05
-8.31998e-05
1.12554e-05
-8.53329e-05
1.00001e-05
-8.71736e-05
8.649e-06
-8.87038e-05
7.20784e-06
-8.99071e-05
5.68386e-06
-9.07687e-05
4.08567e-06
-9.12763e-05
2.42338e-06
-9.14198e-05
7.08627e-07
-9.11917e-05
-1.04547e-06
-9.05878e-05
-2.82432e-06
-8.96067e-05
-4.612e-06
-8.82509e-05
-6.39138e-06
-8.6526e-05
-8.14428e-06
-8.44417e-05
-9.85175e-06
-8.20113e-05
-1.14943e-05
-7.9252e-05
-1.3052e-05
-7.61851e-05
-1.45054e-05
-7.28355e-05
-1.58351e-05
-6.92315e-05
-1.70226e-05
-6.54053e-05
-1.80507e-05
-6.13917e-05
-1.89035e-05
-5.72288e-05
-1.95672e-05
-5.29565e-05
-2.00304e-05
-4.86169e-05
-2.02842e-05
-4.42533e-05
-2.03225e-05
-3.99095e-05
-2.01428e-05
-3.56294e-05
-1.97457e-05
-3.14561e-05
-1.91357e-05
-2.74312e-05
-1.83209e-05
-2.35941e-05
-1.73134e-05
-1.99812e-05
-1.61293e-05
-1.66249e-05
-1.47885e-05
-1.35532e-05
-1.33152e-05
-1.07886e-05
-1.17374e-05
-8.34777e-06
-1.00873e-05
-6.24055e-06
-8.40159e-06
-4.46953e-06
-6.72112e-06
-3.02956e-06
-5.09172e-06
-1.90731e-06
-3.56445e-06
-1.08099e-06
-2.19625e-06
-5.20214e-07
-1.0508e-06
-1.86016e-07
-1.99215e-07
-3.10437e-08
2.78841e-07
2.88336e-07
-2.32202e-07
5.58698e-07
-9.0806e-07
2.11355e-06
-2.00897e-06
3.9377e-06
-3.51586e-06
5.90467e-06
-5.40786e-06
7.91993e-06
-7.66181e-06
9.91005e-06
-1.02523e-05
1.18198e-05
-1.31517e-05
1.36091e-05
-1.63311e-05
1.52508e-05
-1.97602e-05
1.67271e-05
-2.3408e-05
1.80282e-05
-2.72432e-05
1.91496e-05
-3.12348e-05
2.00912e-05
-3.53519e-05
2.08555e-05
-3.95639e-05
2.14467e-05
-4.38412e-05
2.18699e-05
-4.81545e-05
2.21304e-05
-5.24751e-05
2.22333e-05
-5.67751e-05
2.21832e-05
-6.10268e-05
2.19842e-05
-6.52033e-05
2.16396e-05
-6.92777e-05
2.11521e-05
-7.32238e-05
2.05238e-05
-7.70156e-05
1.97565e-05
-8.06275e-05
1.88519e-05
-8.40343e-05
1.78117e-05
-8.72114e-05
1.66381e-05
-9.01348e-05
1.53336e-05
-9.27813e-05
1.3902e-05
-9.51288e-05
1.23476e-05
-9.71563e-05
1.06765e-05
-9.88443e-05
8.89584e-06
-0.000100175
7.01462e-06
-0.000101133
5.04347e-06
-0.000101704
2.99478e-06
-0.000101878
8.82773e-07
-0.000101647
-1.27655e-06
-0.000101006
-3.46545e-06
-9.99535e-05
-5.66463e-06
-9.84916e-05
-7.85332e-06
-9.66263e-05
-1.00095e-05
-9.43677e-05
-1.21103e-05
-9.17298e-05
-1.41322e-05
-8.87308e-05
-1.60511e-05
-8.53929e-05
-1.78433e-05
-8.17425e-05
-1.94855e-05
-7.78098e-05
-2.09553e-05
-7.36288e-05
-2.22317e-05
-6.92368e-05
-2.32955e-05
-6.46742e-05
-2.41298e-05
-5.9984e-05
-2.47207e-05
-5.52111e-05
-2.50571e-05
-5.04021e-05
-2.51315e-05
-4.56044e-05
-2.49405e-05
-4.08654e-05
-2.44847e-05
-3.62318e-05
-2.37692e-05
-3.17491e-05
-2.28036e-05
-2.74604e-05
-2.16022e-05
-2.34056e-05
-2.01841e-05
-1.96208e-05
-1.85733e-05
-1.61374e-05
-1.67986e-05
-1.29811e-05
-1.48936e-05
-1.01716e-05
-1.28968e-05
-7.72158e-06
-1.08516e-05
-5.63631e-06
-8.80638e-06
-3.91319e-06
-6.81484e-06
-2.5414e-06
-4.93624e-06
-1.5018e-06
-3.23586e-06
-7.66918e-07
-1.78568e-06
-3.01285e-07
-6.64847e-07
-6.20239e-08
3.95795e-08
2.26312e-07
-2.77588e-07
8.36286e-07
-1.07435e-06
2.91031e-06
-2.35799e-06
5.22135e-06
-4.09769e-06
7.64438e-06
-6.26271e-06
1.00849e-05
-8.82175e-06
1.24691e-05
-1.17428e-05
1.47408e-05
-1.4993e-05
1.68593e-05
-1.8539e-05
1.87967e-05
-2.23469e-05
2.05351e-05
-2.63829e-05
2.20642e-05
-3.06133e-05
2.338e-05
-3.50048e-05
2.44827e-05
-3.95244e-05
2.53751e-05
-4.41399e-05
2.60623e-05
-4.88198e-05
2.65498e-05
-5.35331e-05
2.68437e-05
-5.82495e-05
2.69496e-05
-6.29392e-05
2.68729e-05
-6.75729e-05
2.6618e-05
-7.2122e-05
2.61887e-05
-7.65579e-05
2.5588e-05
-8.08526e-05
2.48185e-05
-8.49785e-05
2.38824e-05
-8.89083e-05
2.27816e-05
-9.26152e-05
2.15185e-05
-9.60728e-05
2.00957e-05
-9.92557e-05
1.85165e-05
-0.000102139
1.67854e-05
-0.0001047
1.4908e-05
-0.000106915
1.28915e-05
-0.000108763
1.07447e-05
-0.000110227
8.47831e-06
-0.000111289
6.1052e-06
-0.000111934
3.64011e-06
-0.000112151
1.09998e-06
-0.000111932
-1.49618e-06
-0.00011127
-4.12739e-06
-0.000110164
-6.77076e-06
-0.000108615
-9.40175e-06
-0.00010663
-1.19944e-05
-0.000104219
-1.45216e-05
-0.000101396
-1.69554e-05
-9.81793e-05
-1.92676e-05
-9.45925e-05
-2.14301e-05
-9.06629e-05
-2.34151e-05
-8.6422e-05
-2.51961e-05
-8.19055e-05
-2.67482e-05
-7.71527e-05
-2.80483e-05
-7.22061e-05
-2.90764e-05
-6.71113e-05
-2.98155e-05
-6.19162e-05
-3.02522e-05
-5.66703e-05
-3.03774e-05
-5.14244e-05
-3.01864e-05
-4.62295e-05
-2.96797e-05
-4.1136e-05
-2.88627e-05
-3.61932e-05
-2.77464e-05
-3.1448e-05
-2.63474e-05
-2.69443e-05
-2.46878e-05
-2.27219e-05
-2.27956e-05
-1.88161e-05
-2.07045e-05
-1.52562e-05
-1.84536e-05
-1.20653e-05
-1.60877e-05
-9.25945e-06
-1.36574e-05
-6.84714e-06
-1.12187e-05
-4.82885e-06
-8.83314e-06
-3.19682e-06
-6.56826e-06
-1.93505e-06
-4.49763e-06
-1.01941e-06
-2.70132e-06
-4.18185e-07
-1.26607e-06
-9.29384e-08
-2.85666e-07
1.33374e-07
-3.21514e-07
1.1578e-06
-1.23625e-06
3.82504e-06
-2.69918e-06
6.68428e-06
-4.66818e-06
9.61338e-06
-7.10277e-06
1.25195e-05
-9.96349e-06
1.53298e-05
-1.32115e-05
1.79888e-05
-1.68084e-05
2.04562e-05
-2.07162e-05
2.27046e-05
-2.48975e-05
2.47163e-05
-2.93153e-05
2.6482e-05
-3.39333e-05
2.79981e-05
-3.8716e-05
2.92654e-05
-4.36286e-05
3.02878e-05
-4.86372e-05
3.10709e-05
-5.37085e-05
3.16211e-05
-5.88101e-05
3.19453e-05
-6.39102e-05
3.20497e-05
-6.89776e-05
3.19403e-05
-7.39815e-05
3.16219e-05
-7.88916e-05
3.10988e-05
-8.36782e-05
3.03746e-05
-8.83117e-05
2.9452e-05
-9.27629e-05
2.83336e-05
-9.70031e-05
2.70219e-05
-0.000101004
2.55195e-05
-0.000104738
2.38297e-05
-0.000108178
2.19567e-05
-0.000111298
1.99056e-05
-0.000114074
1.76832e-05
-0.00011648
1.52981e-05
-0.000118496
1.27607e-05
-0.000120101
1.00836e-05
-0.000121278
7.28168e-06
-0.00012201
4.37233e-06
-0.000122285
1.3752e-06
-0.000122094
-1.68762e-06
-0.00012143
-4.79175e-06
-0.00012029
-7.91065e-06
-0.000118675
-1.10159e-05
-0.000116593
-1.40773e-05
-0.000114051
-1.70634e-05
-0.000111064
-1.9942e-05
-0.000107652
-2.268e-05
-0.000103837
-2.52448e-05
-9.96482e-05
-2.7604e-05
-9.51177e-05
-2.97266e-05
-9.02825e-05
-3.15834e-05
-8.51834e-05
-3.31473e-05
-7.98652e-05
-3.43946e-05
-7.43757e-05
-3.5305e-05
-6.87655e-05
-3.58624e-05
-6.30871e-05
-3.60557e-05
-5.73946e-05
-3.58789e-05
-5.17426e-05
-3.53317e-05
-4.61853e-05
-3.44199e-05
-4.0776e-05
-3.31557e-05
-3.55657e-05
-3.15577e-05
-3.06025e-05
-2.9651e-05
-2.59305e-05
-2.74676e-05
-2.15889e-05
-2.5046e-05
-1.76114e-05
-2.24311e-05
-1.40249e-05
-1.96742e-05
-1.08494e-05
-1.6833e-05
-8.09694e-06
-1.39711e-05
-5.7717e-06
-1.11584e-05
-3.86942e-06
-8.47054e-06
-2.37759e-06
-5.98946e-06
-1.27569e-06
-3.80322e-06
-5.35787e-07
-2.00597e-06
-1.23584e-07
-6.97866e-07
9.79047e-09
-3.63939e-07
1.52174e-06
-1.39329e-06
4.8544e-06
-3.03113e-06
8.32212e-06
-5.22456e-06
1.18068e-05
-7.92364e-06
1.52186e-05
-1.10808e-05
1.8487e-05
-1.46504e-05
2.15583e-05
-1.85883e-05
2.43941e-05
-2.28518e-05
2.69682e-05
-2.73998e-05
2.92643e-05
-3.21921e-05
3.12742e-05
-3.71897e-05
3.29957e-05
-4.23551e-05
3.44307e-05
-4.76515e-05
3.55842e-05
-5.30433e-05
3.64627e-05
-5.84959e-05
3.70737e-05
-6.39755e-05
3.74248e-05
-6.94488e-05
3.75231e-05
-7.48835e-05
3.7375e-05
-8.02476e-05
3.6986e-05
-8.55096e-05
3.63608e-05
-9.06383e-05
3.55033e-05
-9.5603e-05
3.44167e-05
-0.000100373
3.31039e-05
-0.000104919
3.15678e-05
-0.000109211
2.98115e-05
-0.000113221
2.78389e-05
-0.000116919
2.56547e-05
-0.000120278
2.32652e-05
-0.000123273
2.06781e-05
-0.000125878
1.79034e-05
-0.000128071
1.49532e-05
-0.000129829
1.18418e-05
-0.000131134
8.5865e-06
-0.000131969
5.20699e-06
-0.000132319
1.7258e-06
-0.000132175
-1.83186e-06
-0.000131529
-5.43817e-06
-0.000130376
-9.06286e-06
-0.000128719
-1.26735e-05
-0.000126561
-1.62356e-05
-0.000123911
-1.97132e-05
-0.000120783
-2.30694e-05
-0.000117197
-2.62665e-05
-0.000113175
-2.92667e-05
-0.000108746
-3.20331e-05
-0.000103943
-3.45296e-05
-9.8804e-05
-3.67223e-05
-9.33715e-05
-3.85799e-05
-8.76917e-05
-4.00744e-05
-8.18146e-05
-4.1182e-05
-7.57934e-05
-4.18836e-05
-6.96837e-05
-4.21654e-05
-6.35428e-05
-4.20198e-05
-5.7429e-05
-4.14455e-05
-5.14006e-05
-4.04484e-05
-4.55149e-05
-3.90413e-05
-3.98276e-05
-3.7245e-05
-3.43913e-05
-3.50874e-05
-2.92547e-05
-3.26043e-05
-2.44617e-05
-2.9839e-05
-2.00504e-05
-2.68424e-05
-1.60524e-05
-2.36722e-05
-1.2492e-05
-2.03934e-05
-9.38552e-06
-1.70776e-05
-6.74111e-06
-1.38028e-05
-4.55844e-06
-1.06532e-05
-2.8288e-06
-7.7191e-06
-1.53539e-06
-5.09663e-06
-6.53983e-07
-2.88737e-06
-1.53987e-07
-1.19786e-06
-1.44197e-07
-4.04848e-07
1.92659e-06
-1.54518e-06
5.99473e-06
-3.35289e-06
1.01298e-05
-5.76487e-06
1.42188e-05
-8.72208e-06
1.81758e-05
-1.2169e-05
2.19339e-05
-1.60532e-05
2.54425e-05
-2.0325e-05
2.86659e-05
-2.49369e-05
3.15801e-05
-2.98438e-05
3.41712e-05
-3.50023e-05
3.64328e-05
-4.03711e-05
3.83645e-05
-4.59102e-05
3.99698e-05
-5.15811e-05
4.12551e-05
-5.73468e-05
4.22283e-05
-6.31711e-05
4.2898e-05
-6.9019e-05
4.32727e-05
-7.48563e-05
4.33604e-05
-8.06494e-05
4.3168e-05
-8.63652e-05
4.27019e-05
-9.19714e-05
4.19669e-05
-9.74356e-05
4.09675e-05
-0.000102726
3.97073e-05
-0.000107812
3.81894e-05
-0.000112661
3.6417e-05
-0.000117243
3.43939e-05
-0.000121529
3.21243e-05
-0.000125488
2.96139e-05
-0.000129092
2.68695e-05
-0.000132314
2.39002e-05
-0.000135128
2.07172e-05
-0.000137509
1.7334e-05
-0.000139434
1.37671e-05
-0.000140884
1.00357e-05
-0.000141839
6.16201e-06
-0.000142284
2.1714e-06
-0.000142208
-1.9078e-06
-0.000141602
-6.04433e-06
-0.000140461
-1.02041e-05
-0.000138784
-1.43507e-05
-0.000136574
-1.84452e-05
-0.00013384
-2.24471e-05
-0.000130595
-2.63146e-05
-0.000126856
-3.00049e-05
-0.000122648
-3.34752e-05
-0.000117998
-3.66833e-05
-0.000112939
-3.9588e-05
-0.000107511
-4.21504e-05
-0.000101757
-4.43343e-05
-9.57238e-05
-4.61073e-05
-8.94646e-05
-4.74413e-05
-8.30347e-05
-4.83136e-05
-7.64925e-05
-4.87076e-05
-6.98989e-05
-4.86134e-05
-6.3316e-05
-4.80285e-05
-5.68062e-05
-4.69581e-05
-5.04317e-05
-4.54159e-05
-4.42526e-05
-4.3424e-05
-3.83267e-05
-4.10133e-05
-3.27078e-05
-3.82231e-05
-2.74451e-05
-3.51018e-05
-2.25818e-05
-3.17057e-05
-1.81545e-05
-2.80995e-05
-1.41924e-05
-2.43555e-05
-1.07165e-05
-2.05534e-05
-7.73967e-06
-1.67797e-05
-5.26569e-06
-1.31272e-05
-3.28992e-06
-9.69488e-06
-1.79933e-06
-6.58722e-06
-7.73242e-07
-3.91346e-06
-1.84324e-07
-1.78678e-06
-3.28521e-07
-4.44231e-07
2.37082e-06
-1.69168e-06
7.24218e-06
-3.66376e-06
1.21019e-05
-6.28763e-06
1.68427e-05
-9.49556e-06
2.13837e-05
-1.32244e-05
2.56627e-05
-1.7415e-05
2.96332e-05
-2.20121e-05
3.3263e-05
-2.69637e-05
3.65317e-05
-3.22206e-05
3.94281e-05
-3.77364e-05
4.19487e-05
-4.34671e-05
4.40951e-05
-4.93705e-05
4.58732e-05
-5.54065e-05
4.72911e-05
-6.15365e-05
4.83583e-05
-6.77232e-05
4.90847e-05
-7.39304e-05
4.94799e-05
-8.01229e-05
4.95529e-05
-8.62663e-05
4.93114e-05
-9.23266e-05
4.87622e-05
-9.82706e-05
4.79109e-05
-0.000104065
4.67621e-05
-0.000109678
4.53198e-05
-0.000115076
4.35875e-05
-0.000120228
4.15689e-05
-0.000125102
3.92678e-05
-0.000129667
3.66893e-05
-0.000133892
3.38394e-05
-0.000137749
3.07261e-05
-0.000141208
2.73592e-05
-0.000144242
2.37512e-05
-0.000146825
1.99173e-05
-0.000148933
1.58756e-05
-0.000150545
1.16474e-05
-0.00015164
7.25744e-06
-0.000152203
2.73372e-06
-0.000152218
-1.89231e-06
-0.000151677
-6.58598e-06
-0.000150571
-1.13095e-05
-0.0001489
-1.60221e-05
-0.000146664
-2.06807e-05
-0.000143872
-2.524e-05
-0.000140533
-2.9653e-05
-0.000136666
-3.3872e-05
-0.000132293
-3.78486e-05
-0.000127441
-4.15351e-05
-0.000122144
-4.48849e-05
-0.000116441
-4.78535e-05
-0.000110376
-5.03994e-05
-0.000103998
-5.24852e-05
-9.7361e-05
-5.40781e-05
-9.05233e-05
-5.51513e-05
-8.35461e-05
-5.56848e-05
-7.64938e-05
-5.56657e-05
-6.94324e-05
-5.50898e-05
-6.24291e-05
-5.39615e-05
-5.55506e-05
-5.22944e-05
-4.88626e-05
-5.0112e-05
-4.24283e-05
-4.74476e-05
-3.63071e-05
-4.43443e-05
-3.0554e-05
-4.08549e-05
-2.5218e-05
-3.70417e-05
-2.03414e-05
-3.29761e-05
-1.59588e-05
-2.87381e-05
-1.20967e-05
-2.44156e-05
-8.77252e-06
-2.01038e-05
-5.99497e-06
-1.59047e-05
-3.76357e-06
-1.19263e-05
-2.06917e-06
-8.28163e-06
-8.94435e-07
-5.08819e-06
-2.14873e-07
-2.46634e-06
-5.43394e-07
-4.82065e-07
2.85289e-06
-1.83261e-06
8.59273e-06
-3.96311e-06
1.42324e-05
-6.79157e-06
1.96711e-05
-1.02419e-05
2.48341e-05
-1.42437e-05
2.96644e-05
-1.87313e-05
3.41209e-05
-2.36442e-05
3.81758e-05
-2.89255e-05
4.1813e-05
-3.45225e-05
4.50251e-05
-4.03856e-05
4.78117e-05
-4.6468e-05
5.01776e-05
-5.27258e-05
5.2131e-05
-5.9117e-05
5.36823e-05
-6.56016e-05
5.4843e-05
-7.21413e-05
5.56244e-05
-7.86988e-05
5.60375e-05
-8.52383e-05
5.60923e-05
-9.17243e-05
5.57975e-05
-9.81225e-05
5.51604e-05
-0.000104399
5.41871e-05
-0.000110519
5.28827e-05
-0.000116451
5.12515e-05
-0.000122161
4.92972e-05
-0.000127616
4.70239e-05
-0.000132784
4.44358e-05
-0.000137633
4.15383e-05
-0.000142131
3.83381e-05
-0.000146249
3.48438e-05
-0.000149956
3.10663e-05
-0.000153224
2.70191e-05
-0.000156026
2.27188e-05
-0.000158335
1.81852e-05
-0.000160129
1.34417e-05
-0.000161387
8.51515e-06
-0.00016209
3.43631e-06
-0.000162222
-1.76044e-06
-0.000161771
-7.03703e-06
-0.000160728
-1.23519e-05
-0.00015909
-1.76604e-05
-0.000156856
-2.29147e-05
-0.000154031
-2.80649e-05
-0.000150625
-3.30588e-05
-0.000146654
-3.78431e-05
-0.000142139
-4.23641e-05
-0.000137106
-4.65679e-05
-0.000131588
-5.04022e-05
-0.000125626
-5.38164e-05
-0.000119262
-5.67634e-05
-0.000112547
-5.91999e-05
-0.000105537
-6.10881e-05
-9.82919e-05
-6.23962e-05
-9.08765e-05
-6.31002e-05
-8.33585e-05
-6.31838e-05
-7.58082e-05
-6.26401e-05
-6.82974e-05
-6.14722e-05
-6.08983e-05
-5.96935e-05
-5.36822e-05
-5.73281e-05
-4.67184e-05
-5.44115e-05
-4.00726e-05
-5.099e-05
-3.38062e-05
-4.71213e-05
-2.79746e-05
-4.28733e-05
-2.26264e-05
-3.83243e-05
-1.78024e-05
-3.35621e-05
-1.35348e-05
-2.86832e-05
-9.84664e-06
-2.3792e-05
-6.75149e-06
-1.89999e-05
-4.25343e-06
-1.44243e-05
-2.34719e-06
-1.01879e-05
-1.01872e-06
-6.41667e-06
-2.4598e-07
-3.23908e-06
-7.89375e-07
-5.18315e-07
3.3712e-06
-1.96773e-06
1.00421e-05
-4.25035e-06
1.6515e-05
-7.2755e-06
2.26963e-05
-1.09592e-05
2.85178e-05
-1.5224e-05
3.39292e-05
-1.99983e-05
3.88951e-05
-2.5216e-05
4.33936e-05
-3.08162e-05
4.74132e-05
-3.67422e-05
5.09511e-05
-4.29414e-05
5.40109e-05
-4.93647e-05
5.66009e-05
-5.5966e-05
5.87323e-05
-6.27019e-05
6.04182e-05
-6.9531e-05
6.16721e-05
-7.6414e-05
6.25073e-05
-8.33128e-05
6.29364e-05
-9.01909e-05
6.29703e-05
-9.70122e-05
6.26189e-05
-0.000103742
6.189e-05
-0.000110345
6.07905e-05
-0.000116788
5.93257e-05
-0.000123037
5.75002e-05
-0.000129058
5.53181e-05
-0.000134817
5.27836e-05
-0.000140283
4.99013e-05
-0.000145422
4.6677e-05
-0.000150201
4.31177e-05
-0.00015459
3.92328e-05
-0.000158558
3.50339e-05
-0.000162074
3.05355e-05
-0.000165111
2.57556e-05
-0.000167641
2.07153e-05
-0.000169639
1.544e-05
-0.000171083
9.95855e-06
-0.000171951
4.30429e-06
-0.000172226
-1.48557e-06
-0.000171893
-7.36971e-06
-0.000170942
-1.3303e-05
-0.000169366
-1.92365e-05
-0.000167162
-2.51182e-05
-0.000164334
-3.08931e-05
-0.000160889
-3.6504e-05
-0.00015684
-4.18918e-05
-0.000152208
-4.69968e-05
-0.000147016
-5.17592e-05
-0.000141298
-5.61201e-05
-0.000135092
-6.00227e-05
-0.000128442
-6.34132e-05
-0.0001214
-6.62422e-05
-0.000114022
-6.8466e-05
-0.000106371
-7.00473e-05
-9.85142e-05
-7.09569e-05
-9.05233e-05
-7.11747e-05
-8.24729e-05
-7.06905e-05
-7.444e-05
-6.95052e-05
-6.65023e-05
-6.76311e-05
-5.87375e-05
-6.50929e-05
-5.12214e-05
-6.19276e-05
-4.40267e-05
-5.81847e-05
-3.72218e-05
-5.39261e-05
-3.08694e-05
-4.92257e-05
-2.5025e-05
-4.41687e-05
-1.97362e-05
-3.88509e-05
-1.50417e-05
-3.33777e-05
-1.09705e-05
-2.78632e-05
-7.5416e-06
-2.24288e-05
-4.76389e-06
-1.7202e-05
-2.63612e-06
-1.23156e-05
-1.14743e-06
-7.90536e-06
-2.78037e-07
-4.10847e-06
-1.06741e-06
-5.52925e-07
3.92413e-06
-2.09679e-06
1.1586e-05
-4.52484e-06
1.89431e-05
-7.73821e-06
2.59096e-05
-1.16455e-05
3.24251e-05
-1.61625e-05
3.84462e-05
-2.1212e-05
4.39446e-05
-2.67228e-05
4.89044e-05
-3.26297e-05
5.33201e-05
-3.88726e-05
5.71939e-05
-4.53958e-05
6.05342e-05
-5.21481e-05
6.33531e-05
-5.90813e-05
6.56656e-05
-6.61505e-05
6.74874e-05
-7.33134e-05
6.88349e-05
-8.05294e-05
6.97234e-05
-8.77601e-05
7.0167e-05
-9.49681e-05
7.01783e-05
-0.000102117
6.97679e-05