/*--------------------------------*- C++ -*----------------------------------*\
  =========                 |
  \\      /  F ield         | OpenFOAM: The Open Source CFD Toolbox
   \\    /   O peration     | Website:  https://openfoam.org
    \\  /    A nd           | Version:  dev
     \\/     M anipulation  |
\*---------------------------------------------------------------------------*/
FoamFile
{
    format      ascii;
    class       volVectorField;
    location    "40.95";
    object      U;
}
// * * * * * * * * * * * * * * * * * * * * * * * * * * * * * * * * * * * * * //

dimensions      [0 1 -1 0 0 0 0];

internalField   nonuniform List<vector> 
5184
(
(1.23407e-05 -1.27008e-05 0)
(4.5199e-05 -2.08913e-05 0)
(8.03694e-05 -1.72547e-05 0)
(9.60398e-05 -8.20166e-06 0)
(8.222e-05 2.66647e-06 0)
(3.65243e-05 1.36181e-05 0)
(-4.0502e-05 2.38485e-05 0)
(-0.000146839 3.30535e-05 0)
(-0.000279693 4.11132e-05 0)
(-0.000436005 4.80336e-05 0)
(-0.000612653 5.38762e-05 0)
(-0.000806604 5.87259e-05 0)
(-0.00101499 6.26751e-05 0)
(-0.00123514 6.58148e-05 0)
(-0.0014646 6.82301e-05 0)
(-0.00170111 6.99963e-05 0)
(-0.0019426 7.11779e-05 0)
(-0.00218715 7.18273e-05 0)
(-0.00243297 7.19852e-05 0)
(-0.00267838 7.16814e-05 0)
(-0.00292178 7.0935e-05 0)
(-0.00316161 6.97567e-05 0)
(-0.00339632 6.81492e-05 0)
(-0.00362441 6.61096e-05 0)
(-0.00384434 6.36307e-05 0)
(-0.00405457 6.07028e-05 0)
(-0.00425354 5.73153e-05 0)
(-0.00443968 5.34587e-05 0)
(-0.00461142 4.91258e-05 0)
(-0.00476716 4.43136e-05 0)
(-0.00490536 3.90245e-05 0)
(-0.00502449 3.32679e-05 0)
(-0.00512308 2.7061e-05 0)
(-0.00519975 2.04298e-05 0)
(-0.00525326 1.34099e-05 0)
(-0.00528248 6.04716e-06 0)
(-0.00528646 -1.60233e-06 0)
(-0.00526449 -9.47207e-06 0)
(-0.00521605 -1.74855e-05 0)
(-0.00514092 -2.55567e-05 0)
(-0.00503917 -3.35913e-05 0)
(-0.00491116 -4.14875e-05 0)
(-0.0047576 -4.91383e-05 0)
(-0.00457956 -5.64325e-05 0)
(-0.00437843 -6.32575e-05 0)
(-0.00415596 -6.95014e-05 0)
(-0.00391426 -7.50554e-05 0)
(-0.00365575 -7.98165e-05 0)
(-0.00338316 -8.36901e-05 0)
(-0.0030995 -8.65923e-05 0)
(-0.002808 -8.84527e-05 0)
(-0.00251209 -8.9216e-05 0)
(-0.00221534 -8.88439e-05 0)
(-0.00192141 -8.73169e-05 0)
(-0.00163398 -8.46344e-05 0)
(-0.00135668 -8.08159e-05 0)
(-0.00109305 -7.59007e-05 0)
(-0.000846466 -6.99476e-05 0)
(-0.000620075 -6.30343e-05 0)
(-0.000416728 -5.5257e-05 0)
(-0.000238924 -4.67297e-05 0)
(-8.87393e-05 -3.75855e-05 0)
(3.22367e-05 -2.79793e-05 0)
(0.00012299 -1.80938e-05 0)
(0.000183191 -8.1543e-06 0)
(0.00021334 1.54432e-06 0)
(0.000215028 1.05777e-05 0)
(0.000191306 1.83091e-05 0)
(0.000147206 2.37261e-05 0)
(9.08264e-05 2.51365e-05 0)
(3.66372e-05 1.9854e-05 0)
(6.22719e-06 6.24415e-06 0)
(2.08596e-05 -4.58843e-05 0)
(6.56652e-05 -6.5732e-05 0)
(9.47874e-05 -4.05847e-05 0)
(7.29039e-05 7.61731e-06 0)
(-1.88321e-05 6.56773e-05 0)
(-0.000187241 0.000126007 0)
(-0.000432908 0.000184325 0)
(-0.000752615 0.000238387 0)
(-0.00114082 0.00028705 0)
(-0.00159073 0.000329872 0)
(-0.002095 0.000366814 0)
(-0.00264618 0.000398065 0)
(-0.00323697 0.000423936 0)
(-0.00386036 0.000444794 0)
(-0.00450975 0.000461017 0)
(-0.00517894 0.000472964 0)
(-0.00586213 0.000480957 0)
(-0.00655387 0.000485272 0)
(-0.00724903 0.000486132 0)
(-0.00794271 0.000483709 0)
(-0.00863022 0.000478124 0)
(-0.00930701 0.000469453 0)
(-0.0099686 0.000457735 0)
(-0.0106106 0.00044298 0)
(-0.0112285 0.000425175 0)
(-0.011818 0.000404297 0)
(-0.0123746 0.000380321 0)
(-0.012894 0.000353231 0)
(-0.0133717 0.000323027 0)
(-0.0138034 0.000289735 0)
(-0.0141848 0.000253417 0)
(-0.014512 0.000214175 0)
(-0.0147808 0.000172159 0)
(-0.0149879 0.000127572 0)
(-0.0151297 8.06744e-05 0)
(-0.0152036 3.17846e-05 0)
(-0.0152071 -1.87181e-05 0)
(-0.0151385 -7.03952e-05 0)
(-0.0149967 -0.000122751 0)
(-0.0147812 -0.000175239 0)
(-0.0144925 -0.000227264 0)
(-0.0141317 -0.000278194 0)
(-0.0137011 -0.000327367 0)
(-0.0132036 -0.000374104 0)
(-0.0126433 -0.000417721 0)
(-0.0120248 -0.000457541 0)
(-0.0113541 -0.000492913 0)
(-0.0106378 -0.000523222 0)
(-0.00988313 -0.000547906 0)
(-0.00909833 -0.000566471 0)
(-0.00829206 -0.000578504 0)
(-0.0074735 -0.000583685 0)
(-0.00665219 -0.000581799 0)
(-0.00583788 -0.000572743 0)
(-0.00504034 -0.000556532 0)
(-0.00426926 -0.000533306 0)
(-0.00353401 -0.000503328 0)
(-0.00284351 -0.000466988 0)
(-0.00220605 -0.000424802 0)
(-0.0016291 -0.00037741 0)
(-0.00111915 -0.00032558 0)
(-0.000681491 -0.000270218 0)
(-0.00032004 -0.000212386 0)
(-3.70783e-05 -0.000153336 0)
(0.000167028 -9.45788e-05 0)
(0.000294204 -3.79931e-05 0)
(0.0003492 1.39589e-05 0)
(0.000340293 5.79719e-05 0)
(0.000279981 8.94523e-05 0)
(0.000186123 0.000101902 0)
(8.63983e-05 8.65498e-05 0)
(1.96852e-05 3.64971e-05 0)
(1.76464e-05 -8.13381e-05 0)
(4.13666e-05 -9.50864e-05 0)
(1.96615e-05 -1.91802e-05 0)
(-8.39312e-05 0.000105911 0)
(-0.000290206 0.00025467 0)
(-0.000607916 0.000410647 0)
(-0.00103832 0.000563525 0)
(-0.00157762 0.000707166 0)
(-0.00221863 0.000838118 0)
(-0.00295216 0.000954675 0)
(-0.00376795 0.00105624 0)
(-0.00465526 0.00114291 0)
(-0.00560339 0.00121519 0)
(-0.00660186 0.00127381 0)
(-0.00764061 0.0013196 0)
(-0.00871009 0.00135337 0)
(-0.0098012 0.00137591 0)
(-0.0109053 0.00138787 0)
(-0.0120143 0.00138983 0)
(-0.0131202 0.00138223 0)
(-0.0142156 0.00136539 0)
(-0.0152929 0.00133954 0)
(-0.016345 0.00130481 0)
(-0.0173648 0.00126126 0)
(-0.0183451 0.0012089 0)
(-0.019279 0.00114772 0)
(-0.0201593 0.00107772 0)
(-0.0209792 0.000998894 0)
(-0.0217316 0.000911322 0)
(-0.02241 0.000815138 0)
(-0.0230077 0.000710574 0)
(-0.0235183 0.000597976 0)
(-0.023936 0.000477816 0)
(-0.0242554 0.000350711 0)
(-0.0244714 0.000217427 0)
(-0.0245799 7.88871e-05 0)
(-0.0245775 -6.38275e-05 0)
(-0.0244617 -0.000209481 0)
(-0.0242309 -0.000356689 0)
(-0.0238849 -0.000503934 0)
(-0.0234245 -0.00064958 0)
(-0.0228517 -0.000791892 0)
(-0.0221702 -0.000929069 0)
(-0.0213847 -0.00105927 0)
(-0.0205015 -0.00118063 0)
(-0.0195281 -0.00129135 0)
(-0.0184737 -0.00138966 0)
(-0.0173482 -0.00147392 0)
(-0.0161633 -0.00154263 0)
(-0.0149312 -0.00159446 0)
(-0.0136654 -0.00162834 0)
(-0.0123798 -0.00164341 0)
(-0.011089 -0.00163911 0)
(-0.00980782 -0.00161518 0)
(-0.00855118 -0.00157171 0)
(-0.00733379 -0.00150907 0)
(-0.00616989 -0.00142804 0)
(-0.005073 -0.0013297 0)
(-0.00405569 -0.0012155 0)
(-0.00312923 -0.00108726 0)
(-0.00230335 -0.000947142 0)
(-0.00158594 -0.000797719 0)
(-0.000982752 -0.000642 0)
(-0.000497008 -0.000483518 0)
(-0.000129017 -0.000326473 0)
(0.000124292 -0.000175954 0)
(0.000270019 -3.82811e-05 0)
(0.00032002 7.85272e-05 0)
(0.000291434 0.000164171 0)
(0.0002075 0.000205482 0)
(0.000102494 0.000186349 0)
(2.49853e-05 9.04204e-05 0)
(8.84729e-06 -9.77924e-05 0)
(-6.98661e-06 -7.32182e-05 0)
(-0.00010755 8.47349e-05 0)
(-0.000322352 0.000318365 0)
(-0.000669646 0.000590162 0)
(-0.00115784 0.000874495 0)
(-0.00178769 0.00115432 0)
(-0.00255442 0.00141886 0)
(-0.00344949 0.00166163 0)
(-0.00446186 0.00187909 0)
(-0.00557905 0.0020697 0)
(-0.00678786 0.00223318 0)
(-0.00807487 0.00237012 0)
(-0.00942682 0.00248154 0)
(-0.0108308 0.00256871 0)
(-0.0122744 0.00263297 0)
(-0.0137457 0.00267559 0)
(-0.0152332 0.00269774 0)
(-0.0167261 0.00270039 0)
(-0.0182138 0.00268433 0)
(-0.0196861 0.00265015 0)
(-0.0211329 0.00259829 0)
(-0.0225446 0.00252902 0)
(-0.0239115 0.00244249 0)
(-0.025224 0.00233878 0)
(-0.0264727 0.00221794 0)
(-0.0276481 0.00208001 0)
(-0.0287411 0.00192512 0)
(-0.0297426 0.00175347 0)
(-0.0306435 0.00156541 0)
(-0.0314355 0.00136146 0)
(-0.0321101 0.00114235 0)
(-0.03266 0.000909077 0)
(-0.0330779 0.000662864 0)
(-0.0333577 0.000405229 0)
(-0.0334941 0.000137975 0)
(-0.0334829 -0.000136807 0)
(-0.0333211 -0.000416747 0)
(-0.033007 -0.000699209 0)
(-0.0325404 -0.000981313 0)
(-0.0319226 -0.00125997 0)
(-0.0311567 -0.00153193 0)
(-0.0302473 -0.0017938 0)
(-0.0292011 -0.00204215 0)
(-0.0280263 -0.00227353 0)
(-0.0267328 -0.00248455 0)
(-0.0253325 -0.00267196 0)
(-0.0238386 -0.00283271 0)
(-0.0222659 -0.00296402 0)
(-0.0206306 -0.00306348 0)
(-0.0189499 -0.00312905 0)
(-0.017242 -0.0031592 0)
(-0.0155256 -0.0031529 0)
(-0.01382 -0.00310971 0)
(-0.0121442 -0.00302977 0)
(-0.0105174 -0.00291387 0)
(-0.00895773 -0.00276345 0)
(-0.00748276 -0.0025806 0)
(-0.0061086 -0.00236808 0)
(-0.00484976 -0.00212936 0)
(-0.00371873 -0.00186857 0)
(-0.00272562 -0.00159062 0)
(-0.00187775 -0.00130124 0)
(-0.00117926 -0.00100708 0)
(-0.000630617 -0.000715967 0)
(-0.000228105 -0.000437185 0)
(3.6752e-05 -0.000181875 0)
(0.00017786 3.63474e-05 0)
(0.000214951 0.000200761 0)
(0.000174204 0.000290968 0)
(9.30764e-05 0.000282672 0)
(2.40376e-05 0.000147333 0)
(-2.12006e-06 -8.44646e-05 0)
(-6.7284e-05 2.08262e-05 0)
(-0.000264121 0.000295428 0)
(-0.000609835 0.000668088 0)
(-0.00111693 0.00109098 0)
(-0.00179162 0.00153019 0)
(-0.00263291 0.00196226 0)
(-0.00363443 0.00237172 0)
(-0.00478605 0.00274883 0)
(-0.00607506 0.00308796 0)
(-0.00748708 0.00338632 0)
(-0.00900689 0.00364311 0)
(-0.0106189 0.00385879 0)
(-0.0123074 0.00403458 0)
(-0.0140574 0.00417216 0)
(-0.0158537 0.00427334 0)
(-0.0176822 0.00433992 0)
(-0.019529 0.00437354 0)
(-0.0213807 0.00437563 0)
(-0.0232243 0.00434736 0)
(-0.0250473 0.00428964 0)
(-0.0268373 0.00420313 0)
(-0.0285822 0.00408829 0)
(-0.0302701 0.00394541 0)
(-0.0318892 0.00377468 0)
(-0.033428 0.00357627 0)
(-0.0348748 0.00335035 0)
(-0.0362183 0.00309721 0)
(-0.0374476 0.00281728 0)
(-0.0385518 0.00251123 0)
(-0.0395205 0.00218001 0)
(-0.040344 0.0018249 0)
(-0.0410132 0.00144753 0)
(-0.0415197 0.00104997 0)
(-0.0418563 0.00063469 0)
(-0.0420168 0.000204621 0)
(-0.0419963 -0.000236878 0)
(-0.0417915 -0.000686018 0)
(-0.0414006 -0.00113861 0)
(-0.0408236 -0.00159009 0)
(-0.0400623 -0.0020356 0)
(-0.0391206 -0.00247001 0)
(-0.0380044 -0.00288803 0)
(-0.0367215 -0.00328427 0)
(-0.0352821 -0.00365335 0)
(-0.0336983 -0.00399 0)
(-0.0319841 -0.00428915 0)
(-0.0301556 -0.00454607 0)
(-0.0282304 -0.00475645 0)
(-0.0262279 -0.00491652 0)
(-0.0241687 -0.00502316 0)
(-0.0220744 -0.00507399 0)
(-0.0199673 -0.00506743 0)
(-0.0178705 -0.00500279 0)
(-0.0158066 -0.00488035 0)
(-0.0137985 -0.00470136 0)
(-0.0118679 -0.00446809 0)
(-0.0100358 -0.00418388 0)
(-0.00832123 -0.00385309 0)
(-0.0067417 -0.0034812 0)
(-0.0053121 -0.00307479 0)
(-0.00404457 -0.00264158 0)
(-0.00294798 -0.00219059 0)
(-0.00202746 -0.00173222 0)
(-0.00128395 -0.00127853 0)
(-0.000713698 -0.000843574 0)
(-0.000307689 -0.000443844 0)
(-5.11494e-05 -9.89056e-05 0)
(7.68062e-05 0.000167897 0)
(0.000103694 0.000328828 0)
(6.75517e-05 0.000351143 0)
(1.96754e-05 0.000194211 0)
(-1.36938e-05 -3.75788e-05 0)
(-0.000132847 0.000197324 0)
(-0.00043589 0.000626943 0)
(-0.000924802 0.00117051 0)
(-0.00160422 0.00177205 0)
(-0.0024767 0.00239069 0)
(-0.00353841 0.00299735 0)
(-0.00478065 0.00357225 0)
(-0.00619132 0.00410252 0)
(-0.0077559 0.00458039 0)
(-0.00945825 0.00500178 0)
(-0.0112813 0.0053652 0)
(-0.0132076 0.0056709 0)
(-0.0152195 0.00592024 0)
(-0.0172998 0.0061152 0)
(-0.0194316 0.00625804 0)
(-0.0215985 0.00635105 0)
(-0.0237843 0.00639636 0)
(-0.0259737 0.00639584 0)
(-0.0281516 0.00635106 0)
(-0.0303032 0.00626325 0)
(-0.032414 0.00613335 0)
(-0.0344701 0.00596201 0)
(-0.0364572 0.00574972 0)
(-0.0383618 0.00549682 0)
(-0.0401701 0.00520365 0)
(-0.0418687 0.00487057 0)
(-0.0434446 0.00449812 0)
(-0.0448848 0.00408707 0)
(-0.046177 0.00363849 0)
(-0.0473092 0.00315389 0)
(-0.0482703 0.00263522 0)
(-0.0490498 0.00208496 0)
(-0.0496385 0.00150617 0)
(-0.0500279 0.00090248 0)
(-0.0502114 0.000278158 0)
(-0.0501834 -0.000361932 0)
(-0.0499403 -0.00101233 0)
(-0.0494803 -0.00166704 0)
(-0.0488035 -0.00231954 0)
(-0.0479123 -0.00296291 0)
(-0.0468112 -0.00358987 0)
(-0.045507 -0.00419291 0)
(-0.044009 -0.00476444 0)
(-0.0423287 -0.00529683 0)
(-0.04048 -0.00578266 0)
(-0.0384791 -0.00621478 0)
(-0.0363442 -0.00658653 0)
(-0.0340955 -0.00689184 0)
(-0.0317551 -0.00712541 0)
(-0.0293463 -0.00728286 0)
(-0.0268939 -0.0073608 0)
(-0.0244234 -0.00735705 0)
(-0.0219608 -0.00727064 0)
(-0.0195323 -0.00710196 0)
(-0.0171638 -0.00685281 0)
(-0.0148802 -0.00652641 0)
(-0.0127054 -0.0061275 0)
(-0.0106614 -0.00566232 0)
(-0.00876826 -0.00513864 0)
(-0.00704316 -0.00456581 0)
(-0.00550022 -0.00395483 0)
(-0.0041499 -0.00331839 0)
(-0.00299858 -0.0026711 0)
(-0.00204802 -0.00202968 0)
(-0.00129495 -0.00141335 0)
(-0.000730586 -0.000844234 0)
(-0.000340191 -0.000348034 0)
(-0.000102797 4.52711e-05 0)
(9.23985e-06 0.000300732 0)
(3.25364e-05 0.000377528 0)
(1.36297e-05 0.00022461 0)
(-2.51886e-05 4.40604e-05 0)
(-0.000200047 0.000461284 0)
(-0.000614201 0.0010872 0)
(-0.00125317 0.00183503 0)
(-0.00211249 0.00264288 0)
(-0.00319001 0.0034645 0)
(-0.00447817 0.00426623 0)
(-0.00596523 0.00502462 0)
(-0.0076367 0.00572405 0)
(-0.00947603 0.00635482 0)
(-0.0114652 0.00691163 0)
(-0.0135855 0.00739229 0)
(-0.0158175 0.00779682 0)
(-0.0181422 0.00812666 0)
(-0.0205403 0.00838407 0)
(-0.0229933 0.00857172 0)
(-0.0254828 0.00869234 0)
(-0.027991 0.00874853 0)
(-0.0305005 0.00874261 0)
(-0.0329945 0.00867652 0)
(-0.0354563 0.00855184 0)
(-0.0378696 0.00836977 0)
(-0.0402183 0.00813123 0)
(-0.0424868 0.00783689 0)
(-0.0446594 0.00748731 0)
(-0.0467207 0.00708303 0)
(-0.0486556 0.00662469 0)
(-0.0504494 0.00611313 0)
(-0.0520876 0.00554954 0)
(-0.0535564 0.00493554 0)
(-0.0548426 0.00427328 0)
(-0.0559336 0.00356553 0)
(-0.056818 0.00281574 0)
(-0.0574855 0.00202813 0)
(-0.0579268 0.00120768 0)
(-0.0581346 0.000360168 0)
(-0.0581029 -0.000507825 0)
(-0.0578279 -0.00138897 0)
(-0.0573076 -0.00227521 0)
(-0.0565422 -0.00315786 0)
(-0.0555346 -0.00402769 0)
(-0.0542897 -0.00487503 0)
(-0.0528152 -0.00568992 0)
(-0.0511215 -0.00646226 0)
(-0.0492212 -0.00718199 0)
(-0.0471298 -0.00783927 0)
(-0.0448651 -0.00842467 0)
(-0.0424474 -0.00892934 0)
(-0.0398989 -0.00934527 0)
(-0.037244 -0.00966546 0)
(-0.0345086 -0.00988406 0)
(-0.0317201 -0.00999663 0)
(-0.0289068 -0.0100002 0)
(-0.0260975 -0.00989356 0)
(-0.0233213 -0.00967712 0)
(-0.020607 -0.00935327 0)
(-0.0179823 -0.00892629 0)
(-0.015474 -0.00840244 0)
(-0.0131069 -0.00778999 0)
(-0.0109032 -0.00709927 0)
(-0.00888267 -0.00634265 0)
(-0.00706131 -0.00553468 0)
(-0.00545139 -0.00469208 0)
(-0.00406076 -0.00383397 0)
(-0.0028924 -0.00298204 0)
(-0.00194404 -0.0021609 0)
(-0.00120772 -0.00139849 0)
(-0.000669494 -0.00072666 0)
(-0.000309135 -0.00018192 0)
(-9.97986e-05 0.000193916 0)
(-7.68403e-06 0.000352718 0)
(6.86768e-06 0.000235099 0)
(-3.63466e-05 0.00016045 0)
(-0.000266998 0.000814581 0)
(-0.000793926 0.00168 0)
(-0.001586 0.00266667 0)
(-0.00262905 0.00370888 0)
(-0.00391553 0.00475656 0)
(-0.00543346 0.00577267 0)
(-0.00716755 0.0067309 0)
(-0.00910048 0.00761346 0)
(-0.0112134 0.00840905 0)
(-0.0134862 0.00911135 0)
(-0.0158985 0.00971763 0)
(-0.0184293 0.0102277 0)
(-0.0210578 0.0106431 0)
(-0.0237633 0.0109664 0)
(-0.0265255 0.0112006 0)
(-0.0293247 0.0113488 0)
(-0.0321413 0.0114142 0)
(-0.0349564 0.0113995 0)
(-0.0377514 0.0113069 0)
(-0.0405081 0.0111384 0)
(-0.0432085 0.0108955 0)
(-0.045835 0.0105793 0)
(-0.0483701 0.0101908 0)
(-0.0507968 0.00973078 0)
(-0.053098 0.00919999 0)
(-0.0552572 0.0085994 0)
(-0.0572581 0.00793026 0)
(-0.059085 0.00719425 0)
(-0.0607226 0.00639359 0)
(-0.0621565 0.00553121 0)
(-0.0633732 0.0046108 0)
(-0.06436 0.00363692 0)
(-0.0651058 0.00261508 0)
(-0.0656008 0.00155176 0)
(-0.0658367 0.000454413 0)
(-0.0658073 -0.000668507 0)
(-0.0655083 -0.00180761 0)
(-0.0649376 -0.00295261 0)
(-0.0640956 -0.00409244 0)
(-0.0629851 -0.00521537 0)
(-0.0616117 -0.00630913 0)
(-0.0599836 -0.00736109 0)
(-0.0581119 -0.00835846 0)
(-0.0560104 -0.0092885 0)
(-0.0536956 -0.0101387 0)
(-0.0511869 -0.0108973 0)
(-0.048506 -0.0115528 0)
(-0.0456772 -0.0120953 0)
(-0.0427267 -0.0125158 0)
(-0.0396826 -0.0128068 0)
(-0.0365747 -0.0129628 0)
(-0.0334338 -0.0129798 0)
(-0.0302912 -0.0128563 0)
(-0.0271788 -0.0125927 0)
(-0.0241279 -0.0121919 0)
(-0.0211693 -0.0116594 0)
(-0.0183322 -0.0110031 0)
(-0.015644 -0.0102332 0)
(-0.0131296 -0.00936291 0)
(-0.010811 -0.00840779 0)
(-0.00870639 -0.00738613 0)
(-0.00683004 -0.00631894 0)
(-0.00519159 -0.00523005 0)
(-0.00379562 -0.00414633 0)
(-0.00264129 -0.00309794 0)
(-0.00172201 -0.00211868 0)
(-0.00102521 -0.00124653 0)
(-0.000532058 -0.000524306 0)
(-0.000217178 -2.29344e-07 0)
(-5.04405e-05 0.000271143 0)
(-7.90467e-08 0.00022397 0)
(-4.70708e-05 0.000310955 0)
(-0.000332715 0.00125713 0)
(-0.000972067 0.00240629 0)
(-0.00191766 0.0036673 0)
(-0.00314549 0.00497237 0)
(-0.00464219 0.00626914 0)
(-0.00639093 0.00751832 0)
(-0.00837242 0.00869172 0)
(-0.0105662 0.00976997 0)
(-0.0129507 0.0107407 0)
(-0.015504 0.0115969 0)
(-0.0182035 0.0123355 0)
(-0.0210268 0.0129562 0)
(-0.0239514 0.0134607 0)
(-0.0269553 0.0138519 0)
(-0.0300168 0.0141332 0)
(-0.0331146 0.0143082 0)
(-0.0362279 0.0143803 0)
(-0.0393363 0.0143528 0)
(-0.0424199 0.0142283 0)
(-0.0454589 0.014009 0)
(-0.0484339 0.0136968 0)
(-0.051326 0.013293 0)
(-0.0541163 0.0127988 0)
(-0.0567862 0.0122153 0)
(-0.0593174 0.0115436 0)
(-0.061692 0.0107849 0)
(-0.0638924 0.00994104 0)
(-0.0659016 0.00901417 0)
(-0.0677033 0.00800723 0)
(-0.069282 0.00692399 0)
(-0.0706229 0.00576917 0)
(-0.0717126 0.00454854 0)
(-0.0725391 0.00326901 0)
(-0.0730918 0.00193867 0)
(-0.0733619 0.0005668 0)
(-0.0733425 -0.000836146 0)
(-0.0730291 -0.00225856 0)
(-0.0724192 -0.0036878 0)
(-0.0715133 -0.00511024 0)
(-0.070314 -0.00651146 0)
(-0.0688273 -0.00787644 0)
(-0.0670616 -0.00918967 0)
(-0.0650287 -0.0104355 0)
(-0.062743 -0.0115983 0)
(-0.0602222 -0.0126628 0)
(-0.0574865 -0.0136143 0)
(-0.0545592 -0.0144392 0)
(-0.051466 -0.0151248 0)
(-0.0482348 -0.0156602 0)
(-0.0448959 -0.0160361 0)
(-0.041481 -0.0162456 0)
(-0.0380231 -0.0162839 0)
(-0.0345562 -0.0161487 0)
(-0.0311145 -0.0158405 0)
(-0.0277321 -0.0153629 0)
(-0.0244423 -0.0147222 0)
(-0.0212771 -0.0139279 0)
(-0.0182665 -0.0129927 0)
(-0.0154382 -0.0119324 0)
(-0.0128165 -0.010766 0)
(-0.0104221 -0.00951566 0)
(-0.00827149 -0.00820687 0)
(-0.00637641 -0.00686836 0)
(-0.00474344 -0.00553227 0)
(-0.00337358 -0.00423441 0)
(-0.00226208 -0.00301448 0)
(-0.00139821 -0.0019165 0)
(-0.000764992 -0.000989355 0)
(-0.000338992 -0.000287231 0)
(-9.41728e-05 0.000129693 0)
(-6.94008e-06 0.000190571 0)
(-5.73492e-05 0.000494673 0)
(-0.000396715 0.00178768 0)
(-0.00114689 0.00326521 0)
(-0.00224465 0.00483654 0)
(-0.00365623 0.00643333 0)
(-0.00536232 0.00800225 0)
(-0.00734097 0.00950294 0)
(-0.0095686 0.0109062 0)
(-0.0120213 0.0121918 0)
(-0.0146748 0.013347 0)
(-0.0175047 0.0143642 0)
(-0.0204867 0.0152405 0)
(-0.0235965 0.0159757 0)
(-0.0268104 0.0165717 0)
(-0.0301048 0.0170318 0)
(-0.0334568 0.0173599 0)
(-0.0368438 0.01756 0)
(-0.0402439 0.017636 0)
(-0.0436354 0.0175915 0)
(-0.0469971 0.0174295 0)
(-0.050308 0.0171525 0)
(-0.0535477 0.0167627 0)
(-0.0566958 0.0162618 0)
(-0.0597321 0.0156511 0)
(-0.062637 0.0149319 0)
(-0.065391 0.0141059 0)
(-0.0679749 0.0131745 0)
(-0.07037 0.01214 0)
(-0.0725582 0.0110053 0)
(-0.0745221 0.00977404 0)
(-0.0762451 0.00845086 0)
(-0.0777116 0.00704159 0)
(-0.0789074 0.0055533 0)
(-0.0798193 0.00399439 0)
(-0.0804362 0.00237465 0)
(-0.0807485 0.000705268 0)
(-0.0807489 -0.00100117 0)
(-0.0804322 -0.00273076 0)
(-0.0797957 -0.00446831 0)
(-0.0788393 -0.00619756 0)
(-0.0775659 -0.00790126 0)
(-0.0759811 -0.00956144 0)
(-0.0740937 -0.0111596 0)
(-0.0719156 -0.012677 0)
(-0.0694619 -0.014095 0)
(-0.0667507 -0.0153953 0)
(-0.0638033 -0.0165603 0)
(-0.0606439 -0.0175734 0)
(-0.0572996 -0.0184198 0)
(-0.0537999 -0.0190859 0)
(-0.0501766 -0.0195608 0)
(-0.0464635 -0.0198357 0)
(-0.0426958 -0.0199047 0)
(-0.0389096 -0.019765 0)
(-0.0351418 -0.0194169 0)
(-0.031429 -0.0188643 0)
(-0.0278073 -0.0181145 0)
(-0.0243115 -0.0171789 0)
(-0.0209743 -0.0160721 0)
(-0.0178262 -0.014813 0)
(-0.0148942 -0.0134239 0)
(-0.0122018 -0.0119311 0)
(-0.00976793 -0.0103646 0)
(-0.00760687 -0.00875805 0)
(-0.00572749 -0.00714908 0)
(-0.00413309 -0.00557919 0)
(-0.00282109 -0.004094 0)
(-0.001783 -0.0027435 0)
(-0.00100406 -0.00158245 0)
(-0.000463024 -0.000670635 0)
(-0.000138063 -7.32506e-05 0)
(-1.35996e-05 0.00013482 0)
(-6.71996e-05 0.000710571 0)
(-0.000458773 0.00240435 0)
(-0.00131737 0.00425466 0)
(-0.00256472 0.00617242 0)
(-0.00415756 0.00808996 0)
(-0.0060706 0.00995416 0)
(-0.00827665 0.0117246 0)
(-0.0107477 0.013372 0)
(-0.0134562 0.0148762 0)
(-0.016375 0.0162242 0)
(-0.0194773 0.0174088 0)
(-0.0227366 0.0184273 0)
(-0.0261272 0.0192799 0)
(-0.0296237 0.019969 0)
(-0.0332014 0.0204984 0)
(-0.0368361 0.0208723 0)
(-0.0405042 0.0210954 0)
(-0.0441825 0.021172 0)
(-0.0478483 0.021106 0)
(-0.0514795 0.020901 0)
(-0.0550539 0.0205597 0)
(-0.0585501 0.0200846 0)
(-0.0619466 0.0194775 0)
(-0.0652223 0.0187402 0)
(-0.0683563 0.0178742 0)
(-0.0713282 0.0168815 0)
(-0.0741177 0.015764 0)
(-0.0767052 0.0145245 0)
(-0.0790714 0.0131664 0)
(-0.0811981 0.0116943 0)
(-0.0830677 0.0101136 0)
(-0.0846636 0.00843154 0)
(-0.0859707 0.00665634 0)
(-0.0869751 0.00479799 0)
(-0.0876647 0.00286804 0)
(-0.0880294 0.000879671 0)
(-0.088061 -0.00115234 0)
(-0.0877537 -0.00321166 0)
(-0.0871043 -0.00528054 0)
(-0.0861122 -0.0073399 0)
(-0.0847799 -0.00936958 0)
(-0.0831128 -0.0113485 0)
(-0.0811196 -0.0132551 0)
(-0.0788122 -0.0150673 0)
(-0.0762058 -0.0167632 0)
(-0.0733191 -0.0183214 0)
(-0.0701738 -0.0197211 0)
(-0.0667952 -0.0209429 0)
(-0.0632111 -0.0219688 0)
(-0.0594526 -0.0227832 0)
(-0.055553 -0.0233726 0)
(-0.0515479 -0.0237266 0)
(-0.0474744 -0.0238379 0)
(-0.0433711 -0.0237028 0)
(-0.0392773 -0.0233212 0)
(-0.0352323 -0.0226975 0)
(-0.031275 -0.0218398 0)
(-0.027443 -0.020761 0)
(-0.0237722 -0.019478 0)
(-0.020296 -0.0180125 0)
(-0.0170446 -0.0163904 0)
(-0.0140443 -0.0146419 0)
(-0.011317 -0.0128017 0)
(-0.0088797 -0.0109087 0)
(-0.00674413 -0.00900596 0)
(-0.00491615 -0.00714072 0)
(-0.00339573 -0.00536454 0)
(-0.00217692 -0.00373339 0)
(-0.00124741 -0.00230779 0)
(-0.000588262 -0.00115289 0)
(-0.000181785 -0.000338526 0)
(-2.00312e-05 5.68851e-05 0)
(-7.6646e-05 0.000957571 0)
(-0.000518784 0.00310482 0)
(-0.00148294 0.00537176 0)
(-0.00287644 0.00767185 0)
(-0.00464693 0.00993911 0)
(-0.0067632 0.0121217 0)
(-0.00919286 0.0141801 0)
(-0.0119034 0.0160857 0)
(-0.0148635 0.0178191 0)
(-0.018043 0.019368 0)
(-0.0214126 0.0207259 0)
(-0.0249438 0.0218905 0)
(-0.0286092 0.0228628 0)
(-0.032382 0.023646 0)
(-0.0362361 0.0242443 0)
(-0.0401462 0.0246627 0)
(-0.0440879 0.0249064 0)
(-0.0480368 0.0249802 0)
(-0.0519695 0.0248885 0)
(-0.0558628 0.0246351 0)
(-0.0596938 0.0242232 0)
(-0.0634401 0.0236554 0)
(-0.0670792 0.022934 0)
(-0.0705893 0.0220608 0)
(-0.0739485 0.0210379 0)
(-0.0771354 0.0198673 0)
(-0.080129 0.0185516 0)
(-0.0829086 0.0170939 0)
(-0.0854542 0.0154984 0)
(-0.0877464 0.0137704 0)
(-0.0897668 0.0119165 0)
(-0.091498 0.00994472 0)
(-0.0929239 0.00786493 0)
(-0.0940299 0.00568862 0)
(-0.0948028 0.00342914 0)
(-0.0952317 0.00110167 0)
(-0.0953076 -0.00127675 0)
(-0.0950239 -0.00368734 0)
(-0.0943767 -0.00610967 0)
(-0.0933647 -0.0085218 0)
(-0.0919897 -0.0109005 0)
(-0.0902568 -0.0132216 0)
(-0.088174 -0.0154602 0)
(-0.0857532 -0.0175908 0)
(-0.0830095 -0.0195881 0)
(-0.0799616 -0.0214272 0)
(-0.0766317 -0.0230841 0)
(-0.0730455 -0.0245361 0)
(-0.0692318 -0.0257623 0)
(-0.0652227 -0.0267441 0)
(-0.061053 -0.0274657 0)
(-0.0567599 -0.0279144 0)
(-0.0523826 -0.0280816 0)
(-0.047962 -0.0279622 0)
(-0.0435398 -0.0275558 0)
(-0.0391582 -0.0268667 0)
(-0.034859 -0.025904 0)
(-0.030683 -0.0246817 0)
(-0.0266694 -0.0232191 0)
(-0.0228548 -0.0215407 0)
(-0.0192727 -0.0196757 0)
(-0.0159529 -0.0176588 0)
(-0.0129205 -0.0155291 0)
(-0.0101958 -0.0133308 0)
(-0.00779345 -0.0111126 0)
(-0.00572238 -0.0089275 0)
(-0.00398543 -0.00683323 0)
(-0.00257944 -0.00489167 0)
(-0.00149467 -0.00316911 0)
(-0.000714547 -0.00173599 0)
(-0.000225338 -0.000666698 0)
(-2.62612e-05 -4.30171e-05 0)
(-8.571e-05 0.00123458 0)
(-0.000576696 0.00388655 0)
(-0.00164319 0.00661309 0)
(-0.00317884 0.00933091 0)
(-0.00512251 0.0119766 0)
(-0.00743729 0.0145004 0)
(-0.0100857 0.0168648 0)
(-0.0130306 0.0190426 0)
(-0.016237 0.0210158 0)
(-0.0196718 0.0227733 0)
(-0.023303 0.0243097 0)
(-0.0271002 0.025624 0)
(-0.031034 0.0267181 0)
(-0.0350765 0.0275959 0)
(-0.0392002 0.0282627 0)
(-0.043379 0.0287241 0)
(-0.0475873 0.028986 0)
(-0.0518001 0.0290537 0)
(-0.055993 0.0289321 0)
(-0.0601421 0.0286253 0)
(-0.0642239 0.028137 0)
(-0.068215 0.02747 0)
(-0.0720924 0.0266267 0)
(-0.0758334 0.0256095 0)
(-0.0794155 0.0244205 0)
(-0.0828163 0.0230621 0)
(-0.0860141 0.0215372 0)
(-0.0889874 0.0198497 0)
(-0.0917153 0.0180043 0)
(-0.0941776 0.016007 0)
(-0.0963551 0.0138654 0)
(-0.0982294 0.0115888 0)
(-0.0997835 0.00918832 0)
(-0.101002 0.00667701 0)
(-0.10187 0.00407004 0)
(-0.102377 0.00138462 0)
(-0.102512 -0.00135995 0)
(-0.102267 -0.00414241 0)
(-0.101639 -0.00693962 0)
(-0.100624 -0.00972672 0)
(-0.0992236 -0.0124774 0)
(-0.097442 -0.0151641 0)
(-0.0952868 -0.0177585 0)
(-0.092769 -0.0202317 0)
(-0.0899035 -0.0225548 0)
(-0.0867088 -0.0246992 0)
(-0.0832072 -0.0266372 0)
(-0.0794247 -0.0283428 0)
(-0.0753908 -0.0297916 0)
(-0.0711384 -0.0309621 0)
(-0.0667036 -0.0318355 0)
(-0.0621252 -0.0323971 0)
(-0.0574446 -0.0326358 0)
(-0.0527047 -0.0325456 0)
(-0.0479499 -0.0321251 0)
(-0.0432254 -0.0313784 0)
(-0.038576 -0.0303151 0)
(-0.0340461 -0.0289507 0)
(-0.0296783 -0.0273063 0)
(-0.0255129 -0.0254092 0)
(-0.0215872 -0.0232923 0)
(-0.0179346 -0.0209941 0)
(-0.014584 -0.0185588 0)
(-0.0115592 -0.0160357 0)
(-0.00887852 -0.0134793 0)
(-0.00655401 -0.0109486 0)
(-0.00459176 -0.00850754 0)
(-0.00299161 -0.00622401 0)
(-0.00174656 -0.00417023 0)
(-0.000842327 -0.00242203 0)
(-0.000268945 -0.00105841 0)
(-3.23481e-05 -0.000164754 0)
(-9.44066e-05 0.0015405 0)
(-0.000632473 0.00474684 0)
(-0.00179786 0.00797482 0)
(-0.00347116 0.0111451 0)
(-0.00558289 0.0141975 0)
(-0.00809065 0.0170852 0)
(-0.0109519 0.0197733 0)
(-0.0141252 0.022237 0)
(-0.0175718 0.0244603 0)
(-0.0212555 0.0264339 0)
(-0.0251418 0.0281542 0)
(-0.0291983 0.0296215 0)
(-0.033394 0.0308391 0)
(-0.0376993 0.0318121 0)
(-0.0420859 0.0325468 0)
(-0.0465266 0.0330497 0)
(-0.0509948 0.0333274 0)
(-0.055465 0.0333859 0)
(-0.0599121 0.0332306 0)
(-0.0643115 0.032866 0)
(-0.068639 0.0322961 0)
(-0.0728708 0.031524 0)
(-0.0769832 0.0305525 0)
(-0.0809529 0.0293839 0)
(-0.0847566 0.0280209 0)
(-0.0883715 0.026466 0)
(-0.091775 0.0247227 0)
(-0.094945 0.0227951 0)
(-0.0978597 0.0206888 0)
(-0.100498 0.0184103 0)
(-0.102841 0.0159684 0)
(-0.104867 0.0133733 0)
(-0.10656 0.0106374 0)
(-0.107903 0.00777553 0)
(-0.108881 0.00480446 0)
(-0.109481 0.00174344 0)
(-0.109691 -0.001386 0)
(-0.109503 -0.00456011 0)
(-0.108911 -0.00775301 0)
(-0.107911 -0.0109369 0)
(-0.106504 -0.0140823 0)
(-0.104692 -0.0171584 0)
(-0.102482 -0.0201331 0)
(-0.0998847 -0.0229739 0)
(-0.0969136 -0.0256482 0)
(-0.093587 -0.0281234 0)
(-0.089927 -0.0303682 0)
(-0.0859596 -0.0323526 0)
(-0.0817146 -0.0340486 0)
(-0.0772259 -0.0354313 0)
(-0.0725306 -0.0364788 0)
(-0.067669 -0.0371735 0)
(-0.0626844 -0.0375022 0)
(-0.057622 -0.0374569 0)
(-0.0525292 -0.0370352 0)
(-0.0474538 -0.0362407 0)
(-0.0424445 -0.0350833 0)
(-0.0375489 -0.0335795 0)
(-0.0328138 -0.0317524 0)
(-0.0282835 -0.0296318 0)
(-0.0239994 -0.0272541 0)
(-0.0199991 -0.024662 0)
(-0.0163156 -0.0219044 0)
(-0.0129768 -0.0190362 0)
(-0.0100047 -0.0161177 0)
(-0.00741523 -0.0132142 0)
(-0.00521788 -0.0103957 0)
(-0.00341572 -0.00773674 0)
(-0.00200458 -0.0053155 0)
(-0.000972479 -0.00321348 0)
(-0.000312974 -0.00151465 0)
(-3.83699e-05 -0.000308361 0)
(-0.000102744 0.00187423 0)
(-0.00068607 0.00568283 0)
(-0.00194668 0.00945283 0)
(-0.00375277 0.0131092 0)
(-0.00602687 0.016596 0)
(-0.00872137 0.0198699 0)
(-0.0117889 0.0228993 0)
(-0.0151837 0.0256625 0)
(-0.0188634 0.028146 0)
(-0.0227889 0.0303432 0)
(-0.0269231 0.0322525 0)
(-0.0312317 0.0338761 0)
(-0.0356819 0.035219 0)
(-0.0402429 0.0362878 0)
(-0.0448853 0.0370899 0)
(-0.0495809 0.0376329 0)
(-0.0543025 0.0379244 0)
(-0.0590238 0.0379709 0)
(-0.0637193 0.0377785 0)
(-0.0683638 0.0373523 0)
(-0.0729327 0.0366963 0)
(-0.0774016 0.0358142 0)
(-0.0817464 0.0347088 0)
(-0.0859433 0.0333829 0)
(-0.0899685 0.0318391 0)
(-0.0937985 0.0300805 0)
(-0.0974103 0.0281108 0)
(-0.100781 0.0259346 0)
(-0.103888 0.0235578 0)
(-0.106711 0.020988 0)
(-0.109227 0.0182345 0)
(-0.111416 0.0153088 0)
(-0.113261 0.0122246 0)
(-0.114742 0.00899798 0)
(-0.115844 0.00564754 0)
(-0.116553 0.00219446 0)
(-0.116856 -0.00133755 0)
(-0.116743 -0.00492228 0)
(-0.116206 -0.00853116 0)
(-0.115242 -0.0121334 0)
(-0.113847 -0.0156964 0)
(-0.112024 -0.0191857 0)
(-0.109779 -0.0225658 0)
(-0.10712 -0.0258002 0)
(-0.104061 -0.0288524 0)
(-0.100618 -0.0316857 0)
(-0.0968135 -0.0342646 0)
(-0.0926732 -0.0365551 0)
(-0.088227 -0.0385252 0)
(-0.0835091 -0.0401461 0)
(-0.0785578 -0.0413925 0)
(-0.0734149 -0.0422434 0)
(-0.0681253 -0.0426829 0)
(-0.0627369 -0.0427009 0)
(-0.0572995 -0.0422934 0)
(-0.0518645 -0.0414632 0)
(-0.0464841 -0.0402201 0)
(-0.04121 -0.0385814 0)
(-0.036093 -0.0365718 0)
(-0.0311821 -0.0342237 0)
(-0.0265232 -0.0315767 0)
(-0.0221586 -0.0286779 0)
(-0.0181258 -0.0255811 0)
(-0.0144572 -0.0223466 0)
(-0.0111792 -0.0190408 0)
(-0.00831174 -0.0157354 0)
(-0.00586815 -0.0125072 0)
(-0.00385493 -0.00943718 0)
(-0.00227085 -0.00661013 0)
(-0.00110618 -0.00411358 0)
(-0.0003579 -0.00203691 0)
(-4.44168e-05 -0.000474107 0)
(-0.000110721 0.00223464 0)
(-0.000737427 0.00669157 0)
(-0.00208941 0.0110427 0)
(-0.00402306 0.015218 0)
(-0.00645336 0.0191659 0)
(-0.00932771 0.0228477 0)
(-0.0125941 0.0262355 0)
(-0.0162027 0.0293115 0)
(-0.0201078 0.0320655 0)
(-0.024267 0.0344936 0)
(-0.0286413 0.036597 0)
(-0.0331939 0.0383803 0)
(-0.0378909 0.0398503 0)
(-0.0426999 0.0410155 0)
(-0.0475906 0.0418847 0)
(-0.0525339 0.0424669 0)
(-0.0575021 0.0427703 0)
(-0.0624684 0.0428027 0)
(-0.0674065 0.0425706 0)
(-0.0722912 0.0420794 0)
(-0.0770972 0.0413339 0)
(-0.0818 0.0403377 0)
(-0.0863751 0.0390941 0)
(-0.0907981 0.037606 0)
(-0.0950451 0.0358762 0)
(-0.0990921 0.0339079 0)