/*--------------------------------*- C++ -*----------------------------------*\
  =========                 |
  \\      /  F ield         | OpenFOAM: The Open Source CFD Toolbox
   \\    /   O peration     | Website:  https://openfoam.org
    \\  /    A nd           | Version:  dev
     \\/     M anipulation  |
\*---------------------------------------------------------------------------*/
FoamFile
{
    format      ascii;
    class       volScalarField;
    location    "40.95";
    object      Ux;
}
// * * * * * * * * * * * * * * * * * * * * * * * * * * * * * * * * * * * * * //

dimensions      [0 1 -1 0 0 0 0];

internalField   nonuniform List<scalar> 
5184
(
1.23407e-05
4.5199e-05
8.03694e-05
9.60398e-05
8.222e-05
3.65243e-05
-4.0502e-05
-0.000146839
-0.000279693
-0.000436005
-0.000612653
-0.000806604
-0.00101499
-0.00123514
-0.0014646
-0.00170111
-0.0019426
-0.00218715
-0.00243297
-0.00267838
-0.00292178
-0.00316161
-0.00339632
-0.00362441
-0.00384434
-0.00405457
-0.00425354
-0.00443968
-0.00461142
-0.00476716
-0.00490536
-0.00502449
-0.00512308
-0.00519975
-0.00525326
-0.00528248
-0.00528646
-0.00526449
-0.00521605
-0.00514092
-0.00503917
-0.00491116
-0.0047576
-0.00457956
-0.00437843
-0.00415596
-0.00391426
-0.00365575
-0.00338316
-0.0030995
-0.002808
-0.00251209
-0.00221534
-0.00192141
-0.00163398
-0.00135668
-0.00109305
-0.000846466
-0.000620075
-0.000416728
-0.000238924
-8.87393e-05
3.22367e-05
0.00012299
0.000183191
0.00021334
0.000215028
0.000191306
0.000147206
9.08264e-05
3.66372e-05
6.22719e-06
2.08596e-05
6.56652e-05
9.47874e-05
7.29039e-05
-1.88321e-05
-0.000187241
-0.000432908
-0.000752615
-0.00114082
-0.00159073
-0.002095
-0.00264618
-0.00323697
-0.00386036
-0.00450975
-0.00517894
-0.00586213
-0.00655387
-0.00724903
-0.00794271
-0.00863022
-0.00930701
-0.0099686
-0.0106106
-0.0112285
-0.011818
-0.0123746
-0.012894
-0.0133717
-0.0138034
-0.0141848
-0.014512
-0.0147808
-0.0149879
-0.0151297
-0.0152036
-0.0152071
-0.0151385
-0.0149967
-0.0147812
-0.0144925
-0.0141317
-0.0137011
-0.0132036
-0.0126433
-0.0120248
-0.0113541
-0.0106378
-0.00988313
-0.00909833
-0.00829206
-0.0074735
-0.00665219
-0.00583788
-0.00504034
-0.00426926
-0.00353401
-0.00284351
-0.00220605
-0.0016291
-0.00111915
-0.000681491
-0.00032004
-3.70783e-05
0.000167028
0.000294204
0.0003492
0.000340293
0.000279981
0.000186123
8.63983e-05
1.96852e-05
1.76464e-05
4.13666e-05
1.96615e-05
-8.39312e-05
-0.000290206
-0.000607916
-0.00103832
-0.00157762
-0.00221863
-0.00295216
-0.00376795
-0.00465526
-0.00560339
-0.00660186
-0.00764061
-0.00871009
-0.0098012
-0.0109053
-0.0120143
-0.0131202
-0.0142156
-0.0152929
-0.016345
-0.0173648
-0.0183451
-0.019279
-0.0201593
-0.0209792
-0.0217316
-0.02241
-0.0230077
-0.0235183
-0.023936
-0.0242554
-0.0244714
-0.0245799
-0.0245775
-0.0244617
-0.0242309
-0.0238849
-0.0234245
-0.0228517
-0.0221702
-0.0213847
-0.0205015
-0.0195281
-0.0184737
-0.0173482
-0.0161633
-0.0149312
-0.0136654
-0.0123798
-0.011089
-0.00980782
-0.00855118
-0.00733379
-0.00616989
-0.005073
-0.00405569
-0.00312923
-0.00230335
-0.00158594
-0.000982752
-0.000497008
-0.000129017
0.000124292
0.000270019
0.00032002
0.000291434
0.0002075
0.000102494
2.49853e-05
8.84729e-06
-6.98661e-06
-0.00010755
-0.000322352
-0.000669646
-0.00115784
-0.00178769
-0.00255442
-0.00344949
-0.00446186
-0.00557905
-0.00678786
-0.00807487
-0.00942682
-0.0108308
-0.0122744
-0.0137457
-0.0152332
-0.0167261
-0.0182138
-0.0196861
-0.0211329
-0.0225446
-0.0239115
-0.025224
-0.0264727
-0.0276481
-0.0287411
-0.0297426
-0.0306435
-0.0314355
-0.0321101
-0.03266
-0.0330779
-0.0333577
-0.0334941
-0.0334829
-0.0333211
-0.033007
-0.0325404
-0.0319226
-0.0311567
-0.0302473
-0.0292011
-0.0280263
-0.0267328
-0.0253325
-0.0238386
-0.0222659
-0.0206306
-0.0189499
-0.017242
-0.0155256
-0.01382
-0.0121442
-0.0105174
-0.00895773
-0.00748276
-0.0061086
-0.00484976
-0.00371873
-0.00272562
-0.00187775
-0.00117926
-0.000630617
-0.000228105
3.6752e-05
0.00017786
0.000214951
0.000174204
9.30764e-05
2.40376e-05
-2.12006e-06
-6.7284e-05
-0.000264121
-0.000609835
-0.00111693
-0.00179162
-0.00263291
-0.00363443
-0.00478605
-0.00607506
-0.00748708
-0.00900689
-0.0106189
-0.0123074
-0.0140574
-0.0158537
-0.0176822
-0.019529
-0.0213807
-0.0232243
-0.0250473
-0.0268373
-0.0285822
-0.0302701
-0.0318892
-0.033428
-0.0348748
-0.0362183
-0.0374476
-0.0385518
-0.0395205
-0.040344
-0.0410132
-0.0415197
-0.0418563
-0.0420168
-0.0419963
-0.0417915
-0.0414006
-0.0408236
-0.0400623
-0.0391206
-0.0380044
-0.0367215
-0.0352821
-0.0336983
-0.0319841
-0.0301556
-0.0282304
-0.0262279
-0.0241687
-0.0220744
-0.0199673
-0.0178705
-0.0158066
-0.0137985
-0.0118679
-0.0100358
-0.00832123
-0.0067417
-0.0053121
-0.00404457
-0.00294798
-0.00202746
-0.00128395
-0.000713698
-0.000307689
-5.11494e-05
7.68062e-05
0.000103694
6.75517e-05
1.96754e-05
-1.36938e-05
-0.000132847
-0.00043589
-0.000924802
-0.00160422
-0.0024767
-0.00353841
-0.00478065
-0.00619132
-0.0077559
-0.00945825
-0.0112813
-0.0132076
-0.0152195
-0.0172998
-0.0194316
-0.0215985
-0.0237843
-0.0259737
-0.0281516
-0.0303032
-0.032414
-0.0344701
-0.0364572
-0.0383618
-0.0401701
-0.0418687
-0.0434446
-0.0448848
-0.046177
-0.0473092
-0.0482703
-0.0490498
-0.0496385
-0.0500279
-0.0502114
-0.0501834
-0.0499403
-0.0494803
-0.0488035
-0.0479123
-0.0468112
-0.045507
-0.044009
-0.0423287
-0.04048
-0.0384791
-0.0363442
-0.0340955
-0.0317551
-0.0293463
-0.0268939
-0.0244234
-0.0219608
-0.0195323
-0.0171638
-0.0148802
-0.0127054
-0.0106614
-0.00876826
-0.00704316
-0.00550022
-0.0041499
-0.00299858
-0.00204802
-0.00129495
-0.000730586
-0.000340191
-0.000102797
9.23985e-06
3.25364e-05
1.36297e-05
-2.51886e-05
-0.000200047
-0.000614201
-0.00125317
-0.00211249
-0.00319001
-0.00447817
-0.00596523
-0.0076367
-0.00947603
-0.0114652
-0.0135855
-0.0158175
-0.0181422
-0.0205403
-0.0229933
-0.0254828
-0.027991
-0.0305005
-0.0329945
-0.0354563
-0.0378696
-0.0402183
-0.0424868
-0.0446594
-0.0467207
-0.0486556
-0.0504494
-0.0520876
-0.0535564
-0.0548426
-0.0559336
-0.056818
-0.0574855
-0.0579268
-0.0581346
-0.0581029
-0.0578279
-0.0573076
-0.0565422
-0.0555346
-0.0542897
-0.0528152
-0.0511215
-0.0492212
-0.0471298
-0.0448651
-0.0424474
-0.0398989
-0.037244
-0.0345086
-0.0317201
-0.0289068
-0.0260975
-0.0233213
-0.020607
-0.0179823
-0.015474
-0.0131069
-0.0109032
-0.00888267
-0.00706131
-0.00545139
-0.00406076
-0.0028924
-0.00194404
-0.00120772
-0.000669494
-0.000309135
-9.97986e-05
-7.68403e-06
6.86768e-06
-3.63466e-05
-0.000266998
-0.000793926
-0.001586
-0.00262905
-0.00391553
-0.00543346
-0.00716755
-0.00910048
-0.0112134
-0.0134862
-0.0158985
-0.0184293
-0.0210578
-0.0237633
-0.0265255
-0.0293247
-0.0321413
-0.0349564
-0.0377514
-0.0405081
-0.0432085
-0.045835
-0.0483701
-0.0507968
-0.053098
-0.0552572
-0.0572581
-0.059085
-0.0607226
-0.0621565
-0.0633732
-0.06436
-0.0651058
-0.0656008
-0.0658367
-0.0658073
-0.0655083
-0.0649376
-0.0640956
-0.0629851
-0.0616117
-0.0599836
-0.0581119
-0.0560104
-0.0536956
-0.0511869
-0.048506
-0.0456772
-0.0427267
-0.0396826
-0.0365747
-0.0334338
-0.0302912
-0.0271788
-0.0241279
-0.0211693
-0.0183322
-0.015644
-0.0131296
-0.010811
-0.00870639
-0.00683004
-0.00519159
-0.00379562
-0.00264129
-0.00172201
-0.00102521
-0.000532058
-0.000217178
-5.04405e-05
-7.90467e-08
-4.70708e-05
-0.000332715
-0.000972067
-0.00191766
-0.00314549
-0.00464219
-0.00639093
-0.00837242
-0.0105662
-0.0129507
-0.015504
-0.0182035
-0.0210268
-0.0239514
-0.0269553
-0.0300168
-0.0331146
-0.0362279
-0.0393363
-0.0424199
-0.0454589
-0.0484339
-0.051326
-0.0541163
-0.0567862
-0.0593174
-0.061692
-0.0638924
-0.0659016
-0.0677033
-0.069282
-0.0706229
-0.0717126
-0.0725391
-0.0730918
-0.0733619
-0.0733425
-0.0730291
-0.0724192
-0.0715133
-0.070314
-0.0688273
-0.0670616
-0.0650287
-0.062743
-0.0602222
-0.0574865
-0.0545592
-0.051466
-0.0482348
-0.0448959
-0.041481
-0.0380231
-0.0345562
-0.0311145
-0.0277321
-0.0244423
-0.0212771
-0.0182665
-0.0154382
-0.0128165
-0.0104221
-0.00827149
-0.00637641
-0.00474344
-0.00337358
-0.00226208
-0.00139821
-0.000764992
-0.000338992
-9.41728e-05
-6.94008e-06
-5.73492e-05
-0.000396715
-0.00114689
-0.00224465
-0.00365623
-0.00536232
-0.00734097
-0.0095686
-0.0120213
-0.0146748
-0.0175047
-0.0204867
-0.0235965
-0.0268104
-0.0301048
-0.0334568
-0.0368438
-0.0402439
-0.0436354
-0.0469971
-0.050308
-0.0535477
-0.0566958
-0.0597321
-0.062637
-0.065391
-0.0679749
-0.07037
-0.0725582
-0.0745221
-0.0762451
-0.0777116
-0.0789074
-0.0798193
-0.0804362
-0.0807485
-0.0807489
-0.0804322
-0.0797957
-0.0788393
-0.0775659
-0.0759811
-0.0740937
-0.0719156
-0.0694619
-0.0667507
-0.0638033
-0.0606439
-0.0572996
-0.0537999
-0.0501766
-0.0464635
-0.0426958
-0.0389096
-0.0351418
-0.031429
-0.0278073
-0.0243115
-0.0209743
-0.0178262
-0.0148942
-0.0122018
-0.00976793
-0.00760687
-0.00572749
-0.00413309
-0.00282109
-0.001783
-0.00100406
-0.000463024
-0.000138063
-1.35996e-05
-6.71996e-05
-0.000458773
-0.00131737
-0.00256472
-0.00415756
-0.0060706
-0.00827665
-0.0107477
-0.0134562
-0.016375
-0.0194773
-0.0227366
-0.0261272
-0.0296237
-0.0332014
-0.0368361
-0.0405042
-0.0441825
-0.0478483
-0.0514795
-0.0550539
-0.0585501
-0.0619466
-0.0652223
-0.0683563
-0.0713282
-0.0741177
-0.0767052
-0.0790714
-0.0811981
-0.0830677
-0.0846636
-0.0859707
-0.0869751
-0.0876647
-0.0880294
-0.088061
-0.0877537
-0.0871043
-0.0861122
-0.0847799
-0.0831128
-0.0811196
-0.0788122
-0.0762058
-0.0733191
-0.0701738
-0.0667952
-0.0632111
-0.0594526
-0.055553
-0.0515479
-0.0474744
-0.0433711
-0.0392773
-0.0352323
-0.031275
-0.027443
-0.0237722
-0.020296
-0.0170446
-0.0140443
-0.011317
-0.0088797
-0.00674413
-0.00491615
-0.00339573
-0.00217692
-0.00124741
-0.000588262
-0.000181785
-2.00312e-05
-7.6646e-05
-0.000518784
-0.00148294
-0.00287644
-0.00464693
-0.0067632
-0.00919286
-0.0119034
-0.0148635
-0.018043
-0.0214126
-0.0249438
-0.0286092
-0.032382
-0.0362361
-0.0401462
-0.0440879
-0.0480368
-0.0519695
-0.0558628
-0.0596938
-0.0634401
-0.0670792
-0.0705893
-0.0739485
-0.0771354
-0.080129
-0.0829086
-0.0854542
-0.0877464
-0.0897668
-0.091498
-0.0929239
-0.0940299
-0.0948028
-0.0952317
-0.0953076
-0.0950239
-0.0943767
-0.0933647
-0.0919897
-0.0902568
-0.088174
-0.0857532
-0.0830095
-0.0799616
-0.0766317
-0.0730455
-0.0692318
-0.0652227
-0.061053
-0.0567599
-0.0523826
-0.047962
-0.0435398
-0.0391582
-0.034859
-0.030683
-0.0266694
-0.0228548
-0.0192727
-0.0159529
-0.0129205
-0.0101958
-0.00779345
-0.00572238
-0.00398543
-0.00257944
-0.00149467
-0.000714547
-0.000225338
-2.62612e-05
-8.571e-05
-0.000576696
-0.00164319
-0.00317884
-0.00512251
-0.00743729
-0.0100857
-0.0130306
-0.016237
-0.0196718
-0.023303
-0.0271002
-0.031034
-0.0350765
-0.0392002
-0.043379
-0.0475873
-0.0518001
-0.055993
-0.0601421
-0.0642239
-0.068215
-0.0720924
-0.0758334
-0.0794155
-0.0828163
-0.0860141
-0.0889874
-0.0917153
-0.0941776
-0.0963551
-0.0982294
-0.0997835
-0.101002
-0.10187
-0.102377
-0.102512
-0.102267
-0.101639
-0.100624
-0.0992236
-0.097442
-0.0952868
-0.092769
-0.0899035
-0.0867088
-0.0832072
-0.0794247
-0.0753908
-0.0711384
-0.0667036
-0.0621252
-0.0574446
-0.0527047
-0.0479499
-0.0432254
-0.038576
-0.0340461
-0.0296783
-0.0255129
-0.0215872
-0.0179346
-0.014584
-0.0115592
-0.00887852
-0.00655401
-0.00459176
-0.00299161
-0.00174656
-0.000842327
-0.000268945
-3.23481e-05
-9.44066e-05
-0.000632473
-0.00179786
-0.00347116
-0.00558289
-0.00809065
-0.0109519
-0.0141252
-0.0175718
-0.0212555
-0.0251418
-0.0291983
-0.033394
-0.0376993
-0.0420859
-0.0465266
-0.0509948
-0.055465
-0.0599121
-0.0643115
-0.068639
-0.0728708
-0.0769832
-0.0809529
-0.0847566
-0.0883715
-0.091775
-0.094945
-0.0978597
-0.100498
-0.102841
-0.104867
-0.10656
-0.107903
-0.108881
-0.109481
-0.109691
-0.109503
-0.108911
-0.107911
-0.106504
-0.104692
-0.102482
-0.0998847
-0.0969136
-0.093587
-0.089927
-0.0859596
-0.0817146
-0.0772259
-0.0725306
-0.067669
-0.0626844
-0.057622
-0.0525292
-0.0474538
-0.0424445
-0.0375489
-0.0328138
-0.0282835
-0.0239994
-0.0199991
-0.0163156
-0.0129768
-0.0100047
-0.00741523
-0.00521788
-0.00341572
-0.00200458
-0.000972479
-0.000312974
-3.83699e-05
-0.000102744
-0.00068607
-0.00194668
-0.00375277
-0.00602687
-0.00872137
-0.0117889
-0.0151837
-0.0188634
-0.0227889
-0.0269231
-0.0312317
-0.0356819
-0.0402429
-0.0448853
-0.0495809
-0.0543025
-0.0590238
-0.0637193
-0.0683638
-0.0729327
-0.0774016
-0.0817464
-0.0859433
-0.0899685
-0.0937985
-0.0974103
-0.100781
-0.103888
-0.106711
-0.109227
-0.111416
-0.113261
-0.114742
-0.115844
-0.116553
-0.116856
-0.116743
-0.116206
-0.115242
-0.113847
-0.112024
-0.109779
-0.10712
-0.104061
-0.100618
-0.0968135
-0.0926732
-0.088227
-0.0835091
-0.0785578
-0.0734149
-0.0681253
-0.0627369
-0.0572995
-0.0518645
-0.0464841
-0.04121
-0.036093
-0.0311821
-0.0265232
-0.0221586
-0.0181258
-0.0144572
-0.0111792
-0.00831174
-0.00586815
-0.00385493
-0.00227085
-0.00110618
-0.0003579
-4.44168e-05
-0.000110721
-0.000737427
-0.00208941
-0.00402306
-0.00645336
-0.00932771
-0.0125941
-0.0162027
-0.0201078
-0.024267
-0.0286413
-0.0331939
-0.0378909
-0.0426999
-0.0475906
-0.0525339
-0.0575021
-0.0624684
-0.0674065
-0.0722912
-0.0770972
-0.0818
-0.0863751
-0.0907981
-0.0950451
-0.0990921
-0.102915
-0.106492
-0.109798
-0.112812
-0.115511
-0.117876
-0.119884
-0.121519
-0.122762
-0.123597
-0.124012
-0.123993
-0.123532
-0.122623
-0.121263
-0.11945
-0.11719
-0.114489
-0.11136
-0.107818
-0.103884
-0.0995843
-0.0949475
-0.0900086
-0.0848066
-0.0793846
-0.0737893
-0.068071
-0.0622826
-0.0564787
-0.0507153
-0.0450486
-0.039534
-0.0342254
-0.0291738
-0.0244265
-0.0200263
-0.0160106
-0.0124105
-0.00925041
-0.00654787
-0.00431307
-0.00254788
-0.00124484
-0.000404263
-5.05866e-05
-0.000118333
-0.000786459
-0.00222575
-0.0042814
-0.00686125
-0.00990799
-0.0133652
-0.0171792
-0.0213009
-0.0256853
-0.0302907
-0.0350789
-0.040014
-0.0450628
-0.0501938
-0.0553773
-0.060585
-0.0657895
-0.0709645
-0.0760842
-0.0811233
-0.0860568
-0.09086
-0.0955084
-0.0999777
-0.104244
-0.108282
-0.112069
-0.115581
-0.118795
-0.121689
-0.12424
-0.126427
-0.12823
-0.12963
-0.130611
-0.131156
-0.131253
-0.13089
-0.130059
-0.128754
-0.126974
-0.124721
-0.121999
-0.11882
-0.115198
-0.111152
-0.106707
-0.101892
-0.0967412
-0.0912949
-0.0855971
-0.0796963
-0.073645
-0.067499
-0.0613168
-0.0551583
-0.0490844
-0.0431556
-0.0374311
-0.0319674
-0.0268177
-0.0220304
-0.0176483
-0.013708
-0.0102389
-0.00726297
-0.00479443
-0.00283847
-0.00138999
-0.000452653
-5.69814e-05
-0.000125566
-0.000833062
-0.00235538
-0.00452711
-0.0072494
-0.0104605
-0.0140999
-0.0181102
-0.0224391
-0.0270389
-0.0318661
-0.0368803
-0.0420444
-0.0473239
-0.0526867
-0.0581022
-0.0635418
-0.0689777
-0.0743832
-0.0797324
-0.085
-0.0901607
-0.0951899
-0.100063
-0.104755
-0.109242
-0.113499
-0.117502
-0.121227
-0.12465
-0.127747
-0.130497
-0.132876
-0.134864
-0.136439
-0.137584
-0.138281
-0.138514
-0.138271
-0.137541
-0.136316
-0.134593
-0.13237
-0.129651
-0.126444
-0.122762
-0.118623
-0.114049
-0.10907
-0.103719
-0.0980366
-0.0920679
-0.085863
-0.0794767
-0.0729678
-0.0663983
-0.0598328
-0.0533369
-0.0469767
-0.0408172
-0.034921
-0.0293476
-0.0241518
-0.0193825
-0.0150821
-0.0112856
-0.00801987
-0.00530365
-0.00314566
-0.00154328
-0.000503692
-6.37064e-05
-0.000132402
-0.000877111
-0.00247792
-0.00475948
-0.00761663
-0.0109835
-0.0147957
-0.0189924
-0.0235183
-0.0283234
-0.0333619
-0.0385919
-0.043975
-0.0494756
-0.0550607
-0.0606994
-0.0663625
-0.0720221
-0.0776513
-0.0832241
-0.0887151
-0.0940991
-0.0993514
-0.104447
-0.109362
-0.114071
-0.11855
-0.122773
-0.126718
-0.130358
-0.133671
-0.136631
-0.139217
-0.141404
-0.143173
-0.144501
-0.14537
-0.145762
-0.145662
-0.145058
-0.143938
-0.142296
-0.140129
-0.137437
-0.134226
-0.130507
-0.126295
-0.121612
-0.116485
-0.110948
-0.105041
-0.0988083
-0.0923028
-0.0855812
-0.0787052
-0.0717408
-0.0647569
-0.0578246
-0.0510156
-0.0444015
-0.0380515
-0.032032
-0.0264047
-0.0212255
-0.0165433
-0.012399
-0.00882529
-0.0058456
-0.0034726
-0.00170644
-0.000558019
-7.08681e-05
-0.00013882
-0.000918462
-0.00259298
-0.00497771
-0.00796166
-0.0114751
-0.0154501
-0.0198227
-0.0245348
-0.029534
-0.0347726
-0.0402074
-0.0457985
-0.0515096
-0.057307
-0.0631592
-0.0690367
-0.0749115
-0.0807567
-0.0865462
-0.0922548
-0.0978573
-0.103329
-0.108646
-0.113782
-0.118714
-0.123417
-0.127865
-0.132035
-0.1359
-0.139437
-0.14262
-0.145425
-0.147829
-0.149807
-0.151337
-0.1524
-0.152973
-0.153041
-0.152587
-0.151597
-0.150064
-0.147979
-0.145341
-0.142153
-0.138422
-0.134162
-0.129391
-0.124136
-0.11843
-0.11231
-0.105824
-0.0990243
-0.0919694
-0.0847244
-0.077359
-0.0699467
-0.0625643
-0.0552897
-0.0482011
-0.0413754
-0.0348864
-0.0288035
-0.0231901
-0.0181024
-0.0135882
-0.00968615
-0.00642527
-0.00382256
-0.00188122
-0.000616291
-7.85742e-05
-0.000144793
-0.000956954
-0.0027001
-0.00518099
-0.0082832
-0.0119335
-0.0160607
-0.0205978
-0.0254844
-0.0306658
-0.0360927
-0.0417203
-0.0475077
-0.0534178
-0.0594163
-0.0654713
-0.0715532
-0.0776337
-0.0836862
-0.0896846
-0.0956038
-0.101419
-0.107106
-0.11264
-0.117996
-0.12315
-0.128078
-0.132754
-0.137153
-0.14125
-0.14502
-0.148436
-0.151473
-0.154107
-0.156312
-0.158064
-0.15934
-0.160117
-0.160376
-0.160098
-0.159266
-0.157868
-0.155895
-0.15334
-0.150202
-0.146488
-0.142205
-0.137372
-0.132012
-0.126156
-0.119842
-0.113116
-0.106031
-0.0986478
-0.0910345
-0.0832643
-0.0754156
-0.0675707
-0.0598143
-0.052232
-0.0449086
-0.037926
-0.0313621
-0.0252888
-0.0197703
-0.014862
-0.0106094
-0.00704775
-0.00419885
-0.00206943
-0.000679171
-8.69332e-05
-0.000150295
-0.000992419
-0.00279885
-0.00536845
-0.00857989
-0.0123568
-0.0166249
-0.0213147
-0.0263632
-0.0317141
-0.0373164
-0.0431239
-0.049095
-0.0551916
-0.0613791
-0.0676253
-0.0739003
-0.080176
-0.0864258
-0.092624
-0.0987457
-0.104766
-0.110662
-0.116408
-0.121981
-0.127356
-0.132508
-0.137413
-0.142045
-0.146378
-0.150387
-0.154046
-0.157326
-0.160204
-0.162651
-0.164642
-0.166151
-0.167155
-0.167629
-0.167553
-0.166906
-0.165673
-0.16384
-0.161398
-0.158342
-0.154674
-0.1504
-0.145533
-0.140094
-0.134112
-0.127624
-0.120675
-0.113319
-0.105617
-0.0976394
-0.0894638
-0.0811731
-0.0728556
-0.0646029
-0.0565084
-0.0486654
-0.0411649
-0.034094
-0.0275338
-0.0215576
-0.0162293
-0.0116022
-0.00771815
-0.00460479
-0.00227287
-0.000747329
-9.60539e-05
-0.000155294
-0.00102468
-0.00288874
-0.00553922
-0.00885038
-0.012743
-0.0171402
-0.0219698
-0.0271672
-0.032674
-0.038438
-0.0444117
-0.0505528
-0.0568225
-0.0631857
-0.0696101
-0.0760659
-0.082525
-0.0889609
-0.0953484
-0.101663
-0.10788
-0.113977
-0.119929
-0.125713
-0.131304
-0.136679
-0.141811
-0.146677
-0.15125
-0.155504
-0.159411
-0.162945
-0.166077
-0.168781
-0.171027
-0.172789
-0.174039
-0.174752
-0.174903
-0.174469
-0.17343
-0.171769
-0.169472
-0.166531
-0.162943
-0.158709
-0.15384
-0.148353
-0.142274
-0.135638
-0.128488
-0.120878
-0.11287
-0.104537
-0.0959594
-0.0872246
-0.0784272
-0.0696658
-0.0610421
-0.0526586
-0.044616
-0.0370117
-0.0299368
-0.0234748
-0.0176989
-0.0126712
-0.00844151
-0.00504372
-0.00249334
-0.000821435
-0.000106046
-0.000159762
-0.00105357
-0.00296931
-0.00569245
-0.00909335
-0.0130902
-0.017604
-0.0225602
-0.0278925
-0.0335409
-0.0394519
-0.0455772
-0.0518735
-0.0583017
-0.0648263
-0.0714149
-0.0780377
-0.0846668
-0.0912761
-0.0978407
-0.104337
-0.11074
-0.117028
-0.123177
-0.129165
-0.134967
-0.140559
-0.145917
-0.151015
-0.155828
-0.160329
-0.16449
-0.168283
-0.17168
-0.174651
-0.177168
-0.179199
-0.180716
-0.18169
-0.182093
-0.1819
-0.181084
-0.179627
-0.177509
-0.174717
-0.171244
-0.167087
-0.162251
-0.156751
-0.150608
-0.143853
-0.13653
-0.128689
-0.120394
-0.111719
-0.102747
-0.0935704
-0.0842892
-0.0750097
-0.0658422
-0.0568987
-0.0482907
-0.0401265
-0.0325087
-0.0255315
-0.0192791
-0.0138234
-0.00922284
-0.00551892
-0.00273265
-0.000902161
-0.000117021
-0.00016367
-0.00107891
-0.00304012
-0.00582732
-0.00930751
-0.0133968
-0.0180139
-0.0230828
-0.0285353
-0.0343102
-0.0403528
-0.046614
-0.0530499
-0.0596209
-0.0662913
-0.0730286
-0.0798032
-0.0865876
-0.0933559
-0.100084
-0.106748
-0.113325
-0.119792
-0.126128
-0.132309
-0.138313
-0.144115
-0.149692
-0.155019
-0.16007
-0.164817
-0.169234
-0.173291
-0.176959
-0.180208
-0.183006
-0.185321
-0.187123
-0.188379
-0.189058
-0.189131
-0.188569
-0.187347
-0.185442
-0.182836
-0.179516
-0.175475
-0.170713
-0.165238
-0.159068
-0.152231
-0.144766
-0.136724
-0.128167
-0.119169
-0.109816
-0.100204
-0.0904403
-0.0806371
-0.0709141
-0.0613935
-0.0521982
-0.0434484
-0.0352591
-0.0277369
-0.0209779
-0.0150651
-0.010067
-0.00603365
-0.0029926
-0.000990181
-0.000129089
-0.000166989
-0.00110055
-0.00310076
-0.00594308
-0.00949171
-0.0136609
-0.0183679
-0.0235348
-0.0290921
-0.0349776
-0.0411356
-0.0475161
-0.0540748
-0.0607717
-0.0675711
-0.0744404
-0.0813502
-0.0882733
-0.0951845
-0.10206
-0.108876
-0.115612
-0.122245
-0.128754
-0.135117
-0.141311
-0.147313
-0.153101
-0.158649
-0.163931
-0.168922
-0.173593
-0.177914
-0.181857
-0.185389
-0.188477
-0.191089
-0.19319
-0.194746
-0.195724
-0.196089
-0.195809
-0.194854
-0.193198
-0.190816
-0.187689
-0.183805
-0.179159
-0.173752
-0.167599
-0.160721
-0.153154
-0.144945
-0.136157
-0.126861
-0.117147
-0.107114
-0.0968732
-0.0865455
-0.0762593
-0.0661476
-0.0563451
-0.0469853
-0.0381966
-0.0300993
-0.0228027
-0.0164025
-0.0109787
-0.00659108
-0.00327494
-0.00108617
-0.000142364
-0.000169695
-0.00111834
-0.00315087
-0.00603907
-0.00964492
-0.0138813
-0.0186639
-0.0239137
-0.0295599
-0.0355394
-0.0417955
-0.048278
-0.0549417
-0.0617466
-0.0686567
-0.0756398
-0.0826667
-0.0897104
-0.0967463
-0.103751
-0.110703
-0.11758
-0.124362
-0.131028
-0.137557
-0.143927
-0.150116
-0.156102
-0.16186
-0.167366
-0.172592
-0.177512
-0.182095
-0.186312
-0.190129
-0.193513
-0.19643
-0.198842
-0.200715
-0.20201
-0.20269
-0.20272
-0.202064
-0.200691
-0.198571
-0.195679
-0.191997
-0.187512
-0.182222
-0.176132
-0.16926
-0.161636
-0.153304
-0.144321
-0.134762
-0.124713
-0.114279
-0.103574
-0.0927266
-0.0818744
-0.0711615
-0.0607352
-0.050743
-0.041328
-0.0326257
-0.0247602
-0.0178414
-0.0119624
-0.0071943
-0.00358142
-0.00119078
-0.000156962
-0.000171768
-0.00113219
-0.00319015
-0.00611475
-0.00976632
-0.0140567
-0.0189004
-0.0242174
-0.029936
-0.0359921
-0.0423287
-0.0488946
-0.0556446
-0.0625383
-0.0695399
-0.0766172
-0.0837413
-0.0908858
-0.0980266
-0.105141
-0.112208
-0.119208
-0.126119
-0.132923
-0.139599
-0.146128
-0.152487
-0.158655
-0.164609
-0.170325
-0.175776
-0.180935
-0.185773
-0.190258
-0.194359
-0.19804
-0.201266
-0.203999
-0.2062
-0.207829
-0.208845
-0.20921
-0.208883
-0.207827
-0.206007
-0.203393
-0.199958
-0.195685
-0.190561
-0.184587
-0.177774
-0.170144
-0.161738
-0.152607
-0.142825
-0.132477
-0.121669
-0.11052
-0.0991654
-0.0877507
-0.0764315
-0.0653687
-0.0547245
-0.0446582
-0.0353219
-0.0268562
-0.019387
-0.0130223
-0.00784624
-0.00391374
-0.00130469
-0.000172999
-0.000173194
-0.00114201
-0.00321841
-0.00616976
-0.00985534
-0.0141862
-0.0190762
-0.0244443
-0.0302183
-0.0363333
-0.0427317
-0.0493619
-0.0561785
-0.0631409
-0.0702133
-0.0773637
-0.0845636
-0.0917872
-0.099011
-0.106213
-0.113374
-0.120473
-0.127492
-0.134412
-0.141214
-0.14788
-0.154389
-0.16072
-0.166852
-0.17276
-0.17842
-0.183804
-0.188885
-0.19363
-0.198008
-0.201983
-0.205519
-0.208575
-0.211113
-0.213088
-0.214458
-0.21518
-0.215209
-0.214503
-0.213021
-0.210727
-0.207587
-0.203576
-0.198674
-0.192873
-0.186176
-0.178599
-0.170175
-0.160951
-0.150995
-0.140392
-0.129247
-0.117683
-0.10584
-0.093873
-0.0819487
-0.0702417
-0.0589299
-0.0481899
-0.0381921
-0.0290956
-0.021044
-0.0141624
-0.00854973
-0.00427353
-0.00142856
-0.000190594
-0.000173964
-0.00114775
-0.00323554
-0.00620393
-0.00991169
-0.0142695
-0.0191906
-0.0245937
-0.0304056
-0.0365612
-0.0430022
-0.0496768
-0.0565394
-0.0635492
-0.0706705
-0.0778717
-0.0851245
-0.0924038
-0.0996866
-0.106952
-0.114181
-0.121356
-0.128457
-0.135469
-0.142373
-0.149151
-0.155786
-0.162256
-0.168543
-0.174622
-0.18047
-0.186062
-0.191369
-0.19636
-0.201004
-0.205264
-0.209104
-0.212484
-0.215361
-0.217691
-0.219428
-0.220525
-0.220935
-0.220609
-0.219502
-0.21757
-0.214773
-0.211076
-0.206453
-0.200885
-0.194368
-0.186908
-0.17853
-0.169275
-0.159203
-0.148398
-0.136963
-0.125022
-0.11272
-0.100219
-0.0876985
-0.0753457
-0.0633556
-0.0519232
-0.0412388
-0.0314819
-0.0228162
-0.0153859
-0.00930738
-0.0046624
-0.00156303
-0.00020987
-0.000174078
-0.00114943
-0.00324159
-0.00621732
-0.00993545
-0.0143066
-0.0192438
-0.0246652
-0.0304975
-0.036675
-0.043139
-0.0498375
-0.0567246
-0.0637596
-0.0709069
-0.0781351
-0.0854163
-0.0927261
-0.100042
-0.107345
-0.114616
-0.121838
-0.128994
-0.136069
-0.143047
-0.14991
-0.156642
-0.163225
-0.169639
-0.175864
-0.181876
-0.187651
-0.193163
-0.198381
-0.203273
-0.207805
-0.21194
-0.215636
-0.218851
-0.221538
-0.223651
-0.225138
-0.225948
-0.22603
-0.225331
-0.223801
-0.221393
-0.218064
-0.213779
-0.208509
-0.202239
-0.194967
-0.186706
-0.177489
-0.167371
-0.156427
-0.144758
-0.132488
-0.119766
-0.10676
-0.0936599
-0.0806672
-0.0679939
-0.0558551
-0.0444622
-0.0340173
-0.0247066
-0.0166961
-0.0101216
-0.00508183
-0.00170873
-0.000230951
-0.000173544
-0.00114712
-0.00323674
-0.00621026
-0.00992713
-0.0142981
-0.0192363
-0.0246598
-0.0304947
-0.0366751
-0.0431421
-0.0498435
-0.056733
-0.0637701
-0.0709193
-0.0781494
-0.0854332
-0.0927466
-0.100068
-0.10738
-0.114663
-0.121903
-0.129084
-0.136191
-0.143211
-0.150127
-0.156926
-0.163589
-0.1701
-0.17644
-0.182587
-0.188518
-0.194207
-0.199627
-0.204746
-0.209531
-0.213943
-0.217944
-0.221489
-0.224532
-0.227022
-0.228908
-0.230135
-0.230647
-0.230386
-0.229296
-0.227322
-0.224414
-0.220526
-0.215619
-0.209668
-0.202658
-0.194593
-0.185494
-0.175405
-0.164396
-0.15256
-0.140022
-0.126929
-0.113458
-0.0998047
-0.0861867
-0.0728329
-0.059979
-0.04786
-0.0367023
-0.0267172
-0.0180951
-0.0109944
-0.00553323
-0.00186629
-0.000253962
-0.000172382
-0.00114093
-0.00322133
-0.0061834
-0.00988767
-0.0142454
-0.0191699
-0.024579
-0.0303988
-0.0365633
-0.0430131
-0.0496958
-0.0565652
-0.0635806
-0.0707067
-0.0779126
-0.0851715
-0.0924602
-0.0997582
-0.107048
-0.114312
-0.121537
-0.12871
-0.135816
-0.142843
-0.149778
-0.156607
-0.163316
-0.16989
-0.176309
-0.182557
-0.18861
-0.194446
-0.200037
-0.205355
-0.210367
-0.215036
-0.219323
-0.223185
-0.226574
-0.229439
-0.231727
-0.23338
-0.234339
-0.234542
-0.233925
-0.232428
-0.229991
-0.226559
-0.222083
-0.216524
-0.209857
-0.20207
-0.193174
-0.183201
-0.17221
-0.160288
-0.147552
-0.134152
-0.120265
-0.106097
-0.0918783
-0.0778551
-0.0642849
-0.0514272
-0.0395355
-0.0288488
-0.0195849
-0.0119277
-0.00601786
-0.0020363
-0.000279031
-0.000170623
-0.00113107
-0.00319591
-0.00613773
-0.00981859
-0.0141504
-0.0190468
-0.0244257
-0.0302132
-0.0363429
-0.0427552
-0.0493977
-0.0562238
-0.063193
-0.0702701
-0.0774246
-0.0846301
-0.0918642
-0.0991072
-0.106342
-0.113554
-0.120731
-0.127858
-0.134927
-0.141924
-0.14884
-0.155662
-0.162377
-0.168973
-0.175435
-0.181744
-0.187882
-0.193827
-0.199556
-0.205039
-0.210247
-0.215144
-0.219693
-0.223851
-0.227571
-0.230801
-0.233488
-0.235571
-0.236988
-0.237674
-0.23756
-0.236577
-0.234659
-0.23174
-0.227761
-0.222669
-0.216426
-0.209007
-0.200407
-0.190644
-0.179765
-0.167846
-0.154997
-0.141364
-0.127125
-0.112493
-0.0977092
-0.0830377
-0.0687579
-0.0551557
-0.0425134
-0.0311008
-0.0211662
-0.0129227
-0.00653687
-0.00221932
-0.00030629
-0.000168311
-0.00111782
-0.00316123
-0.00607463
-0.00972197
-0.014016
-0.0188706
-0.0242041
-0.0299424
-0.0360188
-0.0423736
-0.048954
-0.0557135
-0.0626116
-0.0696132
-0.0766881
-0.0838106
-0.0909589
-0.0981142
-0.105261
-0.112385
-0.119475
-0.126521
-0.133512
-0.14044
-0.147295
-0.154067
-0.160748
-0.167324
-0.173784
-0.180112
-0.186293
-0.192307
-0.198131
-0.203742
-0.209109
-0.214201
-0.218981
-0.223408
-0.227437
-0.231016
-0.23409
-0.2366
-0.23848
-0.239661
-0.240072
-0.239636
-0.23828
-0.235927
-0.232509
-0.227959
-0.222224
-0.215264
-0.207057
-0.197607
-0.186943
-0.175129
-0.162264
-0.148485
-0.133972
-0.118939
-0.103639
-0.0883516
-0.0733788
-0.0590337
-0.04563
-0.033471
-0.0228392
-0.0139806
-0.0070912
-0.00241588
-0.000335867
-0.000165504
-0.00110154
-0.00311828
-0.00599592
-0.00960056
-0.0138458
-0.0186461
-0.0239198
-0.0295926
-0.0355978
-0.0418754
-0.0483722
-0.0550417
-0.0618434
-0.0687424
-0.0757088
-0.0827176
-0.0897476
-0.0967812
-0.103804
-0.110803
-0.117768
-0.124691
-0.131564
-0.13838
-0.14513
-0.151809
-0.158409
-0.164919
-0.171331
-0.177633
-0.18381
-0.189846
-0.195722
-0.201416
-0.206901
-0.212148
-0.217122
-0.221785
-0.226093
-0.229997
-0.233441
-0.236366
-0.238706
-0.240389
-0.241338
-0.241476
-0.240717
-0.23898
-0.236182
-0.232246
-0.227102
-0.220695
-0.212984
-0.203954
-0.193617
-0.18202
-0.169246
-0.155425
-0.140729
-0.125374
-0.10962
-0.0937613
-0.0781228
-0.0630456
-0.0488766
-0.0359554
-0.0246028
-0.0151016
-0.00768159
-0.00262644
-0.000367894
-0.000162276
-0.0010827
-0.00306832
-0.00590391
-0.00945787
-0.0136447
-0.0183792
-0.0235797
-0.029172
-0.0350888
-0.0412699
-0.047662
-0.0542182
-0.0608981
-0.0676669
-0.0744954
-0.081359
-0.0882374
-0.095114
-0.101975
-0.10881
-0.115611
-0.122369
-0.12908
-0.135739
-0.142339
-0.148877
-0.155348
-0.161744
-0.168059
-0.174284
-0.180407
-0.186416
-0.192294
-0.198023
-0.203579
-0.208935
-0.214062
-0.218922
-0.223474
-0.227671
-0.23146
-0.234781
-0.237568
-0.239749
-0.241246
-0.241973
-0.241842
-0.240761
-0.238639
-0.235384
-0.230912
-0.22515
-0.218039
-0.209542
-0.19965
-0.188391
-0.175831
-0.162083
-0.147309
-0.131725
-0.115594
-0.099224
-0.0829598
-0.0671717
-0.0522414
-0.0385483
-0.0264549
-0.0162855
-0.00830854
-0.00285145
-0.000402501
-0.000158719
-0.00106186
-0.00301289
-0.00580142
-0.00929818
-0.0134184
-0.0180772
-0.0231928
-0.0286906
-0.0345029
-0.0405692
-0.0468358
-0.0532556
-0.0597883
-0.0663994
-0.07306
-0.0797463
-0.0864387
-0.0931219
-0.0997836
-0.106415
-0.113008
-0.119559
-0.126063
-0.132517
-0.138919
-0.145268
-0.151559
-0.157789
-0.163955
-0.170051
-0.176068
-0.181996
-0.187824
-0.193535
-0.199111
-0.204528
-0.209758
-0.214769
-0.219523
-0.223976
-0.228076