/*--------------------------------*- C++ -*----------------------------------*\
  =========                 |
  \\      /  F ield         | OpenFOAM: The Open Source CFD Toolbox
   \\    /   O peration     | Website:  https://openfoam.org
    \\  /    A nd           | Version:  dev
     \\/     M anipulation  |
\*---------------------------------------------------------------------------*/
FoamFile
{
    format      ascii;
    class       surfaceScalarField;
    location    "18.45";
    object      phi;
}
// * * * * * * * * * * * * * * * * * * * * * * * * * * * * * * * * * * * * * //

dimensions      [0 3 -1 0 0 0 0];

internalField   nonuniform List<scalar> 
10224
(
3.3412e-08
-3.51866e-08
8.75474e-08
-5.41199e-08
1.24071e-07
-3.65081e-08
1.24962e-07
-9.06853e-10
8.32931e-08
4.16549e-08
-2.17547e-09
8.54763e-08
-1.29642e-07
1.2747e-07
-2.95789e-07
1.66155e-07
-4.96565e-07
2.00779e-07
-7.27673e-07
2.31103e-07
-9.84841e-07
2.57164e-07
-1.26398e-06
2.7914e-07
-1.56126e-06
2.97282e-07
-1.87314e-06
3.11873e-07
-2.19633e-06
3.23195e-07
-2.52785e-06
3.31516e-07
-2.86492e-06
3.37073e-07
-3.20499e-06
3.40068e-07
-3.54565e-06
3.4066e-07
-3.88462e-06
3.38971e-07
-4.21971e-06
3.35087e-07
-4.54877e-06
3.29062e-07
-4.86968e-06
3.20919e-07
-5.18035e-06
3.10663e-07
-5.47862e-06
2.98279e-07
-5.76237e-06
2.83748e-07
-6.02942e-06
2.67049e-07
-6.27759e-06
2.48164e-07
-6.50468e-06
2.2709e-07
-6.70852e-06
2.03839e-07
-6.88697e-06
1.78451e-07
-7.03796e-06
1.50992e-07
-7.15952e-06
1.21564e-07
-7.24983e-06
9.0308e-08
-7.30724e-06
5.74025e-08
-7.33031e-06
2.30704e-08
-7.31788e-06
-1.24237e-08
-7.26911e-06
-4.87721e-08
-7.18349e-06
-8.56253e-08
-7.06089e-06
-1.22597e-07
-6.90162e-06
-1.59268e-07
-6.70644e-06
-1.95189e-07
-6.47655e-06
-2.2989e-07
-6.21365e-06
-2.6289e-07
-5.91995e-06
-2.93702e-07
-5.59811e-06
-3.21844e-07
-5.25126e-06
-3.46851e-07
-4.88297e-06
-3.68286e-07
-4.49722e-06
-3.85746e-07
-4.09835e-06
-3.98878e-07
-3.69096e-06
-4.07386e-07
-3.27992e-06
-4.11041e-07
-2.87023e-06
-4.09687e-07
-2.46698e-06
-4.03249e-07
-2.07525e-06
-3.91736e-07
-1.7e-06
-3.75244e-07
-1.34605e-06
-3.53957e-07
-1.0179e-06
-3.28149e-07
-7.19719e-07
-2.9818e-07
-4.5522e-07
-2.64499e-07
-2.27578e-07
-2.27642e-07
-3.93368e-08
-1.88241e-07
1.07696e-07
-1.47033e-07
2.12582e-07
-1.04886e-07
2.75429e-07
-6.28488e-08
2.97667e-07
-2.22382e-08
2.82462e-07
1.52036e-08
2.35402e-07
4.70606e-08
1.65534e-07
6.98696e-08
8.71277e-08
7.84031e-08
2.25321e-08
6.4586e-08
2.25209e-08
5.36483e-08
-8.88149e-08
1.11993e-07
-1.1246e-07
1.17658e-07
-4.21715e-08
3.82664e-08
7.84892e-08
-1.42563e-07
2.22471e-07
-4.30101e-07
3.73019e-07
-8.22586e-07
5.19963e-07
-1.31388e-06
6.57455e-07
-1.89543e-06
7.82324e-07
-2.55743e-06
8.93093e-07
-3.2896e-06
9.89334e-07
-4.08171e-06
1.07125e-06
-4.92385e-06
1.13943e-06
-5.8066e-06
1.19462e-06
-6.72107e-06
1.23766e-06
-7.65895e-06
1.26939e-06
-8.61243e-06
1.29056e-06
-9.57419e-06
1.30183e-06
-1.05373e-05
1.30375e-06
-1.1495e-05
1.29674e-06
-1.24411e-05
1.28112e-06
-1.33691e-05
1.25711e-06
-1.4273e-05
1.22481e-06
-1.51466e-05
1.18427e-06
-1.59838e-05
1.13549e-06
-1.67785e-05
1.07845e-06
-1.75246e-05
1.01313e-06
-1.8216e-05
9.39528e-07
-1.88466e-05
8.57681e-07
-1.94104e-05
7.67706e-07
-1.99018e-05
6.69807e-07
-2.03151e-05
5.64293e-07
-2.06451e-05
4.51599e-07
-2.08871e-05
3.32292e-07
-2.10368e-05
2.07084e-07
-2.10906e-05
7.68372e-08
-2.10456e-05
-5.74335e-08
-2.08998e-05
-1.94566e-07
-2.06521e-05
-3.33256e-07
-2.03027e-05
-4.72066e-07
-1.98525e-05
-6.09449e-07
-1.93039e-05
-7.4376e-07
-1.86605e-05
-8.73286e-07
-1.79271e-05
-9.96274e-07
-1.71099e-05
-1.11096e-06
-1.62161e-05
-1.21562e-06
-1.52544e-05
-1.30856e-06
-1.42345e-05
-1.38823e-06
-1.3167e-05
-1.45318e-06
-1.20637e-05
-1.50215e-06
-1.0937e-05
-1.53411e-06
-9.79984e-06
-1.54823e-06
-8.66555e-06
-1.54398e-06
-7.54769e-06
-1.5211e-06
-6.45977e-06
-1.47966e-06
-5.41499e-06
-1.42002e-06
-4.42605e-06
-1.3429e-06
-3.50488e-06
-1.24932e-06
-2.66242e-06
-1.14065e-06
-1.90834e-06
-1.01858e-06
-1.25082e-06
-8.85158e-07
-6.96263e-07
-7.428e-07
-2.48969e-07
-5.94327e-07
8.92085e-08
-4.43064e-07
3.19337e-07
-2.92979e-07
4.46005e-07
-1.48909e-07
4.78183e-07
-1.69777e-08
4.30321e-07
9.49203e-08
3.2383e-07
1.76365e-07
1.88685e-07
2.13564e-07
6.43016e-08
1.88991e-07
8.68158e-08
3.71796e-08
-1.25977e-07
4.29578e-08
-1.18242e-07
-4.37734e-08
4.45479e-08
-2.59247e-07
2.93957e-07
-6.23045e-07
5.86269e-07
-1.14225e-06
8.92236e-07
-1.81513e-06
1.19285e-06
-2.63403e-06
1.47635e-06
-3.58759e-06
1.73588e-06
-4.66229e-06
1.96779e-06
-5.84358e-06
2.17062e-06
-7.11658e-06
2.34426e-06
-8.46662e-06
2.48946e-06
-9.87946e-06
2.60745e-06
-1.13415e-05
2.69969e-06
-1.28398e-05
2.76769e-06
-1.43621e-05
2.81286e-06
-1.58968e-05
2.83648e-06
-1.74326e-05
2.83962e-06
-1.8959e-05
2.82313e-06
-2.04656e-05
2.78767e-06
-2.19421e-05
2.73368e-06
-2.33788e-05
2.66145e-06
-2.47656e-05
2.57111e-06
-2.60929e-05
2.46275e-06
-2.73508e-05
2.33637e-06
-2.85297e-05
2.19202e-06
-2.96199e-05
2.02977e-06
-3.06121e-05
1.84982e-06
-3.14969e-05
1.65251e-06
-3.22654e-05
1.43835e-06
-3.29092e-05
1.2081e-06
-3.34204e-05
9.62767e-07
-3.37917e-05
7.03629e-07
-3.40169e-05
4.32273e-07
-3.40907e-05
1.50587e-07
-3.40089e-05
-1.39229e-07
-3.37688e-05
-4.34671e-07
-3.33691e-05
-7.32951e-07
-3.28101e-05
-1.03102e-06
-3.2094e-05
-1.32559e-06
-3.12245e-05
-1.61321e-06
-3.02075e-05
-1.89028e-06
-2.90507e-05
-2.15312e-06
-2.77636e-05
-2.39806e-06
-2.63577e-05
-2.62148e-06
-2.48464e-05
-2.81991e-06
-2.32445e-05
-2.99009e-06
-2.15686e-05
-3.12904e-06
-1.98366e-05
-3.23417e-06
-1.80674e-05
-3.30331e-06
-1.62808e-05
-3.3348e-06
-1.44973e-05
-3.32754e-06
-1.27373e-05
-3.28103e-06
-1.10216e-05
-3.19544e-06
-9.37002e-06
-3.07157e-06
-7.80197e-06
-2.91095e-06
-6.33552e-06
-2.71578e-06
-4.98717e-06
-2.48899e-06
-3.77152e-06
-2.23423e-06
-2.7008e-06
-1.95588e-06
-1.78447e-06
-1.65913e-06
-1.02877e-06
-1.35003e-06
-4.36176e-07
-1.03566e-06
-4.7865e-09
-7.24369e-07
2.72443e-07
-4.26139e-07
4.08561e-07
-1.53097e-07
4.23766e-07
7.97079e-08
3.46639e-07
2.5348e-07
2.15336e-07
3.44861e-07
7.85183e-08
3.25819e-07
1.65333e-07
1.79116e-09
-1.27783e-07
-7.91837e-08
-3.72694e-08
-2.97899e-07
2.63262e-07
-6.88021e-07
6.8408e-07
-1.26782e-06
1.16609e-06
-2.04356e-06
1.66799e-06
-3.01245e-06
2.16173e-06
-4.16522e-06
2.62912e-06
-5.48828e-06
3.05893e-06
-6.96532e-06
3.44483e-06
-8.57851e-06
3.78382e-06
-1.03094e-05
4.07516e-06
-1.21395e-05
4.31956e-06
-1.40507e-05
4.51862e-06
-1.60254e-05
4.67436e-06
-1.80467e-05
4.78898e-06
-2.00984e-05
4.86461e-06
-2.21651e-05
4.90319e-06
-2.42319e-05
4.90638e-06
-2.62843e-05
4.87557e-06
-2.83084e-05
4.81178e-06
-3.02905e-05
4.71577e-06
-3.22171e-05
4.58805e-06
-3.40749e-05
4.42894e-06
-3.58508e-05
4.23862e-06
-3.75317e-05
4.01724e-06
-3.91046e-05
3.76496e-06
-4.05569e-05
3.48205e-06
-4.1876e-05
3.16896e-06
-4.30499e-05
2.82639e-06
-4.40669e-05
2.45536e-06
-4.49161e-05
2.05727e-06
-4.55873e-05
1.63393e-06
-4.60712e-05
1.18762e-06
-4.63601e-05
7.21117e-07
-4.64472e-05
2.37685e-07
-4.63275e-05
-2.58897e-07
-4.59978e-05
-7.6436e-07
-4.54568e-05
-1.27397e-06
-4.47053e-05
-1.78258e-06
-4.37462e-05
-2.28467e-06
-4.25849e-05
-2.77444e-06
-4.12294e-05
-3.24587e-06
-3.96896e-05
-3.69284e-06
-3.79785e-05
-4.10924e-06
-3.61109e-05
-4.48905e-06
-3.41043e-05
-4.82651e-06
-3.19782e-05
-5.11622e-06
-2.97539e-05
-5.35327e-06
-2.74547e-05
-5.53337e-06
-2.51051e-05
-5.65294e-06
-2.27306e-05
-5.70926e-06
-2.03576e-05
-5.70052e-06
-1.80127e-05
-5.62594e-06
-1.57224e-05
-5.4858e-06
-1.35125e-05
-5.2815e-06
-1.14078e-05
-5.01563e-06
-9.43163e-06
-4.69192e-06
-7.60529e-06
-4.31534e-06
-5.94746e-06
-3.89205e-06
-4.47385e-06
-3.42949e-06
-3.19656e-06
-2.93642e-06
-2.12355e-06
-2.42304e-06
-1.25803e-06
-1.90119e-06
-5.97761e-07
-1.38464e-06
-1.34334e-07
-8.89566e-07
1.4772e-07
-4.35146e-07
2.7182e-07
-4.43868e-08
2.70373e-07
2.54925e-07
1.85817e-07
4.29409e-07
7.20621e-08
4.39576e-07
2.37396e-07
-4.21111e-08
-8.56825e-08
-2.3009e-07
1.50698e-07
-6.06449e-07
6.3962e-07
-1.19772e-06
1.27536e-06
-2.01761e-06
1.98599e-06
-3.06928e-06
2.71966e-06
-4.34754e-06
3.43998e-06
-5.84096e-06
4.12253e-06
-7.53368e-06
4.75165e-06
-9.40692e-06
5.31808e-06
-1.14401e-05
5.81705e-06
-1.3612e-05
6.24698e-06
-1.59008e-05
6.60837e-06
-1.82852e-05
6.90302e-06
-2.07443e-05
7.13348e-06
-2.32579e-05
7.30255e-06
-2.58063e-05
7.41309e-06
-2.83709e-05
7.4677e-06
-3.09332e-05
7.46868e-06
-3.34755e-05
7.41793e-06
-3.59807e-05
7.31693e-06
-3.84317e-05
7.1668e-06
-4.0812e-05
6.9683e-06
-4.3105e-05
6.72199e-06
-4.52946e-05
6.42823e-06
-4.73648e-05
6.08737e-06
-4.92996e-05
5.69978e-06
-5.10836e-05
5.26604e-06
-5.27016e-05
4.78698e-06
-5.4139e-05
4.26381e-06
-5.53819e-05
3.69823e-06
-5.64171e-05
3.09246e-06
-5.72325e-05
2.44938e-06
-5.78174e-05
1.77252e-06
-5.81624e-05
1.06611e-06
-5.82599e-05
3.35144e-07
-5.81041e-05
-4.14688e-07
-5.76915e-05
-1.17698e-06
-5.70208e-05
-1.94466e-06
-5.60933e-05
-2.71006e-06
-5.4913e-05
-3.46501e-06
-5.34865e-05
-4.20091e-06
-5.18235e-05
-4.9089e-06
-4.99364e-05
-5.57995e-06
-4.78405e-05
-6.20508e-06
-4.55541e-05
-6.77546e-06
-4.3098e-05
-7.28264e-06
-4.04955e-05
-7.71871e-06
-3.77723e-05
-8.07647e-06
-3.4956e-05
-8.34963e-06
-3.2076e-05
-8.53298e-06
-2.91627e-05
-8.62253e-06
-2.62476e-05
-8.61565e-06
-2.33623e-05
-8.5112e-06
-2.05385e-05
-8.30963e-06
-1.78069e-05
-8.01304e-06
-1.51973e-05
-7.62524e-06
-1.27374e-05
-7.15182e-06
-1.04526e-05
-6.60013e-06
-8.36534e-06
-5.97934e-06
-6.49433e-06
-5.30049e-06
-4.8542e-06
-4.57656e-06
-3.45466e-06
-3.82258e-06
-2.29996e-06
-3.05589e-06
-1.38816e-06
-2.29644e-06
-7.10425e-07
-1.5673e-06
-2.5033e-07
-8.95245e-07
1.69366e-08
-3.11652e-07
1.25371e-07
1.46495e-07
1.19041e-07
4.35736e-07
5.35079e-08
5.05109e-07
2.90905e-07
-8.94318e-08
3.75206e-09
-3.95187e-07
4.56461e-07
-9.4456e-07
1.189e-06
-1.75409e-06
2.0849e-06
-2.83055e-06
3.06245e-06
-4.17218e-06
4.06127e-06
-5.77011e-06
5.03791e-06
-7.60996e-06
5.96239e-06
-9.6733e-06
6.81499e-06
-1.19388e-05
7.58362e-06
-1.43836e-05
8.26176e-06
-1.69835e-05
8.84691e-06
-1.97143e-05
9.33923e-06
-2.2552e-05
9.74068e-06
-2.54727e-05
1.00542e-05
-2.84534e-05
1.02832e-05
-3.14715e-05
1.04312e-05
-3.45052e-05
1.05014e-05
-3.75334e-05
1.04969e-05
-4.05354e-05
1.04199e-05
-4.34909e-05
1.02724e-05
-4.63801e-05
1.0056e-05
-4.91835e-05
9.77176e-06
-5.1882e-05
9.42042e-06
-5.44564e-05
9.00265e-06
-5.68881e-05
8.51905e-06
-5.91586e-05
7.97032e-06
-6.125e-05
7.35742e-06
-6.31447e-05
6.6817e-06
-6.48259e-05
5.94502e-06
-6.62776e-05
5.14993e-06
-6.74848e-05
4.29968e-06
-6.84339e-05
3.3984e-06
-6.91125e-05
2.45111e-06
-6.95101e-05
1.4638e-06
-6.96184e-05
4.43409e-07
-6.9431e-05
-6.02126e-07
-6.8944e-05
-1.66394e-06
-6.81564e-05
-2.7323e-06
-6.70697e-05
-3.79667e-06
-6.56889e-05
-4.84585e-06
-6.40217e-05
-5.86808e-06
-6.20793e-05
-6.85128e-06
-5.98761e-05
-7.78316e-06
-5.74297e-05
-8.65148e-06
-5.4761e-05
-9.44424e-06
-5.18936e-05
-1.015e-05
-4.88544e-05
-1.07579e-05
-4.56726e-05
-1.12583e-05
-4.23797e-05
-1.16426e-05
-3.90091e-05
-1.19036e-05
-3.55955e-05
-1.20361e-05
-3.21748e-05
-1.20364e-05
-2.87831e-05
-1.19029e-05
-2.54565e-05
-1.16362e-05
-2.22302e-05
-1.12393e-05
-1.91382e-05
-1.07173e-05
-1.62122e-05
-1.00778e-05
-1.34815e-05
-9.33087e-06
-1.09717e-05
-8.48906e-06
-8.7048e-06
-7.56744e-06
-6.69769e-06
-6.58366e-06
-4.96211e-06
-5.55815e-06
-3.50373e-06
-4.51427e-06
-2.32151e-06
-3.47866e-06
-1.40713e-06
-2.48169e-06
-7.4431e-07
-1.55807e-06
-3.08263e-07
-7.47703e-07
-6.50659e-08
-9.66981e-08
2.89546e-08
3.41715e-07
2.81765e-08
5.05887e-07
3.19082e-07
-1.3757e-07
1.41322e-07
-5.65911e-07
8.84814e-07
-1.29643e-06
1.91953e-06
-2.33419e-06
3.12266e-06
-3.67748e-06
4.40573e-06
-5.31821e-06
5.702e-06
-7.2428e-06
6.9625e-06
-9.43314e-06
8.15273e-06
-1.18677e-05
9.24955e-06
-1.45225e-05
1.02384e-05
-1.73721e-05
1.11113e-05
-2.039e-05
1.18648e-05
-2.35496e-05
1.24988e-05
-2.68244e-05
1.30154e-05
-3.0188e-05
1.34179e-05
-3.3615e-05
1.37102e-05
-3.70803e-05
1.38965e-05
-4.05595e-05
1.39806e-05
-4.40288e-05
1.39662e-05
-4.7465e-05
1.3856e-05
-5.08452e-05
1.36527e-05
-5.41471e-05
1.33579e-05
-5.73485e-05
1.29732e-05
-6.04279e-05
1.24997e-05
-6.33636e-05
1.19384e-05
-6.61345e-05
1.129e-05
-6.87201e-05
1.05559e-05
-7.10999e-05
9.73728e-06
-7.32545e-05
8.83629e-06
-7.5165e-05
7.85554e-06
-7.68137e-05
6.79856e-06
-7.81838e-05
5.66981e-06
-7.92602e-05
4.47486e-06
-8.00296e-05
3.22044e-06
-8.04802e-05
1.91447e-06
-8.0603e-05
5.66154e-07
-8.0391e-05
-8.14118e-07
-7.98402e-05
-2.21475e-06
-7.89495e-05
-3.62304e-06
-7.77208e-05
-5.02529e-06
-7.61597e-05
-6.40698e-06
-7.42749e-05
-7.75288e-06
-7.20788e-05
-9.04736e-06
-6.95875e-05
-1.02745e-05
-6.68203e-05
-1.14186e-05
-6.38004e-05
-1.24641e-05
-6.05542e-05
-1.33962e-05
-5.7111e-05
-1.4201e-05
-5.35034e-05
-1.4866e-05
-4.9766e-05
-1.53799e-05
-4.59359e-05
-1.57338e-05
-4.20516e-05
-1.59204e-05
-3.81527e-05
-1.59352e-05
-3.42795e-05
-1.57761e-05
-3.0472e-05
-1.54438e-05
-2.67695e-05
-1.49418e-05
-2.32097e-05
-1.4277e-05
-1.98284e-05
-1.34591e-05
-1.66582e-05
-1.25011e-05
-1.37283e-05
-1.1419e-05
-1.10634e-05
-1.02324e-05
-8.68314e-06
-8.96388e-06
-6.60156e-06
-7.63973e-06
-4.82616e-06
-6.28967e-06
-3.35745e-06
-4.94737e-06
-2.18836e-06
-3.65077e-06
-1.30373e-06
-2.4427e-06
-6.79856e-07
-1.37158e-06
-2.84171e-07
-4.92382e-07
-7.48904e-08
1.32437e-07
-6.9158e-10
4.31689e-07
3.1839e-07
-1.85271e-07
3.26599e-07
-7.37383e-07
1.43693e-06
-1.65231e-06
2.83445e-06
-2.92303e-06
4.39338e-06
-4.53848e-06
6.02117e-06
-6.48334e-06
7.64686e-06
-8.73839e-06
9.21756e-06
-1.12812e-05
1.06955e-05
-1.40865e-05
1.20549e-05
-1.71276e-05
1.32795e-05
-2.03762e-05
1.43599e-05
-2.38037e-05
1.52922e-05
-2.73809e-05
1.60761e-05
-3.10793e-05
1.67138e-05
-3.48705e-05
1.7209e-05
-3.87265e-05
1.75663e-05
-4.26203e-05
1.77902e-05
-4.65251e-05
1.78855e-05
-5.04149e-05
1.7856e-05
-5.42643e-05
1.77054e-05
-5.8048e-05
1.74364e-05
-6.17416e-05
1.70514e-05
-6.53205e-05
1.65522e-05
-6.8761e-05
1.59402e-05
-7.20393e-05
1.52166e-05
-7.51321e-05
1.43829e-05
-7.80168e-05
1.34406e-05
-8.06712e-05
1.23916e-05
-8.30737e-05
1.12388e-05
-8.52038e-05
9.98567e-06
-8.70421e-05
8.63685e-06
-8.85705e-05
7.19819e-06
-8.97725e-05
5.67684e-06
-9.06334e-05
4.0814e-06
-9.11409e-05
2.42195e-06
-9.12849e-05
7.10108e-07
-9.1058e-05
-1.04104e-06
-9.04558e-05
-2.81694e-06
-8.94771e-05
-4.6017e-06
-8.81242e-05
-6.37821e-06
-8.64028e-05
-8.12835e-06
-8.43225e-05
-9.83319e-06
-8.18966e-05
-1.14732e-05
-7.91424e-05
-1.30288e-05
-7.60809e-05
-1.44801e-05
-7.2737e-05
-1.5808e-05
-6.91392e-05
-1.69941e-05
-6.53192e-05
-1.8021e-05
-6.13122e-05
-1.8873e-05
-5.71559e-05
-1.95363e-05
-5.28903e-05
-1.99994e-05
-4.85573e-05
-2.02533e-05
-4.42002e-05
-2.02923e-05
-3.98628e-05
-2.01135e-05
-3.55888e-05
-1.97177e-05
-3.14214e-05
-1.91093e-05
-2.7402e-05
-1.82964e-05
-2.357e-05
-1.72911e-05
-1.99617e-05
-1.61093e-05
-1.66096e-05
-1.47711e-05
-1.35416e-05
-1.33004e-05
-1.07802e-05
-1.17253e-05
-8.34196e-06
-1.00779e-05
-6.23685e-06
-8.39478e-06
-4.46746e-06
-6.71676e-06
-3.02865e-06
-5.08958e-06
-1.90714e-06
-3.56421e-06
-1.08121e-06
-2.19751e-06
-5.20544e-07
-1.05305e-06
-1.8627e-07
-2.01835e-07
-3.1144e-08
2.76564e-07
2.87246e-07
-2.31905e-07
5.58508e-07
-9.06851e-07
2.11187e-06
-2.0062e-06
3.9338e-06
-3.5109e-06
5.89807e-06
-5.40008e-06
7.91035e-06
-7.65062e-06
9.8974e-06
-1.02371e-05
1.1804e-05
-1.31321e-05
1.35905e-05
-1.63065e-05
1.52294e-05
-1.97302e-05
1.67032e-05
-2.33723e-05
1.8002e-05
-2.72015e-05
1.91215e-05
-3.11868e-05
2.00614e-05
-3.52974e-05
2.08243e-05
-3.95028e-05
2.14144e-05
-4.37733e-05
2.18368e-05
-4.80798e-05
2.20967e-05
-5.23937e-05
2.21993e-05
-5.66869e-05
2.21492e-05
-6.0932e-05
2.19505e-05
-6.51019e-05
2.16064e-05
-6.91701e-05
2.11196e-05
-7.31101e-05
2.04922e-05
-7.68961e-05
1.97262e-05
-8.05025e-05
1.88231e-05
-8.39043e-05
1.77847e-05
-8.70768e-05
1.6613e-05
-8.9996e-05
1.53109e-05
-9.26389e-05
1.38817e-05
-9.49832e-05
1.233e-05
-9.70081e-05
1.06618e-05
-9.86942e-05
8.88423e-06
-0.000100024
7.00627e-06
-0.000100981
5.0385e-06
-0.000101552
2.99331e-06
-0.000101727
8.84882e-07
-0.000101497
-1.27082e-06
-0.000100858
-3.45612e-06
-9.98079e-05
-5.65172e-06
-9.83492e-05
-7.83691e-06
-9.64878e-05
-9.98976e-06
-9.42336e-05
-1.20874e-05
-9.16006e-05
-1.41062e-05
-8.86071e-05
-1.60223e-05
-8.52751e-05
-1.78121e-05
-8.1631e-05
-1.94521e-05
-7.77049e-05
-2.09201e-05
-7.35308e-05
-2.21951e-05
-6.9146e-05
-2.32579e-05
-6.45906e-05
-2.40916e-05
-5.99076e-05
-2.46823e-05
-5.5142e-05
-2.50189e-05
-5.03403e-05
-2.50941e-05
-4.55496e-05
-2.49042e-05
-4.08173e-05
-2.445e-05
-3.61903e-05
-2.37363e-05
-3.17138e-05
-2.27729e-05
-2.74308e-05
-2.15741e-05
-2.33813e-05
-2.01588e-05
-1.96013e-05
-1.85511e-05
-1.61221e-05
-1.67796e-05
-1.29696e-05
-1.48778e-05
-1.01632e-05
-1.28843e-05
-7.7158e-06
-1.08422e-05
-5.6326e-06
-8.79996e-06
-3.91104e-06
-6.81115e-06
-2.54034e-06
-4.93491e-06
-1.50142e-06
-3.23643e-06
-7.669e-07
-1.78757e-06
-3.01375e-07
-6.67358e-07
-6.20803e-08
3.72702e-08
2.25167e-07
-2.77195e-07
8.35699e-07
-1.07278e-06
2.90744e-06
-2.35448e-06
5.2155e-06
-4.0915e-06
7.63509e-06
-6.25313e-06
1.0072e-05
-8.80814e-06
1.24524e-05
-1.17245e-05
1.47204e-05
-1.49695e-05
1.68355e-05
-1.85098e-05
1.87697e-05
-2.23117e-05
2.0505e-05
-2.63412e-05
2.20316e-05
-3.05649e-05
2.33451e-05
-3.49493e-05
2.44458e-05
-3.94617e-05
2.53367e-05
-4.40698e-05
2.60226e-05
-4.87423e-05
2.65092e-05
-5.34481e-05
2.68025e-05
-5.8157e-05
2.69082e-05
-6.28393e-05
2.68316e-05
-6.74658e-05
2.6577e-05
-7.20078e-05
2.61483e-05
-7.64369e-05
2.55486e-05
-8.07251e-05
2.47804e-05
-8.48447e-05
2.38459e-05
-8.87687e-05
2.2747e-05
-9.24701e-05
2.14861e-05
-9.59228e-05
2.00657e-05
-9.91012e-05
1.84893e-05
-0.000101981
1.67612e-05
-0.000104538
1.48871e-05
-0.00010675
1.28741e-05
-0.000108597
1.0731e-05
-0.000110059
8.46859e-06
-0.00011112
6.09955e-06
-0.000111766
3.63867e-06
-0.000111984
1.10282e-06
-0.000111765
-1.48902e-06
-0.000111106
-4.11591e-06
-0.000110002
-6.75501e-06
-0.000108457
-9.38184e-06
-0.000106477
-1.19705e-05
-0.00010407
-1.44938e-05
-0.000101252
-1.69241e-05
-9.80416e-05
-1.9233e-05
-9.44612e-05
-2.13925e-05
-9.05383e-05
-2.3375e-05
-8.63046e-05
-2.51538e-05
-8.17956e-05
-2.67041e-05
-7.70504e-05
-2.8003e-05
-7.21116e-05
-2.90304e-05
-6.70247e-05
-2.97692e-05
-6.18375e-05
-3.02062e-05
-5.65995e-05
-3.03321e-05
-5.13613e-05
-3.01424e-05
-4.61738e-05
-2.96374e-05
-4.10875e-05
-2.88226e-05
-3.61515e-05
-2.7709e-05
-3.14127e-05
-2.63129e-05
-2.69149e-05
-2.46566e-05
-2.2698e-05
-2.2768e-05
-1.8797e-05
-2.06806e-05
-1.52414e-05
-1.84335e-05
-1.20542e-05
-1.60715e-05
-9.25144e-06
-1.36449e-05
-6.84167e-06
-1.12097e-05
-4.82536e-06
-8.82746e-06
-3.1948e-06
-6.56547e-06
-1.93403e-06
-4.49719e-06
-1.01901e-06
-2.70259e-06
-4.18098e-07
-1.26827e-06
-9.29478e-08
-2.87879e-07
1.3222e-07
-3.21023e-07
1.15672e-06
-1.23432e-06
3.82074e-06
-2.69492e-06
6.67609e-06
-4.66073e-06
9.60091e-06
-7.09137e-06
1.25026e-05
-9.94741e-06
1.53084e-05
-1.31901e-05
1.79631e-05
-1.67811e-05
2.04265e-05
-2.06825e-05
2.26711e-05
-2.48569e-05
2.46795e-05
-2.92675e-05
2.64421e-05
-3.3878e-05
2.79556e-05
-3.86529e-05
2.92208e-05
-4.35576e-05
3.02414e-05
-4.85581e-05
3.10231e-05
-5.36213e-05
3.15724e-05
-5.87148e-05
3.1896e-05
-6.38068e-05
3.20002e-05
-6.88662e-05
3.18909e-05
-7.38623e-05
3.15731e-05
-7.87648e-05
3.10509e-05
-8.35441e-05
3.03279e-05
-8.81705e-05
2.94069e-05
-9.26151e-05
2.82904e-05
-9.68491e-05
2.6981e-05
-0.000100844
2.54813e-05
-0.000104573
2.37945e-05
-0.000108008
2.19247e-05
-0.000111124
1.98772e-05
-0.000113896
1.76588e-05
-0.0001163
1.52779e-05
-0.000118314
1.27449e-05
-0.000119918
1.00724e-05
-0.000121094
7.27536e-06
-0.000121826
4.37096e-06
-0.000122102
1.37886e-06
-0.000121912
-1.67889e-06
-0.00012125
-4.77796e-06
-0.000120113
-7.89187e-06
-0.000118503
-1.09922e-05
-0.000116424
-1.40489e-05
-0.000113887
-1.70306e-05
-0.000110907
-1.99049e-05
-0.0001075
-2.26391e-05
-0.000103693
-2.52004e-05
-9.95108e-05
-2.75567e-05
-9.49879e-05
-2.96767e-05
-9.01606e-05
-3.15314e-05
-8.50697e-05
-3.30939e-05
-7.97599e-05
-3.43402e-05
-7.42789e-05
-3.52502e-05
-6.86771e-05
-3.58079e-05
-6.30072e-05
-3.6002e-05
-5.7323e-05
-3.58266e-05
-5.1679e-05
-3.52814e-05
-4.61296e-05
-3.43721e-05
-4.07277e-05
-3.31108e-05
-3.55245e-05
-3.15162e-05
-3.05678e-05
-2.96133e-05
-2.59019e-05
-2.7434e-05
-2.15658e-05
-2.50166e-05
-1.75932e-05
-2.24061e-05
-1.40109e-05
-1.96537e-05
-1.0839e-05
-1.68168e-05
-8.08961e-06
-1.39591e-05
-5.7668e-06
-1.11503e-05
-3.86638e-06
-8.46588e-06
-2.3759e-06
-5.98767e-06
-1.2749e-06
-3.8036e-06
-5.35515e-07
-2.00765e-06
-1.23544e-07
-6.99849e-07
8.67684e-09
-3.63347e-07
1.52007e-06
-1.391e-06
4.8484e-06
-3.02611e-06
8.3112e-06
-5.21586e-06
1.17907e-05
-7.91041e-06
1.51972e-05
-1.10623e-05
1.84603e-05
-1.46258e-05
2.15267e-05
-1.85571e-05
2.43578e-05
-2.28136e-05
2.69276e-05
-2.7354e-05
2.92198e-05
-3.21383e-05
3.12264e-05
-3.71277e-05
3.2945e-05
-4.22846e-05
3.43776e-05
-4.75723e-05
3.55292e-05
-5.29554e-05
3.64062e-05
-5.83993e-05
3.70163e-05
-6.38701e-05
3.73668e-05
-6.93348e-05
3.74649e-05
-7.47609e-05
3.73171e-05
-8.01167e-05
3.69288e-05
-8.53705e-05
3.63048e-05
-9.04915e-05
3.54488e-05
-9.54488e-05
3.43642e-05
-0.000100212
3.30537e-05
-0.000104751
3.15204e-05
-0.000109037
2.97672e-05
-0.000113041
2.77981e-05
-0.000116734
2.56178e-05
-0.000120089
2.32326e-05
-0.000123081
2.06501e-05
-0.000125683
1.78803e-05
-0.000127874
1.49352e-05
-0.00012963
1.18292e-05
-0.000130934
8.57951e-06
-0.000131769
5.20572e-06
-0.000132121
1.73034e-06
-0.000131978
-1.82147e-06
-0.000131334
-5.42194e-06
-0.000130185
-9.04088e-06
-0.000128532
-1.26459e-05
-0.000126378
-1.62026e-05
-0.000123733
-1.96751e-05
-0.000120612
-2.30264e-05
-0.000117032
-2.62191e-05
-0.000113017
-2.92153e-05
-0.000108596
-3.19781e-05
-0.000103801
-3.44716e-05
-9.86703e-05
-3.66619e-05
-9.32464e-05
-3.85178e-05
-8.75755e-05
-4.00112e-05
-8.17074e-05
-4.11183e-05
-7.56953e-05
-4.18201e-05
-6.95946e-05
-4.21027e-05
-6.34626e-05
-4.19586e-05
-5.73575e-05
-4.13865e-05
-5.13375e-05
-4.03921e-05
-4.546e-05
-3.89883e-05
-3.97804e-05
-3.71958e-05
-3.43513e-05
-3.50424e-05
-2.92213e-05
-3.25639e-05
-2.44344e-05
-2.98035e-05
-2.00286e-05
-2.68119e-05
-1.60355e-05
-2.36468e-05
-1.24792e-05
-2.03731e-05
-9.37627e-06
-1.70621e-05
-6.73474e-06
-1.37918e-05
-4.55435e-06
-1.06463e-05
-2.82641e-06
-7.71561e-06
-1.53419e-06
-5.09582e-06
-6.53522e-07
-2.88832e-06
-1.53897e-07
-1.19947e-06
-1.45219e-07
-4.04157e-07
1.92423e-06
-1.54253e-06
5.98677e-06
-3.34713e-06
1.01158e-05
-5.75495e-06
1.41985e-05
-8.70706e-06
1.81493e-05
-1.2148e-05
2.19013e-05
-1.60256e-05
2.54042e-05
-2.029e-05
2.86222e-05
-2.48941e-05
3.15316e-05
-2.97928e-05
3.41185e-05
-3.49427e-05
3.63764e-05
-4.03025e-05
3.83049e-05
-4.58325e-05
3.99076e-05
-5.14941e-05
4.11908e-05
-5.72504e-05
4.21625e-05
-6.30653e-05
4.28312e-05
-6.89039e-05
4.32054e-05
-7.47319e-05
4.3293e-05
-8.05159e-05
4.31011e-05
-8.6223e-05
4.26359e-05
-9.18206e-05
4.19024e-05
-9.72766e-05
4.09048e-05
-0.000102559
3.96469e-05
-0.000107637
3.81318e-05
-0.00011248
3.63627e-05
-0.000117056
3.43433e-05
-0.000121336
3.20778e-05
-0.00012529
2.95719e-05
-0.00012889
2.68325e-05
-0.000132108
2.38685e-05
-0.000134919
2.06911e-05
-0.000137297
1.73138e-05
-0.000139221
1.37531e-05
-0.00014067
1.0028e-05
-0.000141625
6.16086e-06
-0.000142071
2.17688e-06
-0.000141997
-1.89566e-06
-0.000141393
-6.02555e-06
-0.000140255
-1.01788e-05
-0.000138582
-1.4319e-05
-0.000136378
-1.84074e-05
-0.000133649
-2.24034e-05
-0.00013041
-2.62654e-05
-0.000126679
-2.99506e-05
-0.000122478
-3.34164e-05
-0.000117835
-3.66204e-05
-0.000112785
-3.95217e-05
-0.000107366
-4.20813e-05
-0.00010162
-4.42631e-05
-9.55969e-05
-4.60347e-05
-8.93472e-05
-4.7368e-05
-8.29268e-05
-4.82404e-05
-7.63943e-05
-4.86353e-05
-6.98101e-05
-4.85427e-05
-6.32365e-05
-4.79601e-05
-5.67358e-05
-4.68927e-05
-5.037e-05
-4.53542e-05
-4.41992e-05
-4.33665e-05
-3.82812e-05
-4.09605e-05
-3.26696e-05
-3.81755e-05
-2.74136e-05
-3.50596e-05
-2.25564e-05
-3.16691e-05
-1.81345e-05
-2.80687e-05
-1.41771e-05
-2.43305e-05
-1.07053e-05
-2.05339e-05
-7.73182e-06
-1.67653e-05
-5.26053e-06
-1.31176e-05
-3.28682e-06
-9.68932e-06
-1.79771e-06
-6.58492e-06
-7.7259e-07
-3.91344e-06
-1.84183e-07
-1.78788e-06
-3.29402e-07
-4.43445e-07
2.36767e-06
-1.68869e-06
7.23201e-06
-3.65728e-06
1.20844e-05
-6.27652e-06
1.68177e-05
-9.4788e-06
2.13515e-05
-1.32011e-05
2.56236e-05
-1.73844e-05
2.95875e-05
-2.19736e-05
3.32114e-05
-2.69166e-05
3.64747e-05
-3.21646e-05
3.93664e-05
-3.76711e-05
4.18829e-05
-4.33922e-05
4.40259e-05
-4.92858e-05
4.58012e-05
-5.53119e-05
4.72169e-05
-6.14319e-05
4.82825e-05
-6.76087e-05
4.90079e-05
-7.3806e-05
4.94027e-05
-7.99888e-05
4.94758e-05
-8.61226e-05
4.9235e-05
-9.21737e-05
4.8687e-05
-9.81087e-05
4.78374e-05
-0.000103895
4.66908e-05
-0.000109499
4.52513e-05
-0.00011489
4.35223e-05
-0.000120034
4.15074e-05
-0.000124901
3.92106e-05
-0.00012946
3.66368e-05
-0.000133681
3.37921e-05
-0.000137533
3.06844e-05
-0.000140988
2.73236e-05
-0.000144019
2.3722e-05
-0.0001466
1.98948e-05
-0.000148707
1.586e-05
-0.000150318
1.1639e-05
-0.000151413
7.25642e-06
-0.000151976
2.74017e-06
-0.000151994
-1.87838e-06
-0.000151455
-6.56459e-06
-0.000150353
-1.12807e-05
-0.000148686
-1.59862e-05
-0.000146455
-2.06379e-05
-0.000143668
-2.51906e-05
-0.000140336
-2.95974e-05
-0.000136476
-3.38107e-05
-0.00013211
-3.77821e-05
-0.000127266
-4.1464e-05
-0.000121978
-4.48099e-05
-0.000116284
-4.77753e-05
-0.000110229
-5.03188e-05
-0.00010386
-5.24028e-05
-9.72336e-05
-5.39949e-05
-9.04059e-05
-5.50681e-05
-8.34388e-05
-5.56024e-05
-7.63965e-05
-5.5585e-05
-6.9345e-05
-5.50116e-05
-6.23513e-05
-5.38864e-05
-5.54822e-05
-5.22233e-05
-4.88031e-05
-5.00456e-05
-4.23772e-05
-4.73864e-05
-3.6264e-05
-4.42887e-05
-3.05183e-05
-4.08053e-05
-2.5189e-05
-3.69984e-05
-2.03183e-05
-3.29393e-05
-1.59411e-05
-2.87077e-05
-1.20835e-05
-2.43915e-05
-8.76315e-06
-2.00856e-05
-5.98872e-06
-1.5892e-05
-3.75976e-06
-1.19183e-05
-2.06714e-06
-8.27755e-06
-8.93592e-07
-5.08698e-06
-2.14682e-07
-2.46679e-06
-5.44083e-07
-4.8119e-07
2.84886e-06
-1.82929e-06
8.58011e-06
-3.95594e-06
1.4211e-05
-6.77932e-06
1.96411e-05
-1.02235e-05
2.47957e-05
-1.42181e-05
2.96182e-05
-1.86979e-05
3.40673e-05
-2.36022e-05
3.81157e-05
-2.88744e-05
4.17469e-05
-3.44618e-05
4.49538e-05
-4.03149e-05
4.7736e-05
-4.63871e-05
5.00982e-05
-5.26345e-05
5.20486e-05
-5.90152e-05
5.35976e-05
-6.54893e-05
5.47566e-05
-7.20185e-05
5.55371e-05
-7.85657e-05
5.59499e-05
-8.50949e-05
5.6005e-05
-9.15711e-05
5.57111e-05
-9.79596e-05
5.50755e-05
-0.000104226
5.41043e-05
-0.000110338
5.28025e-05
-0.000116261
5.11745e-05
-0.000121963
4.9224e-05
-0.000127411
4.6955e-05
-0.000132572
4.43718e-05
-0.000137415
4.14797e-05
-0.000141908
3.82853e-05
-0.000146021
3.47974e-05
-0.000149724
3.10266e-05
-0.000152989
2.69866e-05
-0.000155788
2.26939e-05
-0.000158096
1.81681e-05
-0.000159889
1.34326e-05
-0.000161147
8.51426e-06
-0.000161851
3.44372e-06
-0.000161985
-1.74469e-06
-0.000161536
-7.01299e-06
-0.000160497
-1.23197e-05
-0.000158863
-1.76202e-05
-0.000156634
-2.28669e-05
-0.000153815
-2.80097e-05
-0.000150416
-3.29967e-05
-0.000146452
-3.77746e-05
-0.000141944
-4.22897e-05
-0.00013692
-4.64884e-05
-0.000131412
-5.03182e-05
-0.000125458
-5.37288e-05
-0.000119104
-5.66729e-05
-0.000112399
-5.91075e-05
-0.0001054
-6.09946e-05
-9.81652e-05
-6.23026e-05
-9.07603e-05
-6.30072e-05
-8.32528e-05
-6.30925e-05
-7.57129e-05
-6.25515e-05
-6.82123e-05
-6.1387e-05
-6.08232e-05
-5.96125e-05
-5.36166e-05
-5.72521e-05
-4.66619e-05
-5.43411e-05
-4.00247e-05
-5.09259e-05
-3.37662e-05
-4.70638e-05
-2.79419e-05
-4.28228e-05
-2.26003e-05
-3.82809e-05
-1.77821e-05
-3.35259e-05
-1.35196e-05
-2.8654e-05
-9.83576e-06
-2.37695e-05
-6.74416e-06
-1.89836e-05
-4.2489e-06
-1.44135e-05
-2.34475e-06
-1.01817e-05
-1.01768e-06
-6.41405e-06
-2.45739e-07
-3.23873e-06
-7.89821e-07
-5.17355e-07
3.36621e-06
-1.9641e-06
1.00269e-05
-4.24254e-06
1.64895e-05
-7.26217e-06
2.26607e-05
-1.09392e-05
2.84728e-05
-1.51964e-05
3.38753e-05
-1.99622e-05
3.88331e-05
-2.51708e-05
4.33243e-05
-3.07612e-05
4.73374e-05
-3.6677e-05
5.08696e-05
-4.28657e-05
5.39247e-05
-4.92783e-05
5.65107e-05
-5.58686e-05
5.8639e-05
-6.25935e-05
6.03225e-05
-6.94116e-05
6.15748e-05
-7.62836e-05
6.24091e-05
-8.31717e-05
6.2838e-05
-9.00391e-05
6.28724e-05
-9.68501e-05
6.25221e-05
-0.00010357
6.17951e-05
-0.000110163
6.0698e-05
-0.000116597
5.92363e-05
-0.000122837
5.74144e-05
-0.00012885
5.52367e-05
-0.000134602
5.27071e-05
-0.00014006
4.98303e-05
-0.000145193
4.6612e-05
-0.000149967
4.30594e-05
-0.000154351
3.91815e-05
-0.000158315
3.49902e-05
-0.000161828
3.04998e-05
-0.000164862
2.57282e-05
-0.000167391
2.06966e-05
-0.000169388
1.54301e-05
-0.000170832
9.95775e-06
-0.0001717
4.31265e-06
-0.000171977
-1.46801e-06
-0.000171647
-7.34301e-06
-0.0001707
-1.32673e-05
-0.000169128
-1.9192e-05
-0.000166929
-2.50652e-05
-0.000164107
-3.0832e-05
-0.000160669
-3.64352e-05
-0.000156627
-4.1816e-05
-0.000152002
-4.69145e-05
-0.00014682
-5.16711e-05
-0.000141111
-5.60271e-05
-0.000134914
-5.99255e-05
-0.000128274
-6.33127e-05
-0.000121242
-6.61394e-05
-0.000113875
-6.83618e-05
-0.000106235
-6.99427e-05
-9.83894e-05
-7.0853e-05
-9.04094e-05
-7.10725e-05
-8.23699e-05
-7.05909e-05
-7.43477e-05
-6.94092e-05
-6.64206e-05
-6.75397e-05
-5.86659e-05
-6.50068e-05
-5.11594e-05
-6.18476e-05
-4.39739e-05
-5.81114e-05
-3.71776e-05
-5.38601e-05
-3.0833e-05
-4.91673e-05
-2.49958e-05
-4.41182e-05
-1.97134e-05
-3.88083e-05
-1.50245e-05
-3.33429e-05
-1.09581e-05
-2.78359e-05
-7.53319e-06
-2.24085e-05
-4.75865e-06
-1.71881e-05
-2.63326e-06
-1.23071e-05
-1.14621e-06
-7.9011e-06
-2.77748e-07
-4.10719e-06
-1.06757e-06
-5.51886e-07
3.9181e-06
-2.09287e-06
1.15678e-05
-4.51643e-06
1.8913e-05
-7.7239e-06
2.58682e-05
-1.16241e-05
3.2373e-05
-1.6133e-05
3.83842e-05
-2.11735e-05
4.38736e-05
-2.66746e-05
4.88254e-05
-3.25712e-05
5.3234e-05
-3.88034e-05
5.71018e-05
-4.53156e-05
6.04369e-05
-5.20566e-05
6.32517e-05
-5.89784e-05
6.55608e-05
-6.60361e-05
6.73803e-05
-7.31875e-05
6.87261e-05
-8.03922e-05
6.96138e-05
-8.76117e-05
7.00574e-05
-9.48087e-05
7.00694e-05
-0.000101947
6.96605e-05
-0.000108991