/*--------------------------------*- C++ -*----------------------------------*\
  =========                 |
  \\      /  F ield         | OpenFOAM: The Open Source CFD Toolbox
   \\    /   O peration     | Website:  https://openfoam.org
    \\  /    A nd           | Version:  dev
     \\/     M anipulation  |
\*---------------------------------------------------------------------------*/
FoamFile
{
    format      ascii;
    class       volScalarField;
    location    "44.1";
    object      p;
}
// * * * * * * * * * * * * * * * * * * * * * * * * * * * * * * * * * * * * * //

dimensions      [0 2 -2 0 0 0 0];

internalField   nonuniform List<scalar> 
5184
(
9.23662e-07
-1.09974e-05
-9.69699e-05
-0.000249911
-0.000449397
-0.000678151
-0.000921941
-0.00116878
-0.00140954
-0.00163706
-0.00184592
-0.00203211
-0.00219267
-0.00232552
-0.00242917
-0.00250262
-0.0025452
-0.00255647
-0.00253616
-0.00248408
-0.00240017
-0.0022844
-0.00213682
-0.00195757
-0.00174689
-0.00150515
-0.00123289
-0.000930877
-0.000600088
-0.000241797
0.000142409
0.000550604
0.000980495
0.00142941
0.00189428
0.00237167
0.00285776
0.00334837
0.00383902
0.00432499
0.00480132
0.00526293
0.00570471
0.00612156
0.00650853
0.00686092
0.00717435
0.00744489
0.00766917
0.00784446
0.00796874
0.00804082
0.00806033
0.00802785
0.00794488
0.00781387
0.00763821
0.00742222
0.00717111
0.00689094
0.00658858
0.00627163
0.00594842
0.00562791
0.00531966
0.00503375
0.00478067
0.00457105
0.00441488
0.00432061
0.00429374
0.00432108
1.40785e-05
1.5549e-06
-7.30774e-05
-0.000200892
-0.000366215
-0.000556567
-0.000761016
-0.000969955
-0.00117546
-0.00137113
-0.00155192
-0.00171393
-0.00185418
-0.00197044
-0.00206106
-0.00212485
-0.00216096
-0.00216877
-0.00214785
-0.00209793
-0.00201882
-0.00191044
-0.00177279
-0.00160599
-0.00141025
-0.00118594
-0.000933589
-0.000653929
-0.000347918
-1.67739e-05
0.000337997
0.000714577
0.00111082
0.00152422
0.00195195
0.00239083
0.00283732
0.00328762
0.00373762
0.004183
0.00461925
0.00504179
0.00544596
0.00582717
0.00618097
0.00650314
0.00678977
0.00703736
0.00724295
0.00740415
0.00751922
0.00758719
0.00760785
0.00758182
0.00751059
0.00739649
0.00724269
0.00705321
0.00683286
0.00658719
0.00632246
0.00604552
0.00576384
0.00548534
0.00521833
0.0049714
0.00475321
0.00457212
0.00443543
0.00434909
0.00432055
0.00434824
0.000100706
7.59924e-05
6.29919e-07
-0.000116957
-0.000264727
-0.000433042
-0.000613192
-0.000797339
-0.00097878
-0.00115196
-0.00131236
-0.00145639
-0.00158125
-0.00168476
-0.00176528
-0.00182156
-0.00185268
-0.00185795
-0.00183686
-0.00178907
-0.00171431
-0.00161247
-0.00148348
-0.00132743
-0.0011445
-0.000935001
-0.000699437
-0.000438485
-0.000153043
0.000155747
0.000486474
0.000837433
0.00120662
0.00159169
0.00199001
0.0023986
0.00281419
0.00323323
0.0036519
0.00406619
0.00447193
0.00486485
0.00524065
0.00559509
0.00592406
0.00622366
0.0064903
0.0067208
0.00691242
0.00706301
0.00717103
0.00723563
0.0072567
0.00723488
0.00717162
0.00706915
0.00693048
0.0067594
0.00656039
0.0063386
0.00609982
0.00585034
0.00559692
0.00534667
0.00510698
0.00488528
0.00468912
0.00452549
0.00440043
0.00431916
0.00429136
0.00432206
0.000255786
0.000204386
0.00011656
-2.43448e-06
-0.000144925
-0.000303133
-0.00046993
-0.000638947
-0.00080464
-0.000962319
-0.00110811
-0.00123888
-0.00135211
-0.00144585
-0.00151856
-0.00156907
-0.00159646
-0.00160005
-0.00157931
-0.00153385
-0.00146338
-0.00136772
-0.00124677
-0.00110056
-0.000929202
-0.000732976
-0.000512301
-0.000267783
-2.34595e-07
0.000289298
0.000599511
0.000928828
0.00127538
0.00163699
0.00201117
0.00239516
0.00278586
0.00317995
0.00357383
0.00396372
0.0043457
0.00471572
0.00506974
0.00540374
0.00571385
0.00599638
0.00624794
0.00646553
0.00664659
0.00678909
0.00689159
0.00695333
0.00697423
0.00695493
0.00689684
0.0068021
0.00667359
0.00651489
0.00633023
0.00612448
0.005903
0.00567166
0.00543665
0.00520448
0.00498178
0.00477525
0.00459151
0.00443684
0.00431666
0.004236
0.00420494
0.00423022
0.000460609
0.000372006
0.000263388
0.00013565
-8.75422e-06
-0.000163659
-0.000323293
-0.000482654
-0.000637328
-0.000783516
-0.000918033
-0.00103827
-0.00114211
-0.00122787
-0.00129421
-0.00134009
-0.00136467
-0.00136731
-0.00134749
-0.00130481
-0.00123895
-0.00114968
-0.00103687
-0.000900472
-0.000740545
-0.00055728
-0.000351015
-0.000122261
0.000128271
0.000399652
0.000690702
0.000999981
0.00132576
0.00166603
0.00201848
0.00238049
0.00274917
0.00312137
0.0034937
0.00386256
0.00422421
0.00457481
0.00491048
0.00522739
0.00552181
0.00579022
0.00602937
0.00623635
0.00640872
0.00654452
0.00664238
0.00670156
0.00672199
0.00670429
0.00664982
0.00656063
0.00643946
0.00628974
0.00611549
0.00592128
0.00571216
0.00549359
0.00527133
0.00505133
0.00483963
0.00464225
0.00446513
0.00431389
0.0041935
0.00410871
0.00406831
0.00407815
0.000699006
0.000566972
0.000431781
0.000289705
0.000137732
-1.9364e-05
-0.000176975
-0.000331359
-0.000479179
-0.000617509
-0.000743874
-0.000856225
-0.00095289
-0.00103252
-0.00109402
-0.00113653
-0.00115934
-0.00116187
-0.00114365
-0.00110427
-0.00104341
-0.000960812
-0.000856273
-0.000729686
-0.000581034
-0.000410416
-0.00021807
-4.39669e-06
0.000230015
0.000484363
0.000757606
0.00104845
0.00135531
0.00167634
0.00200939
0.002352
0.00270146
0.00305476
0.00340867
0.00375976
0.00410442
0.00443896
0.00475962
0.00506268
0.00534452
0.0056017
0.00583104
0.00602971
0.00619528
0.00632585
0.00642004
0.00647711
0.00649696
0.00648019
0.00642806
0.00634255
0.00622629
0.00608255
0.00591515
0.00572845
0.00552723
0.00531661
0.00510195
0.00488877
0.00468263
0.004489
0.0043132
0.00416031
0.0040349
0.00394137
0.00388619
0.00387313
0.000957188
0.000778402
0.000612832
0.000452253
0.00028829
0.000124552
-3.53375e-05
-0.000188777
-0.000333431
-0.000467212
-0.000588346
-0.000695361
-0.00078705
-0.000862429
-0.000920696
-0.00096119
-0.000983358
-0.000986721
-0.000970861
-0.000935403
-0.00088001
-0.000804389
-0.000708292
-0.000591535
-0.000454013
-0.000295724
-0.000116793
8.2505e-05
0.000301714
0.000540171
0.000796985
0.00107101
0.00136082
0.00166473
0.00198072
0.00230651
0.00263951
0.00297687
0.00331549
0.00365203
0.00398302
0.00430483
0.0046138
0.00490625
0.00517862
0.0054275
0.00564971
0.00584243
0.00600323
0.00613016
0.00622182
0.00627743
0.00629683
0.00628054
0.00622976
0.00614637
0.0060329
0.00589246
0.00572875
0.00554592
0.00534852
0.0051414
0.00492964
0.00471837
0.00451277
0.00431787
0.00413854
0.00397932
0.00384449
0.00373808
0.00366378
0.00362278
0.00122302
0.000996152
0.000797943
0.000616002
0.000436843
0.000263105
9.75804e-05
-5.81595e-05
-0.000202705
-0.000334758
-0.000453223
-0.0005572
-0.000645951
-0.000718876
-0.000775474
-0.000815316
-0.000838016
-0.000843215
-0.000830564
-0.000799719
-0.000750343
-0.000682109
-0.000594713
-0.000487895
-0.000361453
-0.000215273
-4.93546e-05
0.000136162
0.000340966
0.000564546
0.000806166
0.00106484
0.0013393
0.001628
0.00192909
0.00224042
0.00255954
0.0028837
0.00320991
0.00353493
0.00385534
0.00416757
0.00446798
0.00475293
0.00501882
0.00526223
0.00547995
0.0056691
0.00582717
0.00595217
0.00604261
0.00609761
0.00611694
0.00610102
0.00605097
0.00596855
0.00585619
0.00571689
0.0055542
0.00537213
0.00517505
0.0049676
0.00475461
0.00454096
0.00433149
0.00413093
0.00394374
0.00377409
0.00362599
0.00350319
0.00340641
0.00333425
0.00148624
0.00121107
0.00097905
0.000773914
0.000577334
0.000391145
0.000217431
5.68324e-05
-9.00921e-05
-0.000222785
-0.000340795
-0.000443776
-0.000531456
-0.000603617
-0.000660063
-0.000700606
-0.000725037
-0.000733122
-0.000724589
-0.000699129
-0.000656404
-0.000596053
-0.000517715
-0.000421044
-0.000305735
-0.000171553
-1.83614e-05
0.000153845
0.000344911
0.000554486
0.000781996
0.00102662
0.00128724
0.00156249
0.00185063
0.00214967
0.00245726
0.00277077
0.00308727
0.00340359
0.00371634
0.00402197
0.00431684
0.00459726
0.0048596
0.00510034
0.0053162
0.0055042
0.00566172
0.00578664
0.00587735
0.00593285
0.00595279
0.00593747
0.00588789
0.00580571
0.00569323
0.00555337
0.00538956
0.00520566
0.00500593
0.00479485
0.00457708
0.00435728
0.0041401
0.00392999
0.00373116
0.00354747
0.00338279
0.00324066
0.0031189
0.00301357
0.00173786
0.00141488
0.00114865
0.000919257
0.000703792
0.000503417
0.000319609
0.000152164
8.55642e-07
-0.000134449
-0.000253908
-0.000357702
-0.000446012
-0.000518989
-0.000576745
-0.000619324
-0.000646698
-0.000658757
-0.000655307
-0.000636074
-0.000600715
-0.000548836
-0.000480007
-0.000393793
-0.000289778
-0.000167595
-2.69642e-05
0.000132277
0.000310137
0.000506436
0.000720769
0.00095248
0.00120063
0.00146398
0.00174097
0.0020297
0.00232795
0.00263316
0.00294249
0.00325278
0.00356066
0.00386258
0.00415482
0.00443365
0.00469533
0.00493623
0.00515294
0.00534232
0.0055016
0.00562848
0.0057212
0.00577859
0.00580013
0.00578599
0.00573702
0.00565476
0.0055414
0.00539973
0.00523309
0.00504527
0.0048404
0.00462287
0.00439723
0.00416801
0.00393972
0.00371666
0.00350285
0.00330195
0.00311782
0.0029539
0.00280525
0.00266552
0.00196994
0.00160009
0.00129977
0.00104562
0.000810395
0.000594669
0.000399392
0.000223588
6.63023e-05
-7.32413e-05
-0.000195773
-0.000301975
-0.000392455
-0.000467725
-0.000528185
-0.000574111
-0.000605646
-0.000622799
-0.000625449
-0.000613352
-0.000586157
-0.000543427
-0.000484661
-0.000409325
-0.000316881
-0.000206825
-7.87215e-05
6.77585e-05
0.000232797
0.000416391
0.000618317
0.000838094
0.00107495
0.0013278
0.00159523
0.00187547
0.00216639
0.00246552
0.00277004
0.00307685
0.00338255
0.00368353
0.00397602
0.00425617
0.00452011
0.00476407
0.00498443
0.00517787
0.00534141
0.00547254
0.00556928
0.00563026
0.00565476
0.00564276
0.00559494
0.0055127
0.0053981
0.00525383
0.00508314
0.00488974
0.0046777
0.00445136
0.00421519
0.0039737
0.00373131
0.00349228
0.00326053
0.00303964
0.00283354
0.00264573
0.00246863
0.0022937
0.00217533
0.00175982
0.00142589
0.00114691
0.00089149
0.000659698
0.000452006
0.00026672
0.00010221
-4.29028e-05
-0.000169887
-0.000279897
-0.000373944
-0.00045288
-0.000517379
-0.000567933
-0.000604848
-0.000628242
-0.000638059
-0.000634076
-0.000615926
-0.000583121
-0.000535079
-0.00047116
-0.000390696
-0.000293034
-0.000177572
-4.38073e-05
0.000108628
0.000279918
0.000470026
0.000678656
0.000905212
0.00114877
0.00140806
0.00168143
0.00196686
0.00226195
0.00256392
0.00286966
0.00317576
0.00347853
0.00377412
0.00405852
0.0043277
0.00457769
0.00480465
0.00500502
0.00517555
0.00531349
0.00541658
0.00548319
0.00551237
0.00550387
0.00545818
0.00537651
0.00526078
0.00511357
0.00493804
0.00473785
0.00451704
0.00427993
0.00403099
0.00377475
0.00351565
0.00325796
0.00300562
0.00276223
0.00253191
0.00231834
0.00211147
0.00190066
0.00234747
0.00188767
0.00152088
0.0012173
0.000941607
0.000693382
0.000472666
0.000277093
0.000104397
-4.73668e-05
-0.000179974
-0.000295024
-0.000393906
-0.000477789
-0.000547605
-0.000604047
-0.000647565
-0.000678377
-0.000696478
-0.000701657
-0.00069352
-0.000671519
-0.000634982
-0.000583151
-0.000515218
-0.000430369
-0.00032783
-0.000206908
-6.70423e-05
9.2151e-05
0.000270834
0.000468902
0.000685945
0.000921209
0.00117357
0.00144152
0.00172312
0.00201604
0.00231755
0.00262454
0.00293354
0.00324079
0.0035423
0.00383391
0.00411138
0.00437051
0.0046072
0.00481758
0.00499812
0.00514573
0.00525785
0.00533253
0.00536853
0.00536534
0.00532318
0.00524309
0.0051268
0.00497678
0.00479609
0.00458834
0.00435757
0.00410814
0.00384456
0.00357143
0.00329331
0.00301456
0.00273924
0.00247106
0.00221446
0.00197339
0.00173547
0.00148805
0.00248027
0.00197769
0.00157895
0.00125125
0.000955454
0.000690701
0.000456619
0.000250207
6.85941e-05
-9.07002e-05
-0.000229929
-0.000351108
-0.000455985
-0.000546022
-0.000622387
-0.000685956
-0.000737311
-0.000776751
-0.000804309
-0.000819774
-0.000822714
-0.000812508
-0.000788384
-0.000749454
-0.000694759
-0.000623316
-0.000534163
-0.000426407
-0.000299282
-0.000152191
1.52372e-05
0.000203105
0.000411197
0.000638942
0.000885378
0.00114912
0.00142836
0.00172084
0.00202384
0.00233426
0.00264858
0.00296294
0.00327321
0.00357504
0.00386396
0.0041355
0.00438524
0.00460898
0.00480283
0.00496332
0.00508753
0.00517315
0.00521857
0.00522295
0.00518625
0.00510923
0.00499345
0.00484121
0.00465549
0.00443987
0.00419839
0.00393546
0.00365572
0.0033639
0.00306472
0.00276276
0.00246227
0.00216716
0.0018823
0.00161203
0.00134173
0.0010568
0.00256803
0.00202425
0.00159464
0.00124346
0.000927927
0.000646755
0.000399173
0.000181568
-9.51016e-06
-0.000177051
-0.000323759
-0.000452045
-0.000563989
-0.000661325
-0.000745439
-0.000817369
-0.000877809
-0.000927126
-0.000965378
-0.000992337
-0.00100752
-0.00101022
-0.000999561
-0.000974504
-0.000933931
-0.000876675
-0.000801574
-0.000707525
-0.000593539
-0.000458795
-0.000302694
-0.000124915
7.45387e-05
0.000295292
0.000536559
0.000797108
0.00107524
0.00136878
0.00167507
0.00199098
0.00231294
0.00263701
0.00295888
0.003274
0.00357764
0.003865
0.00413134
0.00437207
0.00458288
0.00475987
0.00489967
0.00499954
0.00505747
0.00507223
0.00504342
0.00497151
0.00485782
0.00470448
0.00451436
0.004291
0.00403847
0.00376127
0.0034642
0.00315218
0.00283018
0.00250305
0.00217534
0.00185126
0.0015362
0.00123501
0.00093085
0.000607218
0.00260531
0.00202203
0.00156272
0.00118884
0.000854102
0.000556782
0.000295725
6.67253e-05
-0.000134223
-0.000310599
-0.000465538
-0.00060182
-0.000721838
-0.000827576
-0.000920618
-0.00100215
-0.00107295
-0.00113344
-0.00118369
-0.00122345
-0.00125216
-0.00126902
-0.00127302
-0.00126298
-0.0012376
-0.00119552
-0.00113537
-0.00105581
-0.000955612
-0.000833723
-0.000689297
-0.000521774
-0.000330926
-0.000116914
0.000119671
0.000377766
0.000655809
0.00095172
0.00126289
0.00158621
0.00191805
0.00225435
0.00259066
0.00292219
0.00324393
0.00355074
0.00383748
0.00409912
0.00433089
0.0045284
0.00468777
0.00480574
0.00487981
0.0049083
0.0048904
0.00482622
0.00471679
0.00456402
0.00437065
0.00414018
0.00387671
0.00358487
0.00326964
0.0029362
0.00258984
0.00223577
0.0018789
0.00152388
0.00117667
0.000842734
0.000503049
0.000139171
0.00258698
0.00196596
0.00147824
0.00108256
0.000729249
0.000416174
0.000141789
-9.86908e-05
-0.000309809
-0.000495514
-0.000659353
-0.000804459
-0.000933511
-0.00104873
-0.00115188
-0.00124425
-0.00132673
-0.00139976
-0.00146341
-0.00151736
-0.001561
-0.00159342
-0.00161345
-0.00161977
-0.00161087
-0.00158519
-0.00154112
-0.00147709
-0.00139162
-0.00128338
-0.00115128
-0.000994491
-0.000812531
-0.000605321
-0.000373235
-0.000117142
0.000161554
0.000460892
0.00077834
0.0011108
0.00145461
0.00180561
0.00215918
0.00251028
0.00285361
0.00318366
0.00349485
0.00378167
0.00403881
0.00426132
0.00444472
0.00458519
0.00467964
0.00472585
0.00472251
0.00466931
0.00456692
0.00441699
0.00422211
0.00398568
0.00371188
0.00340544
0.00307158
0.00271581
0.00234378
0.00196115
0.0015733
0.00118535
0.000803999
0.000435374
5.8239e-05
-0.000347834
0.00250813
0.00185124
0.00133647
0.000919979
0.000548837
0.000220495
-6.69808e-05
-0.00031894
-0.000540449
-0.00073591
-0.000909264
-0.00106398
-0.001203
-0.00132877
-0.0014432
-0.00154771
-0.00164323
-0.00173023
-0.00180875
-0.00187842
-0.00193854
-0.00198806
-0.00202569
-0.00204989
-0.00205899
-0.00205117
-0.0020246
-0.00197743
-0.00190793
-0.00181448
-0.00169569
-0.00155045
-0.00137801
-0.00117801
-0.000950583
-0.000696374
-0.000416595
-0.00011306
0.000211798
0.000554921
0.000912636
0.00128069
0.00165428
0.00202815
0.00239667
0.00275393
0.00309387
0.00341046
0.00369778
0.00395024
0.00416271
0.00433067
0.00445039
0.00451898
0.00453456
0.00449629
0.00440443
0.00426029
0.00406624
0.00382561
0.00354258
0.00322205
0.00286949
0.00249078
0.00209202
0.00167938
0.00125879
0.000835944
0.000418351
1.29297e-05
-0.000403863
-0.000854517
0.00236409
0.0016733
0.00113296
0.000696709
0.000308549
-3.44994e-05
-0.000334761
-0.000598138
-0.000830204
-0.0010358
-0.00121925
-0.00138434
-0.00153426
-0.00167165
-0.00179858
-0.00191655
-0.00202653
-0.00212901
-0.00222398
-0.00231102
-0.00238931
-0.00245766
-0.00251463
-0.00255849
-0.00258733
-0.00259912
-0.00259174
-0.0025631
-0.00251113
-0.00243394
-0.00232981
-0.00219733
-0.00203542
-0.00184344
-0.00162122
-0.00136915
-0.00108822
-0.000780054
-0.000446954
-9.19024e-05
0.000281434
0.00066873
0.00106504
0.00146486
0.00186223
0.00225082
0.00262407
0.00297534
0.00329807
0.00358595
0.00383309
0.0040342
0.00418475
0.00428114
0.00432076
0.00430217
0.00422509
0.00409042
0.00390027
0.00365782
0.00336727
0.00303367
0.00266277
0.00226086
0.00183455
0.0013906
0.00093558
0.000475852
1.98341e-05
-0.000424678
-0.000883643
-0.00138173
0.00215045
0.00142785
0.000863478
0.0004086
4.29789e-06
-0.000352841
-0.000665534
-0.000940224
-0.00118298
-0.00139907
-0.00159318
-0.00176939
-0.00193114
-0.00208125
-0.00222192
-0.00235471
-0.00248066
-0.00260021
-0.00271334
-0.00281952
-0.00291782
-0.00300692
-0.00308518
-0.00315069
-0.00320129
-0.00323471
-0.00324855
-0.00324041
-0.00320792
-0.00314884
-0.00306113
-0.00294302
-0.00279309
-0.00261036
-0.00239433
-0.00214508
-0.00186334
-0.00155051
-0.00120869
-0.000840768
-0.000450357
-4.18267e-05
0.000379748
0.000808638
0.00123855
0.00166271
0.00207403
0.00246523
0.00282902
0.0031583
0.00344632
0.00368691
0.00387464
0.00400503
0.00407466
0.00408134
0.00402414
0.00390347
0.00372107
0.00347994
0.00318423
0.00283914
0.00245074
0.00202574
0.00157135
0.00109498
0.000603926
0.000105309
-0.000391432
-0.000877526
-0.0013815
-0.00193034
0.00186306
0.00111085
0.000524071
5.17623e-05
-0.000367753
-0.000738322
-0.00106306
-0.00134893
-0.00160249
-0.00182941
-0.00203474
-0.00222283
-0.00239736
-0.00256131
-0.002717
-0.00286606
-0.00300953
-0.00314785
-0.00328094
-0.00340818
-0.0035285
-0.00364045
-0.00374218
-0.00383156
-0.00390622
-0.00396359
-0.00400099
-0.00401569
-0.004005
-0.00396631
-0.0038972
-0.00379553
-0.00365949
-0.00348771
-0.00327933
-0.00303408
-0.00275234
-0.00243524
-0.00208466
-0.0017033
-0.0012947
-0.000863219
-0.000414032
4.69274e-05
0.000513036
0.000977089
0.00143143
0.00186809
0.002279
0.00265617
0.0029919
0.00327901
0.00351105
0.00368252
0.00378904
0.00382752
0.00379626
0.00369504
0.00352513
0.00328925
0.00299149
0.00263717
0.00223265
0.00178513
0.00130244
0.000792749
0.000264153
-0.000275367
-0.000815238
-0.00134561
-0.00189776
-0.00250117
0.00149804
0.000718533
0.000111073
-0.000377411
-0.000811166
-0.00119447
-0.00153083
-0.00182773
-0.0020922
-0.0023303
-0.0025474
-0.00274815
-0.00293643
-0.00311539
-0.00328741
-0.00345423
-0.00361687
-0.00377576
-0.00393073
-0.00408108
-0.00422561
-0.00436268
-0.00449027
-0.00460602
-0.0047073
-0.00479125
-0.00485489
-0.00489516
-0.00490897
-0.00489336
-0.0048455
-0.00476282
-0.00464308
-0.00448449
-0.00428575
-0.00404618
-0.00376579
-0.00344535
-0.00308644
-0.00269155
-0.00226405
-0.00180826
-0.00132939
-0.00083356
-0.000327691
0.000180572
0.000682989
0.00117088
0.00163534
0.00206739
0.00245827
0.00279969
0.00308401
0.00330456
0.00345583
0.00353367
0.00353544
0.00346015
0.00330846
0.00308273
0.00278688
0.00242631
0.00200769
0.00153871
0.0010279
0.000484236
-8.32792e-05
-0.000665708
-0.00125122
-0.00182876
-0.0024326
-0.00309488
0.00105182
0.000247472
-0.000378873
-0.000882225
-0.00132921
-0.00172452
-0.00207208
-0.00237985
-0.00265532
-0.00290494
-0.0031344
-0.0033486
-0.00355162
-0.00374676
-0.00393651
-0.00412263
-0.00430617
-0.0044875
-0.0046664
-0.00484205
-0.00501312
-0.00517779
-0.00533385
-0.00547869
-0.00560943
-0.00572291
-0.00581582
-0.00588473
-0.0059262
-0.00593681
-0.00591332
-0.00585268
-0.00575219
-0.00560956
-0.00542302
-0.00519142
-0.0049143
-0.00459202
-0.0042258
-0.0038178
-0.0033712
-0.00289017
-0.00237993
-0.00184672
-0.00129773
-0.000741015
-0.00018541
0.000359669
0.000884396
0.00137877
0.00183286
0.00223709
0.00258252
0.00286111
0.00306604
0.00319191
0.00323495
0.0031932
0.00306659
0.00285693
0.00256792
0.00220496
0.00177498
0.00128622
0.000747896
0.000169924
-0.000437719
-0.00106503
-0.00169877
-0.00232657
-0.00298592
-0.00371187
0.00052119
-0.000305439
-0.00094879
-0.00146565
-0.00192481
-0.00233139
-0.0026897
-0.00300818
-0.00329475
-0.00355624
-0.00379863
-0.00402709
-0.00424588
-0.00445842
-0.00466731
-0.00487434
-0.00508056
-0.00528631
-0.00549128
-0.00569455
-0.00589463
-0.00608956
-0.0062769
-0.0064538
-0.00661711
-0.00676337
-0.00688891
-0.00698995
-0.0070626
-0.00710304
-0.00710751
-0.0070725
-0.00699476
-0.00687147
-0.00670031
-0.00647958
-0.0062083
-0.00588633
-0.00551444
-0.0050944
-0.00462907
-0.00412242
-0.0035796
-0.0030069
-0.00241171
-0.00180249
-0.00118865
-0.000580361
1.16143e-05
0.000576151
0.00110205
0.00157832
0.00199454
0.00234113
0.00260973
0.00279348
0.00288725
0.00288792
0.00279445
0.002608
0.00233184
0.00197132
0.00153359
0.00102739
0.000462733
-0.000149512
-0.000798267
-0.00147235
-0.00215697
-0.00283829
-0.00355731
-0.00435222
-9.67116e-05
-0.000942938
-0.00160134
-0.00213031
-0.00260057
-0.00301765
-0.00338625
-0.00371527
-0.00401305
-0.00428675
-0.00454267
-0.0047862
-0.00502178
-0.00525298
-0.00548246
-0.00571204
-0.00594279
-0.00617499
-0.00640826
-0.00664157
-0.0068733
-0.00710129
-0.0073229
-0.00753505
-0.0077343
-0.00791687
-0.00807874
-0.00821573
-0.00832354
-0.00839783
-0.00843438
-0.0084291
-0.00837818
-0.00827821
-0.00812624
-0.00791996
-0.00765779
-0.00733899
-0.00696378
-0.00653344
-0.00605044
-0.00551845
-0.00494242
-0.00432861
-0.00368459
-0.00301914
-0.0023422
-0.00166469
-0.000998371
-0.00035553
0.000251254
0.000809462
0.00130699
0.00173253
0.00207595
0.00232867
0.00248397
0.00253729
0.00248641
0.00233158
0.00207554
0.0017234
0.0012825
0.000762049
0.000172858
-0.000473155
-0.00116372
-0.00188633
-0.0026245
-0.00336277
-0.00414592
-0.00501555
-0.000804332
-0.00166737
-0.00233881
-0.00287844
-0.00335868
-0.00378549
-0.00416391
-0.0045033
-0.00481237
-0.00509864
-0.00536868
-0.00562809
-0.00588151
-0.00613261
-0.00638413
-0.00663794
-0.00689509
-0.00715582
-0.00741969
-0.00768555
-0.00795164
-0.00821564
-0.00847469
-0.00872547
-0.00896425
-0.00918693
-0.00938913
-0.00956625
-0.00971354
-0.00982618
-0.00989937
-0.00992846
-0.00990901
-0.00983694
-0.00970864
-0.00952109
-0.00927201
-0.00895999
-0.00858459
-0.0081465
-0.00764766
-0.00709132
-0.00648217
-0.00582632
-0.00513138
-0.00440641
-0.00366183
-0.00290929
-0.00216153
-0.00143206
-0.000734925
-8.43157e-05
0.000505827
0.00102224
0.00145277
0.00178685
0.00201586
0.00213352
0.00213614
0.00202283
0.00179554
0.00145902
0.00102064
0.00049007
-0.000121085
-0.000799796
-0.00153249
-0.00230522
-0.00309959
-0.00389834
-0.00475038
-0.00570098
-0.00160369
-0.00248065
-0.00316305
-0.00371187
-0.00420098
-0.00463671
-0.00502447
-0.00537403
-0.00569448
-0.00599365
-0.00627838
-0.00655448
-0.00682675
-0.00709898
-0.007374
-0.0076537
-0.00793913
-0.0082305
-0.00852729
-0.00882826
-0.00913152
-0.00943456
-0.00973433
-0.0100273
-0.0103093
-0.0105762
-0.010823
-0.0110447
-0.0112362
-0.011392
-0.0115069
-0.0115755
-0.0115927
-0.0115537
-0.0114542
-0.0112904
-0.0110591
-0.0107583
-0.0103867
-0.00994421
-0.00943222
-0.00885341
-0.00821203
-0.00751396
-0.00676674
-0.00597959
-0.00516332
-0.00433028
-0.00349415
-0.00266971
-0.00187253
-0.00111859
-0.000423836
0.000196279
0.000727338
0.00115646
0.00147281
0.00166804
0.00173668
0.00167636
0.001488
0.00117576
0.000746893
0.000211432
-0.000418221
-0.00112787
-0.00190254
-0.00272671
-0.00357985
-0.0044427
-0.00536866
-0.00640694
-0.00249632
-0.00338426
-0.0040755
-0.004632
-0.00512883
-0.00557267
-0.00596927
-0.00632881
-0.0066607
-0.00697308
-0.00727302
-0.00756657
-0.00785867
-0.00815324
-0.00845316
-0.00876037
-0.00907593
-0.00940002
-0.00973206
-0.0100707
-0.0104139
-0.0107591
-0.0111029
-0.0114417
-0.011771
-0.0120861
-0.012382
-0.0126531
-0.0128937
-0.013098
-0.01326
-0.0133737
-0.0134333
-0.0134332
-0.0133683
-0.0132338
-0.0130259
-0.0127415
-0.0123784
-0.0119359
-0.0114144
-0.0108159
-0.0101441
-0.00940458
-0.00860458
-0.00775335
-0.00686203
-0.00594355
-0.0050125
-0.00408491
-0.00317793
-0.00230943
-0.00149752
-0.000760063
-0.000114019
0.000425108
0.000843892
0.00113155
0.00128041
0.00128629
0.00114872
0.000871014
0.000460097
-7.37568e-05
-0.000717391
-0.00145542
-0.00227134
-0.0031479
-0.00406223
-0.00499285
-0.00599799
-0.00713111
-0.00348329
-0.00437921
-0.00507714
-0.00563982
-0.0061432
-0.00659431
-0.00699925
-0.00736852
-0.00771186
-0.0080377
-0.00835335
-0.00866504
-0.00897788
-0.00929589
-0.00962204
-0.00995832
-0.0103058
-0.0106646
-0.0110341
-0.011413
-0.011799
-0.0121893
-0.0125806
-0.0129688
-0.0133493
-0.0137171
-0.0140666
-0.014392
-0.0146871
-0.0149453
-0.0151602
-0.015325
-0.0154331
-0.0154782
-0.0154542
-0.0153556
-0.0151772
-0.0149152
-0.0145664
-0.014129
-0.0136026
-0.0129882
-0.012289
-0.0115098
-0.0106575
-0.00974128
-0.00877241
-0.0077643
-0.00673237
-0.00569385
-0.00466748
-0.00367309
-0.00273112
-0.00186201
-0.00108558
-0.00042028
0.000117475
0.00051403
0.000759088
0.000846207
0.000773141
0.000541982
0.000159085
-0.00036522
-0.0010171
-0.00177996
-0.0026357
-0.00356516
-0.00454289
-0.00554493
-0.00663472
-0.00787027
-0.00456514
-0.00546603
-0.00616849
-0.00673581
-0.00724458
-0.00770213
-0.00811485
-0.00849357
-0.00884834
-0.00918782
-0.00951957
-0.00985
-0.0101844
-0.0105268
-0.0108804
-0.0112472
-0.0116282
-0.0120236
-0.0124328
-0.0128542
-0.0132857
-0.0137242
-0.0141663
-0.0146076
-0.0150433
-0.015468
-0.0158759
-0.0162606
-0.0166154
-0.0169333
-0.0172071
-0.0174293
-0.0175926
-0.0176897
-0.0177135
-0.0176575
-0.0175158
-0.017283
-0.016955
-0.0165289
-0.0160031
-0.0153778
-0.0146551
-0.0138391
-0.0129362
-0.0119553
-0.0109074
-0.00980645
-0.0086685
-0.00751192
-0.00635699
-0.00522555
-0.00414046
-0.00312496
-0.00220196
-0.00139325
-0.000718612
-0.000195061
0.000163978
0.000349298
0.000356396
0.00018573
-0.000157268
-0.000662454
-0.00131546
-0.00209848
-0.00299176
-0.00397405
-0.00501707
-0.0060941
-0.00727417
-0.00862014
-0.00574189
-0.00664473
-0.00734959
-0.00792005
-0.00843304
-0.00889615
-0.00931607
-0.0097039
-0.01007
-0.0104232
-0.0107713
-0.0111209
-0.0114775
-0.0118452
-0.0122272
-0.0126257
-0.0130417
-0.0134754
-0.0139262
-0.0143925
-0.0148719
-0.0153615
-0.0158575
-0.0163554
-0.0168502
-0.0173362
-0.017807
-0.0182561
-0.0186762
-0.0190595
-0.0193984
-0.0196846
-0.0199098
-0.020066
-0.020145
-0.0201392
-0.0200415
-0.0198455
-0.0195457
-0.0191379
-0.0186194
-0.0179892
-0.0172482
-0.0163996
-0.0154491
-0.0144048
-0.0132778
-0.012082
-0.010834
-0.00955311
-0.00826117
-0.00698198
-0.00574087
-0.00456404
-0.00347777
-0.00250749
-0.00167683
-0.00100664
-0.000514041
-0.00021158
-0.000106585
-0.000200741
-0.000489976
-0.000964654
-0.00161006
-0.00240728
-0.00333479
-0.00436915
-0.00547894
-0.00663437
-0.00791047
-0.00937523
-0.00701301
-0.00791485
-0.00862001
-0.00919212
-0.00970816
-0.010176
-0.0106024
-0.010999
-0.0113761
-0.011743
-0.0121076
-0.0124767
-0.0128558
-0.0132494
-0.0136607
-0.0140919
-0.0145441
-0.0150176
-0.0155116
-0.0160247
-0.0165544
-0.0170976
-0.0176505
-0.0182083
-0.0187658
-0.0193171
-0.0198555
-0.0203739
-0.0208645
-0.0213192
-0.0217293
-0.0220861
-0.0223803
-0.0226029
-0.0227448
-0.0227971
-0.0227515
-0.0226003
-0.0223368
-0.0219553
-0.0214517
-0.0208236
-0.0200707
-0.019195
-0.0182011
-0.0170964
-0.0158916
-0.0146003
-0.0132395
-0.0118293
-0.0103929
-0.00895607
-0.00754653
-0.00619359
-0.00492709
-0.00377645
-0.00276958
-0.0019317
-0.00128423
-0.000843714
-0.000620948
-0.000620384
-0.000839842
-0.00127062
-0.00189793
-0.00270185
-0.00365914
-0.00474395
-0.00592145
-0.00715845
-0.00853637
-0.0101286
-0.00837743
-0.00927544
-0.00997886
-0.0105512
-0.0110691
-0.0115407
-0.011973
-0.0123778
-0.0127657
-0.013146
-0.013527
-0.0139156
-0.0143175
-0.0147372
-0.0151782
-0.0156427
-0.016132
-0.0166463
-0.017185
-0.0177465
-0.0183284
-0.0189275
-0.0195398
-0.0201606
-0.0207843
-0.0214047
-0.0220149
-0.0226073
-0.0231736
-0.0237052
-0.0241928
-0.0246267
-0.0249969
-0.0252934
-0.0255059
-0.0256245
-0.0256395
-0.0255418
-0.0253232
-0.0249766
-0.0244964
-0.0238785
-0.0231212
-0.0222251
-0.0211935
-0.0200329
-0.018753
-0.0173672
-0.0158925
-0.0143496
-0.0127627
-0.0111593
-0.00956982
-0.00802649
-0.00656292
-0.00521282
-0.00400878
-0.00298095
-0.00215571
-0.00155429
-0.00119172
-0.00107594
-0.00120732
-0.0015786
-0.00217533
-0.0029768
-0.00395801
-0.00509065
-0.00633614
-0.00765754
-0.00914308
-0.0108718
-0.00983356
-0.010725
-0.0114248
-0.0119959
-0.0125146
-0.0129891
-0.0134266
-0.0138389
-0.0142369
-0.0146303
-0.0150273
-0.0154351
-0.0158596
-0.0163055
-0.0167763
-0.0172745
-0.0178012
-0.018357
-0.0189412
-0.0195523
-0.0201879
-0.0208447
-0.0215187
-0.0222049
-0.0228978
-0.0235908
-0.0242766
-0.0249473
-0.0255943
-0.0262082
-0.026779
-0.0272964
-0.0277495
-0.0281272
-0.0284182
-0.0286113
-0.0286955
-0.0286602
-0.0284957
-0.0281933
-0.0277456
-0.027147
-0.0263939
-0.0254853
-0.0244232
-0.0232125
-0.0218621
-0.0203846
-0.0187966
-0.0171191
-0.0153773
-0.0136003
-0.0118205
-0.0100734
-0.00839645
-0.00682785
-0.00540528
-0.00416434
-0.00313703
-0.00235008
-0.00182356
-0.00156975
-0.00159233
-0.00188619
-0.00243768
-0.00322559
-0.00422333
-0.00539999
-0.00671295
-0.00812114
-0.00971997
-0.0115945
-0.0113793
-0.0122618
-0.0129561
-0.0135248
-0.0140431
-0.0145194
-0.0149612
-0.0153803
-0.0157878
-0.0161935
-0.0166059
-0.0170323
-0.0174789
-0.0179505
-0.0184507
-0.0189822
-0.0195464
-0.0201438
-0.0207739
-0.0214352
-0.0221254
-0.0228412
-0.0235785
-0.0243323
-0.0250968
-0.0258652
-0.02663
-0.027383
-0.0281149
-0.028816
-0.0294756
-0.0300825
-0.0306251
-0.0310911
-0.0314682
-0.031744
-0.0319059
-0.0319421
-0.0318411
-0.0315925
-0.031187
-0.0306173
-0.029878
-0.0289662
-0.0278819
-0.0266287
-0.0252139
-0.0236492
-0.0219505
-0.0201388
-0.0182397
-0.0162834
-0.0143047
-0.0123419
-0.0104363
-0.00863069
-0.00696823
-0.00549049
-0.00423574
-0.00323702
-0.00252041
-0.00210343
-0.00199403
-0.00219003
-0.00267926
-0.00344042
-0.00444552
-0.00566102
-0.00703998
-0.00853677
-0.0102544
-0.0122841
-0.0130121
-0.0138833
-0.0145706
-0.0151356
-0.0156526
-0.0161298
-0.0165749
-0.0169998
-0.0174159
-0.0178329
-0.0182596
-0.0187036
-0.0191711
-0.0196674
-0.0201961
-0.0207602
-0.0213612
-0.0219997
-0.0226755
-0.0233871