/*--------------------------------*- C++ -*----------------------------------*\
  =========                 |
  \\      /  F ield         | OpenFOAM: The Open Source CFD Toolbox
   \\    /   O peration     | Website:  https://openfoam.org
    \\  /    A nd           | Version:  dev
     \\/     M anipulation  |
\*---------------------------------------------------------------------------*/
FoamFile
{
    format      ascii;
    class       surfaceScalarField;
    location    "44.1";
    object      phi;
}
// * * * * * * * * * * * * * * * * * * * * * * * * * * * * * * * * * * * * * //

dimensions      [0 3 -1 0 0 0 0];

internalField   nonuniform List<scalar> 
10224
(
3.40493e-08
-3.46547e-08
8.80127e-08
-5.39636e-08
1.24546e-07
-3.65327e-08
1.255e-07
-9.54016e-10
8.38624e-08
4.16369e-08
-1.6479e-09
8.55085e-08
-1.29205e-07
1.27555e-07
-2.95507e-07
1.66302e-07
-4.96494e-07
2.00986e-07
-7.27862e-07
2.31367e-07
-9.85341e-07
2.57478e-07
-1.26484e-06
2.79495e-07
-1.56251e-06
2.97671e-07
-1.8748e-06
3.12291e-07
-2.19844e-06
3.23638e-07
-2.53042e-06
3.31981e-07
-2.86798e-06
3.37555e-07
-3.20854e-06
3.40561e-07
-3.5497e-06
3.41161e-07
-3.88918e-06
3.39477e-07
-4.22477e-06
3.35594e-07
-4.55434e-06
3.29566e-07
-4.87575e-06
3.21417e-07
-5.1869e-06
3.11149e-07
-5.48565e-06
2.98751e-07
-5.76986e-06
2.84202e-07
-6.03734e-06
2.67479e-07
-6.2859e-06
2.48566e-07
-6.51336e-06
2.27458e-07
-6.71753e-06
2.0417e-07
-6.89627e-06
1.78739e-07
-7.04751e-06
1.51234e-07
-7.16926e-06
1.21756e-07
-7.25971e-06
9.0445e-08
-7.31719e-06
5.74817e-08
-7.34028e-06
2.30887e-08
-7.32781e-06
-1.2468e-08
-7.27894e-06
-4.88799e-08
-7.19314e-06
-8.57975e-08
-7.07031e-06
-1.22833e-07
-6.91074e-06
-1.59566e-07
-6.7152e-06
-1.95547e-07
-6.48489e-06
-2.30305e-07
-6.22154e-06
-2.63358e-07
-5.92732e-06
-2.94217e-07
-5.60492e-06
-3.224e-07
-5.25748e-06
-3.47441e-07
-4.88858e-06
-3.68902e-07
-4.5022e-06
-3.86379e-07
-4.10268e-06
-3.9952e-07
-3.69465e-06
-4.08028e-07
-3.28298e-06
-4.11674e-07
-2.87268e-06
-4.10302e-07
-2.46884e-06
-4.03837e-07
-2.07655e-06
-3.92288e-07
-1.7008e-06
-3.75752e-07
-1.34639e-06
-3.54413e-07
-1.01784e-06
-3.28547e-07
-7.19327e-07
-2.98516e-07
-4.54558e-07
-2.64768e-07
-2.26715e-07
-2.27843e-07
-3.83439e-08
-1.88373e-07
1.08749e-07
-1.47095e-07
2.13628e-07
-1.04879e-07
2.7641e-07
-6.2779e-08
2.98528e-07
-2.2115e-08
2.83163e-07
1.53648e-08
2.35909e-07
4.72466e-08
1.65834e-07
7.00695e-08
8.72444e-08
7.85961e-08
2.25371e-08
6.47299e-08
2.25577e-08
5.40594e-08
-8.87143e-08
1.12624e-07
-1.12531e-07
1.18439e-07
-4.23504e-08
3.91236e-08
7.83603e-08
-1.41736e-07
2.22495e-07
-4.29469e-07
3.73239e-07
-8.22315e-07
5.20399e-07
-1.31413e-06
6.58112e-07
-1.89634e-06
7.83198e-07
-2.55914e-06
8.94166e-07
-3.29225e-06
9.90583e-07
-4.08541e-06
1.07266e-06
-4.9287e-06
1.14096e-06
-5.81268e-06
1.19627e-06
-6.72845e-06
1.23941e-06
-7.66768e-06
1.27121e-06
-8.62256e-06
1.29244e-06
-9.58575e-06
1.30375e-06
-1.05503e-05
1.30569e-06
-1.15095e-05
1.2987e-06
-1.2457e-05
1.28309e-06
-1.33865e-05
1.25905e-06
-1.42918e-05
1.22672e-06
-1.51668e-05
1.18613e-06
-1.60053e-05
1.13729e-06
-1.68013e-05
1.08018e-06
-1.75486e-05
1.01476e-06
-1.82411e-05
9.41041e-07
-1.88727e-05
8.59061e-07
-1.94374e-05
7.68937e-07
-1.99296e-05
6.70873e-07
-2.03435e-05
5.65178e-07
-2.0674e-05
4.52288e-07
-2.09164e-05
3.32772e-07
-2.10662e-05
2.07343e-07
-2.112e-05
7.6867e-08
-2.10748e-05
-5.76402e-08
-2.09287e-05
-1.95013e-07
-2.06806e-05
-3.33943e-07
-2.03304e-05
-4.72993e-07
-1.98794e-05
-6.10608e-07
-1.93298e-05
-7.45142e-07
-1.86852e-05
-8.74878e-07
-1.79505e-05
-9.9806e-07
-1.71318e-05
-1.11292e-06
-1.62365e-05
-1.21773e-06
-1.52731e-05
-1.3108e-06
-1.42515e-05
-1.39056e-06
-1.31823e-05
-1.45557e-06
-1.20772e-05
-1.50458e-06
-1.09487e-05
-1.53654e-06
-9.80974e-06
-1.55063e-06
-8.67374e-06
-1.54631e-06
-7.55424e-06
-1.52333e-06
-6.46477e-06
-1.48176e-06
-5.41856e-06
-1.42197e-06
-4.42831e-06
-1.34466e-06
-3.50599e-06
-1.25087e-06
-2.66254e-06
-1.14197e-06
-1.90765e-06
-1.01966e-06
-1.2495e-06
-8.85989e-07
-6.94495e-07
-7.43379e-07
-2.46932e-07
-5.94658e-07
9.13408e-08
-4.43155e-07
3.21407e-07
-2.92848e-07
4.47871e-07
-1.48577e-07
4.79743e-07
-1.64963e-08
4.31506e-07
9.54922e-08
3.24607e-07
1.76958e-07
1.89071e-07
2.141e-07
6.43861e-08
1.89381e-07
8.69618e-08
3.74309e-08
-1.26145e-07
4.34777e-08
-1.1858e-07
-4.31015e-08
4.42259e-08
-2.58588e-07
2.93844e-07
-6.22602e-07
5.86508e-07
-1.14226e-06
8.929e-07
-1.81584e-06
1.19397e-06
-2.63568e-06
1.47795e-06
-3.5904e-06
1.73792e-06
-4.66648e-06
1.97025e-06
-5.84935e-06
2.17345e-06
-7.1241e-06
2.34741e-06
-8.47604e-06
2.49289e-06
-9.8909e-06
2.61113e-06
-1.13551e-05
2.70357e-06
-1.28556e-05
2.77172e-06
-1.43802e-05
2.81702e-06
-1.59171e-05
2.84072e-06
-1.74554e-05
2.84391e-06
-1.89841e-05
2.82745e-06
-2.0493e-05
2.79198e-06
-2.19719e-05
2.73794e-06
-2.34108e-05
2.66562e-06
-2.47998e-05
2.57518e-06
-2.61292e-05
2.46666e-06
-2.73891e-05
2.3401e-06
-2.85699e-05
2.19553e-06
-2.96619e-05
2.03302e-06
-3.06556e-05
1.85278e-06
-3.15418e-05
1.65513e-06
-3.23115e-05
1.44061e-06
-3.29563e-05
1.20996e-06
-3.34682e-05
9.64195e-07
-3.384e-05
7.04601e-07
-3.40655e-05
4.32765e-07
-3.41392e-05
1.50582e-07
-3.40571e-05
-1.39743e-07
-3.38164e-05
-4.35702e-07
-3.34158e-05
-7.34498e-07
-3.28558e-05
-1.03307e-06
-3.21382e-05
-1.32815e-06
-3.12671e-05
-1.61624e-06
-3.02483e-05
-1.89375e-06
-2.90893e-05
-2.157e-06
-2.77999e-05
-2.40231e-06
-2.63916e-05
-2.62606e-06
-2.48776e-05
-2.82475e-06
-2.32731e-05
-2.99513e-06
-2.15944e-05
-3.13422e-06
-1.98596e-05
-3.23942e-06
-1.80876e-05
-3.30856e-06
-1.62982e-05
-3.33998e-06
-1.45119e-05
-3.33258e-06
-1.27494e-05
-3.28587e-06
-1.10312e-05
-3.20001e-06
-9.37732e-06
-3.07581e-06
-7.80717e-06
-2.9148e-06
-6.33885e-06
-2.7192e-06
-4.98888e-06
-2.49194e-06
-3.77186e-06
-2.23667e-06
-2.70005e-06
-1.9578e-06
-1.7829e-06
-1.66052e-06
-1.02665e-06
-1.35091e-06
-4.33765e-07
-1.03604e-06
-2.33131e-09
-7.24287e-07
2.74742e-07
-4.25656e-07
4.10532e-07
-1.52283e-07
4.25299e-07
8.07419e-08
3.47684e-07
2.54591e-07
2.15899e-07
3.45884e-07
7.86777e-08
3.26576e-07
1.65644e-07
1.95928e-09
-1.28104e-07
-7.88556e-08
-3.77665e-08
-2.97565e-07
2.62932e-07
-6.8791e-07
6.84187e-07
-1.26822e-06
1.16681e-06
-2.04477e-06
1.66945e-06
-3.01476e-06
2.16397e-06
-4.16895e-06
2.63213e-06
-5.49373e-06
3.06269e-06
-6.97276e-06
3.44928e-06
-8.5882e-06
3.78889e-06
-1.03216e-05
4.08077e-06
-1.21543e-05
4.32565e-06
-1.40683e-05
4.52511e-06
-1.60459e-05
4.68118e-06
-1.80703e-05
4.79606e-06
-2.01251e-05
4.87189e-06
-2.2195e-05
4.91061e-06
-2.4265e-05
4.91389e-06
-2.63206e-05
4.88309e-06
-2.83479e-05
4.81926e-06
-3.03331e-05
4.72316e-06
-3.22628e-05
4.59529e-06
-3.41236e-05
4.43596e-06
-3.59023e-05
4.24537e-06
-3.75858e-05
4.02365e-06
-3.91613e-05
3.77097e-06
-4.06159e-05
3.48759e-06
-4.19371e-05
3.17398e-06
-4.31128e-05
2.83083e-06
-4.41313e-05
2.45916e-06
-4.49817e-05
2.06037e-06
-4.56538e-05
1.63629e-06
-4.61384e-05
1.18919e-06
-4.64275e-05
7.21859e-07
-4.65145e-05
2.37573e-07
-4.63944e-05
-2.59882e-07
-4.60638e-05
-7.66226e-07
-4.55216e-05
-1.27672e-06
-4.47685e-05
-1.78619e-06
-4.38075e-05
-2.28912e-06
-4.26441e-05
-2.7797e-06
-4.12859e-05
-3.25188e-06
-3.97434e-05
-3.69954e-06
-3.80292e-05
-4.11656e-06
-3.61583e-05
-4.49691e-06
-3.41482e-05
-4.83481e-06
-3.20185e-05
-5.12487e-06
-2.97906e-05
-5.36216e-06
-2.74876e-05
-5.54238e-06
-2.51342e-05
-5.66196e-06
-2.2756e-05
-5.71817e-06
-2.03794e-05
-5.7092e-06
-1.8031e-05
-5.63428e-06
-1.57373e-05
-5.49369e-06
-1.35243e-05
-5.28885e-06
-1.14168e-05
-5.02233e-06
-9.43805e-06
-4.69791e-06
-7.60944e-06
-4.32054e-06
-5.9497e-06
-3.89642e-06
-4.4745e-06
-3.433e-06
-3.19598e-06
-2.93905e-06
-2.12207e-06
-2.42481e-06
-1.25599e-06
-1.90212e-06
-5.9546e-07
-1.38481e-06
-1.32056e-07
-8.89068e-07
1.49748e-07
-4.34097e-07
2.73438e-07
-4.29468e-08
2.71499e-07
2.56546e-07
1.86445e-07
4.30954e-07
7.22597e-08
4.40754e-07
2.379e-07
-4.20309e-08
-8.6074e-08
-2.30011e-07
1.50213e-07
-6.06598e-07
6.39517e-07
-1.1984e-06
1.27598e-06
-2.01917e-06
1.98758e-06
-3.07207e-06
2.72235e-06
-4.35194e-06
3.44384e-06
-5.84733e-06
4.12752e-06
-7.54238e-06
4.75773e-06
-9.41826e-06
5.32516e-06
-1.14544e-05
5.82505e-06
-1.36294e-05
6.25579e-06
-1.59217e-05
6.61787e-06
-1.83097e-05
6.91311e-06
-2.07725e-05
7.14404e-06
-2.329e-05
7.3135e-06
-2.58424e-05
7.42432e-06
-2.84109e-05
7.47913e-06
-3.09772e-05
7.48021e-06
-3.35236e-05
7.42947e-06
-3.60328e-05
7.32839e-06
-3.84877e-05
7.17808e-06
-4.08717e-05
6.97933e-06
-4.31684e-05
6.73266e-06
-4.53615e-05
6.43847e-06
-4.74349e-05
6.09706e-06
-4.93728e-05
5.70885e-06
-5.11596e-05
5.27438e-06
-5.27801e-05
4.79451e-06
-5.42198e-05
4.27044e-06
-5.54645e-05
3.70386e-06
-5.65011e-05
3.09703e-06
-5.73176e-05
2.45281e-06
-5.79032e-05
1.77474e-06
-5.82484e-05
1.06709e-06
-5.83457e-05
3.34828e-07
-5.81892e-05
-4.16319e-07
-5.77755e-05
-1.17993e-06
-5.71033e-05
-1.94893e-06
-5.61739e-05
-2.71563e-06
-5.49912e-05
-3.47184e-06
-5.35619e-05
-4.20894e-06
-5.18958e-05
-4.91805e-06
-5.00052e-05
-5.59014e-06
-4.79055e-05
-6.21619e-06
-4.56151e-05
-6.78737e-06
-4.31547e-05
-7.29521e-06
-4.05477e-05
-7.73179e-06
-3.782e-05
-8.0899e-06
-3.49991e-05
-8.36326e-06
-3.21145e-05
-8.54663e-06
-2.91966e-05
-8.63602e-06
-2.6277e-05
-8.62881e-06
-2.33874e-05
-8.52387e-06
-2.05594e-05
-8.32165e-06
-1.7824e-05
-8.02426e-06
-1.52108e-05
-7.63553e-06
-1.27477e-05
-7.16106e-06
-1.046e-05
-6.60823e-06
-8.37017e-06
-5.98622e-06
-6.49707e-06
-5.3061e-06
-4.85524e-06
-4.58088e-06
-3.45442e-06
-3.82563e-06
-2.29883e-06
-3.05772e-06
-1.38649e-06
-2.29714e-06
-7.08554e-07
-1.567e-06
-2.48539e-07
-8.94119e-07
1.84302e-08
-3.09926e-07
1.26436e-07
1.48542e-07
1.19647e-07
4.37757e-07
5.37096e-08
5.06697e-07
2.91606e-07
-8.9442e-08
3.36593e-09
-3.95404e-07
4.56173e-07
-9.453e-07
1.18941e-06
-1.75573e-06
2.08641e-06
-2.83351e-06
3.06535e-06
-4.17687e-06
4.06571e-06
-5.77697e-06
5.04393e-06
-7.61941e-06
5.96997e-06
-9.68572e-06
6.82404e-06
-1.19546e-05
7.59404e-06
-1.4403e-05
8.27342e-06
-1.70068e-05
8.85965e-06
-1.97419e-05
9.35291e-06
-2.25839e-05
9.75515e-06
-2.55092e-05
1.00693e-05
-2.84945e-05
1.02988e-05
-3.15174e-05
1.04472e-05
-3.45559e-05
1.05177e-05
-3.75889e-05
1.05132e-05
-4.05957e-05
1.04362e-05
-4.35559e-05
1.02886e-05
-4.64497e-05
1.00719e-05
-4.92576e-05
9.78726e-06
-5.19604e-05
9.4354e-06
-5.45389e-05
9.01697e-06
-5.69744e-05
8.53259e-06
-5.92485e-05
7.98294e-06
-6.13431e-05
7.369e-06
-6.32407e-05
6.6921e-06
-6.49244e-05
5.95414e-06
-6.63782e-05
5.15764e-06
-6.75871e-05
4.30589e-06
-6.85373e-05
3.40301e-06
-6.92166e-05
2.45403e-06
-6.96144e-05
1.46497e-06
-6.97224e-05
4.42778e-07
-6.95341e-05
-6.04588e-07
-6.90458e-05
-1.66825e-06
-6.82563e-05
-2.73843e-06
-6.71673e-05
-3.8046e-06
-6.57837e-05
-4.8555e-06
-6.41132e-05
-5.8794e-06
-6.21671e-05
-6.86414e-06
-5.99598e-05
-7.79744e-06
-5.7509e-05
-8.66703e-06
-5.48355e-05
-9.46089e-06
-5.19632e-05
-1.01675e-05
-4.89188e-05
-1.07762e-05
-4.57316e-05
-1.1277e-05
-4.24333e-05
-1.16616e-05
-3.90572e-05
-1.19227e-05
-3.56383e-05
-1.2055e-05
-3.22122e-05
-1.20548e-05
-2.88155e-05
-1.19207e-05
-2.54839e-05
-1.16532e-05
-2.22531e-05
-1.12551e-05
-1.91567e-05
-1.07319e-05
-1.62268e-05
-1.0091e-05
-1.34926e-05
-9.34249e-06
-1.09798e-05
-8.49903e-06
-8.71018e-06
-7.57569e-06
-6.70089e-06
-6.59017e-06
-4.96359e-06
-5.56293e-06
-3.50392e-06
-4.51738e-06
-2.32084e-06
-3.48022e-06
-1.40597e-06
-2.48186e-06
-7.42999e-07
-1.55709e-06
-3.07064e-07
-7.45868e-07
-6.41662e-08
-9.43641e-08
2.94802e-08
3.44113e-07
2.83566e-08
5.07827e-07
3.19963e-07
-1.37672e-07
1.41036e-07
-5.66457e-07
8.84955e-07
-1.29784e-06
1.92079e-06
-2.33692e-06
3.12549e-06
-3.68201e-06
4.41044e-06
-5.32505e-06
5.70875e-06
-7.25241e-06
6.9713e-06
-9.44599e-06
8.16354e-06
-1.18842e-05
9.26227e-06
-1.45431e-05
1.02529e-05
-1.73971e-05
1.11274e-05
-2.04197e-05
1.18823e-05
-2.35843e-05
1.25175e-05
-2.68642e-05
1.30351e-05
-3.02332e-05
1.34383e-05
-3.36656e-05
1.37313e-05
-3.71365e-05
1.3918e-05
-4.06212e-05
1.40024e-05
-4.40961e-05
1.39881e-05
-4.75378e-05
1.38779e-05
-5.09234e-05
1.36742e-05
-5.42306e-05
1.33791e-05
-5.74372e-05
1.29938e-05
-6.05214e-05
1.25196e-05
-6.34617e-05
1.19573e-05
-6.6237e-05
1.13079e-05
-6.88266e-05
1.05725e-05
-7.121e-05
9.75248e-06
-7.33679e-05
8.84991e-06
-7.52811e-05
7.86743e-06
-7.69321e-05
6.80856e-06
-7.8304e-05
5.6778e-06
-7.93817e-05
4.48072e-06
-8.01517e-05
3.22406e-06
-8.06026e-05
1.91579e-06
-8.07249e-05
5.6509e-07
-8.05119e-05
-8.17592e-07
-7.99595e-05
-2.22064e-06
-7.90666e-05
-3.63133e-06
-7.78352e-05
-5.03593e-06
-7.62709e-05
-6.41988e-06
-7.43823e-05
-7.76795e-06
-7.2182e-05
-9.06445e-06
-6.9686e-05
-1.02935e-05
-6.69138e-05
-1.14392e-05
-6.38885e-05
-1.24862e-05
-6.06366e-05
-1.34195e-05
-5.71876e-05
-1.42252e-05
-5.35738e-05
-1.48908e-05
-4.98303e-05
-1.54051e-05
-4.5994e-05
-1.5759e-05
-4.21036e-05
-1.59454e-05
-3.81987e-05
-1.59597e-05
-3.43196e-05
-1.57997e-05
-3.05065e-05
-1.54663e-05
-2.67986e-05
-1.4963e-05
-2.32339e-05
-1.42966e-05
-1.98479e-05
-1.34769e-05
-1.66736e-05
-1.25168e-05
-1.374e-05
-1.14327e-05
-1.10718e-05
-1.02438e-05
-8.68891e-06
-8.9731e-06
-6.60513e-06
-7.64671e-06
-4.82802e-06
-6.2945e-06
-3.35807e-06
-4.95017e-06
-2.18816e-06
-3.65176e-06
-1.30309e-06
-2.44216e-06
-6.7909e-07
-1.36986e-06
-2.83518e-07
-4.8994e-07
-7.44837e-08
1.35075e-07
-5.47016e-10
4.33893e-07
3.19418e-07
-1.85476e-07
3.26511e-07
-7.38277e-07
1.43775e-06
-1.65442e-06
2.83693e-06
-2.92693e-06
4.398e-06
-4.54473e-06
6.02824e-06
-6.49249e-06
7.6565e-06
-8.75098e-06
9.22979e-06
-1.12977e-05
1.07102e-05
-1.41074e-05
1.2072e-05
-1.71533e-05
1.32988e-05
-2.04071e-05
1.43812e-05
-2.384e-05
1.53152e-05
-2.7423e-05
1.61005e-05
-3.11274e-05
1.67394e-05
-3.49246e-05
1.72356e-05
-3.87869e-05
1.75936e-05
-4.26869e-05
1.78181e-05
-4.65981e-05
1.79136e-05
-5.04942e-05
1.78842e-05
-5.43497e-05
1.77334e-05
-5.81396e-05
1.74641e-05
-6.1839e-05
1.70785e-05
-6.54237e-05
1.65785e-05
-6.88696e-05
1.59655e-05
-7.2153e-05
1.52407e-05
-7.52507e-05
1.44056e-05
-7.81398e-05
1.34616e-05
-8.07982e-05
1.24108e-05
-8.32042e-05
1.12559e-05
-8.53373e-05
1.00006e-05
-8.71781e-05
8.64933e-06
-8.87084e-05
7.20809e-06
-8.99117e-05
5.68402e-06
-9.07734e-05
4.08573e-06
-9.12809e-05
2.42335e-06
-9.14243e-05
7.08491e-07
-9.11962e-05
-1.0457e-06
-9.05922e-05
-2.82465e-06
-8.96111e-05
-4.61243e-06
-8.82551e-05
-6.3919e-06
-8.65301e-05
-8.14489e-06
-8.44456e-05
-9.85244e-06
-8.2015e-05
-1.1495e-05
-7.92556e-05
-1.30529e-05
-7.61885e-05
-1.45063e-05
-7.28387e-05
-1.5836e-05
-6.92345e-05
-1.70236e-05
-6.5408e-05
-1.80517e-05
-6.13943e-05
-1.89045e-05
-5.72311e-05
-1.95683e-05
-5.29586e-05
-2.00315e-05
-4.86188e-05
-2.02852e-05
-4.4255e-05
-2.03235e-05
-3.9911e-05
-2.01438e-05
-3.56307e-05
-1.97466e-05
-3.14572e-05
-1.91365e-05
-2.74321e-05
-1.83217e-05
-2.35949e-05
-1.73141e-05
-1.99818e-05
-1.61299e-05
-1.66253e-05
-1.47891e-05
-1.35535e-05
-1.33157e-05
-1.07888e-05
-1.17378e-05
-8.34794e-06
-1.00876e-05
-6.24065e-06
-8.40179e-06
-4.46959e-06
-6.72123e-06
-3.02959e-06
-5.09176e-06
-1.90731e-06
-3.56443e-06
-1.08098e-06
-2.19619e-06
-5.20202e-07
-1.05071e-06
-1.86009e-07
-1.99119e-07
-3.10409e-08
2.78924e-07
2.88378e-07
-2.32213e-07
5.58722e-07
-9.08105e-07
2.11364e-06
-2.00907e-06
3.93789e-06
-3.51604e-06
5.90497e-06
-5.40814e-06
7.92033e-06
-7.66221e-06
9.91057e-06
-1.02528e-05
1.18204e-05
-1.31524e-05
1.36099e-05
-1.6332e-05
1.52516e-05
-1.97613e-05
1.6728e-05
-2.34093e-05
1.80291e-05
-2.72447e-05
1.91507e-05
-3.12366e-05
2.00923e-05
-3.53538e-05
2.08567e-05
-3.95661e-05
2.14479e-05
-4.38436e-05
2.18711e-05
-4.81571e-05
2.21316e-05
-5.2478e-05
2.22344e-05
-5.67782e-05
2.21844e-05
-6.10302e-05
2.19854e-05
-6.52069e-05
2.16408e-05
-6.92815e-05
2.11532e-05
-7.32278e-05
2.05248e-05
-7.70198e-05
1.97575e-05
-8.06318e-05
1.88528e-05
-8.40388e-05
1.78126e-05
-8.7216e-05
1.66388e-05
-9.01396e-05
1.53343e-05
-9.27862e-05
1.39026e-05
-9.51338e-05
1.23481e-05
-9.71613e-05
1.06769e-05
-9.88494e-05
8.89614e-06
-0.00010018
7.01481e-06
-0.000101138
5.04353e-06
-0.000101709
2.99472e-06
-0.000101883
8.82598e-07
-0.000101652
-1.27684e-06
-0.000101011
-3.46587e-06
-9.99584e-05
-5.66516e-06
-9.84963e-05
-7.85396e-06
-9.66309e-05
-1.00103e-05
-9.43722e-05
-1.21112e-05
-9.17341e-05
-1.41331e-05
-8.87348e-05
-1.60521e-05
-8.53967e-05
-1.78444e-05
-8.17461e-05
-1.94867e-05
-7.78132e-05
-2.09565e-05
-7.3632e-05
-2.22329e-05
-6.92398e-05
-2.32967e-05
-6.46769e-05
-2.41311e-05
-5.99864e-05
-2.4722e-05
-5.52133e-05
-2.50583e-05
-5.04041e-05
-2.51327e-05
-4.56061e-05
-2.49417e-05
-4.08669e-05
-2.44859e-05
-3.62331e-05
-2.37703e-05
-3.17502e-05
-2.28046e-05
-2.74613e-05
-2.16031e-05
-2.34063e-05
-2.01849e-05
-1.96214e-05
-1.8574e-05
-1.61378e-05
-1.67992e-05
-1.29814e-05
-1.48941e-05
-1.01718e-05
-1.28972e-05
-7.72174e-06
-1.08519e-05
-5.63642e-06
-8.80656e-06
-3.91325e-06
-6.81493e-06
-2.54143e-06
-4.93625e-06
-1.50181e-06
-3.23581e-06
-7.66915e-07
-1.7856e-06
-3.01281e-07
-6.64752e-07
-6.20223e-08
3.96649e-08
2.26357e-07
-2.77603e-07
8.36324e-07
-1.0744e-06
2.91044e-06
-2.35812e-06
5.2216e-06
-4.09792e-06
7.64476e-06
-6.26305e-06
1.00855e-05
-8.82224e-06
1.24698e-05
-1.17434e-05
1.47416e-05
-1.49938e-05
1.68603e-05
-1.854e-05
1.87978e-05
-2.23481e-05
2.05362e-05
-2.63844e-05
2.20654e-05
-3.06151e-05
2.33813e-05
-3.50068e-05
2.4484e-05
-3.95266e-05
2.53765e-05
-4.41424e-05
2.60637e-05
-4.88226e-05
2.65512e-05
-5.35361e-05
2.68451e-05
-5.82527e-05
2.69511e-05
-6.29427e-05
2.68743e-05
-6.75767e-05
2.66194e-05
-7.2126e-05
2.619e-05
-7.65621e-05
2.55893e-05
-8.08571e-05
2.48198e-05
-8.49832e-05
2.38836e-05
-8.89131e-05
2.27828e-05
-9.26201e-05
2.15196e-05
-9.6078e-05
2.00966e-05
-9.9261e-05
1.85174e-05
-0.000102145
1.67861e-05
-0.000104705
1.49086e-05
-0.00010692
1.28919e-05
-0.000108769
1.0745e-05
-0.000110233
8.47853e-06
-0.000111294
6.10527e-06
-0.00011194
3.64004e-06
-0.000112157
1.09977e-06
-0.000111937
-1.49655e-06
-0.000111275
-4.12789e-06
-0.000110169
-6.77141e-06
-0.00010862
-9.40253e-06
-0.000106635
-1.19953e-05
-0.000104224
-1.45226e-05
-0.000101401
-1.69565e-05
-9.81837e-05
-1.92689e-05
-9.45967e-05
-2.14314e-05
-9.06669e-05
-2.34165e-05
-8.64258e-05
-2.51976e-05
-8.1909e-05
-2.67497e-05
-7.71559e-05
-2.80499e-05
-7.22091e-05
-2.9078e-05
-6.7114e-05
-2.9817e-05
-6.19186e-05
-3.02537e-05
-5.66725e-05
-3.03789e-05
-5.14264e-05
-3.01879e-05
-4.62312e-05
-2.96811e-05
-4.11375e-05
-2.8864e-05
-3.61945e-05
-2.77476e-05
-3.14491e-05
-2.63485e-05
-2.69452e-05
-2.46888e-05
-2.27227e-05
-2.27965e-05
-1.88167e-05
-2.07052e-05
-1.52566e-05
-1.84542e-05
-1.20656e-05
-1.60882e-05
-9.25969e-06
-1.36578e-05
-6.8473e-06
-1.12189e-05
-4.82895e-06
-8.83329e-06
-3.19688e-06
-6.56832e-06
-1.93508e-06
-4.49762e-06
-1.01942e-06
-2.70126e-06
-4.18186e-07
-1.26598e-06
-9.2938e-08
-2.85582e-07
1.33419e-07
-3.21533e-07
1.15785e-06
-1.23632e-06
3.82523e-06
-2.69934e-06
6.68462e-06
-4.66845e-06
9.61387e-06
-7.10318e-06
1.25202e-05
-9.96406e-06
1.53306e-05
-1.32122e-05
1.79898e-05
-1.68093e-05
2.04574e-05
-2.07174e-05
2.27058e-05
-2.48989e-05
2.47177e-05
-2.93169e-05
2.64834e-05
-3.39352e-05
2.79996e-05
-3.87182e-05
2.9267e-05
-4.36311e-05
3.02894e-05
-4.86399e-05
3.10725e-05
-5.37116e-05
3.16228e-05
-5.88135e-05
3.1947e-05
-6.39138e-05
3.20514e-05
-6.89814e-05
3.19419e-05
-7.39856e-05
3.16235e-05
-7.8896e-05
3.11005e-05
-8.36828e-05
3.03761e-05
-8.83165e-05
2.94535e-05
-9.27679e-05
2.8335e-05
-9.70083e-05
2.70232e-05
-0.000101009
2.55207e-05
-0.000104744
2.38308e-05
-0.000108184
2.19576e-05
-0.000111304
1.99064e-05
-0.00011408
1.76839e-05
-0.000116486
1.52986e-05
-0.000118502
1.27611e-05
-0.000120108
1.00838e-05
-0.000121284
7.28176e-06
-0.000122016
4.37224e-06
-0.000122291
1.37494e-06
-0.0001221
-1.68805e-06
-0.000121435
-4.79235e-06
-0.000120295
-7.91142e-06
-0.000118681
-1.10168e-05
-0.000116598
-1.40784e-05
-0.000114056
-1.70647e-05
-0.000111069
-1.99433e-05
-0.000107657
-2.26815e-05
-0.000103842
-2.52463e-05
-9.96526e-05
-2.76057e-05
-9.51219e-05
-2.97284e-05
-9.02864e-05
-3.15852e-05
-8.5187e-05
-3.31492e-05
-7.98686e-05
-3.43965e-05
-7.43788e-05
-3.53068e-05
-6.87682e-05
-3.58642e-05
-6.30896e-05
-3.60575e-05
-5.73968e-05
-3.58806e-05
-5.17445e-05
-3.53334e-05
-4.6187e-05
-3.44215e-05
-4.07775e-05
-3.31572e-05
-3.55669e-05
-3.1559e-05
-3.06035e-05
-2.96522e-05
-2.59313e-05
-2.74687e-05
-2.15896e-05
-2.50469e-05
-1.7612e-05
-2.24319e-05
-1.40253e-05
-1.96748e-05
-1.08497e-05
-1.68335e-05
-8.09716e-06
-1.39715e-05
-5.77184e-06
-1.11586e-05
-3.86951e-06
-8.47065e-06
-2.37764e-06
-5.98949e-06
-1.27571e-06
-3.80319e-06
-5.35794e-07
-2.00589e-06
-1.23586e-07
-6.97788e-07
9.8332e-09
-3.63961e-07
1.52181e-06
-1.39338e-06
4.85464e-06
-3.03131e-06
8.32255e-06
-5.22486e-06
1.18074e-05
-7.9241e-06
1.52194e-05
-1.10814e-05
1.8488e-05
-1.46512e-05
2.15595e-05
-1.85893e-05
2.43955e-05
-2.28532e-05
2.69697e-05
-2.74014e-05
2.92659e-05
-3.21939e-05
3.1276e-05
-3.71919e-05
3.29975e-05
-4.23575e-05
3.44326e-05
-4.76542e-05
3.55861e-05
-5.30463e-05
3.64647e-05
-5.84993e-05
3.70757e-05
-6.39791e-05
3.74268e-05
-6.94528e-05
3.75251e-05
-7.48877e-05
3.73769e-05
-8.02521e-05
3.69879e-05
-8.55143e-05
3.63627e-05
-9.06433e-05
3.55051e-05
-9.56083e-05
3.44184e-05
-0.000100379
3.31056e-05
-0.000104925
3.15693e-05
-0.000109217
2.98129e-05
-0.000113227
2.78402e-05
-0.000116925
2.56558e-05
-0.000120284
2.32661e-05
-0.00012328
2.06789e-05
-0.000125885
1.79041e-05
-0.000128077
1.49536e-05
-0.000129836
1.18421e-05
-0.000131141
8.58658e-06
-0.000131975
5.20687e-06
-0.000132326
1.72549e-06
-0.000132181
-1.83237e-06
-0.000131535
-5.43887e-06
-0.000130383
-9.06375e-06
-0.000128725
-1.26745e-05
-0.000126566
-1.62368e-05
-0.000123916
-1.97146e-05
-0.000120789
-2.3071e-05
-0.000117202
-2.62682e-05
-0.00011318
-2.92686e-05
-0.000108751
-3.2035e-05
-0.000103947
-3.45316e-05
-9.88082e-05
-3.67243e-05
-9.33754e-05
-3.8582e-05
-8.76953e-05
-4.00766e-05
-8.1818e-05
-4.11842e-05
-7.57965e-05
-4.18857e-05
-6.96865e-05
-4.21675e-05
-6.35453e-05
-4.20218e-05
-5.74312e-05
-4.14475e-05
-5.14025e-05
-4.04502e-05
-4.55166e-05
-3.9043e-05
-3.98291e-05
-3.72465e-05
-3.43925e-05
-3.50888e-05
-2.92557e-05
-3.26055e-05
-2.44625e-05
-2.98401e-05
-2.00511e-05
-2.68433e-05
-1.60529e-05
-2.3673e-05
-1.24924e-05
-2.0394e-05
-9.3858e-06
-1.70781e-05
-6.74129e-06
-1.38031e-05
-4.55856e-06
-1.06534e-05
-2.82887e-06
-7.71918e-06
-1.53542e-06
-5.09663e-06
-6.53996e-07
-2.88732e-06
-1.5399e-07
-1.19779e-06
-1.44156e-07
-4.04874e-07
1.92669e-06
-1.54527e-06
5.99504e-06
-3.3531e-06
1.01304e-05
-5.76522e-06
1.42195e-05
-8.7226e-06
1.81768e-05
-1.21697e-05
2.19351e-05
-1.60542e-05
2.5444e-05
-2.03262e-05
2.86675e-05
-2.49383e-05
3.15818e-05
-2.98455e-05
3.41731e-05
-3.50044e-05
3.64348e-05
-4.03735e-05
3.83666e-05
-4.59129e-05
3.9972e-05
-5.15841e-05
4.12574e-05
-5.73501e-05
4.22306e-05
-6.31747e-05
4.29004e-05
-6.90229e-05
4.32751e-05
-7.48605e-05
4.33627e-05
-8.06539e-05
4.31703e-05
-8.63701e-05
4.27041e-05
-9.19765e-05
4.19691e-05
-9.7441e-05
4.09696e-05
-0.000102732
3.97093e-05
-0.000107818
3.81912e-05
-0.000112667
3.64188e-05
-0.00011725
3.43955e-05
-0.000121535
3.21258e-05
-0.000125495
2.96152e-05
-0.000129099
2.68706e-05
-0.000132321
2.39012e-05
-0.000135135
2.07179e-05
-0.000137516
1.73345e-05
-0.000139441
1.37674e-05
-0.000140891
1.00358e-05
-0.000141846
6.16187e-06
-0.000142291
2.17104e-06
-0.000142215
-1.90838e-06
-0.000141609
-6.04513e-06
-0.000140467
-1.02052e-05
-0.00013879
-1.43519e-05
-0.00013658
-1.84466e-05
-0.000133846
-2.24487e-05
-0.000130601
-2.63164e-05
-0.000126862
-3.00068e-05
-0.000122653
-3.34773e-05
-0.000118003
-3.66855e-05
-0.000112944
-3.95903e-05
-0.000107516
-4.21528e-05
-0.000101761
-4.43367e-05
-9.57278e-05
-4.61097e-05
-8.94683e-05
-4.74437e-05
-8.3038e-05
-4.8316e-05
-7.64956e-05
-4.871e-05
-6.99017e-05
-4.86157e-05
-6.33184e-05
-4.80307e-05
-5.68084e-05
-4.69602e-05
-5.04336e-05
-4.54179e-05
-4.42542e-05
-4.34259e-05
-3.83281e-05
-4.10149e-05
-3.2709e-05
-3.82246e-05
-2.74461e-05
-3.51031e-05
-2.25825e-05
-3.17068e-05
-1.81551e-05
-2.81004e-05
-1.41928e-05
-2.43563e-05
-1.07169e-05
-2.0554e-05
-7.73991e-06
-1.67801e-05
-5.26585e-06
-1.31274e-05
-3.29001e-06
-9.69502e-06
-1.79937e-06
-6.58726e-06
-7.73262e-07
-3.91343e-06
-1.84329e-07
-1.78672e-06
-3.28485e-07
-4.44259e-07
2.37095e-06
-1.69179e-06
7.24257e-06
-3.66398e-06
1.21026e-05
-6.28802e-06
1.68436e-05
-9.49613e-06
2.13849e-05
-1.32251e-05
2.56641e-05
-1.7416e-05
2.96348e-05
-2.20134e-05
3.32649e-05
-2.69653e-05
3.65337e-05
-3.22225e-05
3.94303e-05
-3.77387e-05
4.1951e-05
-4.34696e-05
4.40976e-05
-4.93734e-05
4.58758e-05
-5.54097e-05
4.72937e-05
-6.15401e-05
4.8361e-05
-6.77271e-05
4.90874e-05
-7.39346e-05
4.94826e-05
-8.01274e-05
4.95555e-05
-8.62711e-05
4.9314e-05
-9.23318e-05
4.87648e-05
-9.8276e-05
4.79134e-05
-0.000104071
4.67645e-05
-0.000109684
4.53221e-05
-0.000115082
4.35896e-05
-0.000120234
4.15708e-05
-0.000125108
3.92696e-05
-0.000129673
3.66909e-05
-0.000133899
3.38408e-05
-0.000137756
3.07273e-05
-0.000141215
2.73602e-05
-0.000144249
2.3752e-05
-0.000146832
1.99179e-05
-0.000148941
1.58759e-05
-0.000150552
1.16475e-05
-0.000151648
7.25727e-06
-0.00015221
2.73331e-06
-0.000152226
-1.89297e-06
-0.000151684
-6.58688e-06
-0.000150578
-1.13106e-05
-0.000148907
-1.60235e-05
-0.000146671
-2.06823e-05
-0.000143878
-2.52418e-05
-0.000140539
-2.9655e-05
-0.000136672
-3.38742e-05
-0.000132298
-3.78509e-05
-0.000127446
-4.15376e-05
-0.000122149
-4.48875e-05
-0.000116446
-4.78561e-05
-0.00011038
-5.04021e-05
-0.000104002
-5.24879e-05
-9.7365e-05
-5.40808e-05
-9.05269e-05
-5.51541e-05
-8.35494e-05
-5.56875e-05
-7.64968e-05
-5.56684e-05
-6.94351e-05
-5.50923e-05
-6.24315e-05
-5.39639e-05
-5.55527e-05
-5.22967e-05
-4.88644e-05
-5.01141e-05
-4.24298e-05
-4.74495e-05
-3.63084e-05
-4.4346e-05
-3.05551e-05
-4.08564e-05
-2.52189e-05
-3.7043e-05
-2.03421e-05
-3.29772e-05
-1.59594e-05
-2.8739e-05
-1.20971e-05
-2.44163e-05
-8.7728e-06
-2.01043e-05
-5.99515e-06
-1.59051e-05
-3.76369e-06
-1.19265e-05
-2.06923e-06
-8.28172e-06
-8.94461e-07
-5.0882e-06
-2.14879e-07
-2.4663e-06
-5.43363e-07
-4.82097e-07
2.85304e-06
-1.83272e-06
8.59319e-06
-3.96336e-06
1.42332e-05
-6.79199e-06
1.96722e-05
-1.02426e-05
2.48355e-05
-1.42445e-05
2.96661e-05
-1.87325e-05
3.41228e-05
-2.36456e-05
3.8178e-05
-2.89272e-05
4.18154e-05
-3.45246e-05
4.50276e-05
-4.03879e-05
4.78144e-05
-4.64707e-05
5.01804e-05
-5.27288e-05
5.21339e-05
-5.91204e-05
5.36853e-05
-6.56054e-05
5.48459e-05
-7.21454e-05
5.56274e-05
-7.87033e-05
5.60405e-05
-8.52431e-05
5.60953e-05
-9.17295e-05
5.58004e-05
-9.8128e-05
5.51632e-05
-0.000104404
5.41899e-05
-0.000110525
5.28854e-05
-0.000116457
5.1254e-05
-0.000122167
4.92996e-05
-0.000127623
4.70261e-05
-0.000132791
4.44378e-05
-0.00013764
4.15401e-05
-0.000142139
3.83397e-05
-0.000146257
3.48452e-05
-0.000149964
3.10674e-05
-0.000153232
2.702e-05
-0.000156033
2.27194e-05
-0.000158343
1.81856e-05
-0.000160137
1.34418e-05
-0.000161395
8.51497e-06
-0.000162097
3.43585e-06
-0.000162229
-1.76118e-06
-0.000161778
-7.03804e-06
-0.000160736
-1.23532e-05
-0.000159097
-1.76619e-05
-0.000156863
-2.29165e-05
-0.000154038
-2.80669e-05
-0.000150632
-3.3061e-05
-0.00014666
-3.78455e-05
-0.000142145
-4.23666e-05
-0.000137112
-4.65706e-05
-0.000131594
-5.0405e-05
-0.000125631
-5.38194e-05
-0.000119267
-5.67664e-05
-0.000112551
-5.9203e-05
-0.000105541
-6.10912e-05
-9.82959e-05
-6.23993e-05
-9.08801e-05
-6.31032e-05
-8.33618e-05
-6.31867e-05
-7.58111e-05
-6.2643e-05
-6.83e-05
-6.1475e-05
-6.09006e-05
-5.96961e-05
-5.36842e-05
-5.73305e-05
-4.67201e-05
-5.44137e-05
-4.00741e-05
-5.0992e-05
-3.38074e-05
-4.7123e-05
-2.79756e-05
-4.28748e-05
-2.26272e-05
-3.83256e-05
-1.7803e-05
-3.35632e-05
-1.35353e-05
-2.86841e-05
-9.84696e-06
-2.37926e-05
-6.75171e-06
-1.90003e-05
-4.25357e-06
-1.44246e-05
-2.34727e-06
-1.0188e-05
-1.01875e-06
-6.41672e-06
-2.45987e-07
-3.23906e-06
-7.8935e-07
-5.18349e-07
3.37139e-06
-1.96785e-06
1.00427e-05
-4.25062e-06
1.6516e-05
-7.27595e-06
2.26975e-05
-1.09599e-05
2.85194e-05
-1.52249e-05
3.39311e-05
-1.99995e-05
3.88973e-05
-2.52175e-05
4.3396e-05
-3.0818e-05
4.74159e-05
-3.67444e-05
5.09539e-05
-4.29439e-05
5.40139e-05
-4.93676e-05
5.6604e-05
-5.59693e-05
5.87356e-05
-6.27055e-05
6.04215e-05
-6.9535e-05
6.16754e-05
-7.64183e-05
6.25107e-05
-8.33175e-05
6.29397e-05
-9.01959e-05
6.29736e-05
-9.70176e-05
6.26221e-05
-0.000103748
6.18932e-05
-0.000110351
6.07936e-05
-0.000116794
5.93286e-05
-0.000123043
5.7503e-05
-0.000129064
5.53207e-05
-0.000134824
5.2786e-05
-0.00014029
4.99036e-05
-0.000145429
4.6679e-05
-0.000150209
4.31195e-05
-0.000154598
3.92343e-05
-0.000158566
3.50351e-05
-0.000162082
3.05365e-05
-0.000165119
2.57563e-05
-0.000167649
2.07157e-05
-0.000169648
1.54401e-05
-0.000171091
9.95835e-06
-0.000171959
4.30378e-06
-0.000172234
-1.48638e-06
-0.000171901
-7.37082e-06
-0.00017095
-1.33044e-05
-0.000169373
-1.92382e-05
-0.00016717
-2.51202e-05
-0.000164341
-3.08953e-05
-0.000160896
-3.65064e-05
-0.000156847
-4.18945e-05
-0.000152214
-4.69997e-05
-0.000147022
-5.17622e-05
-0.000141304
-5.61233e-05
-0.000135098
-6.0026e-05
-0.000128447
-6.34165e-05
-0.000121405
-6.62457e-05
-0.000114027
-6.84694e-05
-0.000106375
-7.00507e-05
-9.85181e-05
-7.09603e-05
-9.05268e-05
-7.1178e-05
-8.24761e-05
-7.06937e-05
-7.44428e-05
-6.95083e-05
-6.65048e-05
-6.7634e-05
-5.87397e-05
-6.50957e-05
-5.12233e-05
-6.19301e-05
-4.40283e-05
-5.8187e-05
-3.72232e-05
-5.39282e-05
-3.08705e-05
-4.92275e-05
-2.50259e-05
-4.41702e-05
-1.97369e-05
-3.88522e-05
-1.50422e-05
-3.33787e-05
-1.09708e-05
-2.7864e-05
-7.54185e-06
-2.24293e-05
-4.76405e-06
-1.72024e-05
-2.63621e-06
-1.23159e-05
-1.14747e-06
-7.90545e-06
-2.78046e-07
-4.10849e-06
-1.0674e-06
-5.52961e-07
3.92435e-06
-2.09692e-06
1.15867e-05
-4.52512e-06
1.89442e-05
-7.73868e-06
2.59111e-05
-1.16462e-05
3.24269e-05
-1.61635e-05
3.84484e-05
-2.12133e-05
4.39471e-05
-2.67244e-05
4.89072e-05
-3.26317e-05
5.33231e-05
-3.88749e-05
5.71971e-05
-4.53985e-05
6.05376e-05
-5.21511e-05
6.33566e-05
-5.90847e-05
6.56692e-05
-6.61543e-05
6.74911e-05
-7.33175e-05
6.88386e-05
-8.0534e-05
6.97271e-05
-8.7765e-05
7.01707e-05
-9.49733e-05
7.0182e-05
-0.000102123
6.97715e-05