/*--------------------------------*- C++ -*----------------------------------*\
  =========                 |
  \\      /  F ield         | OpenFOAM: The Open Source CFD Toolbox
   \\    /   O peration     | Website:  https://openfoam.org
    \\  /    A nd           | Version:  dev
     \\/     M anipulation  |
\*---------------------------------------------------------------------------*/
FoamFile
{
    format      ascii;
    class       volVectorField;
    location    "44.1";
    object      U;
}
// * * * * * * * * * * * * * * * * * * * * * * * * * * * * * * * * * * * * * //

dimensions      [0 1 -1 0 0 0 0];

internalField   nonuniform List<vector> 
5184
(
(1.2418e-05 -1.26246e-05 0)
(4.53194e-05 -2.08443e-05 0)
(8.04357e-05 -1.72336e-05 0)
(9.60779e-05 -8.19254e-06 0)
(8.22456e-05 2.67042e-06 0)
(3.65423e-05 1.362e-05 0)
(-4.04899e-05 2.38498e-05 0)
(-0.000146833 3.3055e-05 0)
(-0.000279692 4.11152e-05 0)
(-0.000436011 4.80359e-05 0)
(-0.000612669 5.38787e-05 0)
(-0.00080663 5.87286e-05 0)
(-0.00101503 6.26779e-05 0)
(-0.00123519 6.58179e-05 0)
(-0.00146466 6.82334e-05 0)
(-0.00170118 6.99999e-05 0)
(-0.00194268 7.11815e-05 0)
(-0.00218724 7.1831e-05 0)
(-0.00243308 7.19889e-05 0)
(-0.0026785 7.16849e-05 0)
(-0.00292191 7.09385e-05 0)
(-0.00316175 6.976e-05 0)
(-0.00339648 6.81525e-05 0)
(-0.00362458 6.61129e-05 0)
(-0.00384451 6.36339e-05 0)
(-0.00405475 6.07058e-05 0)
(-0.00425374 5.73181e-05 0)
(-0.00443989 5.34612e-05 0)
(-0.00461163 4.9128e-05 0)
(-0.00476739 4.43155e-05 0)
(-0.00490559 3.90261e-05 0)
(-0.00502472 3.32692e-05 0)
(-0.00512332 2.70619e-05 0)
(-0.0052 2.04302e-05 0)
(-0.0052535 1.341e-05 0)
(-0.00528272 6.04679e-06 0)
(-0.00528671 -1.60311e-06 0)
(-0.00526473 -9.47327e-06 0)
(-0.00521628 -1.74871e-05 0)
(-0.00514115 -2.55587e-05 0)
(-0.00503939 -3.35937e-05 0)
(-0.00491137 -4.14904e-05 0)
(-0.00475781 -4.91415e-05 0)
(-0.00457975 -5.64361e-05 0)
(-0.00437861 -6.32615e-05 0)
(-0.00415613 -6.95056e-05 0)
(-0.00391441 -7.50599e-05 0)
(-0.00365589 -7.98212e-05 0)
(-0.00338329 -8.36948e-05 0)
(-0.00309961 -8.6597e-05 0)
(-0.00280809 -8.84574e-05 0)
(-0.00251216 -8.92205e-05 0)
(-0.0022154 -8.88483e-05 0)
(-0.00192146 -8.7321e-05 0)
(-0.00163401 -8.46382e-05 0)
(-0.0013567 -8.08192e-05 0)
(-0.00109306 -7.59036e-05 0)
(-0.000846467 -6.99499e-05 0)
(-0.000620068 -6.30362e-05 0)
(-0.000416715 -5.52585e-05 0)
(-0.000238906 -4.67308e-05 0)
(-8.87179e-05 -3.75862e-05 0)
(3.22594e-05 -2.79793e-05 0)
(0.000123013 -1.80929e-05 0)
(0.000183211 -8.15269e-06 0)
(0.00021336 1.54606e-06 0)
(0.000215046 1.05789e-05 0)
(0.000191321 1.831e-05 0)
(0.000147214 2.3728e-05 0)
(9.08257e-05 2.514e-05 0)
(3.66325e-05 1.98581e-05 0)
(6.22572e-06 6.24596e-06 0)
(2.09091e-05 -4.57691e-05 0)
(6.5761e-05 -6.56462e-05 0)
(9.48693e-05 -4.05376e-05 0)
(7.29664e-05 7.64297e-06 0)
(-1.87859e-05 6.56922e-05 0)
(-0.00018721 0.000126017 0)
(-0.000432892 0.000184335 0)
(-0.000752617 0.000238399 0)
(-0.00114084 0.000287064 0)
(-0.00159077 0.000329888 0)
(-0.00209507 0.000366832 0)
(-0.00264628 0.000398084 0)
(-0.0032371 0.000423957 0)
(-0.00386052 0.000444816 0)
(-0.00450994 0.00046104 0)
(-0.00517917 0.000472988 0)
(-0.00586239 0.000480981 0)
(-0.00655417 0.000485296 0)
(-0.00724936 0.000486157 0)
(-0.00794308 0.000483733 0)
(-0.00863063 0.000478148 0)
(-0.00930745 0.000469476 0)
(-0.00996907 0.000457758 0)
(-0.0106111 0.000443002 0)
(-0.011229 0.000425196 0)
(-0.0118185 0.000404317 0)
(-0.0123752 0.00038034 0)
(-0.0128946 0.000353248 0)
(-0.0133723 0.000323041 0)
(-0.013804 0.000289748 0)
(-0.0141855 0.000253428 0)
(-0.0145127 0.000214183 0)
(-0.0147816 0.000172165 0)
(-0.0149886 0.000127575 0)
(-0.0151304 8.06746e-05 0)
(-0.0152043 3.1782e-05 0)
(-0.0152078 -1.87234e-05 0)
(-0.0151392 -7.04033e-05 0)
(-0.0149974 -0.000122762 0)
(-0.0147819 -0.000175253 0)
(-0.0144931 -0.000227281 0)
(-0.0141324 -0.000278213 0)
(-0.0137017 -0.000327389 0)
(-0.0132042 -0.000374128 0)
(-0.0126438 -0.000417747 0)
(-0.0120253 -0.000457569 0)
(-0.0113546 -0.000492943 0)
(-0.0106382 -0.000523253 0)
(-0.00988351 -0.000547937 0)
(-0.00909866 -0.000566502 0)
(-0.00829234 -0.000578534 0)
(-0.00747374 -0.000583715 0)
(-0.0066524 -0.000581828 0)
(-0.00583804 -0.00057277 0)
(-0.00504047 -0.000556557 0)
(-0.00426935 -0.000533329 0)
(-0.00353407 -0.000503348 0)
(-0.00284354 -0.000467006 0)
(-0.00220606 -0.000424817 0)
(-0.00162909 -0.000377421 0)
(-0.00111912 -0.000325589 0)
(-0.000681454 -0.000270224 0)
(-0.000319995 -0.000212389 0)
(-3.70305e-05 -0.000153335 0)
(0.000167075 -9.45737e-05 0)
(0.000294246 -3.79851e-05 0)
(0.000349237 1.39668e-05 0)
(0.000340326 5.79779e-05 0)
(0.000280007 8.94581e-05 0)
(0.000186138 0.000101911 0)
(8.63961e-05 8.65615e-05 0)
(1.9683e-05 3.65046e-05 0)
(1.76702e-05 -8.12827e-05 0)
(4.14234e-05 -9.50232e-05 0)
(1.97255e-05 -1.91319e-05 0)
(-8.38746e-05 0.000105947 0)
(-0.000290164 0.0002547 0)
(-0.000607894 0.000410676 0)
(-0.00103833 0.000563557 0)
(-0.00157765 0.000707202 0)
(-0.00221869 0.00083816 0)
(-0.00295226 0.000954722 0)
(-0.00376809 0.00105629 0)
(-0.00465545 0.00114296 0)
(-0.00560363 0.00121525 0)
(-0.00660215 0.00127387 0)
(-0.00764096 0.00131967 0)
(-0.00871049 0.00135344 0)
(-0.00980166 0.00137598 0)
(-0.0109059 0.00138794 0)
(-0.0120149 0.0013899 0)
(-0.0131209 0.0013823 0)
(-0.0142163 0.00136546 0)
(-0.0152937 0.00133961 0)
(-0.0163458 0.00130487 0)
(-0.0173657 0.00126132 0)
(-0.018346 0.00120896 0)
(-0.0192799 0.00114778 0)
(-0.0201603 0.00107777 0)
(-0.0209802 0.000998941 0)
(-0.0217327 0.000911364 0)
(-0.0224111 0.000815173 0)
(-0.0230088 0.000710603 0)
(-0.0235195 0.000597998 0)
(-0.0239372 0.000477831 0)
(-0.0242566 0.000350719 0)
(-0.0244726 0.000217427 0)
(-0.0245811 7.88795e-05 0)
(-0.0245787 -6.3843e-05 0)
(-0.0244628 -0.000209504 0)
(-0.0242321 -0.000356721 0)
(-0.023886 -0.000503974 0)
(-0.0234255 -0.000649627 0)
(-0.0228528 -0.000791947 0)
(-0.0221712 -0.00092913 0)
(-0.0213856 -0.00105933 0)
(-0.0205023 -0.00118071 0)
(-0.0195289 -0.00129143 0)
(-0.0184744 -0.00138974 0)
(-0.0173489 -0.001474 0)
(-0.0161639 -0.00154271 0)
(-0.0149318 -0.00159455 0)
(-0.0136659 -0.00162842 0)
(-0.0123802 -0.00164349 0)
(-0.0110893 -0.00163919 0)
(-0.00980811 -0.00161526 0)
(-0.00855142 -0.00157178 0)
(-0.00733397 -0.00150914 0)
(-0.00617002 -0.0014281 0)
(-0.00507309 -0.00132975 0)
(-0.00405574 -0.00121555 0)
(-0.00312924 -0.00108729 0)
(-0.00230334 -0.000947168 0)
(-0.00158591 -0.000797737 0)
(-0.000982706 -0.00064201 0)
(-0.000496953 -0.00048352 0)
(-0.000128959 -0.000326467 0)
(0.000124345 -0.00017594 0)
(0.000270064 -3.82616e-05 0)
(0.000320057 7.85475e-05 0)
(0.000291465 0.000164188 0)
(0.000207521 0.000205495 0)
(0.000102501 0.000186359 0)
(2.4985e-05 9.04297e-05 0)
(8.85853e-06 -9.77698e-05 0)
(-6.95511e-06 -7.31795e-05 0)
(-0.000107509 8.47766e-05 0)
(-0.000322316 0.000318408 0)
(-0.000669625 0.000590209 0)
(-0.00115785 0.000874548 0)
(-0.00178772 0.00115439 0)
(-0.0025545 0.00141894 0)
(-0.00344961 0.00166171 0)
(-0.00446204 0.00187919 0)
(-0.00557929 0.0020698 0)
(-0.00678816 0.0022333 0)
(-0.00807524 0.00237024 0)
(-0.00942726 0.00248166 0)
(-0.0108313 0.00256884 0)
(-0.012275 0.0026331 0)
(-0.0137463 0.00267573 0)
(-0.015234 0.00269788 0)
(-0.0167269 0.00270053 0)
(-0.0182147 0.00268447 0)
(-0.019687 0.00265029 0)
(-0.021134 0.00259843 0)
(-0.0225457 0.00252915 0)
(-0.0239127 0.00244261 0)
(-0.0252252 0.0023389 0)
(-0.026474 0.00221805 0)
(-0.0276495 0.00208011 0)
(-0.0287426 0.00192521 0)
(-0.0297441 0.00175355 0)
(-0.0306451 0.00156548 0)
(-0.031437 0.00136151 0)
(-0.0321117 0.0011424 0)
(-0.0326616 0.000909106 0)
(-0.0330795 0.000662878 0)
(-0.0333593 0.000405229 0)
(-0.0334957 0.00013796 0)
(-0.0334845 -0.000136838 0)
(-0.0333227 -0.000416794 0)
(-0.0330086 -0.000699271 0)
(-0.0325419 -0.000981391 0)
(-0.0319241 -0.00126006 0)
(-0.0311581 -0.00153203 0)
(-0.0302487 -0.00179392 0)
(-0.0292024 -0.00204228 0)
(-0.0280275 -0.00227367 0)
(-0.0267339 -0.0024847 0)
(-0.0253335 -0.00267212 0)
(-0.0238395 -0.00283287 0)
(-0.0222668 -0.00296419 0)
(-0.0206314 -0.00306364 0)
(-0.0189506 -0.00312921 0)
(-0.0172426 -0.00315936 0)
(-0.0155262 -0.00315305 0)
(-0.0138204 -0.00310985 0)
(-0.0121446 -0.00302991 0)
(-0.0105177 -0.002914 0)
(-0.00895795 -0.00276356 0)
(-0.00748292 -0.0025807 0)
(-0.00610871 -0.00236817 0)
(-0.00484982 -0.00212943 0)
(-0.00371875 -0.00186863 0)
(-0.00272561 -0.00159066 0)
(-0.00187772 -0.00130126 0)
(-0.00117922 -0.00100709 0)
(-0.000630562 -0.000715963 0)
(-0.000228051 -0.000437169 0)
(3.67999e-05 -0.000181848 0)
(0.000177898 3.63815e-05 0)
(0.000214981 0.000200794 0)
(0.000174226 0.000290996 0)
(9.30869e-05 0.000282691 0)
(2.40392e-05 0.000147343 0)
(-2.11522e-06 -8.44564e-05 0)
(-6.72694e-05 2.08504e-05 0)
(-0.000264102 0.000295466 0)
(-0.000609824 0.000668139 0)
(-0.00111694 0.00109105 0)
(-0.00179166 0.00153028 0)
(-0.00263299 0.00196237 0)
(-0.00363457 0.00237184 0)
(-0.00478625 0.00274897 0)
(-0.00607532 0.00308811 0)
(-0.00748743 0.0033865 0)
(-0.00900731 0.0036433 0)
(-0.0106194 0.00385898 0)
(-0.012308 0.00403479 0)
(-0.0140581 0.00417237 0)
(-0.0158545 0.00427356 0)
(-0.0176831 0.00434014 0)
(-0.01953 0.00437377 0)
(-0.0213818 0.00437586 0)
(-0.0232255 0.00434759 0)
(-0.0250486 0.00428986 0)
(-0.0268386 0.00420334 0)
(-0.0285836 0.00408849 0)
(-0.0302716 0.00394561 0)
(-0.0318909 0.00377487 0)
(-0.0334297 0.00357644 0)
(-0.0348766 0.00335051 0)
(-0.0362202 0.00309735 0)
(-0.0374495 0.00281741 0)
(-0.0385537 0.00251134 0)
(-0.0395225 0.0021801 0)
(-0.040346 0.00182496 0)
(-0.0410152 0.00144757 0)
(-0.0415218 0.00104999 0)
(-0.0418584 0.000634687 0)
(-0.0420189 0.000204594 0)
(-0.0419984 -0.00023693 0)
(-0.0417935 -0.000686095 0)
(-0.0414026 -0.00113871 0)
(-0.0408255 -0.00159022 0)
(-0.0400642 -0.00203575 0)
(-0.0391224 -0.00247018 0)
(-0.0380061 -0.00288822 0)
(-0.0367232 -0.00328448 0)
(-0.0352837 -0.00365357 0)
(-0.0336997 -0.00399024 0)
(-0.0319855 -0.0042894 0)
(-0.0301568 -0.00454633 0)
(-0.0282316 -0.00475671 0)
(-0.026229 -0.00491679 0)
(-0.0241696 -0.00502343 0)
(-0.0220752 -0.00507425 0)
(-0.019968 -0.00506767 0)
(-0.0178711 -0.00500303 0)
(-0.0158071 -0.00488057 0)
(-0.0137989 -0.00470156 0)
(-0.0118683 -0.00446828 0)
(-0.010036 -0.00418404 0)
(-0.00832141 -0.00385323 0)
(-0.00674182 -0.00348132 0)
(-0.00531217 -0.00307488 0)
(-0.0040446 -0.00264165 0)
(-0.00294798 -0.00219063 0)
(-0.00202744 -0.00173224 0)
(-0.00128392 -0.00127853 0)
(-0.000713652 -0.00084356 0)
(-0.000307644 -0.000443814 0)
(-5.11136e-05 -9.88632e-05 0)
(7.68318e-05 0.000167945 0)
(0.000103712 0.000328871 0)
(6.75622e-05 0.000351174 0)
(1.9678e-05 0.000194224 0)
(-1.36923e-05 -3.75771e-05 0)
(-0.000132844 0.000197343 0)
(-0.000435891 0.000626985 0)
(-0.000924818 0.00117058 0)
(-0.00160426 0.00177214 0)
(-0.00247679 0.00239081 0)
(-0.00353855 0.00299751 0)
(-0.00478086 0.00357244 0)
(-0.0061916 0.00410273 0)
(-0.00775627 0.00458063 0)
(-0.00945871 0.00500204 0)
(-0.0112819 0.00536548 0)
(-0.0132082 0.0056712 0)
(-0.0152203 0.00592055 0)
(-0.0173007 0.00611552 0)
(-0.0194326 0.00625837 0)
(-0.0215996 0.00635138 0)
(-0.0237856 0.0063967 0)
(-0.0259751 0.00639618 0)
(-0.028153 0.00635139 0)
(-0.0303047 0.00626358 0)
(-0.0324157 0.00613366 0)
(-0.0344719 0.00596232 0)
(-0.0364591 0.00575001 0)
(-0.0383638 0.0054971 0)
(-0.0401722 0.00520391 0)
(-0.0418709 0.00487081 0)
(-0.0434468 0.00449834 0)
(-0.0448871 0.00408725 0)
(-0.0461793 0.00363865 0)
(-0.0473116 0.00315402 0)
(-0.0482727 0.00263532 0)
(-0.0490523 0.00208503 0)
(-0.049641 0.0015062 0)
(-0.0500304 0.000902473 0)
(-0.0502139 0.000278115 0)
(-0.0501858 -0.000362011 0)
(-0.0499427 -0.00101245 0)
(-0.0494826 -0.00166719 0)
(-0.0488058 -0.00231973 0)
(-0.0479145 -0.00296313 0)
(-0.0468133 -0.00359012 0)
(-0.0455091 -0.00419319 0)
(-0.044011 -0.00476474 0)
(-0.0423306 -0.00529716 0)
(-0.0404818 -0.005783 0)
(-0.0384808 -0.00621514 0)
(-0.0363457 -0.0065869 0)
(-0.0340969 -0.00689222 0)
(-0.0317564 -0.0071258 0)
(-0.0293475 -0.00728324 0)
(-0.0268949 -0.00736118 0)
(-0.0244243 -0.00735741 0)
(-0.0219616 -0.00727099 0)
(-0.019533 -0.00710229 0)
(-0.0171643 -0.00685311 0)
(-0.0148806 -0.00652668 0)
(-0.0127057 -0.00612774 0)
(-0.0106617 -0.00566253 0)
(-0.00876846 -0.00513882 0)
(-0.00704329 -0.00456596 0)
(-0.0055003 -0.00395494 0)
(-0.00414994 -0.00331846 0)
(-0.00299859 -0.00267114 0)
(-0.00204801 -0.00202969 0)
(-0.00129493 -0.00141334 0)
(-0.000730553 -0.000844204 0)
(-0.00034016 -0.000347988 0)
(-0.000102775 4.53275e-05 0)
(9.25347e-06 0.000300788 0)
(3.2544e-05 0.000377571 0)
(1.3632e-05 0.000224629 0)
(-2.51889e-05 4.40616e-05 0)
(-0.000200051 0.000461308 0)
(-0.000614218 0.00108726 0)
(-0.00125321 0.00183513 0)
(-0.00211257 0.00264302 0)
(-0.00319015 0.00346468 0)
(-0.00447837 0.00426645 0)
(-0.00596551 0.00502488 0)
(-0.00763708 0.00572435 0)
(-0.00947651 0.00635516 0)
(-0.0114658 0.00691199 0)
(-0.0135862 0.00739268 0)
(-0.0158184 0.00779723 0)
(-0.0181431 0.00812709 0)
(-0.0205414 0.00838451 0)
(-0.0229945 0.00857217 0)
(-0.0254841 0.0086928 0)
(-0.0279925 0.00874899 0)
(-0.0305022 0.00874307 0)
(-0.0329963 0.00867698 0)
(-0.0354582 0.00855228 0)
(-0.0378716 0.00837021 0)
(-0.0402205 0.00813164 0)
(-0.042489 0.00783729 0)
(-0.0446617 0.00748768 0)
(-0.0467231 0.00708338 0)
(-0.0486581 0.00662501 0)
(-0.050452 0.00611342 0)
(-0.0520903 0.0055498 0)
(-0.0535592 0.00493576 0)
(-0.0548454 0.00427345 0)
(-0.0559365 0.00356565 0)
(-0.0568209 0.00281582 0)
(-0.0574884 0.00202816 0)
(-0.0579297 0.00120766 0)
(-0.0581375 0.000360106 0)
(-0.0581058 -0.000507936 0)
(-0.0578307 -0.00138913 0)
(-0.0573103 -0.00227542 0)
(-0.0565449 -0.00315812 0)
(-0.0555372 -0.00402799 0)
(-0.0542922 -0.00487537 0)
(-0.0528177 -0.0056903 0)
(-0.0511238 -0.00646267 0)
(-0.0492234 -0.00718244 0)
(-0.0471319 -0.00783975 0)
(-0.0448671 -0.00842516 0)
(-0.0424492 -0.00892985 0)
(-0.0399006 -0.00934579 0)
(-0.0372455 -0.00966598 0)
(-0.03451 -0.00988458 0)
(-0.0317214 -0.00999714 0)
(-0.0289079 -0.0100007 0)
(-0.0260985 -0.00989403 0)
(-0.0233221 -0.00967757 0)
(-0.0206076 -0.00935369 0)
(-0.0179829 -0.00892667 0)
(-0.0154745 -0.00840278 0)
(-0.0131072 -0.00779029 0)
(-0.0109035 -0.00709952 0)
(-0.00888288 -0.00634286 0)
(-0.00706145 -0.00553484 0)
(-0.00545148 -0.0046922 0)
(-0.0040608 -0.00383404 0)
(-0.00289242 -0.00298207 0)
(-0.00194404 -0.0021609 0)
(-0.00120771 -0.00139846 0)
(-0.000669474 -0.000726612 0)
(-0.000309117 -0.000181859 0)
(-9.97878e-05 0.00019398 0)
(-7.6789e-06 0.000352771 0)
(6.86922e-06 0.000235124 0)
(-3.63479e-05 0.000160455 0)
(-0.000267008 0.000814617 0)
(-0.000793959 0.00168008 0)
(-0.00158607 0.00266681 0)
(-0.00262917 0.00370907 0)
(-0.00391572 0.00475681 0)
(-0.00543373 0.00577297 0)
(-0.00716792 0.00673126 0)
(-0.00910095 0.00761386 0)
(-0.011214 0.0084095 0)
(-0.013487 0.00911184 0)
(-0.0158994 0.00971815 0)
(-0.0184303 0.0102283 0)
(-0.0210589 0.0106437 0)
(-0.0237646 0.010967 0)
(-0.026527 0.0112012 0)
(-0.0293262 0.0113494 0)
(-0.032143 0.0114148 0)
(-0.0349583 0.0114001 0)
(-0.0377534 0.0113075 0)
(-0.0405103 0.011139 0)
(-0.0432108 0.010896 0)
(-0.0458374 0.0105799 0)
(-0.0483727 0.0101913 0)
(-0.0507995 0.00973126 0)
(-0.0531009 0.00920044 0)
(-0.0552601 0.00859981 0)
(-0.0572612 0.00793063 0)
(-0.0590881 0.00719457 0)
(-0.0607258 0.00639387 0)
(-0.0621598 0.00553143 0)
(-0.0633765 0.00461096 0)
(-0.0643633 0.00363702 0)
(-0.0651092 0.00261513 0)
(-0.0656041 0.00155174 0)
(-0.06584 0.000454328 0)
(-0.0658105 -0.000668655 0)
(-0.0655115 -0.00180782 0)
(-0.0649407 -0.00295288 0)
(-0.0640986 -0.00409278 0)
(-0.0629881 -0.00521576 0)
(-0.0616146 -0.00630958 0)
(-0.0599864 -0.00736158 0)
(-0.0581146 -0.008359 0)
(-0.0560129 -0.00928908 0)
(-0.053698 -0.0101394 0)
(-0.0511892 -0.0108979 0)
(-0.0485081 -0.0115535 0)
(-0.0456791 -0.012096 0)
(-0.0427284 -0.0125165 0)
(-0.0396842 -0.0128075 0)
(-0.0365762 -0.0129634 0)
(-0.033435 -0.0129805 0)
(-0.0302923 -0.0128569 0)
(-0.0271798 -0.0125932 0)
(-0.0241288 -0.0121925 0)
(-0.02117 -0.0116599 0)
(-0.0183328 -0.0110035 0)
(-0.0156445 -0.0102336 0)
(-0.01313 -0.00936325 0)
(-0.0108113 -0.00840808 0)
(-0.0087066 -0.00738636 0)
(-0.00683019 -0.00631911 0)
(-0.00519168 -0.00523016 0)
(-0.00379567 -0.0041464 0)
(-0.00264131 -0.00309796 0)
(-0.00172202 -0.00211866 0)
(-0.00102521 -0.00124649 0)
(-0.000532048 -0.000524243 0)
(-0.000217171 -1.60981e-07 0)
(-5.04368e-05 0.000271202 0)
(-7.80756e-08 0.000223999 0)
(-4.7073e-05 0.000310968 0)
(-0.000332731 0.00125718 0)
(-0.000972115 0.00240641 0)
(-0.00191776 0.00366748 0)
(-0.00314565 0.00497263 0)
(-0.00464243 0.00626946 0)
(-0.00639127 0.00751872 0)
(-0.00837287 0.00869218 0)
(-0.0105667 0.0097705 0)
(-0.0129514 0.0107413 0)
(-0.0155049 0.0115975 0)
(-0.0182045 0.0123361 0)
(-0.0210279 0.0129569 0)
(-0.0239527 0.0134615 0)
(-0.0269568 0.0138527 0)
(-0.0300184 0.014134 0)
(-0.0331164 0.014309 0)
(-0.0362299 0.0143811 0)
(-0.0393385 0.0143536 0)
(-0.0424222 0.0142291 0)
(-0.0454613 0.0140098 0)
(-0.0484366 0.0136975 0)
(-0.0513288 0.0132937 0)
(-0.0541192 0.0127995 0)
(-0.0567893 0.0122159 0)
(-0.0593206 0.0115441 0)
(-0.0616953 0.0107854 0)
(-0.0638958 0.0099415 0)
(-0.0659051 0.00901457 0)
(-0.0677069 0.00800757 0)
(-0.0692856 0.00692426 0)
(-0.0706265 0.00576936 0)
(-0.0717163 0.00454866 0)
(-0.0725428 0.00326906 0)
(-0.0730955 0.00193864 0)
(-0.0733656 0.000566689 0)
(-0.0733462 -0.000836336 0)
(-0.0730327 -0.00225883 0)
(-0.0724228 -0.00368814 0)
(-0.0715167 -0.00511066 0)
(-0.0703174 -0.00651195 0)
(-0.0688305 -0.00787699 0)
(-0.0670648 -0.00919029 0)
(-0.0650317 -0.0104362 0)
(-0.0627459 -0.011599 0)
(-0.0602249 -0.0126636 0)
(-0.057489 -0.0136151 0)
(-0.0545616 -0.01444 0)
(-0.0514681 -0.0151256 0)
(-0.0482368 -0.015661 0)
(-0.0448977 -0.016037 0)
(-0.0414826 -0.0162465 0)
(-0.0380246 -0.0162847 0)
(-0.0345575 -0.0161495 0)
(-0.0311156 -0.0158413 0)
(-0.0277331 -0.0153636 0)
(-0.0244431 -0.0147228 0)
(-0.0212778 -0.0139284 0)
(-0.0182671 -0.0129932 0)
(-0.0154387 -0.0119328 0)
(-0.0128169 -0.0107663 0)
(-0.0104224 -0.00951596 0)
(-0.0082717 -0.00820711 0)
(-0.00637656 -0.00686852 0)
(-0.00474353 -0.00553238 0)
(-0.00337364 -0.00423446 0)
(-0.00226211 -0.00301448 0)
(-0.00139822 -0.00191646 0)
(-0.000764992 -0.000989294 0)
(-0.000338989 -0.000287162 0)
(-9.41705e-05 0.000129754 0)
(-6.93943e-06 0.000190602 0)
(-5.73523e-05 0.000494695 0)
(-0.000396737 0.00178777 0)
(-0.00114695 0.00326537 0)
(-0.00224477 0.00483678 0)
(-0.00365643 0.00643366 0)
(-0.00536262 0.00800267 0)
(-0.00734138 0.00950345 0)
(-0.00956914 0.0109068 0)
(-0.012022 0.0121925 0)
(-0.0146756 0.0133477 0)
(-0.0175057 0.014365 0)
(-0.0204878 0.0152413 0)
(-0.0235978 0.0159765 0)
(-0.0268119 0.0165726 0)
(-0.0301065 0.0170328 0)
(-0.0334586 0.0173609 0)
(-0.0368459 0.017561 0)
(-0.0402461 0.017637 0)
(-0.0436378 0.0175924 0)
(-0.0469997 0.0174304 0)
(-0.0503108 0.0171534 0)
(-0.0535506 0.0167636 0)
(-0.0566989 0.0162626 0)
(-0.0597354 0.0156518 0)
(-0.0626404 0.0149327 0)
(-0.0653945 0.0141065 0)
(-0.0679785 0.0131751 0)
(-0.0703737 0.0121406 0)
(-0.0725621 0.0110058 0)
(-0.074526 0.00977445 0)
(-0.0762491 0.00845118 0)
(-0.0777157 0.00704183 0)
(-0.0789114 0.00555345 0)
(-0.0798234 0.00399444 0)
(-0.0804403 0.00237461 0)
(-0.0807526 0.000705128 0)
(-0.0807529 -0.00100141 0)
(-0.0804361 -0.00273109 0)
(-0.0797996 -0.00446873 0)
(-0.0788431 -0.00619807 0)
(-0.0775696 -0.00790186 0)
(-0.0759847 -0.00956212 0)
(-0.0740972 -0.0111604 0)
(-0.0719189 -0.0126778 0)
(-0.069465 -0.0140959 0)
(-0.0667537 -0.0153962 0)
(-0.0638061 -0.0165612 0)
(-0.0606466 -0.0175744 0)
(-0.0573021 -0.0184208 0)
(-0.0538022 -0.019087 0)
(-0.0501787 -0.0195618 0)
(-0.0464654 -0.0198367 0)
(-0.0426975 -0.0199057 0)
(-0.0389111 -0.019766 0)
(-0.0351432 -0.0194178 0)
(-0.0314302 -0.0188651 0)
(-0.0278083 -0.0181153 0)
(-0.0243123 -0.0171796 0)
(-0.020975 -0.0160728 0)
(-0.0178267 -0.0148136 0)
(-0.0148947 -0.0134244 0)
(-0.0122021 -0.0119315 0)
(-0.0097682 -0.0103649 0)
(-0.00760707 -0.00875828 0)
(-0.00572763 -0.00714923 0)
(-0.00413318 -0.00557928 0)
(-0.00282114 -0.00409402 0)
(-0.00178303 -0.00274347 0)
(-0.00100408 -0.0015824 0)
(-0.000463027 -0.000670568 0)
(-0.000138063 -7.3189e-05 0)
(-1.35992e-05 0.000134852 0)
(-6.72036e-05 0.000710604 0)
(-0.0004588 0.00240446 0)
(-0.00131745 0.00425487 0)
(-0.00256486 0.00617274 0)
(-0.0041578 0.00809039 0)
(-0.00607094 0.00995469 0)
(-0.00827713 0.0117253 0)
(-0.0107483 0.0133728 0)
(-0.013457 0.014877 0)
(-0.0163759 0.0162251 0)
(-0.0194784 0.0174098 0)
(-0.0227379 0.0184283 0)
(-0.0261287 0.019281 0)
(-0.0296254 0.0199701 0)
(-0.0332033 0.0204995 0)
(-0.0368382 0.0208734 0)
(-0.0405065 0.0210965 0)
(-0.0441849 0.0211731 0)
(-0.047851 0.0211072 0)
(-0.0514823 0.0209021 0)
(-0.055057 0.0205608 0)
(-0.0585533 0.0200856 0)
(-0.06195 0.0194785 0)
(-0.0652259 0.0187411 0)
(-0.06836 0.0178751 0)
(-0.071332 0.0168823 0)
(-0.0741217 0.0157647 0)
(-0.0767093 0.0145251 0)
(-0.0790756 0.013167 0)
(-0.0812024 0.0116947 0)
(-0.083072 0.010114 0)
(-0.084668 0.00843181 0)
(-0.0859751 0.0066565 0)
(-0.0869795 0.00479804 0)
(-0.0876692 0.00286798 0)
(-0.0880338 0.000879499 0)
(-0.0880654 -0.00115262 0)
(-0.087758 -0.00321206 0)
(-0.0871085 -0.00528105 0)
(-0.0861163 -0.00734051 0)
(-0.0847839 -0.00937029 0)
(-0.0831167 -0.0113493 0)
(-0.0811233 -0.013256 0)
(-0.0788158 -0.0150683 0)
(-0.0762092 -0.0167643 0)
(-0.0733223 -0.0183225 0)
(-0.0701769 -0.0197223 0)
(-0.0667981 -0.0209441 0)
(-0.0632138 -0.02197 0)
(-0.0594551 -0.0227844 0)
(-0.0555553 -0.0233738 0)
(-0.05155 -0.0237278 0)
(-0.0474763 -0.0238391 0)
(-0.0433728 -0.0237039 0)
(-0.0392788 -0.0233223 0)
(-0.0352336 -0.0226985 0)
(-0.0312761 -0.0218408 0)
(-0.027444 -0.0207618 0)
(-0.0237731 -0.0194788 0)
(-0.0202967 -0.0180132 0)
(-0.0170452 -0.016391 0)
(-0.0140447 -0.0146424 0)
(-0.0113173 -0.0128021 0)
(-0.00887996 -0.010909 0)
(-0.00674432 -0.00900618 0)
(-0.00491627 -0.00714085 0)
(-0.00339581 -0.0053646 0)
(-0.00217697 -0.00373339 0)
(-0.00124744 -0.00230775 0)
(-0.000588271 -0.00115283 0)
(-0.000181787 -0.000338467 0)
(-2.00311e-05 5.69167e-05 0)
(-7.66508e-05 0.000957617 0)
(-0.000518815 0.00310497 0)
(-0.00148303 0.00537204 0)
(-0.00287661 0.00767225 0)
(-0.0046472 0.00993964 0)
(-0.00676359 0.0121223 0)
(-0.0091934 0.0141808 0)
(-0.0119041 0.0160866 0)
(-0.0148643 0.0178201 0)
(-0.018044 0.0193691 0)
(-0.0214138 0.020727 0)
(-0.0249453 0.0218917 0)
(-0.0286109 0.0228641 0)
(-0.0323838 0.0236472 0)
(-0.0362381 0.0242456 0)
(-0.0401485 0.024664 0)
(-0.0440904 0.0249077 0)
(-0.0480395 0.0249815 0)
(-0.0519725 0.0248898 0)
(-0.055866 0.0246364 0)
(-0.0596972 0.0242245 0)
(-0.0634436 0.0236566 0)
(-0.0670829 0.0229352 0)
(-0.0705931 0.0220619 0)
(-0.0739525 0.0210389 0)
(-0.0771396 0.0198683 0)
(-0.0801333 0.0185524 0)
(-0.082913 0.0170946 0)
(-0.0854587 0.0154991 0)
(-0.087751 0.0137709 0)
(-0.0897715 0.0119169 0)
(-0.0915027 0.00994503 0)
(-0.0929287 0.00786512 0)
(-0.0940346 0.00568868 0)
(-0.0948076 0.00342906 0)
(-0.0952364 0.00110147 0)
(-0.0953123 -0.00127709 0)
(-0.0950286 -0.00368781 0)
(-0.0943812 -0.00611026 0)
(-0.0933692 -0.00852252 0)
(-0.0919941 -0.0109014 0)
(-0.090261 -0.0132226 0)
(-0.0881781 -0.0154612 0)
(-0.0857571 -0.0175919 0)
(-0.0830132 -0.0195893 0)
(-0.0799651 -0.0214285 0)
(-0.0766351 -0.0230855 0)
(-0.0730486 -0.0245375 0)
(-0.0692348 -0.0257637 0)
(-0.0652255 -0.0267455 0)
(-0.0610555 -0.0274671 0)
(-0.0567622 -0.0279159 0)
(-0.0523847 -0.0280829 0)
(-0.0479639 -0.0279635 0)
(-0.0435415 -0.0275571 0)
(-0.0391597 -0.0268679 0)
(-0.0348603 -0.0259051 0)
(-0.0306842 -0.0246827 0)
(-0.0266704 -0.0232201 0)
(-0.0228556 -0.0215415 0)
(-0.0192734 -0.0196765 0)
(-0.0159534 -0.0176594 0)
(-0.0129209 -0.0155296 0)
(-0.0101961 -0.0133312 0)
(-0.00779369 -0.0111128 0)
(-0.00572255 -0.00892769 0)
(-0.00398554 -0.00683333 0)
(-0.0025795 -0.0048917 0)
(-0.00149471 -0.0031691 0)
(-0.000714562 -0.00173595 0)
(-0.000225343 -0.000666645 0)
(-2.62615e-05 -4.2987e-05 0)
(-8.57155e-05 0.00123464 0)
(-0.000576732 0.00388675 0)
(-0.00164329 0.00661343 0)
(-0.00317903 0.00933141 0)
(-0.00512281 0.0119773 0)
(-0.00743774 0.0145012 0)
(-0.0100863 0.0168657 0)
(-0.0130313 0.0190437 0)
(-0.016238 0.0210169 0)
(-0.0196729 0.0227745 0)
(-0.0233043 0.0243111 0)
(-0.0271017 0.0256254 0)
(-0.0310358 0.0267195 0)
(-0.0350785 0.0275974 0)
(-0.0392025 0.0282642 0)
(-0.0433815 0.0287257 0)
(-0.04759 0.0289875 0)
(-0.051803 0.0290552 0)
(-0.0559962 0.0289336 0)
(-0.0601455 0.0286268 0)
(-0.0642275 0.0281384 0)
(-0.0682188 0.0274714 0)
(-0.0720964 0.0266281 0)
(-0.0758376 0.0256108 0)
(-0.0794198 0.0244216 0)
(-0.0828208 0.0230631 0)
(-0.0860187 0.0215382 0)
(-0.0889921 0.0198506 0)
(-0.0917201 0.018005 0)
(-0.0941825 0.0160076 0)
(-0.0963601 0.0138659 0)
(-0.0982344 0.0115892 0)
(-0.0997885 0.00918853 0)
(-0.101007 0.00667707 0)
(-0.101875 0.00406995 0)
(-0.102382 0.00138438 0)
(-0.102517 -0.00136034 0)
(-0.102272 -0.00414295 0)
(-0.101644 -0.0069403 0)
(-0.100629 -0.00972754 0)
(-0.0992283 -0.0124783 0)
(-0.0974465 -0.0151652 0)
(-0.0952911 -0.0177597 0)
(-0.0927732 -0.020233 0)
(-0.0899075 -0.0225562 0)
(-0.0867126 -0.0247006 0)
(-0.0832108 -0.0266388 0)
(-0.0794281 -0.0283444 0)
(-0.075394 -0.0297932 0)
(-0.0711414 -0.0309637 0)
(-0.0667063 -0.0318372 0)
(-0.0621278 -0.0323987 0)
(-0.0574469 -0.0326374 0)
(-0.0527068 -0.0325472 0)
(-0.0479518 -0.0321266 0)
(-0.043227 -0.0313798 0)
(-0.0385775 -0.0303164 0)
(-0.0340474 -0.0289519 0)
(-0.0296794 -0.0273074 0)
(-0.0255138 -0.0254102 0)
(-0.0215879 -0.0232932 0)
(-0.0179352 -0.0209949 0)
(-0.0145845 -0.0185594 0)
(-0.0115596 -0.0160362 0)
(-0.0088788 -0.0134796 0)
(-0.00655421 -0.0109489 0)
(-0.0045919 -0.00850769 0)
(-0.00299169 -0.00622409 0)
(-0.0017466 -0.00417024 0)
(-0.000842348 -0.002422 0)
(-0.000268951 -0.00105837 0)
(-3.23488e-05 -0.000164726 0)
(-9.44128e-05 0.00154058 0)
(-0.000632513 0.00474708 0)
(-0.00179797 0.00797525 0)
(-0.00347137 0.0111457 0)
(-0.00558322 0.0141982 0)
(-0.00809114 0.0170862 0)
(-0.0109526 0.0197744 0)
(-0.014126 0.0222383 0)
(-0.0175729 0.0244617 0)
(-0.0212567 0.0264354 0)
(-0.0251433 0.0281558 0)
(-0.0292 0.0296232 0)
(-0.033396 0.0308408 0)
(-0.0377015 0.0318139 0)
(-0.0420884 0.0325486 0)
(-0.0465292 0.0330515 0)
(-0.0509977 0.0333292 0)
(-0.0554681 0.0333877 0)
(-0.0599154 0.0332323 0)
(-0.0643151 0.0328677 0)
(-0.0686428 0.0322978 0)
(-0.0728748 0.0315256 0)
(-0.0769874 0.030554 0)
(-0.0809572 0.0293854 0)
(-0.0847611 0.0280222 0)
(-0.0883762 0.0264672 0)
(-0.0917799 0.0247238 0)
(-0.0949499 0.0227961 0)
(-0.0978648 0.0206896 0)
(-0.100504 0.018411 0)
(-0.102846 0.0159689 0)
(-0.104873 0.0133736 0)
(-0.106566 0.0106377 0)
(-0.107909 0.00777559 0)
(-0.108887 0.00480435 0)
(-0.109486 0.00174316 0)
(-0.109696 -0.00138645 0)
(-0.109508 -0.00456072 0)
(-0.108916 -0.00775379 0)
(-0.107916 -0.0109379 0)
(-0.106509 -0.0140834 0)
(-0.104697 -0.0171596 0)
(-0.102487 -0.0201344 0)
(-0.0998892 -0.0229754 0)
(-0.0969179 -0.0256498 0)
(-0.0935911 -0.0281251 0)
(-0.0899309 -0.03037 0)
(-0.0859632 -0.0323544 0)
(-0.0817181 -0.0340505 0)
(-0.0772291 -0.0354332 0)
(-0.0725336 -0.0364807 0)
(-0.0676718 -0.0371754 0)
(-0.0626869 -0.037504 0)
(-0.0576243 -0.0374587 0)
(-0.0525312 -0.0370369 0)
(-0.0474557 -0.0362423 0)
(-0.0424461 -0.0350848 0)
(-0.0375504 -0.0335809 0)
(-0.0328151 -0.0317537 0)
(-0.0282846 -0.029633 0)
(-0.0240003 -0.0272551 0)
(-0.0199998 -0.0246628 0)
(-0.0163162 -0.0219051 0)
(-0.0129772 -0.0190368 0)
(-0.010005 -0.0161182 0)
(-0.00741547 -0.0132145 0)
(-0.00521804 -0.0103959 0)
(-0.00341582 -0.00773686 0)
(-0.00200464 -0.00531555 0)
(-0.000972507 -0.00321348 0)
(-0.000312983 -0.00151462 0)
(-3.83709e-05 -0.000308337 0)
(-0.00010275 0.00187433 0)
(-0.000686114 0.00568314 0)
(-0.00194681 0.00945334 0)
(-0.003753 0.01311 0)
(-0.00602724 0.0165969 0)
(-0.0087219 0.019871 0)
(-0.0117896 0.0229006 0)
(-0.0151846 0.0256639 0)
(-0.0188646 0.0281476 0)
(-0.0227902 0.0303449 0)
(-0.0269247 0.0322543 0)
(-0.0312335 0.033878 0)
(-0.035684 0.035221 0)
(-0.0402453 0.0362898 0)
(-0.0448879 0.0370919 0)
(-0.0495837 0.037635 0)
(-0.0543056 0.0379264 0)
(-0.0590272 0.0379729 0)
(-0.0637229 0.0377805 0)
(-0.0683676 0.0373542 0)
(-0.0729367 0.0366982 0)
(-0.0774059 0.035816 0)
(-0.0817509 0.0347106 0)
(-0.0859479 0.0333845 0)
(-0.0899733 0.0318406 0)
(-0.0938035 0.0300819 0)
(-0.0974155 0.028112 0)
(-0.100786 0.0259357 0)
(-0.103894 0.0235587 0)
(-0.106716 0.0209887 0)
(-0.109232 0.0182351 0)
(-0.111422 0.0153093 0)
(-0.113266 0.0122249 0)
(-0.114748 0.00899805 0)
(-0.11585 0.00564742 0)
(-0.116559 0.00219415 0)
(-0.116861 -0.00133805 0)
(-0.116748 -0.00492297 0)
(-0.116212 -0.00853203 0)
(-0.115247 -0.0121345 0)
(-0.113852 -0.0156976 0)
(-0.11203 -0.0191871 0)
(-0.109784 -0.0225673 0)
(-0.107125 -0.0258019 0)
(-0.104065 -0.0288541 0)
(-0.100622 -0.0316876 0)
(-0.0968176 -0.0342666 0)
(-0.0926771 -0.0365571 0)
(-0.0882306 -0.0385273 0)
(-0.0835126 -0.0401482 0)
(-0.078561 -0.0413946 0)
(-0.0734178 -0.0422454 0)
(-0.068128 -0.042685 0)
(-0.0627393 -0.0427029 0)
(-0.0573017 -0.0422953 0)
(-0.0518665 -0.041465 0)
(-0.0464859 -0.0402218 0)
(-0.0412115 -0.038583 0)
(-0.0360944 -0.0365733 0)
(-0.0311833 -0.034225 0)
(-0.0265242 -0.0315779 0)
(-0.0221594 -0.028679 0)
(-0.0181264 -0.025582 0)
(-0.0144577 -0.0223473 0)
(-0.0111796 -0.0190413 0)
(-0.00831202 -0.0157358 0)
(-0.00586834 -0.0125075 0)
(-0.00385505 -0.00943735 0)
(-0.00227092 -0.00661022 0)
(-0.00110622 -0.0041136 0)
(-0.000357911 -0.0020369 0)
(-4.44182e-05 -0.000474086 0)
(-0.000110728 0.00223476 0)
(-0.000737474 0.00669194 0)
(-0.00208954 0.0110433 0)
(-0.00402331 0.0152189 0)
(-0.00645376 0.019167 0)
(-0.00932828 0.022849 0)
(-0.0125949 0.026237 0)
(-0.0162037 0.0293132 0)
(-0.020109 0.0320673 0)
(-0.0242685 0.0344955 0)
(-0.0286429 0.0365991 0)
(-0.0331959 0.0383824 0)
(-0.0378931 0.0398525 0)
(-0.0427024 0.0410177 0)
(-0.0475933 0.041887 0)
(-0.0525369 0.0424691 0)
(-0.0575054 0.0427726 0)
(-0.0624719 0.042805 0)
(-0.0674103 0.0425728 0)
(-0.0722952 0.0420816 0)
(-0.0771015 0.041336 0)
(-0.0818045 0.0403398 0)
(-0.0863797 0.039096 0)
(-0.090803 0.0376078 0)
(-0.0950501 0.0358778 0)
(-0.0990973 0.0339095 0)