/*--------------------------------*- C++ -*----------------------------------*\
  =========                 |
  \\      /  F ield         | OpenFOAM: The Open Source CFD Toolbox
   \\    /   O peration     | Website:  https://openfoam.org
    \\  /    A nd           | Version:  dev
     \\/     M anipulation  |
\*---------------------------------------------------------------------------*/
FoamFile
{
    format      ascii;
    class       surfaceScalarField;
    location    "24.3";
    object      phi;
}
// * * * * * * * * * * * * * * * * * * * * * * * * * * * * * * * * * * * * * //

dimensions      [0 3 -1 0 0 0 0];

internalField   nonuniform List<scalar> 
10224
(
3.35656e-08
-3.50773e-08
8.76912e-08
-5.41292e-08
1.24258e-07
-3.65653e-08
1.25214e-07
-9.58378e-10
8.35863e-08
4.16244e-08
-1.88649e-09
8.54723e-08
-1.29377e-07
1.27493e-07
-2.95581e-07
1.66207e-07
-4.96438e-07
2.00859e-07
-7.27648e-07
2.3121e-07
-9.84943e-07
2.57294e-07
-1.26423e-06
2.79288e-07
-1.56168e-06
2.97446e-07
-1.87373e-06
3.1205e-07
-2.19711e-06
3.23385e-07
-2.52883e-06
3.31717e-07
-2.86611e-06
3.37283e-07
-3.20639e-06
3.40283e-07
-3.54727e-06
3.40879e-07
-3.88646e-06
3.39194e-07
-4.22178e-06
3.35311e-07
-4.55106e-06
3.29285e-07
-4.8722e-06
3.21141e-07
-5.18308e-06
3.10881e-07
-5.48157e-06
2.98492e-07
-5.76552e-06
2.83954e-07
-6.03277e-06
2.67245e-07
-6.28112e-06
2.4835e-07
-6.50838e-06
2.27262e-07
-6.71237e-06
2.03995e-07
-6.89096e-06
1.78589e-07
-7.04207e-06
1.5111e-07
-7.16373e-06
1.2166e-07
-7.25411e-06
9.03808e-08
-7.31156e-06
5.74505e-08
-7.33465e-06
2.30919e-08
-7.32222e-06
-1.24297e-08
-7.27342e-06
-4.88061e-08
-7.18773e-06
-8.56881e-08
-7.06504e-06
-1.22689e-07
-6.90565e-06
-1.59387e-07
-6.71032e-06
-1.95336e-07
-6.48025e-06
-2.30064e-07
-6.21717e-06
-2.63088e-07
-5.92324e-06
-2.93922e-07
-5.60116e-06
-3.22083e-07
-5.25405e-06
-3.47107e-07
-4.8855e-06
-3.68554e-07
-4.49948e-06
-3.86024e-07
-4.10032e-06
-3.99162e-07
-3.69265e-06
-4.07672e-07
-3.28132e-06
-4.11324e-07
-2.87136e-06
-4.09962e-07
-2.46784e-06
-4.03513e-07
-2.07586e-06
-3.91985e-07
-1.70038e-06
-3.75476e-07
-1.34622e-06
-3.54167e-07
-1.01789e-06
-3.28332e-07
-7.19553e-07
-2.98335e-07
-4.54928e-07
-2.64624e-07
-2.2719e-07
-2.27737e-07
-3.88875e-08
-1.88304e-07
1.08176e-07
-1.47063e-07
2.13063e-07
-1.04884e-07
2.75884e-07
-6.28195e-08
2.98068e-07
-2.2185e-08
2.82788e-07
1.52768e-08
2.35639e-07
4.71489e-08
1.65676e-07
6.99658e-08
8.71851e-08
7.84965e-08
2.25342e-08
6.46576e-08
2.25415e-08
5.37569e-08
-8.88369e-08
1.12207e-07
-1.12585e-07
1.17982e-07
-4.23401e-08
3.86726e-08
7.83531e-08
-1.42114e-07
2.22416e-07
-4.29696e-07
3.73058e-07
-8.22303e-07
5.20101e-07
-1.31379e-06
6.57695e-07
-1.8956e-06
7.82667e-07
-2.55792e-06
8.9353e-07
-3.29048e-06
9.89853e-07
-4.08303e-06
1.07184e-06
-4.92566e-06
1.14007e-06
-5.80893e-06
1.19532e-06
-6.72396e-06
1.23841e-06
-7.66241e-06
1.27018e-06
-8.6165e-06
1.29137e-06
-9.57888e-06
1.30267e-06
-1.05426e-05
1.3046e-06
-1.1501e-05
1.2976e-06
-1.24477e-05
1.28199e-06
-1.33764e-05
1.25797e-06
-1.42809e-05
1.22566e-06
-1.51551e-05
1.1851e-06
-1.59929e-05
1.1363e-06
-1.67882e-05
1.07924e-06
-1.75348e-05
1.01388e-06
-1.82267e-05
9.40224e-07
-1.88578e-05
8.58321e-07
-1.94221e-05
7.68284e-07
-1.99138e-05
6.70314e-07
-2.03274e-05
5.64724e-07
-2.06577e-05
4.51946e-07
-2.08998e-05
3.32548e-07
-2.10496e-05
2.07244e-07
-2.11034e-05
7.6898e-08
-2.10584e-05
-5.74762e-08
-2.09125e-05
-1.94715e-07
-2.06647e-05
-3.33512e-07
-2.03149e-05
-4.7243e-07
-1.98644e-05
-6.09918e-07
-1.93154e-05
-7.44331e-07
-1.86715e-05
-8.73953e-07
-1.79376e-05
-9.97031e-07
-1.71197e-05
-1.1118e-06
-1.62252e-05
-1.21653e-06
-1.52628e-05
-1.30953e-06
-1.42421e-05
-1.38924e-06
-1.31739e-05
-1.45423e-06
-1.20699e-05
-1.50323e-06
-1.09423e-05
-1.53519e-06
-9.80437e-06
-1.5493e-06
-8.66931e-06
-1.54502e-06
-7.55072e-06
-1.52211e-06
-6.4621e-06
-1.48061e-06
-5.41666e-06
-1.42091e-06
-4.42713e-06
-1.3437e-06
-3.50543e-06
-1.25003e-06
-2.66251e-06
-1.14126e-06
-1.90806e-06
-1.01908e-06
-1.25024e-06
-8.85547e-07
-6.95471e-07
-7.43074e-07
-2.48047e-07
-5.94487e-07
9.01801e-08
-4.43112e-07
3.20287e-07
-2.92922e-07
4.46869e-07
-1.48761e-07
4.78909e-07
-1.67602e-08
4.30873e-07
9.51812e-08
3.24192e-07
1.76639e-07
1.88867e-07
2.13813e-07
6.43404e-08
1.89175e-07
8.68864e-08
3.7258e-08
-1.26093e-07
4.3152e-08
-1.18483e-07
-4.34803e-08
4.42882e-08
-2.58909e-07
2.93782e-07
-6.22743e-07
5.86253e-07
-1.14209e-06
8.92413e-07
-1.81523e-06
1.19324e-06
-2.63449e-06
1.47696e-06
-3.58851e-06
1.73669e-06
-4.66378e-06
1.9688e-06
-5.84572e-06
2.1718e-06
-7.11947e-06
2.34559e-06
-8.47031e-06
2.49092e-06
-9.88401e-06
2.60902e-06
-1.1347e-05
2.70136e-06
-1.28462e-05
2.76943e-06
-1.43695e-05
2.81467e-06
-1.59052e-05
2.83833e-06
-1.74421e-05
2.8415e-06
-1.89695e-05
2.82503e-06
-2.04771e-05
2.78957e-06
-2.19547e-05
2.73557e-06
-2.33923e-05
2.66331e-06
-2.47802e-05
2.57293e-06
-2.61084e-05
2.46451e-06
-2.73672e-05
2.33806e-06
-2.85469e-05
2.19361e-06
-2.9638e-05
2.03126e-06
-3.06308e-05
1.85119e-06
-3.15163e-05
1.65374e-06
-3.22854e-05
1.43942e-06
-3.29297e-05
1.20901e-06
-3.34412e-05
9.63487e-07
-3.38128e-05
7.04153e-07
-3.40382e-05
4.32588e-07
-3.41119e-05
1.50685e-07
-3.40301e-05
-1.39355e-07
-3.37898e-05
-4.35026e-07
-3.33897e-05
-7.33536e-07
-3.28303e-05
-1.03183e-06
-3.21136e-05
-1.32663e-06
-3.12435e-05
-1.61446e-06
-3.02257e-05
-1.89173e-06
-2.9068e-05
-2.15477e-06
-2.77799e-05
-2.39988e-06
-2.6373e-05
-2.62346e-06
-2.48605e-05
-2.82201e-06
-2.32574e-05
-2.99229e-06
-2.15803e-05
-3.13132e-06
-1.98471e-05
-3.23649e-06
-1.80766e-05
-3.30564e-06
-1.62888e-05
-3.33711e-06
-1.4504e-05
-3.3298e-06
-1.27429e-05
-3.28321e-06
-1.1026e-05
-3.1975e-06
-9.37344e-06
-3.0735e-06
-7.80443e-06
-2.9127e-06
-6.33711e-06
-2.71734e-06
-4.98802e-06
-2.49035e-06
-3.77174e-06
-2.23536e-06
-2.70051e-06
-1.95678e-06
-1.78379e-06
-1.65979e-06
-1.02783e-06
-1.35045e-06
-4.35089e-07
-1.03585e-06
-3.66899e-09
-7.24345e-07
2.73497e-07
-4.25925e-07
4.0947e-07
-1.52728e-07
4.24476e-07
8.01834e-08
3.47125e-07
2.53996e-07
2.156e-07
3.45339e-07
7.85938e-08
3.26176e-07
1.65482e-07
1.8558e-09
-1.2795e-07
-7.90449e-08
-3.75808e-08
-2.97731e-07
2.62975e-07
-6.87904e-07
6.83958e-07
-1.26787e-06
1.16623e-06
-2.04391e-06
1.66845e-06
-3.01322e-06
2.16255e-06
-4.16656e-06
2.63029e-06
-5.49032e-06
3.06045e-06
-6.96819e-06
3.44666e-06
-8.58234e-06
3.78594e-06
-1.03143e-05
4.07753e-06
-1.21455e-05
4.32216e-06
-1.40579e-05
4.5214e-06
-1.60338e-05
4.6773e-06
-1.80565e-05
4.79205e-06
-2.01096e-05
4.86778e-06
-2.21777e-05
4.90643e-06
-2.42458e-05
4.90967e-06
-2.62997e-05
4.87888e-06
-2.83252e-05
4.81508e-06
-3.03087e-05
4.71905e-06
-3.22366e-05
4.59127e-06
-3.40958e-05
4.43208e-06
-3.58729e-05
4.24166e-06
-3.7555e-05
4.02014e-06
-3.91291e-05
3.76769e-06
-4.05824e-05
3.48459e-06
-4.19025e-05
3.17128e-06
-4.30772e-05
2.82847e-06
-4.4095e-05
2.45717e-06
-4.49448e-05
2.05878e-06
-4.56164e-05
1.63512e-06
-4.61007e-05
1.18847e-06
-4.63897e-05
7.21608e-07
-4.64769e-05
2.37802e-07
-4.63571e-05
-2.59164e-07
-4.60271e-05
-7.65018e-07
-4.54856e-05
-1.27502e-06
-4.47334e-05
-1.78402e-06
-4.37735e-05
-2.28649e-06
-4.26114e-05
-2.77662e-06
-4.12547e-05
-3.2484e-06
-3.97138e-05
-3.69569e-06
-3.80013e-05
-4.11238e-06
-3.61323e-05
-4.49244e-06
-3.41242e-05
-4.83012e-06
-3.19965e-05
-5.12e-06
-2.97706e-05
-5.35718e-06
-2.74697e-05
-5.53735e-06
-2.51184e-05
-5.65695e-06
-2.27423e-05
-5.71323e-06
-2.03677e-05
-5.70441e-06
-1.80212e-05
-5.6297e-06
-1.57293e-05
-5.48937e-06
-1.3518e-05
-5.28484e-06
-1.1412e-05
-5.01869e-06
-9.43469e-06
-4.69467e-06
-7.60731e-06
-4.31774e-06
-5.94859e-06
-3.89408e-06
-4.47424e-06
-3.43113e-06
-3.19637e-06
-2.93766e-06
-2.12293e-06
-2.42388e-06
-1.25713e-06
-1.90165e-06
-5.96731e-07
-1.38475e-06
-1.33302e-07
-8.8936e-07
1.48648e-07
-4.3468e-07
2.72565e-07
-4.37336e-08
2.70892e-07
2.5567e-07
1.86109e-07
4.30127e-07
7.2155e-08
4.40129e-07
2.37637e-07
-4.20739e-08
-8.58794e-08
-2.30038e-07
1.50387e-07
-6.0647e-07
6.39409e-07
-1.19793e-06
1.27542e-06
-2.01816e-06
1.98646e-06
-3.07032e-06
2.72061e-06
-4.34923e-06
3.44146e-06
-5.84346e-06
4.12452e-06
-7.53715e-06
4.75414e-06
-9.41151e-06
5.32102e-06
-1.1446e-05
5.82042e-06
-1.36192e-05
6.25072e-06
-1.59095e-05
6.61244e-06
-1.82954e-05
6.90737e-06
-2.07562e-05
7.13805e-06
-2.32714e-05
7.30731e-06
-2.58216e-05
7.41799e-06
-2.83879e-05
7.4727e-06
-3.0952e-05
7.47375e-06
-3.34961e-05
7.42302e-06
-3.6003e-05
7.322e-06
-3.84558e-05
7.17181e-06
-4.08377e-05
6.97322e-06
-4.31324e-05
6.72677e-06
-4.53236e-05
6.43284e-06
-4.73952e-05
6.09176e-06
-4.93315e-05
5.70391e-06
-5.11167e-05
5.26987e-06
-5.27359e-05
4.79047e-06
-5.41744e-05
4.26692e-06
-5.54181e-05
3.70091e-06
-5.6454e-05
3.09469e-06
-5.727e-05
2.45112e-06
-5.78553e-05
1.77373e-06
-5.82005e-05
1.06678e-06
-5.82979e-05
3.35251e-07
-5.81419e-05
-4.15161e-07
-5.77289e-05
-1.17804e-06
-5.70576e-05
-1.94631e-06
-5.61293e-05
-2.71229e-06
-5.4948e-05
-3.46781e-06
-5.35204e-05
-4.20426e-06
-5.1856e-05
-4.91276e-06
-4.99674e-05
-5.5843e-06
-4.78699e-05
-6.20986e-06
-4.55817e-05
-6.78062e-06
-4.31237e-05
-7.28812e-06
-4.05193e-05
-7.72444e-06
-3.77941e-05
-8.08239e-06
-3.49758e-05
-8.35567e-06
-3.20937e-05
-8.53906e-06
-2.91784e-05
-8.62856e-06
-2.62612e-05
-8.62156e-06
-2.3374e-05
-8.51692e-06
-2.05483e-05
-8.31508e-06
-1.7815e-05
-8.01815e-06
-1.52037e-05
-7.62995e-06
-1.27423e-05
-7.15607e-06
-1.04562e-05
-6.60387e-06
-8.36771e-06
-5.98254e-06
-6.49573e-06
-5.30312e-06
-4.8548e-06
-4.57859e-06
-3.45465e-06
-3.82403e-06
-2.29951e-06
-3.05678e-06
-1.38744e-06
-2.29681e-06
-7.09598e-07
-1.5672e-06
-2.49524e-07
-8.94756e-07
1.76179e-08
-3.10877e-07
1.2586e-07
1.47429e-07
1.19321e-07
4.36668e-07
5.36017e-08
5.05849e-07
2.91237e-07
-8.94273e-08
3.54672e-09
-3.95255e-07
4.56217e-07
-9.4483e-07
1.18899e-06
-1.75472e-06
2.08532e-06
-2.83172e-06
3.06345e-06
-4.17405e-06
4.06295e-06
-5.77289e-06
5.04029e-06
-7.61384e-06
5.96547e-06
-9.67844e-06
6.81874e-06
-1.19454e-05
7.58799e-06
-1.43917e-05
8.26671e-06
-1.69933e-05
8.85235e-06
-1.9726e-05
9.34512e-06
-2.25656e-05
9.74694e-06
-2.54883e-05
1.00608e-05
-2.8471e-05
1.029e-05
-3.14912e-05
1.04382e-05
-3.45271e-05
1.05086e-05
-3.75574e-05
1.05041e-05
-4.05615e-05
1.04271e-05
-4.35191e-05
1.02796e-05
-4.64103e-05
1.00631e-05
-4.92158e-05
9.77868e-06
-5.19162e-05
9.42714e-06
-5.44924e-05
9.00911e-06
-5.69259e-05
8.52519e-06
-5.9198e-05
7.97608e-06
-6.12909e-05
7.36274e-06
-6.3187e-05
6.68652e-06
-6.48693e-05
5.94931e-06
-6.6322e-05
5.15361e-06
-6.75301e-05
4.30272e-06
-6.84797e-05
3.40074e-06
-6.91587e-05
2.45273e-06
-6.95565e-05
1.46464e-06
-6.96647e-05
4.43466e-07
-6.9477e-05
-6.02877e-07
-6.89896e-05
-1.66551e-06
-6.82012e-05
-2.73469e-06
-6.71136e-05
-3.79986e-06
-6.57316e-05
-4.84982e-06
-6.4063e-05
-5.87281e-06
-6.21191e-05
-6.85673e-06
-5.99141e-05
-7.78926e-06
-5.74658e-05
-8.65818e-06
-5.47949e-05
-9.45147e-06
-5.19254e-05
-1.01576e-05
-4.88839e-05
-1.07659e-05
-4.56997e-05
-1.12666e-05
-4.24044e-05
-1.1651e-05
-3.90313e-05
-1.19121e-05
-3.56153e-05
-1.20446e-05
-3.21922e-05
-1.20447e-05
-2.87982e-05
-1.19109e-05
-2.54694e-05
-1.16439e-05
-2.2241e-05
-1.12465e-05
-1.9147e-05
-1.0724e-05
-1.62192e-05
-1.00838e-05
-1.34868e-05
-9.33624e-06
-1.09757e-05
-8.4937e-06
-8.70747e-06
-7.5713e-06
-6.69934e-06
-6.58673e-06
-4.96293e-06
-5.56043e-06
-3.50393e-06
-4.51579e-06
-2.32128e-06
-3.47945e-06
-1.40665e-06
-2.48183e-06
-7.43742e-07
-1.55767e-06
-3.07728e-07
-7.46892e-07
-6.46582e-08
-9.56415e-08
2.91963e-08
3.42816e-07
2.82602e-08
5.06787e-07
3.19496e-07
-1.37602e-07
1.41151e-07
-5.66121e-07
8.84735e-07
-1.29699e-06
1.91986e-06
-2.3353e-06
3.12363e-06
-3.67935e-06
4.4075e-06
-5.32106e-06
5.70466e-06
-7.24684e-06
6.96607e-06
-9.43857e-06
8.15721e-06
-1.18747e-05
9.25489e-06
-1.45313e-05
1.02446e-05
-1.73828e-05
1.11182e-05
-2.04028e-05
1.18723e-05
-2.35646e-05
1.25069e-05
-2.68416e-05
1.30239e-05
-3.02076e-05
1.34268e-05
-3.3637e-05
1.37194e-05
-3.71048e-05
1.39059e-05
-4.05864e-05
1.39902e-05
-4.40582e-05
1.39758e-05
-4.74968e-05
1.38657e-05
-5.08795e-05
1.36622e-05
-5.41837e-05
1.33673e-05
-5.73875e-05
1.29824e-05
-6.0469e-05
1.25087e-05
-6.34068e-05
1.19469e-05
-6.61798e-05
1.12981e-05
-6.87671e-05
1.05634e-05
-7.11487e-05
9.74427e-06
-7.33048e-05
8.84261e-06
-7.52166e-05
7.86113e-06
-7.68663e-05
6.80334e-06
-7.82373e-05
5.67373e-06
-7.93144e-05
4.47786e-06
-8.00842e-05
3.22246e-06
-8.0535e-05
1.91548e-06
-8.06577e-05
5.66119e-07
-8.04453e-05
-8.15218e-07
-7.98939e-05
-2.21692e-06
-7.90023e-05
-3.62629e-06
-7.77726e-05
-5.0296e-06
-7.62101e-05
-6.41231e-06
-7.43237e-05
-7.75921e-06
-7.21258e-05
-9.05461e-06
-6.96324e-05
-1.02827e-05
-6.68631e-05
-1.14275e-05
-6.38408e-05
-1.24737e-05
-6.05921e-05
-1.34064e-05
-5.71463e-05
-1.42117e-05
-5.3536e-05
-1.48769e-05
-4.97958e-05
-1.53911e-05
-4.59629e-05
-1.5745e-05
-4.20759e-05
-1.59316e-05
-3.81743e-05
-1.59463e-05
-3.42984e-05
-1.57868e-05
-3.04883e-05
-1.5454e-05
-2.67833e-05
-1.49515e-05
-2.32212e-05
-1.4286e-05
-1.98378e-05
-1.34673e-05
-1.66656e-05
-1.25084e-05
-1.3734e-05
-1.14254e-05
-1.10675e-05
-1.02377e-05
-8.68604e-06
-8.96824e-06
-6.60341e-06
-7.64307e-06
-4.82718e-06
-6.29201e-06
-3.35786e-06
-4.94877e-06
-2.18836e-06
-3.65133e-06
-1.30349e-06
-2.44254e-06
-6.79534e-07
-1.37085e-06
-2.83885e-07
-4.91293e-07
-7.47065e-08
1.33638e-07
-6.24731e-10
4.32705e-07
3.18871e-07
-1.85351e-07
3.26504e-07
-7.3775e-07
1.43713e-06
-1.65319e-06
2.83531e-06
-2.92468e-06
4.39512e-06
-4.54114e-06
6.02396e-06
-6.48726e-06
7.65078e-06
-8.74381e-06
9.22262e-06
-1.12883e-05
1.07017e-05
-1.40956e-05
1.20622e-05
-1.71388e-05
1.32878e-05
-2.03897e-05
1.43691e-05
-2.38195e-05
1.53022e-05
-2.73994e-05
1.60867e-05
-3.11004e-05
1.6725e-05
-3.48943e-05
1.72207e-05
-3.87531e-05
1.75783e-05
-4.26496e-05
1.78025e-05
-4.65573e-05
1.78979e-05
-5.04499e-05
1.78685e-05
-5.4302e-05
1.77178e-05
-5.80885e-05
1.74487e-05
-6.17847e-05
1.70635e-05
-6.53663e-05
1.6564e-05
-6.88092e-05
1.59516e-05
-7.20898e-05
1.52275e-05
-7.51849e-05
1.43932e-05
-7.80716e-05
1.34502e-05
-8.07278e-05
1.24005e-05
-8.3132e-05
1.12468e-05
-8.52635e-05
9.99268e-06
-8.7103e-05
8.64283e-06
-8.86323e-05
7.20306e-06
-8.9835e-05
5.68053e-06
-9.06964e-05
4.08384e-06
-9.1204e-05
2.42311e-06
-9.13478e-05
7.09936e-07
-9.11205e-05
-1.04256e-06
-9.05176e-05
-2.81982e-06
-8.95379e-05
-4.60594e-06
-8.81838e-05
-6.38378e-06
-8.64608e-05
-8.13522e-06
-8.43788e-05
-9.84129e-06
-8.19509e-05
-1.14825e-05
-7.91944e-05
-1.30391e-05
-7.61305e-05
-1.44915e-05
-7.27839e-05
-1.58202e-05
-6.91833e-05
-1.7007e-05
-6.53604e-05
-1.80345e-05
-6.13504e-05
-1.8887e-05
-5.7191e-05
-1.95505e-05
-5.29223e-05
-2.00137e-05
-4.85862e-05
-2.02677e-05
-4.4226e-05
-2.03064e-05
-3.98856e-05
-2.01273e-05
-3.56087e-05
-1.97309e-05
-3.14384e-05
-1.91218e-05
-2.74164e-05
-1.8308e-05
-2.3582e-05
-1.73017e-05
-1.99714e-05
-1.61189e-05
-1.66173e-05
-1.47795e-05
-1.35474e-05
-1.33076e-05
-1.07845e-05
-1.17312e-05
-8.34499e-06
-1.00826e-05
-6.23882e-06
-8.39818e-06
-4.46861e-06
-6.71898e-06
-3.0292e-06
-5.09073e-06
-1.9073e-06
-3.56444e-06
-1.08115e-06
-2.19699e-06
-5.2041e-07
-1.05203e-06
-1.86158e-07
-2.00615e-07
-3.10975e-08
2.77644e-07
2.87773e-07
-2.32033e-07
5.58538e-07
-9.07383e-07
2.11248e-06
-2.00743e-06
3.93535e-06
-3.51312e-06
5.90081e-06
-5.40359e-06
7.91442e-06
-7.65569e-06
9.90288e-06
-1.0244e-05
1.18109e-05
-1.31411e-05
1.35987e-05
-1.63178e-05
1.52389e-05
-1.9744e-05
1.67139e-05
-2.33887e-05
1.80138e-05
-2.72207e-05
1.91342e-05
-3.12089e-05
2.00749e-05
-3.53224e-05
2.08385e-05
-3.95309e-05
2.14292e-05
-4.38046e-05
2.18519e-05
-4.81142e-05
2.21121e-05
-5.24312e-05
2.22149e-05
-5.67276e-05
2.21648e-05
-6.09758e-05
2.1966e-05
-6.51488e-05
2.16217e-05
-6.92199e-05
2.11346e-05
-7.31627e-05
2.05069e-05
-7.69515e-05
1.97403e-05
-8.05605e-05
1.88365e-05
-8.39646e-05
1.77974e-05
-8.71393e-05
1.66249e-05
-9.00605e-05
1.53217e-05
-9.27052e-05
1.38914e-05
-9.5051e-05
1.23386e-05
-9.70772e-05
1.0669e-05
-9.87643e-05
8.8901e-06
-0.000100094
7.01067e-06
-0.000101052
5.04138e-06
-0.000101623
2.99459e-06
-0.000101798
8.8453e-07
-0.000101568
-1.27283e-06
-0.000100928
-3.4598e-06
-9.98767e-05
-5.65706e-06
-9.84166e-05
-7.84388e-06
-9.65535e-05
-9.99831e-06
-9.42973e-05
-1.20974e-05
-9.16622e-05
-1.41177e-05
-8.86661e-05
-1.60352e-05
-8.53314e-05
-1.78261e-05
-8.16845e-05
-1.94672e-05
-7.77554e-05
-2.09361e-05
-7.35781e-05
-2.22118e-05
-6.91899e-05
-2.32752e-05
-6.46311e-05
-2.41093e-05
-5.99447e-05
-2.47001e-05
-5.51757e-05
-2.50367e-05
-5.03705e-05
-2.51116e-05
-4.55765e-05
-2.49213e-05
-4.0841e-05
-2.44664e-05
-3.62108e-05
-2.37519e-05
-3.17313e-05
-2.27875e-05
-2.74455e-05
-2.15875e-05
-2.33935e-05
-2.0171e-05
-1.96111e-05
-1.85619e-05
-1.61299e-05
-1.67889e-05
-1.29755e-05
-1.48856e-05
-1.01676e-05
-1.28905e-05
-7.71883e-06
-1.08469e-05
-5.63458e-06
-8.80323e-06
-3.91222e-06
-6.8131e-06
-2.54095e-06
-4.9357e-06
-1.50167e-06
-3.23628e-06
-7.66941e-07
-1.78676e-06
-3.01345e-07
-6.66212e-07
-6.20562e-08
3.83529e-08
2.25717e-07
-2.77369e-07
8.35907e-07
-1.07349e-06
2.9086e-06
-2.35608e-06
5.21794e-06
-4.09433e-06
7.63906e-06
-6.25753e-06
1.00776e-05
-8.81441e-06
1.24598e-05
-1.1733e-05
1.47295e-05
-1.49804e-05
1.68462e-05
-1.85233e-05
1.87819e-05
-2.2328e-05
2.05186e-05
-2.63606e-05
2.20464e-05
-3.05874e-05
2.3361e-05
-3.49751e-05
2.44626e-05
-3.94908e-05
2.53543e-05
-4.41024e-05
2.60408e-05
-4.87784e-05
2.65278e-05
-5.34877e-05
2.68214e-05
-5.82e-05
2.69273e-05
-6.28858e-05
2.68506e-05
-6.75157e-05
2.65959e-05
-7.2061e-05
2.6167e-05
-7.64933e-05
2.55669e-05
-8.07846e-05
2.47981e-05
-8.49072e-05
2.38629e-05
-8.88339e-05
2.27632e-05
-9.25379e-05
2.15014e-05
-9.5993e-05
2.00799e-05
-9.91736e-05
1.85023e-05
-0.000102055
1.67729e-05
-0.000104614
1.48973e-05
-0.000106827
1.28827e-05
-0.000108675
1.07379e-05
-0.000110138
8.47374e-06
-0.0001112
6.10285e-06
-0.000111845
3.64005e-06
-0.000112063
1.10225e-06
-0.000111844
-1.49159e-06
-0.000111183
-4.12047e-06
-0.000110079
-6.76156e-06
-0.000108533
-9.39034e-06
-0.00010655
-1.19809e-05
-0.000104141
-1.4506e-05
-0.000101321
-1.6938e-05
-9.81077e-05
-1.92485e-05
-9.45244e-05
-2.14095e-05
-9.05984e-05
-2.33932e-05
-8.63614e-05
-2.51731e-05
-8.18489e-05
-2.67243e-05
-7.71001e-05
-2.80239e-05
-7.21577e-05
-2.90517e-05
-6.7067e-05
-2.97908e-05
-6.18761e-05
-3.02277e-05
-5.66343e-05
-3.03534e-05
-5.13924e-05
-3.01632e-05
-4.62014e-05
-2.96574e-05
-4.11116e-05
-2.88417e-05
-3.61723e-05
-2.77269e-05
-3.14304e-05
-2.63295e-05
-2.69297e-05
-2.46717e-05
-2.27101e-05
-2.27814e-05
-1.88067e-05
-2.06922e-05
-1.5249e-05
-1.84433e-05
-1.20599e-05
-1.60795e-05
-9.25562e-06
-1.36512e-05
-6.84455e-06
-1.12143e-05
-4.82722e-06
-8.83043e-06
-3.1959e-06
-6.56702e-06
-1.9346e-06
-4.49758e-06
-1.01925e-06
-2.70211e-06
-4.18158e-07
-1.2673e-06
-9.29473e-08
-2.86859e-07
1.32769e-07
-3.21246e-07
1.15715e-06
-1.23521e-06
3.82256e-06
-2.69689e-06
6.67962e-06
-4.6642e-06
9.60637e-06
-7.09669e-06
1.25101e-05
-9.95492e-06
1.5318e-05
-1.32001e-05
1.79747e-05
-1.67939e-05
2.04399e-05
-2.06983e-05
2.26863e-05
-2.48759e-05
2.46963e-05
-2.92899e-05
2.64603e-05
-3.39039e-05
2.7975e-05
-3.86825e-05
2.92412e-05
-4.35909e-05
3.02627e-05
-4.85953e-05
3.10451e-05
-5.36623e-05
3.15949e-05
-5.87596e-05
3.19187e-05
-6.38554e-05
3.20231e-05
-6.89185e-05
3.19137e-05
-7.39183e-05
3.15957e-05
-7.88244e-05
3.10732e-05
-8.36071e-05
3.03496e-05
-8.82369e-05
2.94279e-05
-9.26846e-05
2.83106e-05
-9.69216e-05
2.70002e-05
-0.00010092
2.54993e-05
-0.000104651
2.38112e-05
-0.000108089
2.194e-05
-0.000111207
1.98909e-05
-0.00011398
1.76707e-05
-0.000116385
1.52879e-05
-0.0001184
1.27529e-05
-0.000120005
1.00783e-05
-0.000121181
7.2791e-06
-0.000121913
4.37243e-06
-0.000122189
1.37803e-06
-0.000121999
-1.68206e-06
-0.000121336
-4.78348e-06
-0.000120198
-7.89972e-06
-0.000118586
-1.10024e-05
-0.000116505
-1.40613e-05
-0.000113966
-1.70451e-05
-0.000110983
-1.99214e-05
-0.000107574
-2.26575e-05
-0.000103763
-2.52205e-05
-9.95775e-05
-2.75782e-05
-9.50511e-05
-2.96996e-05
-9.022e-05
-3.15554e-05
-8.51253e-05
-3.31186e-05
-7.98116e-05
-3.43655e-05
-7.43265e-05
-3.52758e-05
-6.87207e-05
-3.58335e-05
-6.30467e-05
-3.60273e-05
-5.73585e-05
-3.58514e-05
-5.17107e-05
-3.53053e-05
-4.61574e-05
-3.43949e-05
-4.07519e-05
-3.31324e-05
-3.55452e-05
-3.15362e-05
-3.05853e-05
-2.96316e-05
-2.59164e-05
-2.74504e-05
-2.15776e-05
-2.5031e-05
-1.76025e-05
-2.24184e-05
-1.40181e-05
-1.96639e-05
-1.08444e-05
-1.68249e-05
-8.09345e-06
-1.39652e-05
-5.76939e-06
-1.11545e-05
-3.86801e-06
-8.4684e-06
-2.37682e-06
-5.98877e-06
-1.27533e-06
-3.8036e-06
-5.3567e-07
-2.00696e-06
-1.23569e-07
-6.98959e-07
9.19997e-09
-3.63623e-07
1.52077e-06
-1.39208e-06
4.85101e-06
-3.02847e-06
8.31602e-06
-5.21996e-06
1.17979e-05
-7.91666e-06
1.52068e-05
-1.1071e-05
1.84724e-05
-1.46374e-05
2.15411e-05
-1.85719e-05
2.43744e-05
-2.28317e-05
2.69461e-05
-2.73757e-05
2.92402e-05
-3.21638e-05
3.12484e-05
-3.71571e-05
3.29684e-05
-4.2318e-05
3.44021e-05
-4.76098e-05
3.55546e-05
-5.29971e-05
3.64323e-05
-5.84451e-05
3.70428e-05
-6.392e-05
3.73937e-05
-6.93888e-05
3.74919e-05
-7.4819e-05
3.73439e-05
-8.01787e-05
3.69554e-05
-8.54364e-05
3.63309e-05
-9.0561e-05
3.54742e-05
-9.55219e-05
3.43887e-05
-0.000100289
3.30773e-05
-0.000104831
3.15427e-05
-0.00010912
2.97882e-05
-0.000113126
2.78175e-05
-0.000116822
2.56355e-05
-0.000120179
2.32483e-05
-0.000123172
2.06638e-05
-0.000125776
1.78918e-05
-0.000127968
1.49444e-05
-0.000129725
1.1836e-05
-0.00013103
8.58369e-06
-0.000131865
5.20728e-06
-0.000132216
1.72922e-06
-0.000132073
-1.82529e-06
-0.000131428
-5.42848e-06
-0.000130277
-9.05011e-06
-0.000128622
-1.26577e-05
-0.000126466
-1.6217e-05
-0.000123819
-1.9692e-05
-0.000120695
-2.30457e-05
-0.000117112
-2.62405e-05
-0.000113094
-2.92387e-05
-0.000108669
-3.20032e-05
-0.00010387
-3.44982e-05
-9.87359e-05
-3.66898e-05
-9.3308e-05
-3.85466e-05
-8.76328e-05
-4.00407e-05
-8.17604e-05
-4.11482e-05
-7.5744e-05
-4.185e-05
-6.96389e-05
-4.21324e-05
-6.35026e-05
-4.19877e-05
-5.73933e-05
-4.14146e-05
-5.13692e-05
-4.0419e-05
-4.54877e-05
-3.90139e-05
-3.98043e-05
-3.72196e-05
-3.43716e-05
-3.50643e-05
-2.92383e-05
-3.25836e-05
-2.44483e-05
-2.9821e-05
-2.00398e-05
-2.6827e-05
-1.60442e-05
-2.36595e-05
-1.24859e-05
-2.03833e-05
-9.3811e-06
-1.707e-05
-6.73808e-06
-1.37975e-05
-4.55651e-06
-1.065e-05
-2.82769e-06
-7.71759e-06
-1.53484e-06
-5.09645e-06
-6.53774e-07
-2.88802e-06
-1.53947e-07
-1.19878e-06
-1.44748e-07
-4.04486e-07
1.92526e-06
-1.54379e-06
5.99031e-06
-3.34987e-06
1.01221e-05
-5.75968e-06
1.42077e-05
-8.71423e-06
1.81614e-05
-1.21581e-05
2.19162e-05
-1.60388e-05
2.54218e-05
-2.03067e-05
2.86423e-05
-2.49146e-05
3.1554e-05
-2.98171e-05
3.41428e-05
-3.49712e-05
3.64025e-05
-4.03353e-05
3.83325e-05
-4.58696e-05
3.99364e-05
-5.15357e-05
4.12206e-05
-5.72964e-05
4.21931e-05
-6.31158e-05
4.28622e-05
-6.89588e-05
4.32367e-05
-7.47913e-05
4.33243e-05
-8.05796e-05
4.31323e-05
-8.62909e-05
4.26667e-05
-9.18925e-05
4.19325e-05
-9.73525e-05
4.09342e-05
-0.000102639
3.96752e-05
-0.000107721
3.81589e-05
-0.000112566
3.63884e-05
-0.000117145
3.43673e-05
-0.000121428
3.21e-05
-0.000125384
2.95921e-05
-0.000128987
2.68504e-05
-0.000132207
2.38841e-05
-0.000135019
2.07041e-05
-0.000137399
1.73242e-05
-0.000139324
1.37606e-05
-0.000140772
1.00326e-05
-0.000141728
6.1625e-06
-0.000142174
2.17546e-06
-0.000142099
-1.90017e-06
-0.000141494
-6.03316e-06
-0.000140355
-1.01895e-05
-0.00013868
-1.43327e-05
-0.000136473
-1.8424e-05
-0.000133742
-2.24229e-05
-0.0001305
-2.62875e-05
-0.000126766
-2.99752e-05
-0.000122561
-3.34432e-05
-0.000117915
-3.66492e-05
-0.000112861
-3.95523e-05
-0.000107438
-4.21133e-05
-0.000101688
-4.42963e-05
-9.56599e-05
-4.60687e-05
-8.94056e-05
-4.74024e-05
-8.29806e-05
-4.8275e-05
-7.64434e-05
-4.86696e-05
-6.98546e-05
-4.85764e-05
-6.32764e-05
-4.79928e-05
-5.67713e-05
-4.69242e-05
-5.04012e-05
-4.5384e-05
-4.42263e-05
-4.33944e-05
-3.83043e-05
-4.09862e-05
-3.26891e-05
-3.81988e-05
-2.74297e-05
-3.50804e-05
-2.25694e-05
-3.16873e-05
-1.81448e-05
-2.80841e-05
-1.4185e-05
-2.43431e-05
-1.07112e-05
-2.05438e-05
-7.73593e-06
-1.67727e-05
-5.26325e-06
-1.31227e-05
-3.28846e-06
-9.69238e-06
-1.79857e-06
-6.58633e-06
-7.7294e-07
-3.91366e-06
-1.8426e-07
-1.78746e-06
-3.29008e-07
-4.43823e-07
2.36908e-06
-1.69013e-06
7.23662e-06
-3.66039e-06
1.20924e-05
-6.28187e-06
1.68291e-05
-9.48687e-06
2.13664e-05
-1.32123e-05
2.56416e-05
-1.73991e-05
2.96087e-05
-2.19922e-05
3.32353e-05
-2.69393e-05
3.65011e-05
-3.21916e-05
3.93951e-05
-3.77026e-05
4.19135e-05
-4.34283e-05
4.40581e-05
-4.93266e-05
4.58348e-05
-5.53575e-05
4.72515e-05
-6.14823e-05
4.83179e-05
-6.76638e-05
4.90437e-05
-7.38658e-05
4.94387e-05
-8.00533e-05
4.95118e-05
-8.61916e-05
4.92707e-05
-9.22472e-05
4.87222e-05
-9.81865e-05
4.78718e-05
-0.000103977
4.67243e-05
-0.000109585
4.52835e-05
-0.000114979
4.35531e-05
-0.000120127
4.15365e-05
-0.000124998
3.92378e-05
-0.00012956
3.66619e-05
-0.000133782
3.38149e-05
-0.000137637
3.07047e-05
-0.000141094
2.73411e-05
-0.000144126
2.37366e-05
-0.000146708
1.99064e-05
-0.000148816
1.58684e-05
-0.000150428
1.16441e-05
-0.000151523
7.25813e-06
-0.000152086
2.73843e-06
-0.000152103
-1.88361e-06
-0.000151563
-6.5733e-06
-0.000150459
-1.12929e-05
-0.00014879
-1.60018e-05
-0.000146557
-2.06568e-05
-0.000143768
-2.52126e-05
-0.000140433
-2.96225e-05
-0.000136569
-3.38385e-05
-0.0001322
-3.78125e-05
-0.000127353
-4.14967e-05
-0.00012206
-4.48446e-05
-0.000116362
-4.78117e-05
-0.000110302
-5.03565e-05
-0.000103929
-5.24415e-05
-9.72972e-05
-5.40341e-05
-9.04647e-05
-5.51076e-05
-8.34927e-05
-5.56416e-05
-7.64454e-05
-5.56236e-05
-6.93891e-05
-5.50492e-05
-6.23907e-05
-5.39226e-05
-5.55169e-05
-5.22578e-05
-4.88334e-05
-5.00779e-05
-4.24032e-05
-4.74163e-05
-3.62861e-05
-4.4316e-05
-3.05366e-05
-4.08298e-05
-2.52039e-05
-3.702e-05
-2.03302e-05
-3.29578e-05
-1.59503e-05
-2.87231e-05
-1.20903e-05
-2.44038e-05
-8.76804e-06
-2.0095e-05
-5.992e-06
-1.58987e-05
-3.76177e-06
-1.19226e-05
-2.06821e-06
-8.27989e-06
-8.94041e-07
-5.08783e-06
-2.14785e-07
-2.46672e-06
-5.43793e-07
-4.81613e-07
2.85069e-06
-1.8309e-06
8.5859e-06
-3.95942e-06
1.42209e-05
-6.78527e-06
1.9655e-05
-1.02325e-05
2.48135e-05
-1.42305e-05
2.96397e-05
-1.87142e-05
3.40923e-05
-2.36226e-05
3.81438e-05
-2.88992e-05
4.17778e-05
-3.44913e-05
4.49871e-05
-4.03492e-05
4.77714e-05
-4.64264e-05
5.01353e-05
-5.26788e-05
5.20872e-05
-5.90646e-05
5.36373e-05
-6.55437e-05
5.4797e-05
-7.2078e-05
5.55779e-05
-7.86302e-05
5.59909e-05
-8.51643e-05
5.60459e-05
-9.16452e-05
5.57516e-05
-9.80384e-05
5.51153e-05
-0.00010431
5.41432e-05
-0.000110426
5.28403e-05
-0.000116353
5.12109e-05
-0.000122059
4.92587e-05
-0.00012751
4.69877e-05
-0.000132674
4.44023e-05
-0.00013752
4.15078e-05
-0.000142016
3.83108e-05
-0.000146132
3.482e-05
-0.000149837
3.10462e-05
-0.000153103
2.70029e-05
-0.000155903
2.27067e-05
-0.000158212
1.81774e-05
-0.000160006
1.34382e-05
-0.000161264
8.51605e-06
-0.000161967
3.44166e-06
-0.0001621
-1.75064e-06
-0.000161651
-7.02284e-06
-0.00016061
-1.23334e-05
-0.000158974
-1.76377e-05
-0.000156743
-2.2888e-05
-0.000153921
-2.80344e-05
-0.000150519
-3.30247e-05
-0.000146552
-3.78058e-05
-0.000142041
-4.23238e-05
-0.000137012
-4.65251e-05
-0.0001315
-5.03572e-05
-0.000125542
-5.37697e-05
-0.000119183
-5.67154e-05
-0.000112473
-5.9151e-05
-0.000105468
-6.10388e-05
-9.82289e-05
-6.23471e-05
-9.08189e-05
-6.30516e-05
-8.33062e-05
-6.31363e-05
-7.57611e-05
-6.25942e-05
-6.82555e-05
-6.14283e-05
-6.08614e-05
-5.96519e-05
-5.36501e-05
-5.72892e-05
-4.66907e-05
-5.43757e-05
-4.00492e-05
-5.09576e-05
-3.37868e-05
-4.70923e-05
-2.79588e-05
-4.2848e-05
-2.26138e-05
-3.83027e-05
-1.77927e-05
-3.35442e-05
-1.35275e-05
-2.86689e-05
-9.84143e-06
-2.37811e-05
-6.748e-06
-1.89921e-05
-4.25128e-06
-1.44193e-05
-2.34604e-06
-1.01851e-05
-1.01823e-06
-6.41564e-06
-2.45868e-07
-3.23909e-06
-7.89662e-07
-5.17822e-07
3.36852e-06
-1.96587e-06
1.00339e-05
-4.24636e-06
1.65014e-05
-7.26869e-06
2.26773e-05
-1.0949e-05
2.84939e-05
-1.52099e-05
3.39006e-05
-1.99799e-05
3.88622e-05
-2.51929e-05
4.33568e-05
-3.07881e-05
4.7373e-05
-3.67089e-05
5.09079e-05
-4.29027e-05
5.39652e-05
-4.93205e-05
5.65531e-05
-5.59162e-05
5.86829e-05
-6.26464e-05
6.03675e-05
-6.94699e-05
6.16205e-05
-7.63472e-05
6.24553e-05
-8.32405e-05
6.28842e-05
-9.0113e-05
6.29185e-05
-9.6929e-05
6.25676e-05
-0.000103653
6.18398e-05
-0.000110252
6.07416e-05
-0.00011669
5.92785e-05
-0.000122934
5.7455e-05
-0.000128951
5.52753e-05
-0.000134707
5.27436e-05
-0.000140169
4.98643e-05
-0.000145304
4.66433e-05
-0.000150081
4.30876e-05
-0.000154468
3.92066e-05
-0.000158433
3.50118e-05
-0.000161948
3.05178e-05
-0.000164984
2.57424e-05
-0.000167513
2.07068e-05
-0.000169511
1.54362e-05
-0.000170955
9.95964e-06
-0.000171823
4.31028e-06
-0.000172099
-1.47469e-06
-0.000171768
-7.35399e-06
-0.000170819
-1.32825e-05
-0.000169245
-1.92114e-05
-0.000167045
-2.50887e-05
-0.00016422
-3.08595e-05
-0.000160778
-3.64664e-05
-0.000156733
-4.18506e-05
-0.000152105
-4.69524e-05
-0.000146918
-5.17119e-05
-0.000141204
-5.60704e-05
-0.000135003
-5.9971e-05
-0.000128359
-6.336e-05
-0.000121322
-6.6188e-05
-0.000113949
-6.84113e-05
-0.000106304
-6.99926e-05
-9.84525e-05
-7.09028e-05
-9.04671e-05
-7.11217e-05
-8.24222e-05
-7.06391e-05
-7.43947e-05
-6.94558e-05
-6.64622e-05
-6.75843e-05
-5.87024e-05
-6.5049e-05
-5.11911e-05
-6.1887e-05
-4.4001e-05
-5.81477e-05
-3.72003e-05
-5.3893e-05
-3.08517e-05
-4.91965e-05
-2.50109e-05
-4.41436e-05
-1.97252e-05
-3.88299e-05
-1.50334e-05
-3.33607e-05
-1.09645e-05
-2.785e-05
-7.53758e-06
-2.24191e-05
-4.76139e-06
-1.71955e-05
-2.63476e-06
-1.23118e-05
-1.14685e-06
-7.90355e-06
-2.77902e-07
-4.10804e-06
-1.06756e-06
-5.52396e-07
3.92091e-06
-2.0948e-06
1.15763e-05
-4.52057e-06
1.89272e-05
-7.73095e-06
2.58877e-05
-1.16346e-05
3.23975e-05
-1.61476e-05
3.84135e-05
-2.11924e-05
4.39071e-05
-2.66984e-05
4.88627e-05
-3.26e-05
5.32747e-05
-3.88374e-05
5.71453e-05
-4.53551e-05
6.04829e-05
-5.21015e-05
6.32996e-05
-5.90289e-05
6.56102e-05
-6.60923e-05
6.74308e-05
-7.32493e-05
6.87775e-05
-8.04595e-05
6.96655e-05
-8.76844e-05
7.01091e-05
-9.48868e-05
7.01208e-05
-0.00010203
6.97112e-05
-0.00010908