/*--------------------------------*- C++ -*----------------------------------*\
  =========                 |
  \\      /  F ield         | OpenFOAM: The Open Source CFD Toolbox
   \\    /   O peration     | Website:  https://openfoam.org
    \\  /    A nd           | Version:  dev
     \\/     M anipulation  |
\*---------------------------------------------------------------------------*/
FoamFile
{
    format      ascii;
    class       volScalarField;
    location    "24.3";
    object      Ux;
}
// * * * * * * * * * * * * * * * * * * * * * * * * * * * * * * * * * * * * * //

dimensions      [0 1 -1 0 0 0 0];

internalField   nonuniform List<scalar> 
5184
(
1.22332e-05
4.50071e-05
8.02058e-05
9.58719e-05
8.20403e-05
3.63493e-05
-4.06461e-05
-0.000146927
-0.000279703
-0.000435919
-0.000612453
-0.000806273
-0.00101451
-0.00123451
-0.0014638
-0.00170013
-0.00194144
-0.0021858
-0.00243143
-0.00267665
-0.00291986
-0.00315949
-0.00339402
-0.00362192
-0.00384167
-0.00405172
-0.00425053
-0.00443652
-0.00460811
-0.00476373
-0.00490182
-0.00502085
-0.00511936
-0.00519599
-0.00524946
-0.00527866
-0.00528266
-0.00526072
-0.00521234
-0.0051373
-0.00503565
-0.00490777
-0.00475437
-0.0045765
-0.00437556
-0.0041533
-0.00391182
-0.00365355
-0.00338119
-0.00309777
-0.00280651
-0.00251085
-0.00221434
-0.00192063
-0.00163341
-0.0013563
-0.00109285
-0.000846428
-0.000620172
-0.000416936
-0.000239216
-8.90911e-05
3.18515e-05
0.000122598
0.000182814
0.000213001
0.000214743
0.000191087
0.000147061
9.07513e-05
3.66145e-05
6.22556e-06
2.07813e-05
6.54765e-05
9.45444e-05
7.26302e-05
-1.9097e-05
-0.000187443
-0.000432985
-0.000752506
-0.00114046
-0.00159008
-0.00209401
-0.0026448
-0.00323515
-0.00385808
-0.00450698
-0.00517566
-0.00585832
-0.00654952
-0.00724412
-0.00793726
-0.00862422
-0.00930046
-0.0099615
-0.0106029
-0.0112204
-0.0118094
-0.0123655
-0.0128845
-0.0133618
-0.0137931
-0.0141743
-0.0145012
-0.0147698
-0.0149767
-0.0151185
-0.0151924
-0.0151959
-0.0151274
-0.0149858
-0.0147706
-0.0144821
-0.0141218
-0.0136916
-0.0131946
-0.0126348
-0.0120169
-0.0113468
-0.0106311
-0.00987714
-0.00909301
-0.00828741
-0.00746953
-0.00664887
-0.00583519
-0.00503825
-0.00426772
-0.00353297
-0.00284292
-0.00220586
-0.00162924
-0.00111955
-0.000682089
-0.000320765
-3.78653e-05
0.00016624
0.00029347
0.000348568
0.000339794
0.000279631
0.000185922
8.63173e-05
1.96693e-05
1.75994e-05
4.12284e-05
1.94556e-05
-8.41463e-05
-0.000290353
-0.000607908
-0.00103807
-0.00157702
-0.0022176
-0.00295063
-0.00376583
-0.0046525
-0.00559991
-0.00659762
-0.00763557
-0.00870421
-0.00979446
-0.0108977
-0.0120058
-0.0131108
-0.0142053
-0.0152817
-0.016333
-0.0173519
-0.0183315
-0.0192645
-0.0201441
-0.0209633
-0.0217152
-0.022393
-0.0229902
-0.0235005
-0.0239179
-0.024237
-0.0244529
-0.0245615
-0.0245591
-0.0244435
-0.0242131
-0.0238674
-0.0234075
-0.0228354
-0.0221545
-0.0213698
-0.0204874
-0.019515
-0.0184615
-0.0173371
-0.0161532
-0.0149222
-0.0136574
-0.0123729
-0.0110831
-0.00980294
-0.00854725
-0.00733075
-0.00616766
-0.00507151
-0.00405483
-0.00312892
-0.00230348
-0.00158642
-0.000983476
-0.000497877
-0.000129943
0.000123393
0.00026922
0.000319371
0.000290967
0.00020722
0.000102376
2.49606e-05
8.81704e-06
-7.0739e-06
-0.000107659
-0.000322401
-0.00066953
-0.00115745
-0.00178689
-0.00255311
-0.00344755
-0.00445919
-0.00557555
-0.00678344
-0.00806946
-0.00942036
-0.0108232
-0.0122657
-0.0137358
-0.0152221
-0.0167138
-0.0182003
-0.0196713
-0.021117
-0.0225275
-0.0238932
-0.0252046
-0.0264523
-0.0276268
-0.0287189
-0.0297196
-0.0306198
-0.0314111
-0.0320853
-0.0326348
-0.0330524
-0.0333321
-0.0334686
-0.0334575
-0.033296
-0.0329823
-0.0325162
-0.0318991
-0.031134
-0.0302256
-0.0291805
-0.0280067
-0.0267145
-0.0253155
-0.0238229
-0.0222517
-0.0206178
-0.0189385
-0.017232
-0.015517
-0.0138127
-0.0121382
-0.0105125
-0.008954
-0.00748004
-0.00610677
-0.00484869
-0.0037183
-0.00272569
-0.0018782
-0.00117997
-0.000631459
-0.00022898
3.59365e-05
0.000177174
0.000214443
0.000173893
9.29425e-05
2.40096e-05
-2.13736e-06
-6.73139e-05
-0.000264095
-0.000609646
-0.00111645
-0.00179071
-0.00263142
-0.00363223
-0.00478301
-0.00607104
-0.00748198
-0.0090006
-0.0106113
-0.0122985
-0.014047
-0.015842
-0.017669
-0.0195143
-0.0213644
-0.0232065
-0.025028
-0.0268165
-0.0285599
-0.0302464
-0.0318642
-0.0334017
-0.0348473
-0.0361898
-0.0374181
-0.0385214
-0.0394894
-0.0403124
-0.0409811
-0.0414873
-0.0418238
-0.0419843
-0.0419641
-0.0417597
-0.0413693
-0.040793
-0.0400326
-0.0390919
-0.0379768
-0.0366952
-0.0352572
-0.0336749
-0.0319623
-0.0301355
-0.028212
-0.0262113
-0.0241538
-0.0220611
-0.0199558
-0.0178606
-0.0157983
-0.0137917
-0.0118625
-0.0100316
-0.00831816
-0.00673961
-0.00531085
-0.004044
-0.00294794
-0.0020278
-0.00128454
-0.0007144
-0.000308398
-5.17774e-05
7.6323e-05
0.00010339
6.74189e-05
1.96475e-05
-1.36984e-05
-0.000132813
-0.000435705
-0.000924327
-0.0016033
-0.00247517
-0.00353611
-0.00477742
-0.00618701
-0.00775037
-0.00945138
-0.011273
-0.0131977
-0.015208
-0.0172866
-0.0194167
-0.0215817
-0.0237658
-0.0259533
-0.0281294
-0.0302792
-0.0323883
-0.0344426
-0.0364281
-0.0383311
-0.0401379
-0.0418352
-0.0434098
-0.0448489
-0.0461401
-0.0472715
-0.0482319
-0.049011
-0.0495993
-0.0499887
-0.0501722
-0.0501445
-0.0499019
-0.0494425
-0.0487666
-0.0478764
-0.0467765
-0.0454737
-0.0439772
-0.0422985
-0.0404516
-0.0384526
-0.0363196
-0.0340729
-0.0317345
-0.0293277
-0.0268773
-0.0244088
-0.0219482
-0.0195216
-0.0171548
-0.0148728
-0.0126995
-0.0106569
-0.00876495
-0.00704089
-0.00549881
-0.00414919
-0.0029984
-0.00204821
-0.00129536
-0.000731093
-0.000340687
-0.000103204
8.97309e-06
3.24167e-05
1.36041e-05
-2.51809e-05
-0.000199945
-0.000613841
-0.00125238
-0.00211109
-0.00318781
-0.00447497
-0.00596088
-0.00763103
-0.00946888
-0.0114565
-0.013575
-0.0158052
-0.0181279
-0.0205241
-0.022975
-0.0254624
-0.0279685
-0.030476
-0.0329679
-0.0354276
-0.0378389
-0.0401857
-0.0424523
-0.0446231
-0.0466827
-0.0486161
-0.0504085
-0.0520455
-0.0535132
-0.0547985
-0.0558888
-0.0567727
-0.0574398
-0.057881
-0.0580889
-0.0580576
-0.0577831
-0.0572635
-0.0564992
-0.0554927
-0.0542492
-0.0527763
-0.0510842
-0.0491858
-0.0470964
-0.0448339
-0.0424183
-0.0398721
-0.0372195
-0.0344864
-0.0317002
-0.0288891
-0.026082
-0.023308
-0.0205956
-0.0179729
-0.0154663
-0.0131008
-0.0108986
-0.00887923
-0.00705892
-0.00544987
-0.00405993
-0.00289208
-0.00194407
-0.00120795
-0.000669804
-0.000309426
-0.000100006
-7.78226e-06
6.84559e-06
-3.63266e-05
-0.000266826
-0.000793383
-0.00158487
-0.00262713
-0.0039126
-0.00542932
-0.00716201
-0.00909336
-0.0112045
-0.0134755
-0.0158858
-0.0184145
-0.0210407
-0.0237439
-0.0265039
-0.0293006
-0.0321149
-0.0349276
-0.0377203
-0.0404747
-0.0431729
-0.0457972
-0.0483303
-0.050755
-0.0530544
-0.0552119
-0.0572112
-0.0590367
-0.0606732
-0.0621061
-0.063322
-0.0643083
-0.0650538
-0.0655486
-0.0657847
-0.0657557
-0.0654573
-0.0648875
-0.0640466
-0.0629374
-0.0615656
-0.0599392
-0.0580694
-0.0559699
-0.0536574
-0.051151
-0.0484725
-0.0456461
-0.0426982
-0.0396567
-0.0365513
-0.0334129
-0.0302728
-0.0271628
-0.0241142
-0.0211577
-0.0183226
-0.0156362
-0.0131235
-0.0108063
-0.0087029
-0.00682761
-0.00519001
-0.00379471
-0.00264086
-0.00172191
-0.00102529
-0.000532206
-0.00021731
-5.05115e-05
-9.68134e-08
-4.70389e-05
-0.000332472
-0.000971335
-0.00191619
-0.00314303
-0.0046385
-0.0063858
-0.00836565
-0.0105576
-0.0129401
-0.0154912
-0.0181885
-0.0210093
-0.0239315
-0.0269328
-0.0299917
-0.0330869
-0.0361976
-0.0393034
-0.0423844
-0.0454208
-0.0483935
-0.0512832
-0.0540712
-0.0567389
-0.0592681
-0.0616409
-0.0638396
-0.0658474
-0.0676479
-0.0692255
-0.0705656
-0.0716548
-0.0724809
-0.0730335
-0.0733038
-0.0732849
-0.0729722
-0.0723633
-0.0714585
-0.0702607
-0.0687756
-0.0670119
-0.064981
-0.0626976
-0.0601791
-0.057446
-0.0545213
-0.0514308
-0.0482024
-0.0448663
-0.0414541
-0.037999
-0.0345348
-0.0310957
-0.0277158
-0.0244283
-0.0212654
-0.0182569
-0.0154304
-0.0128104
-0.0104174
-0.00826806
-0.00637402
-0.00474187
-0.00337266
-0.00226161
-0.00139803
-0.000764979
-0.000339039
-9.42129e-05
-6.95298e-06
-5.73057e-05
-0.000396402
-0.00114596
-0.00224282
-0.00365323
-0.00535787
-0.00733485
-0.00956058
-0.0120112
-0.0146624
-0.0174899
-0.0204693
-0.0235765
-0.0267876
-0.0300792
-0.0334283
-0.0368125
-0.0402097
-0.0435984
-0.0469573
-0.0502655
-0.0535025
-0.056648
-0.0596819
-0.0625845
-0.0653364
-0.0679183
-0.0703116
-0.0724983
-0.0744609
-0.0761828
-0.0776485
-0.0788436
-0.0797552
-0.0803721
-0.0806846
-0.0806855
-0.0803696
-0.0797341
-0.078779
-0.0775072
-0.0759242
-0.0740388
-0.0718629
-0.0694116
-0.0667029
-0.0637582
-0.0606017
-0.0572603
-0.0537636
-0.0501433
-0.0464332
-0.0426684
-0.0388852
-0.0351202
-0.0314102
-0.0277911
-0.0242976
-0.0209628
-0.0178167
-0.0148866
-0.0121958
-0.00976344
-0.0076036
-0.00572523
-0.00413162
-0.00282022
-0.00178255
-0.00100388
-0.000462979
-0.00013807
-1.36073e-05
-6.71449e-05
-0.00045839
-0.00131626
-0.00256254
-0.00415401
-0.00606539
-0.00826953
-0.0107384
-0.0134446
-0.0163608
-0.0194604
-0.022717
-0.0261046
-0.0295981
-0.0331728
-0.0368044
-0.0404693
-0.0441445
-0.0478073
-0.0514354
-0.055007
-0.0585003
-0.0618941
-0.0651672
-0.0682988
-0.0712684
-0.0740558
-0.0766414
-0.0790061
-0.0811314
-0.0829998
-0.0845948
-0.0859013
-0.0869054
-0.087595
-0.08796
-0.0879921
-0.0876856
-0.0870373
-0.0860466
-0.084716
-0.0830508
-0.0810597
-0.0787546
-0.0761507
-0.0732667
-0.0701244
-0.0667487
-0.0631678
-0.0594124
-0.055516
-0.051514
-0.0474437
-0.0433436
-0.0392529
-0.0352108
-0.0312563
-0.027427
-0.0237587
-0.0202848
-0.0170355
-0.014037
-0.0113114
-0.00887553
-0.00674114
-0.00491411
-0.00339443
-0.00217618
-0.00124704
-0.000588121
-0.000181758
-2.00335e-05
-7.65804e-05
-0.000518333
-0.00148164
-0.00287392
-0.00464284
-0.00675723
-0.00918475
-0.0118929
-0.0148504
-0.0180271
-0.0213937
-0.0249219
-0.0285841
-0.0323536
-0.0362044
-0.0401113
-0.0440496
-0.0479952
-0.0519247
-0.0558148
-0.0596427
-0.0633859
-0.0670221
-0.0705295
-0.0738861
-0.0770707
-0.0800621
-0.0828398
-0.0853836
-0.0876744
-0.0896936
-0.091424
-0.0928493
-0.0939549
-0.0947278
-0.095157
-0.0952335
-0.0949507
-0.0943046
-0.0932941
-0.0919208
-0.0901898
-0.0881093
-0.0856909
-0.0829499
-0.0799048
-0.0765779
-0.0729948
-0.0691844
-0.0651787
-0.0610123
-0.0567226
-0.0523487
-0.0479314
-0.0435125
-0.0391341
-0.0348379
-0.0306648
-0.0266539
-0.0228418
-0.0192621
-0.0159443
-0.0129138
-0.0101907
-0.0077897
-0.00571976
-0.0039837
-0.00257839
-0.00149411
-0.000714309
-0.000225276
-2.62581e-05
-8.56338e-05
-0.000576179
-0.00164171
-0.00317598
-0.00511789
-0.0074306
-0.0100766
-0.0130189
-0.0162225
-0.0196542
-0.0232822
-0.0270761
-0.0310066
-0.0350455
-0.0391658
-0.043341
-0.0475457
-0.051755
-0.0559445
-0.0600902
-0.0641687
-0.0681567
-0.0720311
-0.0757692
-0.0793486
-0.082747
-0.0859425
-0.0889138
-0.0916399
-0.0941008
-0.096277
-0.0981504
-0.0997039
-0.100922
-0.10179
-0.102297
-0.102433
-0.102189
-0.101562
-0.100549
-0.09915
-0.0973705
-0.0952175
-0.0927023
-0.0898395
-0.0866478
-0.0831493
-0.07937
-0.0753395
-0.0710906
-0.0666593
-0.0620845
-0.0574074
-0.0526711
-0.0479198
-0.0431986
-0.0385525
-0.0340257
-0.0296608
-0.0254981
-0.021575
-0.0179246
-0.0145761
-0.0115532
-0.008874
-0.00655079
-0.00458959
-0.00299026
-0.00174581
-0.00084199
-0.000268848
-3.23399e-05
-9.43199e-05
-0.000631892
-0.00179621
-0.00346797
-0.00557777
-0.00808326
-0.0109419
-0.0141124
-0.0175559
-0.0212363
-0.0251192
-0.0291722
-0.0333643
-0.0376659
-0.0420487
-0.0464856
-0.0509501
-0.0554166
-0.0598601
-0.064256
-0.0685801
-0.0728086
-0.0769179
-0.0808845
-0.0846855
-0.0882978
-0.091699
-0.0948669
-0.0977799
-0.100417
-0.102758
-0.104784
-0.106476
-0.107819
-0.108797
-0.109397
-0.109607
-0.10942
-0.108829
-0.107831
-0.106426
-0.104616
-0.102409
-0.0998137
-0.0968455
-0.0935219
-0.0898651
-0.085901
-0.0816596
-0.0771745
-0.0724828
-0.0676249
-0.062644
-0.0575854
-0.0524962
-0.0474244
-0.0424185
-0.0375263
-0.0327944
-0.028267
-0.0239857
-0.0199878
-0.0163066
-0.0129698
-0.0099994
-0.0074114
-0.00521526
-0.00341406
-0.00200365
-0.000972043
-0.000312843
-3.83567e-05
-0.000102647
-0.000685429
-0.00194487
-0.00374928
-0.00602129
-0.00871332
-0.011778
-0.0151698
-0.0188462
-0.0227682
-0.0268988
-0.0312037
-0.03565
-0.0402072
-0.0448456
-0.0495373
-0.054255
-0.0589725
-0.0636642
-0.068305
-0.0728704
-0.0773359
-0.0816774
-0.0858712
-0.0898936
-0.093721
-0.0973304
-0.100699
-0.103805
-0.106625
-0.10914
-0.111329
-0.113172
-0.114653
-0.115756
-0.116465
-0.116768
-0.116656
-0.116121
-0.115158
-0.113765
-0.111944
-0.109702
-0.107045
-0.103989
-0.100549
-0.0967478
-0.0926109
-0.0881683
-0.0834542
-0.0785067
-0.0733676
-0.0680818
-0.0626973
-0.0572637
-0.0518325
-0.0464557
-0.0411851
-0.0360716
-0.0311638
-0.0265079
-0.0221459
-0.0181156
-0.0144492
-0.0111731
-0.00830731
-0.00586508
-0.00385296
-0.00226972
-0.00110565
-0.000357734
-4.43987e-05
-0.000110615
-0.000736728
-0.00208744
-0.00401928
-0.00644734
-0.00931905
-0.0125825
-0.0161878
-0.0200894
-0.024245
-0.0286154
-0.0331641
-0.037857
-0.042662
-0.0475486
-0.0524879
-0.057452
-0.0624142
-0.0673485
-0.0722294
-0.0770318
-0.0817311
-0.0863028
-0.0907227
-0.0949668
-0.0990111
-0.102832
-0.106406
-0.109711
-0.112723
-0.115421
-0.117784
-0.119792
-0.121427
-0.122669
-0.123505
-0.12392
-0.123902
-0.123443
-0.122536
-0.121177
-0.119367
-0.117109
-0.114411
-0.111284
-0.107745
-0.103815
-0.0995185
-0.0948854
-0.0899503
-0.0847522
-0.0793341
-0.0737428
-0.0680286
-0.0622441
-0.0564441
-0.0506845
-0.0450216
-0.0395106
-0.0342053
-0.0291568
-0.0244125
-0.0200149
-0.0160016
-0.0124036
-0.00924537
-0.00654435
-0.00431079
-0.00254656
-0.00124421
-0.000404064
-5.05637e-05
-0.000118218
-0.000785709
-0.00222365
-0.00427737
-0.00685483
-0.00989877
-0.0133529
-0.0171635
-0.0212815
-0.025662
-0.0302634
-0.0350474
-0.0399784
-0.045023
-0.0501497
-0.0553291
-0.0605326
-0.065733
-0.070904
-0.0760198
-0.0810551
-0.085985
-0.0907848
-0.0954301
-0.0998964
-0.10416
-0.108196
-0.11198
-0.115491
-0.118703
-0.121595
-0.124145
-0.126331
-0.128134
-0.129534
-0.130515
-0.131061
-0.131159
-0.130797
-0.129967
-0.128665
-0.126887
-0.124636
-0.121917
-0.118741
-0.115122
-0.111079
-0.106638
-0.101826
-0.0966797
-0.0912374
-0.0855436
-0.0796469
-0.0735997
-0.0674579
-0.0612797
-0.0551253
-0.0490553
-0.0431302
-0.0374092
-0.0319489
-0.0268023
-0.0220178
-0.0176384
-0.0137004
-0.0102333
-0.00725901
-0.00479185
-0.00283696
-0.00138926
-0.000452421
-5.69537e-05
-0.000125444
-0.000832267
-0.00235315
-0.00452286
-0.00724263
-0.0104508
-0.0140869
-0.0180936
-0.0224187
-0.0270145
-0.0318375
-0.0368475
-0.0420072
-0.0472824
-0.0526408
-0.0580521
-0.0634873
-0.068919
-0.0743205
-0.0796658
-0.0849295
-0.0900866
-0.0951123
-0.099982
-0.104671
-0.109155
-0.11341
-0.11741
-0.121133
-0.124555
-0.127651
-0.1304
-0.132778
-0.134765
-0.136341
-0.137486
-0.138183
-0.138418
-0.138176
-0.137447
-0.136224
-0.134503
-0.132282
-0.129566
-0.126362
-0.122683
-0.118547
-0.113977
-0.109001
-0.103654
-0.0979762
-0.0920116
-0.0858109
-0.0794288
-0.0729241
-0.0663589
-0.0597975
-0.0533057
-0.0469494
-0.0407936
-0.034901
-0.0293309
-0.0241381
-0.0193716
-0.0150737
-0.0112793
-0.00801546
-0.00530076
-0.00314395
-0.00154245
-0.000503425
-6.36739e-05
-0.000132274
-0.000876278
-0.00247559
-0.00475503
-0.00760956
-0.0109733
-0.0147821
-0.0189751
-0.0234971
-0.0282981
-0.0333323
-0.0385579
-0.0439365
-0.0494327
-0.0550134
-0.0606477
-0.0663064
-0.0719617
-0.0775868
-0.0831556
-0.0886427
-0.0940231
-0.0992719
-0.104364
-0.109276
-0.113982
-0.118459
-0.12268
-0.126623
-0.130261
-0.133572
-0.136532
-0.139117
-0.141304
-0.143072
-0.144401
-0.14527
-0.145663
-0.145565
-0.144961
-0.143843
-0.142203
-0.140038
-0.137349
-0.134142
-0.130426
-0.126217
-0.121537
-0.116414
-0.110881
-0.104978
-0.0987493
-0.0922481
-0.0855308
-0.0786591
-0.071699
-0.0647194
-0.0577913
-0.0509865
-0.0443762
-0.0380299
-0.032014
-0.0263899
-0.0212137
-0.0165341
-0.0123922
-0.00882044
-0.0058424
-0.00347071
-0.00170551
-0.000557719
-7.08307e-05
-0.000138686
-0.000917596
-0.00259055
-0.0049731
-0.00795434
-0.0114646
-0.0154362
-0.0198049
-0.0245129
-0.0295079
-0.0347422
-0.0401725
-0.0457591
-0.0514657
-0.0572585
-0.0631062
-0.0689793
-0.0748498
-0.0806908
-0.0864763
-0.092181
-0.0977799
-0.103248
-0.108561
-0.113695
-0.118624
-0.123324
-0.127771
-0.131938
-0.135802
-0.139337
-0.142519
-0.145324
-0.147727
-0.149705
-0.151236
-0.152298
-0.152873
-0.152941
-0.152489
-0.151501
-0.149969
-0.147887
-0.145252
-0.142066
-0.138338
-0.134081
-0.129314
-0.124063
-0.11836
-0.112245
-0.105763
-0.0989672
-0.0919167
-0.0846761
-0.0773151
-0.0699072
-0.0625291
-0.0552587
-0.0481742
-0.0413524
-0.0348671
-0.0287876
-0.0231773
-0.0180924
-0.0135807
-0.00968086
-0.00642177
-0.00382048
-0.0018802
-0.000615957
-7.85319e-05
-0.000144656
-0.000956063
-0.00269761
-0.00517625
-0.00827569
-0.0119228
-0.0160464
-0.0205796
-0.025462
-0.0306391
-0.0360616
-0.0416846
-0.0474675
-0.053373
-0.059367
-0.0654175
-0.0714949
-0.0775711
-0.0836194
-0.0896138
-0.0955291
-0.101341
-0.107024
-0.112554
-0.117908
-0.12306
-0.127985
-0.132659
-0.137056
-0.141151
-0.144919
-0.148334
-0.151371
-0.154004
-0.156209
-0.157961
-0.159237
-0.160016
-0.160276
-0.159999
-0.159169
-0.157773
-0.155801
-0.153249
-0.150114
-0.146402
-0.142123
-0.137294
-0.131937
-0.126085
-0.119774
-0.113052
-0.105971
-0.098593
-0.0909842
-0.0832184
-0.0753742
-0.0675337
-0.0597817
-0.0522036
-0.0448841
-0.0379054
-0.0313451
-0.0252751
-0.0197596
-0.0148539
-0.0106037
-0.00704395
-0.00419658
-0.00206831
-0.000678804
-8.68858e-05
-0.000150154
-0.000991511
-0.00279631
-0.00536363
-0.00857225
-0.0123459
-0.0166104
-0.0212962
-0.0263405
-0.0316871
-0.0372849
-0.0430878
-0.0490543
-0.0551464
-0.0613293
-0.0675709
-0.0738415
-0.0801129
-0.0863586
-0.0925528
-0.0986706
-0.104688
-0.11058
-0.116323
-0.121892
-0.127265
-0.132415
-0.137317
-0.141947
-0.146279
-0.150287
-0.153944
-0.157224
-0.160101
-0.162548
-0.164539
-0.166049
-0.167053
-0.167528
-0.167453
-0.166808
-0.165577
-0.163746
-0.161306
-0.158253
-0.154588
-0.150316
-0.145453
-0.140017
-0.134039
-0.127555
-0.12061
-0.113258
-0.10556
-0.0975872
-0.0894161
-0.08113
-0.0728169
-0.0645687
-0.0564785
-0.0486396
-0.0411431
-0.034076
-0.0275193
-0.0215462
-0.0162207
-0.011596
-0.00771404
-0.00460233
-0.00227165
-0.000746927
-9.60015e-05
-0.000155152
-0.00102376
-0.00288618
-0.00553436
-0.00884268
-0.012732
-0.0171255
-0.0219512
-0.0271444
-0.0326469
-0.0384063
-0.0443755
-0.050512
-0.0567771
-0.0631357
-0.0695557
-0.076007
-0.0824618
-0.0888937
-0.0952772
-0.101588
-0.107802
-0.113895
-0.119844
-0.125625
-0.131213
-0.136585
-0.141716
-0.14658
-0.151152
-0.155404
-0.15931
-0.162843
-0.165975
-0.168678
-0.170925
-0.172687
-0.173938
-0.174652
-0.174804
-0.174371
-0.173334
-0.171675
-0.16938
-0.166442
-0.162856
-0.158625
-0.153759
-0.148276
-0.1422
-0.135568
-0.128421
-0.120815
-0.112812
-0.104483
-0.0959102
-0.08718
-0.078387
-0.0696301
-0.0610109
-0.0526316
-0.0445931
-0.0369927
-0.0299214
-0.0234627
-0.0176897
-0.0126647
-0.00843711
-0.00504107
-0.00249203
-0.000820998
-0.000105989
-0.00015962
-0.00105265
-0.00296675
-0.00568759
-0.00908565
-0.0130793
-0.0175893
-0.0225417
-0.0278697
-0.0335138
-0.0394203
-0.0455411
-0.0518329
-0.0582565
-0.0647766
-0.0713608
-0.0779792
-0.0846041
-0.0912094
-0.0977701
-0.104262
-0.110662
-0.116947
-0.123093
-0.129078
-0.134877
-0.140467
-0.145823
-0.150919
-0.155731
-0.16023
-0.16439
-0.168183
-0.171579
-0.17455
-0.177067
-0.179098
-0.180616
-0.181591
-0.181995
-0.181803
-0.180989
-0.179533
-0.177417
-0.174628
-0.171157
-0.167002
-0.16217
-0.156673
-0.150533
-0.143782
-0.136462
-0.128626
-0.120335
-0.111664
-0.102697
-0.0935244
-0.0842478
-0.0749728
-0.0658097
-0.0568706
-0.0482668
-0.0401066
-0.0324925
-0.0255187
-0.0192694
-0.0138164
-0.00921816
-0.0055161
-0.00273124
-0.000901691
-0.000116958
-0.000163528
-0.001078
-0.00303758
-0.0058225
-0.00929988
-0.0133859
-0.0179994
-0.0230644
-0.0285128
-0.0342834
-0.0403216
-0.0465784
-0.0530097
-0.0595762
-0.0662422
-0.0729752
-0.0797455
-0.0865258
-0.0932901
-0.100014
-0.106674
-0.113248
-0.119713
-0.126045
-0.132224
-0.138225
-0.144025
-0.1496
-0.154925
-0.159974
-0.164721
-0.169137
-0.173193
-0.176861
-0.180109
-0.182907
-0.185223
-0.187025
-0.188281
-0.188962
-0.189036
-0.188475
-0.187255
-0.185352
-0.182748
-0.17943
-0.175391
-0.170632
-0.16516
-0.158993
-0.15216
-0.144699
-0.13666
-0.128107
-0.119113
-0.109765
-0.100157
-0.0903978
-0.0805992
-0.0708806
-0.0613644
-0.0521733
-0.0434276
-0.0352421
-0.0277235
-0.0209677
-0.0150577
-0.010062
-0.00603065
-0.00299109
-0.000989677
-0.000129021
-0.00016685
-0.00109965
-0.00309827
-0.00593835
-0.00948422
-0.0136503
-0.0183536
-0.0235167
-0.02907
-0.0349513
-0.0411049
-0.0474811
-0.0540354
-0.060728
-0.067523
-0.0743881
-0.0812938
-0.0882129
-0.0951202
-0.101992
-0.108805
-0.115537
-0.122168
-0.128673
-0.135033
-0.141225
-0.147226
-0.153011
-0.158558
-0.163839
-0.168828
-0.173498
-0.177819
-0.181761
-0.185293
-0.188381
-0.190993
-0.193095
-0.194652
-0.19563
-0.195996
-0.195717
-0.194764
-0.19311
-0.190729
-0.187605
-0.183723
-0.179079
-0.173675
-0.167525
-0.16065
-0.153086
-0.144882
-0.136096
-0.126805
-0.117095
-0.107066
-0.09683
-0.0865067
-0.0762249
-0.0661176
-0.0563195
-0.0469638
-0.0381789
-0.0300853
-0.022792
-0.0163947
-0.0109735
-0.00658791
-0.00327335
-0.00108563
-0.000142291
-0.00016956
-0.00111748
-0.00314845
-0.00603447
-0.00963764
-0.0138709
-0.0186501
-0.0238961
-0.0295384
-0.0355138
-0.0417658
-0.0482439
-0.0549034
-0.0617041
-0.0686101
-0.0755891
-0.0826119
-0.0896518
-0.0966841
-0.103685
-0.110634
-0.117508
-0.124287
-0.13095
-0.137477
-0.143844
-0.150032
-0.156016
-0.161773
-0.167277
-0.172502
-0.177421
-0.182004
-0.18622
-0.190037
-0.193421
-0.196338
-0.198751
-0.200624
-0.201919
-0.202601
-0.202632
-0.201977
-0.200605
-0.198487
-0.195597
-0.191917
-0.187434
-0.182146
-0.176059
-0.16919
-0.161569
-0.15324
-0.144261
-0.134706
-0.124661
-0.114231
-0.10353
-0.0926872
-0.0818395
-0.0711309
-0.0607089
-0.0507208
-0.0413098
-0.0326112
-0.0247491
-0.0178333
-0.0119569
-0.00719096
-0.00357974
-0.00119021
-0.000156883
-0.000171639
-0.00113136
-0.00318782
-0.00611033
-0.00975932
-0.0140467
-0.018887
-0.0242005
-0.0299153
-0.0359675
-0.0423
-0.0488618
-0.0556077
-0.0624974
-0.069495
-0.0765684
-0.0836887
-0.0908295
-0.0979668
-0.105078
-0.112142
-0.119139
-0.126047
-0.132849
-0.139523
-0.146049
-0.152407
-0.158573
-0.164526
-0.17024
-0.17569
-0.180849
-0.185686
-0.190171
-0.194272
-0.197953
-0.201179
-0.203912
-0.206114
-0.207743
-0.20876
-0.209126
-0.2088
-0.207745
-0.205927
-0.203314
-0.199881
-0.19561
-0.190488
-0.184517
-0.177706
-0.170079
-0.161675
-0.152549
-0.142769
-0.132426
-0.121621
-0.110477
-0.0991258
-0.0877153
-0.0764004
-0.0653419
-0.0547018
-0.0446395
-0.0353069
-0.0268447
-0.0193786
-0.0130166
-0.00784275
-0.00391197
-0.00130409
-0.000172914
-0.000173072
-0.00114121
-0.0032162
-0.00616556
-0.00984868
-0.0141767
-0.0190635
-0.0244282
-0.0301986
-0.0363099
-0.0427044
-0.0493307
-0.0561434
-0.0631019
-0.0701705
-0.0773173
-0.0845136
-0.0917337
-0.0989542
-0.106153
-0.113311
-0.120407
-0.127424
-0.134342
-0.141142
-0.147806
-0.154313
-0.160643
-0.166773
-0.17268
-0.178339
-0.183723
-0.188803
-0.193549
-0.197926
-0.201902
-0.205437
-0.208494
-0.211032
-0.213008
-0.214379
-0.215101
-0.215131
-0.214426
-0.212946
-0.210653
-0.207514
-0.203505
-0.198605
-0.192806
-0.186111
-0.178536
-0.170115
-0.160894
-0.150941
-0.140341
-0.1292
-0.117639
-0.1058
-0.0938376
-0.0819175
-0.0702146
-0.0589068
-0.0481709
-0.0381768
-0.0290838
-0.0210353
-0.0141564
-0.0085461
-0.00427169
-0.00142792
-0.000190505
-0.00017385
-0.00114701
-0.00323347
-0.00619999
-0.00990545
-0.0142606
-0.0191787
-0.0245786
-0.0303871
-0.0365391
-0.0429765
-0.0496475
-0.0565063
-0.0635125
-0.0706303
-0.077828
-0.0850774
-0.0923535
-0.0996333
-0.106896
-0.114122
-0.121294
-0.128393
-0.135403
-0.142305
-0.149082
-0.155715
-0.162184
-0.16847
-0.174548
-0.180396
-0.185987
-0.191293
-0.196285
-0.200928
-0.205189
-0.209029
-0.212409
-0.215286
-0.217617
-0.219355
-0.220452
-0.220863
-0.220538
-0.219432
-0.217501
-0.214704
-0.211009
-0.206387
-0.200822
-0.194306
-0.186848
-0.178472
-0.16922
-0.159151
-0.148349
-0.136917
-0.124979
-0.112681
-0.100184
-0.0876673
-0.0753185
-0.0633324
-0.0519039
-0.0412233
-0.0314698
-0.0228073
-0.0153798
-0.00930362
-0.00466048
-0.00156236
-0.000209775
-0.000173973
-0.00114875
-0.00323969
-0.00621369
-0.00992969
-0.0142984
-0.0192328
-0.0246512
-0.0304803
-0.0366545
-0.0431151
-0.0498102
-0.0566939
-0.0637256
-0.0708695
-0.0780945
-0.0853726
-0.0926794
-0.0999928
-0.107293
-0.114561
-0.121781
-0.128935
-0.136009
-0.142984
-0.149846
-0.156577
-0.163159
-0.169572
-0.175796
-0.181808
-0.187583
-0.193094
-0.198312
-0.203205
-0.207737
-0.211872
-0.215568
-0.218784
-0.221472
-0.223585
-0.225072
-0.225883
-0.225965
-0.225267
-0.223738
-0.221331
-0.218003
-0.213718
-0.20845
-0.202181
-0.194911
-0.186652
-0.177437
-0.167321
-0.15638
-0.144713
-0.132447
-0.119728
-0.106726
-0.0936291
-0.0806402
-0.0679708
-0.0558357
-0.0444465
-0.034005
-0.0246975
-0.0166898
-0.0101177
-0.00507984
-0.00170804
-0.000230851
-0.00017345
-0.0011465
-0.00323502
-0.00620697
-0.0099219
-0.0142907
-0.0192263
-0.024647
-0.030479
-0.0366564
-0.0431203
-0.0498185
-0.0567049
-0.063739
-0.0708852
-0.0781123
-0.0853933
-0.092704
-0.100023
-0.107332
-0.114614
-0.121851
-0.12903
-0.136136
-0.143154
-0.15007
-0.156867
-0.16353
-0.170041
-0.17638
-0.182526
-0.188457
-0.194146
-0.199566
-0.204685
-0.20947
-0.213883
-0.217884
-0.22143
-0.224473
-0.226964
-0.22885
-0.230078
-0.23059
-0.230329
-0.22924
-0.227267
-0.224359
-0.220471
-0.215566
-0.209615
-0.202607
-0.194543
-0.185445
-0.175358
-0.164351
-0.152518
-0.139982
-0.126893
-0.113424
-0.0997746
-0.0861601
-0.0728099
-0.0599597
-0.0478443
-0.03669
-0.0267081
-0.0180888
-0.0109905
-0.00553119
-0.00186558
-0.000253857
-0.0001723
-0.00114039
-0.00321982
-0.00618049
-0.00988304
-0.0142388
-0.0191609
-0.0245676
-0.0303849
-0.0365466
-0.0429936
-0.0496735
-0.05654
-0.0635527
-0.070676
-0.0778793
-0.0851357
-0.0924221
-0.0997178
-0.107005
-0.114268
-0.121491
-0.128662
-0.135767
-0.142793
-0.149727
-0.156556
-0.163264
-0.169837
-0.176257
-0.182504
-0.188557
-0.194393
-0.199985
-0.205303
-0.210315
-0.214985
-0.219272
-0.223134
-0.226523
-0.229389
-0.231678
-0.233331
-0.23429
-0.234493
-0.233877
-0.23238
-0.229943
-0.226511
-0.222036
-0.216477
-0.20981
-0.202025
-0.19313
-0.183158
-0.172169
-0.160248
-0.147515
-0.134117
-0.120233
-0.106068
-0.0918525
-0.0778326
-0.0642659
-0.0514116
-0.0395232
-0.0288396
-0.0195785
-0.0119237
-0.00601579
-0.00203557
-0.000278923
-0.000170554
-0.00113062
-0.00319462
-0.00613524
-0.00981461
-0.0141447
-0.0190391
-0.0244158
-0.030201
-0.0363283
-0.0427382
-0.0493782
-0.0562018
-0.0631685
-0.0702432
-0.0773954
-0.0845988
-0.0918308
-0.099072
-0.106305
-0.113516
-0.120691
-0.127817
-0.134885
-0.141881
-0.148796
-0.155618
-0.162333
-0.168929
-0.17539
-0.181699
-0.187838
-0.193783
-0.199512
-0.204996
-0.210204
-0.215102
-0.219652
-0.22381
-0.22753
-0.230761
-0.233448
-0.235531
-0.236948
-0.237634
-0.23752
-0.236537
-0.234619
-0.2317
-0.22772
-0.222629
-0.216386
-0.208967
-0.200367
-0.190606
-0.179728
-0.16781
-0.154963
-0.141331
-0.127095
-0.112465
-0.0976844
-0.083016
-0.0687394
-0.0551404
-0.0425013
-0.0310917
-0.0211598
-0.0129187
-0.00653477
-0.00221858
-0.000306178
-0.000168256
-0.00111745
-0.00316017
-0.00607259
-0.00971868
-0.0140112
-0.0188642
-0.0241959
-0.0299322
-0.0360065
-0.0423592
-0.0489375
-0.0556949
-0.0625909
-0.0695904
-0.0766634
-0.0837841
-0.0909306
-0.0980844
-0.10523
-0.112353
-0.119442
-0.126486
-0.133477
-0.140404
-0.147259
-0.154031
-0.160711
-0.167288
-0.173748
-0.180077
-0.186258
-0.192272
-0.198097
-0.203708
-0.209076
-0.214169
-0.218949
-0.223377
-0.227406
-0.230985
-0.23406
-0.236569
-0.238449
-0.239631
-0.240041
-0.239605
-0.238248
-0.235896
-0.232476
-0.227926
-0.22219
-0.21523
-0.207024
-0.197574
-0.18691
-0.175097
-0.162233
-0.148456
-0.133944
-0.118914
-0.103616
-0.088331
-0.073361
-0.0590189
-0.0456182
-0.033462
-0.0228329
-0.0139766
-0.00708909
-0.00241512
-0.000335752
-0.000165463
-0.00110126
-0.00311748
-0.00599435
-0.00959801
-0.0138421
-0.018641
-0.0239132
-0.0295845
-0.035588
-0.0418638
-0.0483589
-0.0550267
-0.0618266
-0.0687239
-0.0756888
-0.0826962
-0.0897248
-0.0967572
-0.103779
-0.110777
-0.117742
-0.124664
-0.131537
-0.138352
-0.145102
-0.151781
-0.158381
-0.164892
-0.171304
-0.177606
-0.183784
-0.189821
-0.195697
-0.201392
-0.206878
-0.212125
-0.2171
-0.221764
-0.226073
-0.229976
-0.233421
-0.236346
-0.238685
-0.240368
-0.241317
-0.241454
-0.240695
-0.238957
-0.236158
-0.232221
-0.227077
-0.220668
-0.212957
-0.203926
-0.193589
-0.181992
-0.169219
-0.155399
-0.140704
-0.125351
-0.109598
-0.093742
-0.078106
-0.0630315
-0.0488652
-0.0359467
-0.0245966
-0.0150976
-0.00767949
-0.00262569
-0.000367777
-0.00016225
-0.00108251
-0.00306778
-0.00590283
-0.00945609
-0.013642
-0.0183755
-0.023575
-0.0291661
-0.0350816
-0.0412614
-0.0476521
-0.0542069
-0.0608855
-0.0676531
-0.0744804
-0.0813429
-0.0882203
-0.095096
-0.101957
-0.108791
-0.115591
-0.12235
-0.12906
-0.135719
-0.142319
-0.148858
-0.155329
-0.161726
-0.168041
-0.174267
-0.180391
-0.186401
-0.19228
-0.198009
-0.203566
-0.208923
-0.214051
-0.218911
-0.223463
-0.227661
-0.23145
-0.234771
-0.237558
-0.239739
-0.241235
-0.241961
-0.241829
-0.240748
-0.238624
-0.235368
-0.230895
-0.225131
-0.218019
-0.209521
-0.199629
-0.188369
-0.175808
-0.16206
-0.147288
-0.131705
-0.115575
-0.0992064
-0.0829442
-0.0671584
-0.0522306
-0.0385399
-0.0264489
-0.0162817
-0.00830648
-0.0028507
-0.000402382
-0.000158709
-0.00106177
-0.00301262
-0.00580085
-0.00929721
-0.0134169
-0.018075
-0.0231899
-0.0286869
-0.0344984
-0.0405638
-0.0468294
-0.0532483
-0.0597801
-0.0663903
-0.0730501
-0.0797356
-0.0864274
-0.0931101
-0.0997715
-0.106402
-0.112996
-0.119546
-0.126051
-0.132505
-0.138908
-0.145257
-0.151549
-0.15778
-0.163947
-0.170043
-0.176061
-0.181991
-0.18782
-0.193532
-0.199109
-0.204526