/*--------------------------------*- C++ -*----------------------------------*\
  =========                 |
  \\      /  F ield         | OpenFOAM: The Open Source CFD Toolbox
   \\    /   O peration     | Website:  https://openfoam.org
    \\  /    A nd           | Version:  dev
     \\/     M anipulation  |
\*---------------------------------------------------------------------------*/
FoamFile
{
    format      ascii;
    class       volScalarField;
    location    "24.75";
    object      p;
}
// * * * * * * * * * * * * * * * * * * * * * * * * * * * * * * * * * * * * * //

dimensions      [0 2 -2 0 0 0 0];

internalField   nonuniform List<scalar> 
5184
(
2.3022e-06
-8.65325e-06
-9.43535e-05
-0.000247121
-0.000446393
-0.000674902
-0.000918413
-0.00116498
-0.00140544
-0.00163265
-0.00184121
-0.00202709
-0.00218737
-0.00231993
-0.00242331
-0.00249651
-0.00253884
-0.00254988
-0.00252935
-0.00247707
-0.00239298
-0.00227704
-0.00212931
-0.00194993
-0.00173914
-0.00149732
-0.001225
-0.000922945
-0.000592139
-0.000233857
0.000150316
0.000558454
0.000988267
0.00143708
0.00190184
0.0023791
0.00286504
0.00335551
0.00384602
0.00433183
0.00480802
0.0052695
0.00571116
0.00612791
0.00651482
0.00686716
0.00718057
0.00745113
0.00767546
0.00785084
0.00797525
0.0080475
0.00806722
0.00803499
0.0079523
0.0078216
0.00764627
0.00743063
0.00717988
0.00690007
0.00659808
0.0062815
0.00595864
0.00563844
0.00533046
0.00504478
0.0047919
0.00458244
0.00442637
0.00433212
0.00430518
0.00433244
1.64462e-05
4.07288e-06
-7.04446e-05
-0.000198115
-0.000363254
-0.000553388
-0.000757594
-0.000966278
-0.00117151
-0.00136691
-0.00154743
-0.00170916
-0.00184913
-0.00196512
-0.00205549
-0.00211903
-0.0021549
-0.00216248
-0.00214136
-0.00209123
-0.00201194
-0.00190339
-0.00176559
-0.00159864
-0.00140279
-0.00117838
-0.000925946
-0.000646227
-0.000340177
-9.01618e-06
0.000345749
0.000722302
0.00111849
0.00153184
0.00195949
0.00239827
0.00284466
0.00329484
0.00374473
0.00419
0.00462615
0.00504859
0.00545267
0.00583382
0.00618757
0.00650971
0.00679634
0.00704397
0.00724962
0.00741091
0.00752611
0.00759424
0.0076151
0.0075893
0.00751833
0.00740451
0.00725102
0.00706187
0.00684184
0.00659651
0.00633209
0.00605548
0.00577411
0.00549589
0.00522914
0.00498241
0.00476438
0.00458343
0.00444685
0.00436058
0.00433202
0.00435959
0.000103236
7.85208e-05
3.23437e-06
-0.000114223
-0.000261829
-0.00042995
-0.000609881
-0.000793795
-0.000974991
-0.00114791
-0.00130805
-0.00145183
-0.00157643
-0.00167969
-0.00175996
-0.001816
-0.00184689
-0.00185193
-0.00183063
-0.00178263
-0.00170769
-0.00160567
-0.00147653
-0.00132033
-0.00113726
-0.00092765
-0.00069199
-0.000430961
-0.000145461
0.000163367
0.000494112
0.000845069
0.00121423
0.00159927
0.00199754
0.00240606
0.00282158
0.00324054
0.00365912
0.00407333
0.00447899
0.00487184
0.00524758
0.00560197
0.00593091
0.0062305
0.00649716
0.00672769
0.00691938
0.00707007
0.00717822
0.00724298
0.00726424
0.00724264
0.00717962
0.00707742
0.00693904
0.00676825
0.00656955
0.00634807
0.00610959
0.0058604
0.00560726
0.00535727
0.00511782
0.00489634
0.00470031
0.00453679
0.00441182
0.00433062
0.00430283
0.00433343
0.000258236
0.000206834
0.000119085
2.13262e-07
-0.000142124
-0.000300151
-0.000466746
-0.000635542
-0.000801002
-0.000958439
-0.00110399
-0.0012345
-0.00134749
-0.00144099
-0.00151346
-0.00156373
-0.0015909
-0.00159427
-0.00157331
-0.00152765
-0.00145698
-0.00136114
-0.00124002
-0.00109365
-0.000922152
-0.000725798
-0.000505012
-0.0002604
7.22392e-06
0.000296813
0.000607066
0.000936403
0.00128295
0.00164455
0.00201871
0.00240265
0.00279331
0.00318733
0.00358116
0.00397099
0.0043529
0.00472287
0.00507685
0.00541082
0.00572091
0.00600344
0.00625503
0.00647267
0.0066538
0.0067964
0.00689903
0.00696093
0.00698201
0.00696293
0.00690507
0.00681059
0.00668234
0.00652392
0.00633956
0.0061341
0.00591292
0.00568184
0.00544709
0.00521516
0.00499269
0.00478636
0.00460277
0.0044482
0.00432808
0.00424746
0.00421642
0.00424164
0.000462899
0.000374318
0.000265785
0.00013817
-6.08159e-06
-0.000160811
-0.000320252
-0.000479401
-0.000633852
-0.000779809
-0.000914091
-0.00103409
-0.00113769
-0.00122322
-0.00128933
-0.00133497
-0.00135933
-0.00136175
-0.00134171
-0.00129882
-0.00123276
-0.0011433
-0.00103031
-0.000893743
-0.00073366
-0.000550252
-0.00034386
-0.000114995
0.000135631
0.000407088
0.000698197
0.00100752
0.00133332
0.0016736
0.00202604
0.00238803
0.00275668
0.00312885
0.00350114
0.00386996
0.00423157
0.00458213
0.00491777
0.00523466
0.00552908
0.0057975
0.00603668
0.00624372
0.00641616
0.00655206
0.00665005
0.00670939
0.00673
0.00671251
0.00665826
0.00656932
0.00644842
0.00629897
0.00612499
0.00593106
0.00572222
0.00550392
0.0052819
0.00506212
0.00485063
0.00465345
0.00447648
0.00432536
0.00420502
0.00412026
0.00407985
0.00408965
0.000701074
0.000569099
0.000434011
0.000292064
0.000140248
-1.66711e-05
-0.000174091
-0.00032827
-0.000475873
-0.00061398
-0.000740117
-0.000852238
-0.000948672
-0.00102807
-0.00108934
-0.00113163
-0.00115421
-0.00115652
-0.00113807
-0.00109848
-0.00103741
-0.000954612
-0.000849882
-0.000723113
-0.00057429
-0.000403514
-0.000211023
2.77976e-06
0.000237305
0.000491748
0.00076507
0.00105597
0.00136288
0.00168394
0.002017
0.00235962
0.00270906
0.00306235
0.00341624
0.0037673
0.00411194
0.00444645
0.00476709
0.00507014
0.00535199
0.00560919
0.00583857
0.00603729
0.00620295
0.00633362
0.00642794
0.00648517
0.0065052
0.00648862
0.00643671
0.00635144
0.00623544
0.00609195
0.00592483
0.0057384
0.00553745
0.00532709
0.00511267
0.00489971
0.00469376
0.0045003
0.00432466
0.0041719
0.00404657
0.00395307
0.00389787
0.00388476
0.000958979
0.000780305
0.000614864
0.000454429
0.000290631
0.000127075
-3.26217e-05
-0.000185856
-0.000330297
-0.00046386
-0.000584772
-0.000691563
-0.000783024
-0.000858175
-0.000916214
-0.000956481
-0.000978419
-0.000981553
-0.000965467
-0.000929786
-0.000874176
-0.000798343
-0.000702041
-0.000585087
-0.000447379
-0.000288915
-0.000109821
8.96247e-05
0.000308966
0.000547539
0.000804451
0.00107856
0.00136844
0.00167239
0.00198842
0.00231423
0.00264724
0.0029846
0.0033232
0.00365974
0.00399071
0.00431251
0.00462147
0.00491392
0.00518631
0.00543521
0.00565746
0.00585024
0.00601112
0.00613815
0.00622995
0.0062857
0.00630528
0.00628918
0.00623862
0.00615547
0.00604224
0.00590206
0.00573861
0.00555604
0.0053589
0.00515204
0.00494051
0.00472947
0.00452406
0.00432933
0.00415013
0.00399105
0.00385631
0.00374995
0.00367564
0.0036346
0.00122451
0.000997801
0.000799753
0.000617978
0.000438998
0.00026545
0.000100122
-5.54124e-05
-0.000199745
-0.000331582
-0.000449828
-0.000553582
-0.000642109
-0.000714806
-0.000771175
-0.000810786
-0.000833253
-0.000838216
-0.00082533
-0.000794253
-0.000744647
-0.000676187
-0.000588572
-0.000481541
-0.000354895
-0.000208522
-4.24217e-05
0.000143263
0.000348219
0.000571936
0.000813676
0.00107245
0.00134699
0.00163576
0.00193691
0.00224827
0.00256741
0.00289159
0.0032178
0.00354282
0.00386323
0.00417545
0.00447587
0.00476082
0.00502673
0.00527016
0.00548793
0.00567713
0.00583529
0.00596039
0.00605095
0.0061061
0.0061256
0.00610988
0.00606004
0.00597785
0.00586573
0.00572668
0.00556425
0.00538243
0.00518561
0.00497841
0.00476566
0.00455223
0.00434296
0.00414257
0.00395552
0.00378599
0.00363799
0.00351526
0.00341849
0.0033463
0.00148741
0.00121245
0.000980625
0.00077568
0.000579297
0.000393309
0.000219798
5.94077e-05
-8.73037e-05
-0.00021978
-0.000337571
-0.00044033
-0.000527784
-0.000599715
-0.000655929
-0.000696235
-0.000720426
-0.000728268
-0.000719489
-0.000693784
-0.000650814
-0.000590222
-0.000511648
-0.000414746
-0.000299214
-0.000164818
-1.1425e-05
0.000160971
0.000352211
0.000561944
0.000789595
0.00103434
0.00129507
0.0015704
0.00185862
0.0021577
0.00246533
0.00277886
0.00309538
0.00341171
0.00372446
0.0040301
0.00432497
0.00460539
0.00486775
0.00510852
0.00532442
0.00551248
0.00567008
0.00579509
0.00588592
0.00594157
0.00596167
0.00594654
0.00589717
0.00581521
0.00570298
0.00556336
0.0053998
0.00521616
0.00501668
0.00480585
0.00458831
0.00436874
0.00415176
0.00394184
0.00374315
0.00355959
0.00339501
0.00325296
0.00313123
0.0030259
0.0017387
0.00141599
0.00114999
0.000920812
0.000705562
0.000505402
0.000321806
0.000154575
3.48159e-06
-0.000131604
-0.000250842
-0.000354413
-0.000442493
-0.000515236
-0.000572752
-0.000615087
-0.000642212
-0.000654017
-0.000650309
-0.000630815
-0.000595196
-0.000543057
-0.000473972
-0.000387507
-0.000283248
-0.00016083
-1.99756e-05
0.000139477
0.000317534
0.000514013
0.000728509
0.000960364
0.00120864
0.0014721
0.00174917
0.00203797
0.00233627
0.00264152
0.00295086
0.00326117
0.00356906
0.00387098
0.00416323
0.00444206
0.00470375
0.00494468
0.00516143
0.00535086
0.00551021
0.00563719
0.00573002
0.00578755
0.00580925
0.00579529
0.00574652
0.00566448
0.00555135
0.00540993
0.00524354
0.00505597
0.00485135
0.00463408
0.00440867
0.00417968
0.0039516
0.00372873
0.00351507
0.00331431
0.0031303
0.00296646
0.00281786
0.00267816
0.00197047
0.00160094
0.00130089
0.00104697
0.00081198
0.000596483
0.000401429
0.000225845
6.87796e-05
-7.05415e-05
-0.000192848
-0.000298822
-0.000389068
-0.000464097
-0.000524308
-0.000569979
-0.000601252
-0.000618138
-0.000620514
-0.00060814
-0.000580666
-0.000537656
-0.000478612
-0.000403002
-0.000310291
-0.000199977
-7.16255e-05
7.50896e-05
0.000240349
0.000424147
0.000626258
0.0008462
0.0010832
0.00133618
0.00160371
0.00188403
0.00217501
0.00247418
0.00277874
0.00308556
0.00339127
0.00369226
0.00398475
0.0042649
0.00452886
0.00477283
0.00499322
0.00518671
0.00535031
0.00548153
0.00557838
0.00563948
0.00566413
0.0056523
0.00560467
0.00552265
0.00540828
0.00526426
0.00509382
0.00490067
0.00468888
0.00446278
0.00422685
0.00398559
0.00374342
0.00350459
0.00327301
0.00305226
0.00284629
0.00265858
0.00248156
0.00230668
0.00217555
0.00176041
0.00142679
0.00114807
0.000892905
0.000661357
0.000453898
0.000268841
0.000104558
-4.0327e-05
-0.00016708
-0.000276855
-0.000370661
-0.000449345
-0.000513585
-0.000563872
-0.00060051
-0.000623621
-0.000633146
-0.000628867
-0.000610416
-0.000577307
-0.000528964
-0.000464746
-0.000383989
-0.000286043
-0.000170307
-3.62815e-05
0.000116399
0.000287918
0.000478236
0.000687053
0.000913773
0.00115747
0.00141688
0.00169035
0.00197585
0.00227099
0.00257299
0.00287876
0.00318486
0.00348764
0.00378322
0.00406762
0.00433681
0.0045868
0.00481379
0.00501419
0.00518478
0.00532279
0.00542597
0.00549271
0.00552202
0.00551368
0.00546817
0.0053867
0.00527119
0.00512423
0.00494895
0.00474901
0.00452845
0.00429159
0.00404289
0.00378688
0.003528
0.00327052
0.00301837
0.00277514
0.00254497
0.00233151
0.00212474
0.001914
0.00234741
0.00188804
0.00152159
0.0012183
0.000942874
0.000694907
0.000474436
0.000279101
0.00010664
-4.48888e-05
-0.000177257
-0.000292062
-0.000390693
-0.000474314
-0.000543858
-0.000600017
-0.000643242
-0.000673751
-0.00069154
-0.0006964
-0.000687938
-0.000665608
-0.000628742
-0.000576584
-0.00050833
-0.000423169
-0.000320328
-0.000199117
-5.89789e-05
0.000100469
0.000279386
0.000477664
0.000694892
0.000930316
0.00118281
0.00145086
0.00173255
0.00202553
0.00232708
0.00263409
0.0029431
0.00325035
0.00355185
0.00384345
0.00412092
0.00438004
0.00461674
0.00482714
0.00500772
0.00515538
0.00526758
0.00534237
0.0053785
0.00537545
0.00533347
0.00525356
0.00513748
0.00498769
0.00480724
0.00459975
0.00436924
0.00412005
0.00385671
0.00358383
0.00330593
0.0030274
0.00275229
0.00248429
0.00222784
0.0019869
0.0017491
0.00150178
0.00247998
0.00197786
0.0015795
0.00125211
0.000956602
0.00069212
0.000458295
0.00025213
7.07615e-05
-8.82882e-05
-0.000227268
-0.000348192
-0.000452805
-0.000542566
-0.000618645
-0.000681914
-0.000732955
-0.000772069
-0.000799292
-0.000814412
-0.000817
-0.000806438
-0.000781954
-0.000742667
-0.000687621
-0.000615835
-0.00052635
-0.000418276
-0.000290849
-0.000143475
2.42131e-05
0.000212315
0.000420614
0.000648538
0.000895123
0.00115899
0.00143832
0.00173086
0.00203391
0.00234435
0.00265867
0.00297302
0.00328327
0.00358508
0.00387399
0.00414551
0.00439523
0.00461898
0.00481285
0.00497338
0.00509765
0.00518335
0.00522888
0.0052334
0.00519685
0.00512001
0.00500443
0.0048524
0.00466692
0.00445154
0.00421031
0.00394764
0.00366815
0.00337657
0.00307763
0.0027759
0.00247562
0.00218071
0.00189602
0.00162591
0.00135575
0.00107094
0.00256753
0.00202427
0.00159506
0.00124421
0.000928989
0.000648103
0.000400789
0.000183441
-7.38219e-06
-0.000174667
-0.000321116
-0.000449135
-0.0005608
-0.000657845
-0.000741654
-0.000813264
-0.000873368
-0.000922335
-0.000960224
-0.00098681
-0.00100161
-0.00100393
-0.000992873
-0.000967425
-0.000926466
-0.000868834
-0.000793369
-0.00069897
-0.000584651
-0.000449594
-0.000293206
-0.000115167
8.45166e-05
0.000305468
0.0005469
0.000807582
0.00108582
0.00137943
0.00168576
0.00200169
0.00232366
0.00264771
0.00296955
0.00328463
0.00358823
0.00387556
0.00414188
0.00438258
0.00459338
0.00477039
0.00491023
0.00501016
0.00506818
0.00508304
0.00505437
0.00498263
0.00486912
0.00471598
0.00452609
0.00430296
0.00405068
0.00377374
0.00347692
0.00316515
0.00284339
0.0025165
0.00218902
0.00186516
0.00155029
0.00124927
0.000945275
0.000621803
0.00260466
0.00202193
0.00156306
0.00118954
0.000855118
0.000558098
0.000297322
6.85902e-05
-0.000132093
-0.000308203
-0.000462869
-0.00059887
-0.000718593
-0.000824022
-0.000916739
-0.000997924
-0.00106837
-0.00112848
-0.00117834
-0.00121769
-0.00124599
-0.00126242
-0.001266
-0.00125553
-0.00122973
-0.00118724
-0.00112668
-0.00104674
-0.000946178
-0.000823946
-0.000679202
-0.000511391
-0.000320289
-0.000106059
0.000130709
0.00038895
0.000667105
0.000963093
0.00127431
0.00159764
0.00192948
0.00226576
0.00260202
0.0029335
0.00325518
0.00356193
0.00384862
0.00411023
0.00434197
0.00453946
0.00469883
0.00481683
0.00489096
0.00491954
0.00490176
0.00483772
0.00472845
0.00457587
0.00438271
0.00415246
0.00388923
0.00359764
0.00328266
0.00294948
0.00260338
0.00224955
0.00189293
0.00153813
0.00119114
0.000857397
0.000517898
0.00015421
0.00258623
0.0019658
0.00147854
0.00108324
0.000730266
0.000417504
0.000143411
-9.67892e-05
-0.000307631
-0.000493058
-0.000656612
-0.00080142
-0.00093016
-0.00104505
-0.00114785
-0.00123986
-0.00132195
-0.00139457
-0.00145779
-0.0015113
-0.00155449
-0.00158645
-0.00160602
-0.00161187
-0.00160251
-0.00157637
-0.00153186
-0.00146741
-0.00138154
-0.00127293
-0.00114048
-0.000983372
-0.000801131
-0.00059368
-0.000361393
-0.000105141
0.000173676
0.000473098
0.000790594
0.00112307
0.00146687
0.00181783
0.00217134
0.00252237
0.00286562
0.00319559
0.0035067
0.00379345
0.00405053
0.00427298
0.00445636
0.00459682
0.0046913
0.00473756
0.00473431
0.00468123
0.00457898
0.00442922
0.00423453
0.00399831
0.00372473
0.00341854
0.00308493
0.00272942
0.00235766
0.00197529
0.00158769
0.00119999
0.000818864
0.000450455
7.35279e-05
-0.000332325
0.00250734
0.00185107
0.0013368
0.000920696
0.000549907
0.00022189
-6.52837e-05
-0.000316952
-0.000538173
-0.000733343
-0.000906397
-0.0010608
-0.00119949
-0.00132491
-0.00143896
-0.00154308
-0.00163818
-0.00172474
-0.00180279
-0.00187199
-0.00193161
-0.00198064
-0.00201776
-0.00204145
-0.00205004
-0.00204173
-0.00201468
-0.00196705
-0.00189711
-0.00180324
-0.00168407
-0.00153848
-0.00136573
-0.00116547
-0.000937823
-0.000683438
-0.000403528
-9.99039e-05
0.000225004
0.000568139
0.000925834
0.00129383
0.00166735
0.00204113
0.00240954
0.00276668
0.00310652
0.003423
0.00371022
0.0039626
0.004175
0.00434293
0.00446262
0.00453123
0.00454686
0.00450868
0.00441693
0.00427293
0.00407905
0.00383861
0.0035558
0.0032355
0.0028832
0.00250475
0.00210626
0.00169389
0.00127356
0.000850971
0.000433627
2.84408e-05
-0.000388119
-0.000838525
0.00236333
0.0016732
0.00113337
0.000697522
0.000309728
-3.29847e-05
-0.000332934
-0.000596009
-0.000827776
-0.00103307
-0.0012162
-0.00138095
-0.00153052
-0.00166754
-0.00179407
-0.00191161
-0.00202114
-0.00212314
-0.00221762
-0.00230414
-0.00238188
-0.0024497
-0.00250611
-0.00254941
-0.00257771
-0.00258895
-0.00258105
-0.0025519
-0.00249946
-0.00242181
-0.00231727
-0.0021844
-0.00202216
-0.00182988
-0.00160742
-0.00135516
-0.00107409
-0.000765825
-0.000432674
-7.76128e-05
0.000295695
0.000682928
0.00107914
0.00147885
0.00187608
0.00226452
0.00263762
0.00298874
0.00331134
0.00359909
0.00384613
0.00404715
0.00419765
0.004294
0.00433363
0.00431508
0.00423807
0.00410352
0.00391352
0.00367124
0.00338089
0.00304751
0.00267685
0.0022752
0.00184916
0.00140549
0.000950743
0.000491287
3.55355e-05
-0.000408722
-0.000867429
-0.00136524
0.00214981
0.00142788
0.000864033
0.000409572
5.64688e-06
-0.000351147
-0.000663518
-0.000937895
-0.00118034
-0.00139611
-0.00158989
-0.00176574
-0.00192712
-0.00207683
-0.00221706
-0.0023494
-0.00247486
-0.0025939
-0.00270648
-0.0028121
-0.00290982
-0.00299832
-0.00307599
-0.00314089
-0.0031909
-0.00322372
-0.00323699
-0.0032283
-0.00319528
-0.00313571
-0.00304755
-0.00292902
-0.00277872
-0.00259566
-0.00237937
-0.00212991
-0.00184802
-0.00153508
-0.00119321
-0.000825277
-0.000434904
-2.64508e-05
0.000395013
0.000823763
0.00125351
0.00167749
0.00208861
0.00247962
0.00284322
0.00317233
0.00346019
0.00370065
0.00388827
0.00401858
0.00408816
0.00409483
0.00403767
0.00391708
0.00373479
0.0034938
0.00319827
0.00285339
0.00246522
0.00204048
0.00158635
0.00111027
0.000619499
0.000121168
-0.00037529
-0.000861112
-0.0013648
-0.00191334
0.0018626
0.00111108
0.000524843
5.29616e-05
-0.000366169
-0.000736384
-0.00106079
-0.00134634
-0.00159957
-0.00182616
-0.00203114
-0.00221886
-0.00239299
-0.00255651
-0.00271173
-0.0028603
-0.00300324
-0.00314101
-0.00327351
-0.00340014
-0.00351983
-0.00363113
-0.00373221
-0.00382094
-0.00389495
-0.00395168
-0.00398845
-0.00400256
-0.00399129
-0.00395206
-0.00388245
-0.00378033
-0.00364389
-0.00347176
-0.00326308
-0.00301759
-0.00273569
-0.00241847
-0.00206784
-0.00168648
-0.00127792
-0.000846532
-0.000397477
6.33153e-05
0.000529229
0.000993063
0.00144716
0.00188358
0.00229425
0.00267118
0.0030067
0.00329362
0.0035255
0.00369683
0.00380325
0.00384167
0.00381039
0.0037092
0.00353936
0.0033036
0.003006
0.00265186
0.00224756
0.00180029
0.00131786
0.000808456
0.000280154
-0.000259067
-0.000798641
-0.00132872
-0.00188057
-0.00248365
0.00149785
0.000719051
0.000112136
-0.000375915
-0.000809279
-0.00119222
-0.00152824
-0.00182481
-0.00208894
-0.00232669
-0.00254343
-0.00274378
-0.00293164
-0.00311013
-0.00328166
-0.00344794
-0.00361002
-0.00376831
-0.00392265
-0.00407233
-0.00421618
-0.00435255
-0.00447944
-0.00459448
-0.00469505
-0.00477831
-0.00484127
-0.00488088
-0.00489408
-0.00487788
-0.00482948
-0.0047463
-0.00462612
-0.00446714
-0.00426808
-0.00402826
-0.00374768
-0.00342711
-0.00306814
-0.00267325
-0.00224581
-0.00179012
-0.00131141
-0.000815775
-0.000310136
0.000197869
0.000700007
0.00118761
0.00165176
0.00208351
0.00247411
0.00281527
0.00309937
0.00331972
0.00347083
0.00354854
0.00355024
0.00347492
0.00332327
0.00309761
0.00280188
0.00244148
0.00202306
0.00155432
0.00104376
0.000500383
-6.68321e-05
-0.000648951
-0.00123415
-0.00181139
-0.00241489
-0.00307682
0.00105199
0.000248353
-0.000377443
-0.000880357
-0.00132694
-0.00172189
-0.0020691
-0.00237654
-0.00265166
-0.00290091
-0.00312998
-0.00334376
-0.00354633
-0.00374098
-0.0039302
-0.00411575
-0.00429867
-0.00447936
-0.00465757
-0.00483251
-0.00500284
-0.00516676
-0.00532205
-0.00546613
-0.0055961
-0.00570883
-0.00580101
-0.00586921
-0.00591
-0.00591998
-0.00589589
-0.00583472
-0.00573375
-0.0055907
-0.00540381
-0.00517193
-0.0048946
-0.00457218
-0.00420589
-0.00379789
-0.00335135
-0.00287044
-0.00236039
-0.0018274
-0.00127867
-0.000722264
-0.000166986
0.000377745
0.000902111
0.00139612
0.00184986
0.00225376
0.00259888
0.00287721
0.00308191
0.00320759
0.00325049
0.00320866
0.00308202
0.00287239
0.00258347
0.00222063
0.00179084
0.00130229
0.000764222
0.00018653
-0.000420809
-0.0010478
-0.00168121
-0.00230869
-0.00296769
-0.00369326
0.000521802
-0.000304113
-0.000946914
-0.00146334
-0.0019221
-0.00232831
-0.00268626
-0.0030044
-0.00329061
-0.00355171
-0.0037937
-0.00402171
-0.00424002
-0.00445204
-0.00466036
-0.00486678
-0.00507234
-0.00527739
-0.00548163
-0.00568413
-0.00588342
-0.00607754
-0.00626405
-0.00644013
-0.00660261
-0.00674806
-0.00687281
-0.00697308
-0.007045
-0.00708475
-0.00708858
-0.00705298
-0.00697472
-0.00685098
-0.00667944
-0.0064584
-0.00618689
-0.00586476
-0.00549279
-0.00507275
-0.00460748
-0.00410097
-0.00355835
-0.0029859
-0.00239102
-0.00178216
-0.0011687
-0.000560808
3.07451e-05
0.00059485
0.00112032
0.00159618
0.00201201
0.00235826
0.00262656
0.00281004
0.00290361
0.00290413
0.00281057
0.00262409
0.00234797
0.00198754
0.00154996
0.00104396
0.000479543
-0.000132428
-0.000780879
-0.00145463
-0.00213891
-0.0028199
-0.00353855
-0.00433304
-9.55613e-05
-0.000941081
-0.00159894
-0.00212747
-0.00259733
-0.00301405
-0.00338228
-0.00371095
-0.00400835
-0.00428166
-0.00453715
-0.00478021
-0.00501528
-0.00524592
-0.00547479
-0.00570372
-0.00593376
-0.00616521
-0.0063977
-0.00663018
-0.00686106
-0.00708818
-0.00730891
-0.00752017
-0.00771853
-0.00790023
-0.00806125
-0.00819742
-0.00830443
-0.00837798
-0.00841383
-0.00840792
-0.00835644
-0.00825597
-0.00810358
-0.00789697
-0.00763454
-0.00731556
-0.00694026
-0.00650992
-0.00602699
-0.00549514
-0.00491933
-0.00430582
-0.00366214
-0.00299709
-0.00232058
-0.00164354
-0.000977705
-0.000335365
0.000270914
0.000828625
0.00132568
0.00175079
0.00209382
0.0023462
0.00250122
0.00255431
0.00250327
0.00234836
0.0020923
0.00174021
0.00129942
0.000779142
0.000190174
-0.000455574
-0.00114583
-0.00186812
-0.00260594
-0.00334386
-0.00412662
-0.00499581
-0.000802553
-0.00166489
-0.0023358
-0.002875
-0.00335485
-0.00378129
-0.00415934
-0.00449837
-0.00480706
-0.00509291
-0.0053625
-0.00562142
-0.0058743
-0.0061248
-0.00637568
-0.00662879
-0.00688518
-0.00714512
-0.00740814
-0.00767312
-0.0079383
-0.00820137
-0.00845947
-0.0087093
-0.00894712
-0.00916887
-0.00937015
-0.00954639
-0.00969283
-0.00980467
-0.00987711
-0.00990552
-0.00988545
-0.00981285
-0.00968409
-0.00949618
-0.00924682
-0.0089346
-0.00855909
-0.00812099
-0.00762222
-0.00706605
-0.00645713
-0.00580159
-0.00510704
-0.00438251
-0.00363842
-0.00288642
-0.00213921
-0.00141031
-0.000713764
-6.37343e-05
0.000525845
0.00104173
0.00147178
0.00180543
0.00203407
0.00215142
0.00215381
0.00204034
0.00181297
0.00147645
0.00103815
0.000507714
-0.000103241
-0.0007817
-0.0015141
-0.0022865
-0.00308051
-0.00387889
-0.00473053
-0.00568067
-0.00160119
-0.00247748
-0.00315935
-0.00370775
-0.00419648
-0.00463184
-0.00501923
-0.00536843
-0.00568848
-0.00598723
-0.00627148
-0.00654706
-0.00681876
-0.00709036
-0.00736469
-0.00764365
-0.00792827
-0.00821879
-0.00851469
-0.00881472
-0.009117
-0.00941904
-0.0097178
-0.0100097
-0.0102908
-0.0105566
-0.0108024
-0.0110232
-0.0112138
-0.0113688
-0.0114828
-0.0115507
-0.0115672
-0.0115277
-0.0114277
-0.0112635
-0.0110319
-0.0107308
-0.0103591
-0.00991661
-0.00940469
-0.00882605
-0.00818493
-0.0074872
-0.0067404
-0.00595373
-0.00513801
-0.00430556
-0.00347006
-0.00264628
-0.00184976
-0.00109648
-0.000402387
0.000217101
0.000747574
0.00117617
0.00149205
0.00168689
0.00175521
0.00169467
0.00150616
0.00119386
0.000765015
0.000229654
-0.000399828
-0.00110925
-0.00188364
-0.00270747
-0.00356025
-0.00442273
-0.00534826
-0.00638606
-0.00249302
-0.00338031
-0.00407104
-0.00462714
-0.00512359
-0.00556706
-0.00596331
-0.00632246
-0.00665395
-0.00696588
-0.00726534
-0.00755834
-0.00784984
-0.00814374
-0.00844293
-0.00874935
-0.00906406
-0.00938725
-0.00971832
-0.010056
-0.0103982
-0.0107423
-0.011085
-0.0114227
-0.0117509
-0.012065
-0.0123598
-0.0126299
-0.0128696
-0.0130729
-0.013234
-0.013347
-0.0134058
-0.0134051
-0.0133397
-0.0132048
-0.0129966
-0.0127119
-0.0123487
-0.0119061
-0.0113847
-0.0107863
-0.0101149
-0.00937569
-0.00857614
-0.00772545
-0.00683472
-0.0059169
-0.00498655
-0.00405969
-0.00315346
-0.00228571
-0.00147455
-0.000737815
-9.24578e-05
0.000446034
0.00086425
0.00115141
0.00129987
0.00130543
0.00116765
0.000889815
0.000478865
-5.49342e-05
-0.000698432
-0.00143625
-0.0022519
-0.00312814
-0.00404212
-0.00497236
-0.00597706
-0.00710967
-0.0034791
-0.00437441
-0.00507185
-0.00563414
-0.00613715
-0.00658791
-0.00699249
-0.00736137
-0.0077043
-0.00802968
-0.00834482
-0.00865594
-0.00896814
-0.00928545
-0.00961083
-0.00994628
-0.0102928
-0.0106507
-0.0110192
-0.011397
-0.0117819
-0.0121712
-0.0125613
-0.0129483
-0.0133277
-0.0136944
-0.0140428
-0.0143671
-0.0146611
-0.0149184
-0.0151323
-0.0152963
-0.0154037
-0.0154481
-0.0154235
-0.0153244
-0.0151457
-0.0148834
-0.0145345
-0.014097
-0.0135706
-0.0129565
-0.0122575
-0.0114787
-0.0106269
-0.00971124
-0.00874302
-0.00773562
-0.00670446
-0.00566675
-0.00464122
-0.00364767
-0.00270654
-0.00183825
-0.00106261
-0.000398055
0.000139024
0.000534983
0.000779535
0.000866247
0.000792878
0.000561519
0.000178526
-0.000345776
-0.000997565
-0.00176025
-0.00261574
-0.00354489
-0.00452226
-0.00552392
-0.00661326
-0.00784828
-0.00455999
-0.00546029
-0.0061623
-0.00672926
-0.00723768
-0.00769487
-0.00810723
-0.00848557
-0.00883991
-0.00917892
-0.00951014
-0.00983997
-0.0101737
-0.0105154
-0.0108682
-0.011234
-0.0116141
-0.0120085
-0.0124166
-0.0128369
-0.0132673
-0.0137046
-0.0141455
-0.0145856
-0.0150201
-0.0154436
-0.0158503
-0.0162339
-0.0165876
-0.0169045
-0.0171773
-0.0173986
-0.0175611
-0.0176574
-0.0176806
-0.0176242
-0.017482
-0.0172489
-0.0169208
-0.0164946
-0.0159689
-0.0153438
-0.0146214
-0.0138058
-0.0129034
-0.011923
-0.0108759
-0.00977568
-0.00863857
-0.00748287
-0.00632886
-0.00519836
-0.0041142
-0.00309962
-0.00217752
-0.00136965
-0.000695805
-0.000172961
0.000185465
0.000370278
0.00037698
0.000206034
-0.000137131
-0.000642374
-0.00129533
-0.00207822
-0.00297127
-0.00395327
-0.00499594
-0.00607258
-0.0072522
-0.00859762
-0.0057357
-0.006638
-0.00734244
-0.00791256
-0.00842521
-0.00888798
-0.00930755
-0.009695
-0.0100606
-0.0104134
-0.0107609
-0.0111099
-0.0114658
-0.0118327
-0.0122139
-0.0126114
-0.0130265
-0.0134591
-0.0139088
-0.0143739
-0.0148521
-0.0153405
-0.0158352
-0.0163318
-0.0168253
-0.01731
-0.0177797
-0.0182276
-0.0186464
-0.0190287
-0.0193666
-0.0196518
-0.0198762
-0.0200316
-0.0201099
-0.0201036
-0.0200055
-0.0198091
-0.0195091
-0.0191013
-0.0185829
-0.0179529
-0.0172122
-0.016364
-0.015414
-0.0143704
-0.0132441
-0.0120491
-0.010802
-0.00952206
-0.00823112
-0.00695295
-0.00571287
-0.00453707
-0.0034518
-0.00248247
-0.00165271
-0.000983339
-0.000491463
-0.000189617
-8.51166e-05
-0.000179643
-0.000469124
-0.000943926
-0.00158934
-0.00238646
-0.00331379
-0.00434787
-0.00545732
-0.00661237
-0.007888
-0.0093522
-0.00700571
-0.00790708
-0.00861185
-0.00918364
-0.00969936
-0.0101668
-0.010593
-0.0109891
-0.0113658
-0.0117322
-0.0120963
-0.0124647
-0.0128431
-0.0132359
-0.0136463
-0.0140765
-0.0145276
-0.015
-0.0154929
-0.0160047
-0.0165332
-0.0170751
-0.0176266
-0.0181831
-0.0187393
-0.0192893
-0.0198264
-0.0203435
-0.0208329
-0.0212865
-0.0216955
-0.0220513
-0.0223446
-0.0225664
-0.0227076
-0.0227593
-0.0227133
-0.0225618
-0.022298
-0.0219165
-0.0214129
-0.020785
-0.0200324
-0.0191571
-0.0181638
-0.0170598
-0.0158557
-0.0145652
-0.0132054
-0.0117963
-0.010361
-0.00892519
-0.00751677
-0.00616495
-0.00489955
-0.00374998
-0.00274411
-0.00190716
-0.00126053
-0.000820732
-0.000598567
-0.000598469
-0.00081826
-0.00124923
-0.00187661
-0.00268049
-0.00363763
-0.0047222
-0.00589937
-0.00713599
-0.00851345
-0.0101051
-0.00836898
-0.00926656
-0.00996965
-0.0105417
-0.0110593
-0.0115306
-0.0119626
-0.012367
-0.0127544
-0.0131342
-0.0135146
-0.0139025
-0.0143037
-0.0147226
-0.0151627
-0.0156262
-0.0161144
-0.0166275
-0.017165
-0.0177252
-0.0183057
-0.0189035
-0.0195145
-0.0201338
-0.0207562
-0.0213752
-0.021984
-0.0225751
-0.0231402
-0.0236706
-0.024157
-0.0245899
-0.0249592
-0.0252548
-0.0254666
-0.0255846
-0.0255991
-0.025501
-0.0252822
-0.0249356
-0.0244554
-0.0238377
-0.0230807
-0.022185
-0.021154
-0.0199941
-0.018715
-0.0173301
-0.0158564
-0.0143145
-0.0127288
-0.0111266
-0.00953828
-0.00799616
-0.0065338
-0.00518486
-0.00398193
-0.00295515
-0.00213085
-0.00153027
-0.00116841
-0.0010532
-0.001185
-0.00155656
-0.00215343
-0.00295491
-0.00393601
-0.00506844
-0.00631363
-0.00763467
-0.00911974
-0.0108479
-0.0098239
-0.010715
-0.0114145
-0.0119854
-0.0125038
-0.0129779
-0.0134151
-0.013827
-0.0142246
-0.0146175
-0.0150139
-0.015421
-0.0158448
-0.0162898
-0.0167596
-0.0172567
-0.0177824
-0.0183369
-0.0189199
-0.0195296
-0.0201638
-0.0208193
-0.0214918
-0.0221766
-0.022868
-0.0235596
-0.024244
-0.0249134
-0.025559
-0.0261717
-0.0267414
-0.0272577
-0.0277098
-0.0280867
-0.0283769
-0.0285694
-0.028653
-0.0286174
-0.0284527
-0.0281501
-0.0277025
-0.027104
-0.0263513
-0.0254432
-0.0243816
-0.0231717
-0.0218221
-0.0203455
-0.0187585
-0.0170822
-0.0153415
-0.0135657
-0.0117872
-0.0100414
-0.00836575
-0.00679842
-0.00537706
-0.00413727
-0.00311102
-0.00232501
-0.00179931
-0.00154617
-0.00156927
-0.0018635
-0.0024152
-0.00320319
-0.00420087
-0.00537736
-0.00669005
-0.00809789
-0.00969626
-0.0115702
-0.0113684
-0.0122506
-0.0129447
-0.0135131
-0.0140312
-0.0145073
-0.0149487
-0.0153674
-0.0157745
-0.0161797
-0.0165915
-0.0170172
-0.0174629
-0.0179336
-0.0184328
-0.0189633
-0.0195263
-0.0201225
-0.0207513
-0.0214112
-0.0221
-0.0228144
-0.0235502
-0.0243025
-0.0250655
-0.0258324
-0.0265958
-0.0273474
-0.028078
-0.0287777
-0.0294361
-0.0300419
-0.0305835
-0.0310486
-0.031425
-0.0317001
-0.0318615
-0.0318973
-0.031796
-0.0315473
-0.0311419
-0.0305724
-0.0298334
-0.028922
-0.0278384
-0.0265859
-0.025172
-0.0236082
-0.0219106
-0.0201
-0.0182021
-0.0162471
-0.0142697
-0.0123083
-0.0104041
-0.00859982
-0.00693866
-0.00546217
-0.00420857
-0.00321091
-0.00249522
-0.00207902
-0.00197024
-0.0021667
-0.00265622
-0.00341754
-0.00442264
-0.00563801
-0.00701673
-0.00851319
-0.0102304
-0.0122595
-0.0129999
-0.0138709
-0.0145581
-0.0151228
-0.0156396
-0.0161166
-0.0165614
-0.0169859
-0.0174015
-0.017818
-0.0182441
-0.0186874
-0.0191541
-0.0196494
-0.0201771
-0.0207401
-0.0213399
-0.0219772
-0.0226516
-0.0233618
-0.0241055
-0.0248794