/*--------------------------------*- C++ -*----------------------------------*\
  =========                 |
  \\      /  F ield         | OpenFOAM: The Open Source CFD Toolbox
   \\    /   O peration     | Website:  https://openfoam.org
    \\  /    A nd           | Version:  dev
     \\/     M anipulation  |
\*---------------------------------------------------------------------------*/
FoamFile
{
    format      ascii;
    class       surfaceScalarField;
    location    "24.75";
    object      phi;
}
// * * * * * * * * * * * * * * * * * * * * * * * * * * * * * * * * * * * * * //

dimensions      [0 3 -1 0 0 0 0];

internalField   nonuniform List<scalar> 
10224
(
3.35706e-08
-3.50749e-08
8.77012e-08
-5.41293e-08
1.24264e-07
-3.6569e-08
1.25221e-07
-9.59256e-10
8.35955e-08
4.16269e-08
-1.87624e-09
8.54756e-08
-1.29369e-07
1.27495e-07
-2.95578e-07
1.66208e-07
-4.96441e-07
2.00861e-07
-7.27657e-07
2.31215e-07
-9.84959e-07
2.57301e-07
-1.26426e-06
2.79297e-07
-1.56171e-06
2.97456e-07
-1.87377e-06
3.1206e-07
-2.19717e-06
3.23395e-07
-2.5289e-06
3.31727e-07
-2.86619e-06
3.37294e-07
-3.20649e-06
3.40295e-07
-3.54738e-06
3.40892e-07
-3.88659e-06
3.39206e-07
-4.22191e-06
3.35324e-07
-4.55121e-06
3.29299e-07
-4.87236e-06
3.21154e-07
-5.18326e-06
3.10893e-07
-5.48176e-06
2.98504e-07
-5.76573e-06
2.83966e-07
-6.03299e-06
2.67257e-07
-6.28135e-06
2.4836e-07
-6.50862e-06
2.27271e-07
-6.71262e-06
2.04004e-07
-6.89122e-06
1.78597e-07
-7.04233e-06
1.51117e-07
-7.164e-06
1.21667e-07
-7.25438e-06
9.03858e-08
-7.31184e-06
5.74536e-08
-7.33493e-06
2.30929e-08
-7.3225e-06
-1.24305e-08
-7.27369e-06
-4.88083e-08
-7.188e-06
-8.56916e-08
-7.0653e-06
-1.22694e-07
-6.90591e-06
-1.59394e-07
-6.71056e-06
-1.95345e-07
-6.48049e-06
-2.30074e-07
-6.21739e-06
-2.631e-07
-5.92345e-06
-2.93935e-07
-5.60135e-06
-3.22098e-07
-5.25423e-06
-3.47123e-07
-4.88566e-06
-3.68571e-07
-4.49962e-06
-3.86041e-07
-4.10044e-06
-3.99179e-07
-3.69275e-06
-4.07689e-07
-3.28141e-06
-4.11342e-07
-2.87143e-06
-4.09981e-07
-2.4679e-06
-4.03531e-07
-2.0759e-06
-3.92e-07
-1.70041e-06
-3.75488e-07
-1.34623e-06
-3.54178e-07
-1.01789e-06
-3.28345e-07
-7.19542e-07
-2.98347e-07
-4.54911e-07
-2.64634e-07
-2.27169e-07
-2.27743e-07
-3.88616e-08
-1.88306e-07
1.08205e-07
-1.47064e-07
2.13092e-07
-1.04885e-07
2.7591e-07
-6.28186e-08
2.98089e-07
-2.21816e-08
2.82806e-07
1.52818e-08
2.35652e-07
4.71537e-08
1.65685e-07
6.99681e-08
8.71897e-08
7.84941e-08
2.25353e-08
6.46528e-08
2.25395e-08
5.37631e-08
-8.88368e-08
1.12223e-07
-1.12588e-07
1.18e-07
-4.23461e-08
3.86928e-08
7.8348e-08
-1.42098e-07
2.22415e-07
-4.29686e-07
3.73062e-07
-8.22302e-07
5.20113e-07
-1.3138e-06
6.57712e-07
-1.89563e-06
7.82689e-07
-2.55797e-06
8.93557e-07
-3.29055e-06
9.89884e-07
-4.08313e-06
1.07188e-06
-4.92579e-06
1.14011e-06
-5.80909e-06
1.19536e-06
-6.72415e-06
1.23846e-06
-7.66265e-06
1.27022e-06
-8.61678e-06
1.29142e-06
-9.5792e-06
1.30272e-06
-1.0543e-05
1.30465e-06
-1.15014e-05
1.29766e-06
-1.24481e-05
1.28204e-06
-1.33768e-05
1.25802e-06
-1.42814e-05
1.22571e-06
-1.51557e-05
1.18515e-06
-1.59935e-05
1.13635e-06
-1.67888e-05
1.07928e-06
-1.75355e-05
1.01392e-06
-1.82274e-05
9.40265e-07
-1.88585e-05
8.58359e-07
-1.94228e-05
7.68318e-07
-1.99145e-05
6.70345e-07
-2.03282e-05
5.6475e-07
-2.06585e-05
4.51967e-07
-2.09007e-05
3.32564e-07
-2.10505e-05
2.07254e-07
-2.11043e-05
7.6901e-08
-2.10592e-05
-5.74804e-08
-2.09133e-05
-1.94726e-07
-2.06655e-05
-3.33529e-07
-2.03157e-05
-4.72453e-07
-1.98651e-05
-6.09947e-07
-1.93161e-05
-7.44366e-07
-1.86722e-05
-8.73995e-07
-1.79382e-05
-9.97079e-07
-1.71203e-05
-1.11185e-06
-1.62258e-05
-1.21658e-06
-1.52633e-05
-1.30959e-06
-1.42426e-05
-1.38931e-06
-1.31744e-05
-1.4543e-06
-1.20702e-05
-1.50329e-06
-1.09427e-05
-1.53525e-06
-9.80465e-06
-1.54936e-06
-8.66954e-06
-1.54509e-06
-7.55091e-06
-1.52217e-06
-6.46224e-06
-1.48067e-06
-5.41677e-06
-1.42096e-06
-4.4272e-06
-1.34375e-06
-3.50547e-06
-1.25007e-06
-2.66252e-06
-1.14129e-06
-1.90804e-06
-1.01911e-06
-1.25021e-06
-8.85573e-07
-6.95428e-07
-7.43093e-07
-2.47996e-07
-5.94499e-07
9.02365e-08
-4.43118e-07
3.20343e-07
-2.92925e-07
4.46918e-07
-1.48758e-07
4.78948e-07
-1.67518e-08
4.309e-07
9.5196e-08
3.2421e-07
1.76657e-07
1.88879e-07
2.13829e-07
6.43492e-08
1.89181e-07
8.68858e-08
3.72612e-08
-1.26104e-07
4.31642e-08
-1.18493e-07
-4.34622e-08
4.42808e-08
-2.58891e-07
2.9378e-07
-6.22734e-07
5.86259e-07
-1.1421e-06
8.92429e-07
-1.81525e-06
1.19327e-06
-2.63454e-06
1.477e-06
-3.58859e-06
1.73674e-06
-4.66389e-06
1.96886e-06
-5.84588e-06
2.17187e-06
-7.11967e-06
2.34567e-06
-8.47056e-06
2.49101e-06
-9.88432e-06
2.60912e-06
-1.13473e-05
2.70146e-06
-1.28466e-05
2.76954e-06
-1.437e-05
2.81478e-06
-1.59057e-05
2.83844e-06
-1.74427e-05
2.84161e-06
-1.89702e-05
2.82515e-06
-2.04778e-05
2.78969e-06
-2.19555e-05
2.73569e-06
-2.33932e-05
2.66342e-06
-2.47811e-05
2.57304e-06
-2.61094e-05
2.46461e-06
-2.73682e-05
2.33816e-06
-2.8548e-05
2.19371e-06
-2.96391e-05
2.03135e-06
-3.0632e-05
1.85127e-06
-3.15175e-05
1.65381e-06
-3.22867e-05
1.43949e-06
-3.2931e-05
1.20906e-06
-3.34425e-05
9.6353e-07
-3.38142e-05
7.04184e-07
-3.40395e-05
4.32606e-07
-3.41133e-05
1.50689e-07
-3.40314e-05
-1.39365e-07
-3.37911e-05
-4.3505e-07
-3.3391e-05
-7.33575e-07
-3.28316e-05
-1.03188e-06
-3.21149e-05
-1.3267e-06
-3.12447e-05
-1.61454e-06
-3.02268e-05
-1.89183e-06
-2.9069e-05
-2.15487e-06
-2.77809e-05
-2.4e-06
-2.63739e-05
-2.62358e-06
-2.48614e-05
-2.82215e-06
-2.32582e-05
-2.99243e-06
-2.15811e-05
-3.13146e-06
-1.98477e-05
-3.23663e-06
-1.80772e-05
-3.30579e-06
-1.62893e-05
-3.33725e-06
-1.45044e-05
-3.32994e-06
-1.27433e-05
-3.28335e-06
-1.10263e-05
-3.19763e-06
-9.37365e-06
-3.07362e-06
-7.80459e-06
-2.91281e-06
-6.33722e-06
-2.71744e-06
-4.98808e-06
-2.49043e-06
-3.77176e-06
-2.23543e-06
-2.70049e-06
-1.95684e-06
-1.78376e-06
-1.65983e-06
-1.02778e-06
-1.35048e-06
-4.35029e-07
-1.03587e-06
-3.60498e-09
-7.24347e-07
2.73559e-07
-4.25918e-07
4.09524e-07
-1.52713e-07
4.24515e-07
8.02049e-08
3.47148e-07
2.54023e-07
2.15611e-07
3.45368e-07
7.86027e-08
3.26196e-07
1.65486e-07
1.86062e-09
-1.27966e-07
-7.90383e-08
-3.75964e-08
-2.97721e-07
2.62967e-07
-6.87901e-07
6.83962e-07
-1.26789e-06
1.16625e-06
-2.04395e-06
1.66849e-06
-3.01329e-06
2.16261e-06
-4.16666e-06
2.63037e-06
-5.49047e-06
3.06055e-06
-6.96839e-06
3.44678e-06
-8.58259e-06
3.78607e-06
-1.03146e-05
4.07768e-06
-1.21459e-05
4.32232e-06
-1.40584e-05
4.52157e-06
-1.60344e-05
4.67748e-06
-1.80571e-05
4.79224e-06
-2.01103e-05
4.86797e-06
-2.21785e-05
4.90663e-06
-2.42467e-05
4.90988e-06
-2.63007e-05
4.87908e-06
-2.83263e-05
4.81528e-06
-3.03098e-05
4.71925e-06
-3.22379e-05
4.59147e-06
-3.40971e-05
4.43227e-06
-3.58743e-05
4.24184e-06
-3.75565e-05
4.02032e-06
-3.91306e-05
3.76786e-06
-4.0584e-05
3.48475e-06
-4.19042e-05
3.17142e-06
-4.3079e-05
2.8286e-06
-4.40968e-05
2.45728e-06
-4.49466e-05
2.05887e-06
-4.56182e-05
1.63519e-06
-4.61026e-05
1.18852e-06
-4.63916e-05
7.21636e-07
-4.64787e-05
2.37806e-07
-4.63589e-05
-2.59184e-07
-4.60289e-05
-7.65061e-07
-4.54874e-05
-1.27509e-06
-4.47351e-05
-1.78411e-06
-4.37752e-05
-2.28661e-06
-4.2613e-05
-2.77676e-06
-4.12563e-05
-3.24856e-06
-3.97153e-05
-3.69587e-06
-3.80027e-05
-4.11257e-06
-3.61336e-05
-4.49266e-06
-3.41254e-05
-4.83035e-06
-3.19976e-05
-5.12024e-06
-2.97716e-05
-5.35743e-06
-2.74707e-05
-5.5376e-06
-2.51193e-05
-5.6572e-06
-2.2743e-05
-5.71348e-06
-2.03683e-05
-5.70466e-06
-1.80217e-05
-5.62993e-06
-1.57298e-05
-5.48959e-06
-1.35183e-05
-5.28505e-06
-1.14123e-05
-5.01888e-06
-9.43489e-06
-4.69484e-06
-7.60743e-06
-4.31789e-06
-5.94866e-06
-3.8942e-06
-4.47427e-06
-3.43123e-06
-3.19636e-06
-2.93774e-06
-2.1229e-06
-2.42394e-06
-1.25708e-06
-1.90168e-06
-5.96675e-07
-1.38476e-06
-1.33243e-07
-8.89352e-07
1.48703e-07
-4.34661e-07
2.72609e-07
-4.37057e-08
2.7092e-07
2.55705e-07
1.8612e-07
4.30163e-07
7.21601e-08
4.40159e-07
2.37647e-07
-4.20685e-08
-8.58954e-08
-2.30038e-07
1.50369e-07
-6.06475e-07
6.39405e-07
-1.19795e-06
1.27544e-06
-2.0182e-06
1.9865e-06
-3.0704e-06
2.72068e-06
-4.34935e-06
3.44156e-06
-5.84363e-06
4.12465e-06
-7.53738e-06
4.7543e-06
-9.41181e-06
5.32121e-06
-1.14464e-05
5.82063e-06
-1.36196e-05
6.25096e-06
-1.591e-05
6.61269e-06
-1.82961e-05
6.90764e-06
-2.07569e-05
7.13833e-06
-2.32723e-05
7.3076e-06
-2.58226e-05
7.41829e-06
-2.8389e-05
7.47301e-06
-3.09532e-05
7.47406e-06
-3.34974e-05
7.42333e-06
-3.60044e-05
7.32231e-06
-3.84573e-05
7.17211e-06
-4.08394e-05
6.97352e-06
-4.31341e-05
6.72706e-06
-4.53254e-05
6.43312e-06
-4.73971e-05
6.09202e-06
-4.93334e-05
5.70417e-06
-5.11188e-05
5.27011e-06
-5.27381e-05
4.79068e-06
-5.41766e-05
4.26711e-06
-5.54204e-05
3.70108e-06
-5.64563e-05
3.09483e-06
-5.72723e-05
2.45122e-06
-5.78576e-05
1.77381e-06
-5.82028e-05
1.06682e-06
-5.83003e-05
3.35252e-07
-5.81443e-05
-4.15196e-07
-5.77312e-05
-1.17811e-06
-5.70599e-05
-1.94642e-06
-5.61316e-05
-2.71244e-06
-5.49502e-05
-3.46799e-06
-5.35225e-05
-4.20447e-06
-5.1858e-05
-4.91301e-06
-4.99693e-05
-5.58457e-06
-4.78717e-05
-6.21016e-06
-4.55834e-05
-6.78094e-06
-4.31253e-05
-7.28846e-06
-4.05208e-05
-7.7248e-06
-3.77954e-05
-8.08276e-06
-3.4977e-05
-8.35604e-06
-3.20948e-05
-8.53943e-06
-2.91793e-05
-8.62894e-06
-2.6262e-05
-8.62193e-06
-2.33747e-05
-8.51727e-06
-2.05489e-05
-8.31541e-06
-1.78155e-05
-8.01846e-06
-1.52041e-05
-7.63024e-06
-1.27426e-05
-7.15633e-06
-1.04564e-05
-6.6041e-06
-8.36786e-06
-5.98273e-06
-6.49581e-06
-5.30328e-06
-4.85483e-06
-4.57872e-06
-3.45465e-06
-3.82413e-06
-2.29949e-06
-3.05684e-06
-1.3874e-06
-2.29684e-06
-7.09554e-07
-1.5672e-06
-2.49478e-07
-8.9473e-07
1.76601e-08
-3.10838e-07
1.25889e-07
1.47474e-07
1.19335e-07
4.36712e-07
5.36045e-08
5.05886e-07
2.91253e-07
-8.94251e-08
3.53298e-09
-3.95262e-07
4.56203e-07
-9.44851e-07
1.189e-06
-1.75477e-06
2.08535e-06
-2.8318e-06
3.06353e-06
-4.17418e-06
4.06307e-06
-5.77307e-06
5.04045e-06
-7.61409e-06
5.96567e-06
-9.67877e-06
6.81898e-06
-1.19458e-05
7.58827e-06
-1.43922e-05
8.26702e-06
-1.6994e-05
8.85269e-06
-1.97268e-05
9.34548e-06
-2.25664e-05
9.74732e-06
-2.54893e-05
1.00612e-05
-2.84721e-05
1.02904e-05
-3.14924e-05
1.04386e-05
-3.45284e-05
1.0509e-05
-3.75589e-05
1.05045e-05
-4.05631e-05
1.04275e-05
-4.35208e-05
1.028e-05
-4.64122e-05
1.00635e-05
-4.92178e-05
9.7791e-06
-5.19183e-05
9.42755e-06
-5.44947e-05
9.0095e-06
-5.69282e-05
8.52556e-06
-5.92005e-05
7.97643e-06
-6.12934e-05
7.36307e-06
-6.31896e-05
6.68682e-06
-6.4872e-05
5.94957e-06
-6.63248e-05
5.15383e-06
-6.75328e-05
4.3029e-06
-6.84825e-05
3.40088e-06
-6.91615e-05
2.45282e-06
-6.95594e-05
1.46469e-06
-6.96676e-05
4.43463e-07
-6.94799e-05
-6.0293e-07
-6.89924e-05
-1.66562e-06
-6.82039e-05
-2.73484e-06
-6.71163e-05
-3.80007e-06
-6.57342e-05
-4.85008e-06
-6.40656e-05
-5.87312e-06
-6.21215e-05
-6.85707e-06
-5.99164e-05
-7.78965e-06
-5.7468e-05
-8.6586e-06
-5.4797e-05
-9.45192e-06
-5.19273e-05
-1.01581e-05
-4.88857e-05
-1.07664e-05
-4.57014e-05
-1.12671e-05
-4.24059e-05
-1.16515e-05
-3.90327e-05
-1.19127e-05
-3.56165e-05
-1.20451e-05
-3.21933e-05
-1.20452e-05
-2.87991e-05
-1.19114e-05
-2.54702e-05
-1.16444e-05
-2.22416e-05
-1.1247e-05
-1.91475e-05
-1.07244e-05
-1.62196e-05
-1.00842e-05
-1.34871e-05
-9.33657e-06
-1.09759e-05
-8.49399e-06
-8.70763e-06
-7.57154e-06
-6.69943e-06
-6.58692e-06
-4.96298e-06
-5.56058e-06
-3.50394e-06
-4.51589e-06
-2.32127e-06
-3.47951e-06
-1.40663e-06
-2.48185e-06
-7.43713e-07
-1.55765e-06
-3.07697e-07
-7.46849e-07
-6.46346e-08
-9.55866e-08
2.92116e-08
3.4287e-07
2.8263e-08
5.0683e-07
3.19515e-07
-1.37605e-07
1.4114e-07
-5.66136e-07
8.84734e-07
-1.29703e-06
1.91989e-06
-2.33538e-06
3.1237e-06
-3.67947e-06
4.40762e-06
-5.32124e-06
5.70484e-06
-7.24709e-06
6.9663e-06
-9.43892e-06
8.15749e-06
-1.18752e-05
9.25523e-06
-1.45319e-05
1.0245e-05
-1.73835e-05
1.11186e-05
-2.04036e-05
1.18728e-05
-2.35655e-05
1.25074e-05
-2.68426e-05
1.30245e-05
-3.02088e-05
1.34273e-05
-3.36384e-05
1.372e-05
-3.71062e-05
1.39065e-05
-4.05881e-05
1.39908e-05
-4.406e-05
1.39764e-05
-4.74988e-05
1.38663e-05
-5.08816e-05
1.36628e-05
-5.41859e-05
1.33679e-05
-5.73899e-05
1.2983e-05
-6.04715e-05
1.25092e-05
-6.34094e-05
1.19474e-05
-6.61825e-05
1.12986e-05
-6.877e-05
1.05639e-05
-7.11516e-05
9.7447e-06
-7.33078e-05
8.843e-06
-7.52197e-05
7.86147e-06
-7.68695e-05
6.80363e-06
-7.82406e-05
5.67396e-06
-7.93177e-05
4.47803e-06
-8.00875e-05
3.22258e-06
-8.05383e-05
1.91554e-06
-8.0661e-05
5.66109e-07
-8.04486e-05
-8.15295e-07
-7.98972e-05
-2.21707e-06
-7.90055e-05
-3.6265e-06
-7.77757e-05
-5.02988e-06
-7.62131e-05
-6.41265e-06
-7.43266e-05
-7.75961e-06
-7.21286e-05
-9.05507e-06
-6.96351e-05
-1.02832e-05
-6.68656e-05
-1.14281e-05
-6.38433e-05
-1.24743e-05
-6.05943e-05
-1.3407e-05
-5.71484e-05
-1.42123e-05
-5.35379e-05
-1.48776e-05
-4.97976e-05
-1.53918e-05
-4.59646e-05
-1.57457e-05
-4.20773e-05
-1.59323e-05
-3.81755e-05
-1.59469e-05
-3.42995e-05
-1.57875e-05
-3.04893e-05
-1.54546e-05
-2.67841e-05
-1.49521e-05
-2.32219e-05
-1.42866e-05
-1.98383e-05
-1.34678e-05
-1.66661e-05
-1.25088e-05
-1.37343e-05
-1.14258e-05
-1.10678e-05
-1.02381e-05
-8.68621e-06
-8.96851e-06
-6.60351e-06
-7.64327e-06
-4.82723e-06
-6.29216e-06
-3.35788e-06
-4.94886e-06
-2.18836e-06
-3.65137e-06
-1.30348e-06
-2.44253e-06
-6.79518e-07
-1.37081e-06
-2.83871e-07
-4.91235e-07
-7.46944e-08
1.33701e-07
-6.21881e-10
4.32757e-07
3.18893e-07
-1.85358e-07
3.26496e-07
-7.37773e-07
1.43715e-06
-1.65325e-06
2.83537e-06
-2.92478e-06
4.39524e-06
-4.54131e-06
6.02414e-06
-6.4875e-06
7.65103e-06
-8.74414e-06
9.22295e-06
-1.12887e-05
1.07021e-05
-1.40962e-05
1.20627e-05
-1.71395e-05
1.32883e-05
-2.03905e-05
1.43697e-05
-2.38205e-05
1.53028e-05
-2.74005e-05
1.60874e-05
-3.11017e-05
1.67257e-05
-3.48957e-05
1.72214e-05
-3.87547e-05
1.7579e-05
-4.26514e-05
1.78032e-05
-4.65592e-05
1.78986e-05
-5.0452e-05
1.78692e-05
-5.43043e-05
1.77186e-05
-5.8091e-05
1.74495e-05
-6.17873e-05
1.70643e-05
-6.5369e-05
1.65647e-05
-6.88121e-05
1.59523e-05
-7.20929e-05
1.52282e-05
-7.51881e-05
1.43938e-05
-7.80749e-05
1.34508e-05
-8.07312e-05
1.2401e-05
-8.31355e-05
1.12473e-05
-8.52671e-05
9.99311e-06
-8.71067e-05
8.6432e-06
-8.86361e-05
7.20335e-06
-8.98388e-05
5.68074e-06
-9.07002e-05
4.08399e-06
-9.12078e-05
2.42317e-06
-9.13516e-05
7.09915e-07
-9.11243e-05
-1.04267e-06
-9.05213e-05
-2.82001e-06
-8.95416e-05
-4.60621e-06
-8.81873e-05
-6.38414e-06
-8.64643e-05
-8.13566e-06
-8.43821e-05
-9.84181e-06
-8.19541e-05
-1.14831e-05
-7.91975e-05
-1.30398e-05
-7.61334e-05
-1.44922e-05
-7.27867e-05
-1.5821e-05
-6.91859e-05
-1.70078e-05
-6.53629e-05
-1.80354e-05
-6.13527e-05
-1.88878e-05
-5.7193e-05
-1.95514e-05
-5.29241e-05
-2.00146e-05
-4.85879e-05
-2.02686e-05
-4.42275e-05
-2.03073e-05
-3.98869e-05
-2.01281e-05
-3.56098e-05
-1.97317e-05
-3.14394e-05
-1.91225e-05
-2.74173e-05
-1.83087e-05
-2.35827e-05
-1.73024e-05
-1.9972e-05
-1.61195e-05
-1.66177e-05
-1.478e-05
-1.35478e-05
-1.3308e-05
-1.07847e-05
-1.17316e-05
-8.34516e-06
-1.00829e-05
-6.23893e-06
-8.39839e-06
-4.46867e-06
-6.71912e-06
-3.02923e-06
-5.09081e-06
-1.90731e-06
-3.56446e-06
-1.08115e-06
-2.19697e-06
-5.20406e-07
-1.05198e-06
-1.86151e-07
-2.00549e-07
-3.10957e-08
2.77701e-07
2.87799e-07
-2.32043e-07
5.58538e-07
-9.07415e-07
2.11252e-06
-2.00751e-06
3.93546e-06
-3.51326e-06
5.90099e-06
-5.4038e-06
7.91468e-06
-7.65599e-06
9.90322e-06
-1.02444e-05
1.18114e-05
-1.31416e-05
1.35993e-05
-1.63185e-05
1.52395e-05
-1.97448e-05
1.67146e-05
-2.33896e-05
1.80145e-05
-2.72218e-05
1.9135e-05
-3.12102e-05
2.00758e-05
-3.53239e-05
2.08394e-05
-3.95326e-05
2.14301e-05
-4.38064e-05
2.18528e-05
-4.81163e-05
2.21131e-05
-5.24335e-05
2.22158e-05
-5.673e-05
2.21658e-05
-6.09784e-05
2.1967e-05
-6.51516e-05
2.16226e-05
-6.92228e-05
2.11355e-05
-7.31659e-05
2.05078e-05
-7.69548e-05
1.97412e-05
-8.05639e-05
1.88374e-05
-8.39682e-05
1.77981e-05
-8.7143e-05
1.66256e-05
-9.00644e-05
1.53224e-05
-9.27091e-05
1.3892e-05
-9.50551e-05
1.23391e-05
-9.70814e-05
1.06695e-05
-9.87685e-05
8.89045e-06
-0.000100099
7.01094e-06
-0.000101056
5.04154e-06
-0.000101628
2.99466e-06
-0.000101802
8.84495e-07
-0.000101572
-1.27297e-06
-0.000100932
-3.46004e-06
-9.98808e-05
-5.6574e-06
-9.84206e-05
-7.84433e-06
-9.65574e-05
-9.99885e-06
-9.43011e-05
-1.20981e-05
-9.16658e-05
-1.41184e-05
-8.86696e-05
-1.6036e-05
-8.53348e-05
-1.7827e-05
-8.16876e-05
-1.94682e-05
-7.77583e-05
-2.09371e-05
-7.35808e-05
-2.22128e-05
-6.91924e-05
-2.32762e-05
-6.46335e-05
-2.41104e-05
-5.99469e-05
-2.47012e-05
-5.51777e-05
-2.50378e-05
-5.03723e-05
-2.51127e-05
-4.5578e-05
-2.49223e-05
-4.08424e-05
-2.44674e-05
-3.6212e-05
-2.37529e-05
-3.17323e-05
-2.27884e-05
-2.74464e-05
-2.15883e-05
-2.33942e-05
-2.01717e-05
-1.96117e-05
-1.85625e-05
-1.61303e-05
-1.67894e-05
-1.29758e-05
-1.4886e-05
-1.01678e-05
-1.28909e-05
-7.719e-06
-1.08472e-05
-5.63469e-06
-8.80342e-06
-3.91228e-06
-6.81321e-06
-2.54099e-06
-4.93575e-06
-1.50168e-06
-3.23627e-06
-7.66946e-07
-1.78671e-06
-3.01343e-07
-6.66148e-07
-6.2056e-08
3.84121e-08
2.25745e-07
-2.77381e-07
8.35918e-07
-1.07353e-06
2.90867e-06
-2.35617e-06
5.2181e-06
-4.0945e-06
7.63931e-06
-6.25779e-06
1.0078e-05
-8.81478e-06
1.24602e-05
-1.17335e-05
1.473e-05
-1.4981e-05
1.68468e-05
-1.85241e-05
1.87826e-05
-2.2329e-05
2.05194e-05
-2.63617e-05
2.20473e-05
-3.05887e-05
2.3362e-05
-3.49766e-05
2.44636e-05
-3.94925e-05
2.53553e-05
-4.41044e-05
2.60419e-05
-4.87805e-05
2.6529e-05
-5.349e-05
2.68226e-05
-5.82026e-05
2.69284e-05
-6.28885e-05
2.68518e-05
-6.75187e-05
2.65971e-05
-7.20642e-05
2.61681e-05
-7.64967e-05
2.5568e-05
-8.07881e-05
2.47992e-05
-8.49109e-05
2.38639e-05
-8.88378e-05
2.27642e-05
-9.25419e-05
2.15023e-05
-9.59971e-05
2.00808e-05
-9.91779e-05
1.85031e-05
-0.000102059
1.67736e-05
-0.000104618
1.48979e-05
-0.000106832
1.28832e-05
-0.00010868
1.07383e-05
-0.000110143
8.47405e-06
-0.000111204
6.10304e-06
-0.00011185
3.64013e-06
-0.000112068
1.1022e-06
-0.000111849
-1.49176e-06
-0.000111188
-4.12077e-06
-0.000110084
-6.76198e-06
-0.000108537
-9.39088e-06
-0.000106554
-1.19815e-05
-0.000104146
-1.45068e-05
-0.000101325
-1.69389e-05
-9.81116e-05
-1.92495e-05
-9.45281e-05
-2.14105e-05
-9.06019e-05
-2.33943e-05
-8.63647e-05
-2.51743e-05
-8.1852e-05
-2.67256e-05
-7.7103e-05
-2.80252e-05
-7.21603e-05
-2.9053e-05
-6.70695e-05
-2.97921e-05
-6.18783e-05
-3.0229e-05
-5.66363e-05
-3.03546e-05
-5.13942e-05
-3.01644e-05
-4.6203e-05
-2.96587e-05
-4.1113e-05
-2.88428e-05
-3.61735e-05
-2.77279e-05
-3.14314e-05
-2.63305e-05
-2.69305e-05
-2.46726e-05
-2.27108e-05
-2.27822e-05
-1.88072e-05
-2.06929e-05
-1.52494e-05
-1.84439e-05
-1.20602e-05
-1.608e-05
-9.25584e-06
-1.36516e-05
-6.84471e-06
-1.12146e-05
-4.82732e-06
-8.8306e-06
-3.19596e-06
-6.56711e-06
-1.93463e-06
-4.4976e-06
-1.01926e-06
-2.70209e-06
-4.18161e-07
-1.26725e-06
-9.29484e-08
-2.86802e-07
1.32799e-07
-3.2126e-07
1.15718e-06
-1.23526e-06
3.82267e-06
-2.69701e-06
6.67984e-06
-4.6644e-06
9.6067e-06
-7.09699e-06
1.25106e-05
-9.95535e-06
1.53186e-05
-1.32007e-05
1.79754e-05
-1.67946e-05
2.04408e-05
-2.06992e-05
2.26872e-05
-2.4877e-05
2.46973e-05
-2.92912e-05
2.64614e-05
-3.39054e-05
2.79762e-05
-3.86842e-05
2.92424e-05
-4.35929e-05
3.0264e-05
-4.85974e-05
3.10464e-05
-5.36647e-05
3.15962e-05
-5.87622e-05
3.19201e-05
-6.38582e-05
3.20245e-05
-6.89216e-05
3.19151e-05
-7.39215e-05
3.15971e-05
-7.88279e-05
3.10745e-05
-8.36108e-05
3.03509e-05
-8.82408e-05
2.94292e-05
-9.26887e-05
2.83118e-05
-9.69258e-05
2.70014e-05
-0.000100924
2.55004e-05
-0.000104655
2.38122e-05
-0.000108093
2.19409e-05
-0.000111211
1.98917e-05
-0.000113985
1.76714e-05
-0.00011639
1.52885e-05
-0.000118405
1.27534e-05
-0.00012001
1.00787e-05
-0.000121186
7.27931e-06
-0.000121919
4.37251e-06
-0.000122194
1.37796e-06
-0.000122004
-1.68228e-06
-0.000121341
-4.78384e-06
-0.000120203
-7.90023e-06
-0.00011859
-1.1003e-05
-0.00011651
-1.40621e-05
-0.000113971
-1.7046e-05
-0.000110987
-1.99225e-05
-0.000107578
-2.26587e-05
-0.000103767
-2.52217e-05
-9.95814e-05
-2.75796e-05
-9.50547e-05
-2.9701e-05
-9.02235e-05
-3.15568e-05
-8.51285e-05
-3.31201e-05
-7.98145e-05
-3.43671e-05
-7.43292e-05
-3.52774e-05
-6.87232e-05
-3.5835e-05
-6.30489e-05
-3.60289e-05
-5.73605e-05
-3.58529e-05
-5.17124e-05
-3.53067e-05
-4.6159e-05
-3.43963e-05
-4.07533e-05
-3.31336e-05
-3.55464e-05
-3.15374e-05
-3.05863e-05
-2.96326e-05
-2.59172e-05
-2.74513e-05
-2.15782e-05
-2.50319e-05
-1.7603e-05
-2.24192e-05
-1.40185e-05
-1.96645e-05
-1.08447e-05
-1.68254e-05
-8.09365e-06
-1.39656e-05
-5.76952e-06
-1.11547e-05
-3.86809e-06
-8.46854e-06
-2.37687e-06
-5.98883e-06
-1.27536e-06
-3.80359e-06
-5.35677e-07
-2.00692e-06
-1.23571e-07
-6.98909e-07
9.22831e-09
-3.63637e-07
1.52081e-06
-1.39214e-06
4.85117e-06
-3.0286e-06
8.31631e-06
-5.22019e-06
1.17983e-05
-7.91701e-06
1.52074e-05
-1.10715e-05
1.84731e-05
-1.46381e-05
2.15419e-05
-1.85727e-05
2.43754e-05
-2.28327e-05
2.69472e-05
-2.73769e-05
2.92414e-05
-3.21652e-05
3.12497e-05
-3.71588e-05
3.29698e-05
-4.23199e-05
3.44036e-05
-4.7612e-05
3.55561e-05
-5.29995e-05
3.64339e-05
-5.84477e-05
3.70444e-05
-6.39229e-05
3.73953e-05
-6.93919e-05
3.74935e-05
-7.48223e-05
3.73456e-05
-8.01823e-05
3.6957e-05
-8.54402e-05
3.63324e-05
-9.05651e-05
3.54758e-05
-9.55261e-05
3.43902e-05
-0.000100293
3.30787e-05
-0.000104836
3.15441e-05
-0.000109125
2.97895e-05
-0.000113131
2.78187e-05
-0.000116827
2.56366e-05
-0.000120184
2.32493e-05
-0.000123178
2.06646e-05
-0.000125782
1.78925e-05
-0.000127973
1.49449e-05
-0.000129731
1.18364e-05
-0.000131035
8.58393e-06
-0.00013187
5.20735e-06
-0.000132221
1.72913e-06
-0.000132078
-1.82555e-06
-0.000131433
-5.4289e-06
-0.000130283
-9.0507e-06
-0.000128627
-1.26585e-05
-0.000126471
-1.62179e-05
-0.000123824
-1.9693e-05
-0.0001207
-2.30469e-05
-0.000117117
-2.62418e-05
-0.000113098
-2.92401e-05
-0.000108673
-3.20048e-05
-0.000103874
-3.44999e-05
-9.87397e-05
-3.66915e-05
-9.33115e-05
-3.85484e-05
-8.7636e-05
-4.00425e-05
-8.17634e-05
-4.115e-05
-7.57467e-05
-4.18518e-05
-6.96414e-05
-4.21342e-05
-6.35048e-05
-4.19894e-05
-5.73953e-05
-4.14163e-05
-5.13709e-05
-4.04207e-05
-4.54892e-05
-3.90154e-05
-3.98056e-05
-3.7221e-05
-3.43727e-05
-3.50655e-05
-2.92392e-05
-3.25848e-05
-2.44491e-05
-2.9822e-05
-2.00404e-05
-2.68278e-05
-1.60447e-05
-2.36602e-05
-1.24862e-05
-2.03839e-05
-9.38135e-06
-1.70704e-05
-6.73826e-06
-1.37978e-05
-4.55663e-06
-1.06502e-05
-2.82775e-06
-7.7177e-06
-1.53487e-06
-5.09648e-06
-6.53787e-07
-2.888e-06
-1.5395e-07
-1.19875e-06
-1.44723e-07
-4.04501e-07
1.92532e-06
-1.54386e-06
5.99052e-06
-3.35003e-06
1.01225e-05
-5.75994e-06
1.42082e-05
-8.71463e-06
1.81621e-05
-1.21586e-05
2.19171e-05
-1.60395e-05
2.54228e-05
-2.03077e-05
2.86435e-05
-2.49157e-05
3.15553e-05
-2.98185e-05
3.41442e-05
-3.49728e-05
3.6404e-05
-4.03372e-05
3.83341e-05
-4.58717e-05
3.99381e-05
-5.1538e-05
4.12224e-05
-5.7299e-05
4.21949e-05
-6.31187e-05
4.28641e-05
-6.8962e-05
4.32385e-05
-7.47947e-05
4.33262e-05
-8.05832e-05
4.31341e-05
-8.62947e-05
4.26685e-05
-9.18967e-05
4.19344e-05
-9.73569e-05
4.0936e-05
-0.000102644
3.96769e-05
-0.000107725
3.81605e-05
-0.000112571
3.63899e-05
-0.000117151
3.43688e-05
-0.000121433
3.21014e-05
-0.00012539
2.95933e-05
-0.000128992
2.68515e-05
-0.000132213
2.3885e-05
-0.000135025
2.07049e-05
-0.000137405
1.73248e-05
-0.000139329
1.37611e-05
-0.000140778
1.00329e-05
-0.000141734
6.16258e-06
-0.00014218
2.17535e-06
-0.000142105
-1.90047e-06
-0.0001415
-6.03365e-06
-0.000140361
-1.01902e-05
-0.000138686
-1.43336e-05
-0.000136479
-1.8425e-05
-0.000133747
-2.24241e-05
-0.000130505
-2.62888e-05
-0.000126771
-2.99767e-05
-0.000122566
-3.34448e-05
-0.00011792
-3.6651e-05
-0.000112865
-3.95541e-05
-0.000107442
-4.21153e-05
-0.000101692
-4.42983e-05
-9.56634e-05
-4.60707e-05
-8.94088e-05
-4.74045e-05
-8.29836e-05
-4.82771e-05
-7.64461e-05
-4.86717e-05
-6.98571e-05
-4.85784e-05
-6.32786e-05
-4.79948e-05
-5.67733e-05
-4.6926e-05
-5.04029e-05
-4.53858e-05
-4.42278e-05
-4.33961e-05
-3.83056e-05
-4.09877e-05
-3.26902e-05
-3.82002e-05
-2.74306e-05
-3.50816e-05
-2.25701e-05
-3.16883e-05
-1.81453e-05
-2.8085e-05
-1.41854e-05
-2.43438e-05
-1.07115e-05
-2.05444e-05
-7.73615e-06
-1.67732e-05
-5.26339e-06
-1.31229e-05
-3.28854e-06
-9.69254e-06
-1.79862e-06
-6.5864e-06
-7.72959e-07
-3.91366e-06
-1.84263e-07
-1.78744e-06
-3.28987e-07
-4.43841e-07
2.36916e-06
-1.69021e-06
7.23689e-06
-3.66056e-06
1.20928e-05
-6.28217e-06
1.68298e-05
-9.48732e-06
2.13672e-05
-1.32129e-05
2.56427e-05
-1.74e-05
2.96099e-05
-2.19932e-05
3.32367e-05
-2.69406e-05
3.65027e-05
-3.21931e-05
3.93968e-05
-3.77044e-05
4.19153e-05
-4.34303e-05
4.406e-05
-4.93289e-05
4.58367e-05
-5.536e-05
4.72535e-05
-6.14851e-05
4.83199e-05
-6.76669e-05
4.90458e-05
-7.38692e-05
4.94409e-05
-8.00569e-05
4.95139e-05
-8.61956e-05
4.92728e-05
-9.22513e-05
4.87243e-05
-9.81909e-05
4.78739e-05
-0.000103981
4.67263e-05
-0.00010959
4.52855e-05
-0.000114984
4.35549e-05
-0.000120132
4.15383e-05
-0.000125003
3.92395e-05
-0.000129565
3.66634e-05
-0.000133788
3.38163e-05
-0.000137643
3.07059e-05
-0.0001411
2.73421e-05
-0.000144132
2.37375e-05
-0.000146715
1.9907e-05
-0.000148822
1.58689e-05
-0.000150434
1.16444e-05
-0.00015153
7.25821e-06
-0.000152093
2.73829e-06
-0.000152109
-1.88395e-06
-0.000151569
-6.57386e-06
-0.000150465
-1.12937e-05
-0.000148796
-1.60027e-05
-0.000146563
-2.06579e-05
-0.000143773
-2.5214e-05
-0.000140438
-2.9624e-05
-0.000136575
-3.38402e-05
-0.000132205
-3.78144e-05
-0.000127357
-4.14987e-05
-0.000122065
-4.48467e-05
-0.000116366
-4.78139e-05
-0.000110306
-5.03587e-05
-0.000103933
-5.24438e-05
-9.73008e-05
-5.40365e-05
-9.04679e-05
-5.51099e-05
-8.34956e-05
-5.56439e-05
-7.64481e-05
-5.56259e-05
-6.93915e-05
-5.50514e-05
-6.23928e-05
-5.39248e-05
-5.55188e-05
-5.22598e-05
-4.8835e-05
-5.00798e-05
-4.24047e-05
-4.74181e-05
-3.62872e-05
-4.43176e-05
-3.05376e-05
-4.08312e-05
-2.52047e-05
-3.70212e-05
-2.03309e-05
-3.29588e-05
-1.59507e-05
-2.87239e-05
-1.20907e-05
-2.44045e-05
-8.7683e-06
-2.00955e-05
-5.99217e-06
-1.58991e-05
-3.76187e-06
-1.19228e-05
-2.06827e-06
-8.28001e-06
-8.94065e-07
-5.08787e-06
-2.14789e-07
-2.46671e-06
-5.43777e-07
-4.81636e-07
2.8508e-06
-1.83098e-06
8.58623e-06
-3.95961e-06
1.42215e-05
-6.78559e-06
1.96558e-05
-1.02329e-05
2.48146e-05
-1.42312e-05
2.96409e-05
-1.8715e-05
3.40937e-05
-2.36237e-05
3.81454e-05
-2.89006e-05
4.17796e-05
-3.44929e-05
4.49891e-05
-4.03511e-05
4.77735e-05
-4.64286e-05
5.01375e-05
-5.26812e-05
5.20894e-05
-5.90673e-05
5.36396e-05
-6.55468e-05
5.47994e-05
-7.20813e-05
5.55804e-05
-7.86338e-05
5.59933e-05
-8.51682e-05
5.60483e-05
-9.16494e-05
5.5754e-05
-9.80428e-05
5.51177e-05
-0.000104314
5.41456e-05
-0.000110431
5.28426e-05
-0.000116358
5.1213e-05
-0.000122064
4.92608e-05
-0.000127516
4.69897e-05
-0.00013268
4.44042e-05
-0.000137526
4.15095e-05
-0.000142022
3.83123e-05
-0.000146138
3.48213e-05
-0.000149843
3.10473e-05
-0.000153109
2.70039e-05
-0.00015591
2.27075e-05
-0.000158219
1.81779e-05
-0.000160013
1.34385e-05
-0.000161271
8.51613e-06
-0.000161974
3.4415e-06
-0.000162107
-1.75104e-06
-0.000161657
-7.02347e-06
-0.000160617
-1.23343e-05
-0.000158981
-1.76388e-05
-0.000156749
-2.28893e-05
-0.000153927
-2.80359e-05
-0.000150525
-3.30264e-05
-0.000146557
-3.78077e-05
-0.000142046
-4.23259e-05
-0.000137017
-4.65273e-05
-0.000131504
-5.03595e-05
-0.000125546
-5.37722e-05
-0.000119187
-5.67179e-05
-0.000112477
-5.91536e-05
-0.000105472
-6.10415e-05
-9.82324e-05
-6.23498e-05
-9.08221e-05
-6.30543e-05
-8.33091e-05
-6.31389e-05
-7.57637e-05
-6.25967e-05
-6.82578e-05
-6.14307e-05
-6.08634e-05
-5.96542e-05
-5.36519e-05
-5.72914e-05
-4.66923e-05
-5.43776e-05
-4.00505e-05
-5.09594e-05
-3.37879e-05
-4.70939e-05
-2.79596e-05
-4.28494e-05
-2.26145e-05
-3.83039e-05
-1.77932e-05
-3.35452e-05
-1.35279e-05
-2.86697e-05
-9.84172e-06
-2.37817e-05
-6.7482e-06
-1.89926e-05
-4.2514e-06
-1.44196e-05
-2.3461e-06
-1.01853e-05
-1.01826e-06
-6.41571e-06
-2.45874e-07
-3.23909e-06
-7.8965e-07
-5.17848e-07
3.36865e-06
-1.96597e-06
1.00344e-05
-4.24657e-06
1.65021e-05
-7.26905e-06
2.26783e-05
-1.09496e-05
2.84951e-05
-1.52106e-05
3.3902e-05
-1.99808e-05
3.88639e-05
-2.51941e-05
4.33587e-05
-3.07896e-05
4.7375e-05
-3.67106e-05
5.09101e-05
-4.29047e-05
5.39676e-05
-4.93228e-05
5.65556e-05
-5.59188e-05
5.86854e-05
-6.26493e-05
6.03701e-05
-6.94731e-05
6.16232e-05
-7.63507e-05
6.2458e-05
-8.32443e-05
6.28869e-05
-9.01171e-05
6.29212e-05
-9.69334e-05
6.25703e-05
-0.000103658
6.18425e-05
-0.000110257
6.07442e-05
-0.000116695
5.9281e-05
-0.00012294
5.74575e-05
-0.000128957
5.52777e-05
-0.000134713
5.27457e-05
-0.000140175
4.98663e-05
-0.00014531
4.66451e-05
-0.000150087
4.30893e-05
-0.000154474
3.92081e-05
-0.00015844
3.50131e-05
-0.000161955
3.05189e-05
-0.000164991
2.57432e-05
-0.00016752
2.07074e-05
-0.000169518
1.54365e-05
-0.000170962
9.95973e-06
-0.00017183
4.3101e-06
-0.000172106
-1.47513e-06
-0.000171775
-7.3547e-06
-0.000170826
-1.32835e-05
-0.000169252
-1.92127e-05
-0.000167051
-2.50902e-05
-0.000164226
-3.08612e-05
-0.000160784
-3.64683e-05
-0.000156739
-4.18527e-05
-0.00015211
-4.69547e-05
-0.000146923
-5.17144e-05
-0.00014121
-5.6073e-05
-0.000135008
-5.99737e-05
-0.000128363
-6.33628e-05
-0.000121326
-6.61909e-05
-0.000113953
-6.84142e-05
-0.000106307
-6.99955e-05
-9.84559e-05
-7.09057e-05
-9.04702e-05
-7.11245e-05
-8.2425e-05
-7.06419e-05
-7.43972e-05
-6.94585e-05
-6.64645e-05
-6.75869e-05
-5.87044e-05
-6.50515e-05
-5.11928e-05
-6.18893e-05
-4.40024e-05
-5.81498e-05
-3.72015e-05
-5.38948e-05
-3.08527e-05
-4.91982e-05
-2.50116e-05
-4.4145e-05
-1.97258e-05
-3.88311e-05
-1.50339e-05
-3.33617e-05
-1.09649e-05
-2.78508e-05
-7.5378e-06
-2.24196e-05
-4.76153e-06
-1.71959e-05
-2.63484e-06
-1.2312e-05
-1.14689e-06
-7.90367e-06
-2.77909e-07
-4.10807e-06
-1.06756e-06
-5.52424e-07
3.92107e-06
-2.0949e-06
1.15768e-05
-4.5208e-06
1.8928e-05
-7.73133e-06
2.58888e-05
-1.16352e-05
3.23989e-05
-1.61483e-05
3.84152e-05
-2.11935e-05
4.3909e-05
-2.66996e-05
4.88649e-05
-3.26016e-05
5.3277e-05
-3.88393e-05
5.71478e-05
-4.53572e-05
6.04855e-05
-5.2104e-05
6.33023e-05
-5.90317e-05
6.56131e-05
-6.60954e-05
6.74338e-05
-7.32527e-05
6.87804e-05
-8.04632e-05
6.96685e-05
-8.76884e-05
7.01122e-05
-9.48911e-05
7.01238e-05
-0.000102035
6.97142e-05
-0.000109085