/*--------------------------------*- C++ -*----------------------------------*\
  =========                 |
  \\      /  F ield         | OpenFOAM: The Open Source CFD Toolbox
   \\    /   O peration     | Website:  https://openfoam.org
    \\  /    A nd           | Version:  dev
     \\/     M anipulation  |
\*---------------------------------------------------------------------------*/
FoamFile
{
    format      ascii;
    class       volVectorField;
    location    "24.75";
    object      U;
}
// * * * * * * * * * * * * * * * * * * * * * * * * * * * * * * * * * * * * * //

dimensions      [0 1 -1 0 0 0 0];

internalField   nonuniform List<vector> 
5184
(
(1.22355e-05 -1.27882e-05 0)
(4.5013e-05 -2.09253e-05 0)
(8.02116e-05 -1.72554e-05 0)
(9.58766e-05 -8.19462e-06 0)
(8.20464e-05 2.67186e-06 0)
(3.63567e-05 1.36178e-05 0)
(-4.0639e-05 2.38421e-05 0)
(-0.000146922 3.30394e-05 0)
(-0.000279703 4.10921e-05 0)
(-0.000435923 4.80064e-05 0)
(-0.000612461 5.38439e-05 0)
(-0.000806287 5.86893e-05 0)
(-0.00101453 6.26347e-05 0)
(-0.00123454 6.57712e-05 0)
(-0.00146384 6.81839e-05 0)
(-0.00170018 6.99482e-05 0)
(-0.00194149 7.11282e-05 0)
(-0.00218586 7.17764e-05 0)
(-0.0024315 7.19334e-05 0)
(-0.00267673 7.16289e-05 0)
(-0.00291995 7.08824e-05 0)
(-0.00315959 6.97044e-05 0)
(-0.00339413 6.80975e-05 0)
(-0.00362204 6.6059e-05 0)
(-0.0038418 6.35815e-05 0)
(-0.00405186 6.06555e-05 0)
(-0.00425068 5.72704e-05 0)
(-0.00443668 5.34167e-05 0)
(-0.00460828 4.90871e-05 0)
(-0.00476391 4.42788e-05 0)
(-0.004902 3.89942e-05 0)
(-0.00502103 3.32426e-05 0)
(-0.00511955 2.70411e-05 0)
(-0.00519618 2.04157e-05 0)
(-0.00524965 1.3402e-05 0)
(-0.00527886 6.04576e-06 0)
(-0.00528286 -1.59696e-06 0)
(-0.00526092 -9.45969e-06 0)
(-0.00521254 -1.7466e-05 0)
(-0.00513749 -2.55303e-05 0)
(-0.00503584 -3.35581e-05 0)
(-0.00490795 -4.14481e-05 0)
(-0.00475455 -4.90929e-05 0)
(-0.00457667 -5.63815e-05 0)
(-0.00437572 -6.32015e-05 0)
(-0.00415345 -6.94411e-05 0)
(-0.00391196 -7.49915e-05 0)
(-0.00365366 -7.975e-05 0)
(-0.0033813 -8.36219e-05 0)
(-0.00309787 -8.65235e-05 0)
(-0.00280659 -8.83844e-05 0)
(-0.00251091 -8.91492e-05 0)
(-0.00221439 -8.87796e-05 0)
(-0.00192067 -8.72557e-05 0)
(-0.00163344 -8.45771e-05 0)
(-0.00135632 -8.07635e-05 0)
(-0.00109286 -7.58545e-05 0)
(-0.00084643 -6.99086e-05 0)
(-0.000620167 -6.3003e-05 0)
(-0.000416926 -5.52332e-05 0)
(-0.000239202 -4.67131e-05 0)
(-8.90737e-05 -3.75762e-05 0)
(3.18716e-05 -2.79776e-05 0)
(0.000122619 -1.80996e-05 0)
(0.000182834 -8.16732e-06 0)
(0.000213018 1.52474e-06 0)
(0.000214757 1.05538e-05 0)
(0.000191098 1.82828e-05 0)
(0.000147069 2.36994e-05 0)
(9.07556e-05 2.51127e-05 0)
(3.66167e-05 1.98396e-05 0)
(6.22638e-06 6.24405e-06 0)
(2.07844e-05 -4.59888e-05 0)
(6.5485e-05 -6.57529e-05 0)
(9.45572e-05 -4.05585e-05 0)
(7.26448e-05 7.64072e-06 0)
(-1.90835e-05 6.5674e-05 0)
(-0.000187433 0.000125965 0)
(-0.000432981 0.000184243 0)
(-0.00075251 0.000238262 0)
(-0.00114048 0.000286885 0)
(-0.0015901 0.00032967 0)
(-0.00209405 0.000366579 0)
(-0.00264486 0.000397801 0)
(-0.00323524 0.000423648 0)
(-0.00385819 0.000444487 0)
(-0.00450711 0.000460693 0)
(-0.00517582 0.000472626 0)
(-0.0058585 0.000480609 0)
(-0.00654973 0.000484917 0)
(-0.00724436 0.000485772 0)
(-0.00793752 0.000483346 0)
(-0.00862451 0.000477762 0)
(-0.00930078 0.000469095 0)
(-0.00996186 0.000457384 0)
(-0.0106033 0.000442637 0)
(-0.0112208 0.000424844 0)
(-0.0118098 0.000403981 0)
(-0.012366 0.000380024 0)
(-0.0128849 0.000352955 0)
(-0.0133623 0.000322776 0)
(-0.0137937 0.000289513 0)
(-0.0141748 0.000253226 0)
(-0.0145017 0.000214018 0)
(-0.0147704 0.000172039 0)
(-0.0149773 0.000127492 0)
(-0.0151191 8.06358e-05 0)
(-0.0151929 3.17892e-05 0)
(-0.0151965 -1.86689e-05 0)
(-0.015128 -7.03007e-05 0)
(-0.0149864 -0.000122612 0)
(-0.0147711 -0.000175055 0)
(-0.0144827 -0.000227037 0)
(-0.0141223 -0.000277926 0)
(-0.0136921 -0.00032706 0)
(-0.0131951 -0.000373762 0)
(-0.0126352 -0.000417347 0)
(-0.0120173 -0.000457141 0)
(-0.0113472 -0.000492491 0)
(-0.0106315 -0.000522784 0)
(-0.00987747 -0.000547457 0)
(-0.0090933 -0.000566018 0)
(-0.00828767 -0.000578052 0)
(-0.00746975 -0.000583242 0)
(-0.00664906 -0.000581371 0)
(-0.00583534 -0.000572335 0)
(-0.00503837 -0.00055615 0)
(-0.00426781 -0.000532955 0)
(-0.00353304 -0.000503013 0)
(-0.00284296 -0.000466715 0)
(-0.00220587 -0.000424573 0)
(-0.00162924 -0.000377226 0)
(-0.00111953 -0.000325443 0)
(-0.000682061 -0.000270128 0)
(-0.00032073 -0.000212342 0)
(-3.78257e-05 -0.000153337 0)
(0.000166281 -9.46208e-05 0)
(0.000293509 -3.80727e-05 0)
(0.0003486 1.38518e-05 0)
(0.000339818 5.78486e-05 0)
(0.000279647 8.9326e-05 0)
(0.000185932 0.000101789 0)
(8.63246e-05 8.64728e-05 0)
(1.96727e-05 3.64763e-05 0)
(1.76012e-05 -8.13199e-05 0)
(4.12343e-05 -9.5011e-05 0)
(1.94673e-05 -1.91038e-05 0)
(-8.41325e-05 0.000105934 0)
(-0.000290343 0.000254604 0)
(-0.000607905 0.000410474 0)
(-0.00103808 0.000563238 0)
(-0.00157705 0.000706764 0)
(-0.00221765 0.000837607 0)
(-0.0029507 0.000954063 0)
(-0.00376593 0.00105554 0)
(-0.00465263 0.00114213 0)
(-0.00560008 0.00121434 0)
(-0.00659782 0.00127291 0)
(-0.00763581 0.00131865 0)
(-0.00870449 0.00135239 0)
(-0.00979479 0.00137489 0)
(-0.0108981 0.00138684 0)
(-0.0120062 0.00138878 0)
(-0.0131113 0.00138118 0)
(-0.0142058 0.00136434 0)
(-0.0152823 0.00133851 0)
(-0.0163336 0.0013038 0)
(-0.0173526 0.00126028 0)
(-0.0183321 0.00120796 0)
(-0.0192652 0.00114683 0)
(-0.0201449 0.00107688 0)
(-0.0209641 0.000998119 0)
(-0.021716 0.00091062 0)
(-0.0223939 0.000814519 0)
(-0.0229911 0.000710047 0)
(-0.0235014 0.000597548 0)
(-0.0239188 0.000477495 0)
(-0.024238 0.000350503 0)
(-0.0244539 0.000217338 0)
(-0.0245624 7.8921e-05 0)
(-0.0245601 -6.36681e-05 0)
(-0.0244445 -0.000209195 0)
(-0.024214 -0.000356277 0)
(-0.0238684 -0.000503397 0)
(-0.0234084 -0.000648922 0)
(-0.0228362 -0.000791121 0)
(-0.0221554 -0.000928191 0)
(-0.0213706 -0.00105829 0)
(-0.0204882 -0.00117957 0)
(-0.0195157 -0.00129021 0)
(-0.0184622 -0.00138846 0)
(-0.0173377 -0.00147268 0)
(-0.0161538 -0.00154136 0)
(-0.0149227 -0.00159318 0)
(-0.0136579 -0.00162706 0)
(-0.0123733 -0.00164215 0)
(-0.0110834 -0.00163789 0)
(-0.00980321 -0.00161402 0)
(-0.00854748 -0.00157062 0)
(-0.00733092 -0.00150807 0)
(-0.00616779 -0.00142713 0)
(-0.0050716 -0.0013289 0)
(-0.00405489 -0.00121482 0)
(-0.00312894 -0.0010867 0)
(-0.00230348 -0.000946715 0)
(-0.0015864 -0.000797421 0)
(-0.000983443 -0.000641828 0)
(-0.000497836 -0.000483465 0)
(-0.000129897 -0.000326529 0)
(0.000123439 -0.000176107 0)
(0.000269262 -3.85096e-05 0)
(0.000319405 7.825e-05 0)
(0.000290989 0.00016388 0)
(0.000207232 0.000205218 0)
(0.000102383 0.000186157 0)
(2.49638e-05 9.03485e-05 0)
(8.81894e-06 -9.76969e-05 0)
(-7.06925e-06 -7.3072e-05 0)
(-0.000107652 8.48272e-05 0)
(-0.000322395 0.000318328 0)
(-0.000669532 0.000589946 0)
(-0.00115746 0.000874072 0)
(-0.00178693 0.00115369 0)
(-0.00255317 0.00141801 0)
(-0.00344764 0.00166057 0)
(-0.00445931 0.00187785 0)
(-0.00557572 0.00206829 0)
(-0.00678365 0.00223163 0)
(-0.00806972 0.00236843 0)
(-0.00942066 0.00247974 0)
(-0.0108236 0.00256683 0)
(-0.0122661 0.00263102 0)
(-0.0137362 0.00267359 0)
(-0.0152227 0.00269571 0)
(-0.0167144 0.00269834 0)
(-0.0182009 0.00268227 0)
(-0.019672 0.00264811 0)
(-0.0211178 0.00259628 0)
(-0.0225284 0.00252705 0)
(-0.0238941 0.00244058 0)
(-0.0252056 0.00233695 0)
(-0.0264533 0.00221621 0)
(-0.0276279 0.0020784 0)
(-0.0287201 0.00192364 0)
(-0.0297207 0.00175213 0)
(-0.030621 0.00156423 0)
(-0.0314124 0.00136046 0)
(-0.0320866 0.00114155 0)
(-0.0326361 0.000908486 0)
(-0.0330538 0.000662493 0)
(-0.0333335 0.000405088 0)
(-0.0334699 0.000138071 0)
(-0.0334589 -0.00013647 0)
(-0.0332973 -0.000416168 0)
(-0.0329836 -0.000698388 0)
(-0.0325175 -0.000980256 0)
(-0.0319004 -0.00125869 0)
(-0.0311352 -0.00153042 0)
(-0.0302268 -0.0017921 0)
(-0.0291816 -0.00204026 0)
(-0.0280078 -0.00227148 0)
(-0.0267155 -0.00248236 0)
(-0.0253164 -0.00266965 0)
(-0.0238238 -0.00283032 0)
(-0.0222524 -0.00296158 0)
(-0.0206185 -0.003061 0)
(-0.0189391 -0.00312659 0)
(-0.0172326 -0.00315677 0)
(-0.0155175 -0.00315055 0)
(-0.0138131 -0.00310746 0)
(-0.0121386 -0.00302765 0)
(-0.0105128 -0.00291191 0)
(-0.00895422 -0.00276167 0)
(-0.0074802 -0.00257903 0)
(-0.00610688 -0.00236673 0)
(-0.00484876 -0.00212824 0)
(-0.00371833 -0.00186769 0)
(-0.00272569 -0.00158998 0)
(-0.00187819 -0.00130083 0)
(-0.00117994 -0.00100689 0)
(-0.000631421 -0.000715987 0)
(-0.000228938 -0.000437382 0)
(3.59785e-05 -0.000182216 0)
(0.000177211 3.59092e-05 0)
(0.00021447 0.000200284 0)
(0.000173907 0.000290524 0)
(9.29478e-05 0.00028234 0)
(2.40109e-05 0.000147196 0)
(-2.13536e-06 -8.43338e-05 0)
(-6.73111e-05 2.09865e-05 0)
(-0.000264095 0.000295463 0)
(-0.000609653 0.000667895 0)
(-0.00111647 0.0010905 0)
(-0.00179075 0.00152938 0)
(-0.00263149 0.00196111 0)
(-0.00363233 0.00237023 0)
(-0.00478315 0.00274702 0)
(-0.00607123 0.00308585 0)
(-0.00748223 0.00338396 0)
(-0.0090009 0.00364052 0)
(-0.0106117 0.00385599 0)
(-0.012299 0.00403162 0)
(-0.0140475 0.00416906 0)
(-0.0158426 0.00427014 0)
(-0.0176696 0.00433664 0)
(-0.019515 0.00437021 0)
(-0.0213652 0.00437227 0)
(-0.0232074 0.00434401 0)
(-0.0250289 0.00428631 0)
(-0.0268175 0.00419986 0)
(-0.028561 0.0040851 0)
(-0.0302476 0.00394232 0)
(-0.0318655 0.00377173 0)
(-0.033403 0.00357348 0)
(-0.0348487 0.00334775 0)
(-0.0361913 0.00309483 0)
(-0.0374196 0.00281515 0)
(-0.038523 0.00250937 0)
(-0.039491 0.00217845 0)
(-0.040314 0.00182365 0)
(-0.0409828 0.00144662 0)
(-0.041489 0.00104941 0)
(-0.0418255 0.000634506 0)
(-0.041986 0.000204818 0)
(-0.0419658 -0.000236294 0)
(-0.0417613 -0.000685046 0)
(-0.041371 -0.00113725 0)
(-0.0407946 -0.00158836 0)
(-0.0400342 -0.0020335 0)
(-0.0390934 -0.00246757 0)
(-0.0379783 -0.00288526 0)
(-0.0366966 -0.00328121 0)
(-0.0352586 -0.00365004 0)
(-0.0336762 -0.00398646 0)
(-0.0319635 -0.00428544 0)
(-0.0301366 -0.00454222 0)
(-0.028213 -0.00475251 0)
(-0.0262122 -0.00491255 0)
(-0.0241546 -0.0050192 0)
(-0.0220619 -0.00507009 0)
(-0.0199564 -0.00506364 0)
(-0.0178611 -0.00499916 0)
(-0.0157988 -0.00487692 0)
(-0.0137921 -0.00469818 0)
(-0.0118628 -0.0044652 0)
(-0.0100318 -0.0041813 0)
(-0.00831834 -0.00385085 0)
(-0.00673974 -0.00347932 0)
(-0.00531093 -0.00307328 0)
(-0.00404404 -0.00264045 0)
(-0.00294795 -0.00218982 0)
(-0.00202779 -0.0017318 0)
(-0.00128452 -0.00127843 0)
(-0.000714369 -0.000843756 0)
(-0.000308364 -0.000444254 0)
(-5.17448e-05 -9.94772e-05 0)
(7.63494e-05 0.00016725 0)
(0.000103406 0.000328205 0)
(6.74242e-05 0.000350665 0)
(1.96478e-05 0.000194005 0)
(-1.36972e-05 -3.74439e-05 0)
(-0.000132813 0.00019743 0)
(-0.000435713 0.000626825 0)
(-0.000924349 0.00117004 0)
(-0.00160334 0.00177114 0)
(-0.00247525 0.00238931 0)
(-0.00353622 0.00299549 0)
(-0.00477758 0.00356991 0)
(-0.00618722 0.00409973 0)
(-0.00775064 0.00457719 0)
(-0.00945171 0.00499822 0)
(-0.0112734 0.00536131 0)
(-0.0131982 0.00566673 0)
(-0.0152086 0.00591583 0)
(-0.0172873 0.0061106 0)
(-0.0194174 0.0062533 0)
(-0.0215825 0.0063462 0)
(-0.0237667 0.00639145 0)
(-0.0259544 0.0063909 0)
(-0.0281305 0.00634613 0)
(-0.0302804 0.00625837 0)
(-0.0323896 0.00612856 0)
(-0.034444 0.00595735 0)
(-0.0364296 0.00574522 0)
(-0.0383327 0.00549254 0)
(-0.0401396 0.00519961 0)
(-0.0418369 0.00486682 0)
(-0.0434116 0.0044947 0)
(-0.0448508 0.004084 0)
(-0.046142 0.00363583 0)
(-0.0472735 0.00315166 0)
(-0.0482339 0.00263346 0)
(-0.049013 0.0020837 0)
(-0.0496014 0.00150542 0)
(-0.0499908 0.000902271 0)
(-0.0501743 0.000278501 0)
(-0.0501465 -0.00036103 0)
(-0.0499039 -0.00101087 0)
(-0.0494445 -0.00166502 0)
(-0.0487685 -0.00231698 0)
(-0.0478783 -0.00295983 0)
(-0.0467783 -0.0035863 0)
(-0.0454754 -0.00418888 0)
(-0.0439789 -0.00475999 0)
(-0.0423002 -0.00529201 0)
(-0.0404532 -0.00577752 0)
(-0.038454 -0.00620939 0)
(-0.0363209 -0.00658095 0)
(-0.0340742 -0.00688613 0)
(-0.0317356 -0.00711965 0)
(-0.0293288 -0.0072771 0)
(-0.0268783 -0.00735514 0)
(-0.0244096 -0.00735154 0)
(-0.0219489 -0.00726535 0)
(-0.0195222 -0.00709696 0)
(-0.0171553 -0.00684814 0)
(-0.0148732 -0.00652214 0)
(-0.0126998 -0.00612368 0)
(-0.0106572 -0.00565897 0)
(-0.00876515 -0.0051358 0)
(-0.00704103 -0.0045635 0)
(-0.0054989 -0.00395304 0)
(-0.00414924 -0.00331712 0)
(-0.00299842 -0.00267032 0)
(-0.00204821 -0.00202936 0)
(-0.00129535 -0.00141343 0)
(-0.000731073 -0.000844647 0)
(-0.000340665 -0.000348687 0)
(-0.000103183 4.44894e-05 0)
(8.98727e-06 0.000299955 0)
(3.24226e-05 0.000376914 0)
(1.36045e-05 0.000224339 0)
(-2.51811e-05 4.4168e-05 0)
(-0.00019995 0.000461261 0)
(-0.000613858 0.00108682 0)
(-0.00125242 0.00183414 0)
(-0.00211115 0.00264139 0)
(-0.00318791 0.00346237 0)
(-0.00447513 0.00426346 0)
(-0.00596109 0.00502122 0)
(-0.00763131 0.00572005 0)
(-0.00946923 0.00635028 0)
(-0.0114569 0.0069066 0)
(-0.0135755 0.00738683 0)
(-0.0158058 0.007791 0)
(-0.0181286 0.00812053 0)
(-0.0205249 0.0083777 0)
(-0.0229759 0.00856515 0)
(-0.0254634 0.00868564 0)
(-0.0279696 0.00874176 0)
(-0.0304772 0.00873581 0)
(-0.0329692 0.00866975 0)
(-0.035429 0.00854515 0)
(-0.0378404 0.00836322 0)
(-0.0401874 0.00812487 0)
(-0.042454 0.00783077 0)
(-0.0446249 0.00748148 0)
(-0.0466847 0.00707755 0)
(-0.0486181 0.00661961 0)
(-0.0504106 0.00610851 0)
(-0.0520477 0.00554543 0)
(-0.0535154 0.00493199 0)
(-0.0548008 0.00427032 0)
(-0.0558911 0.0035632 0)
(-0.056775 0.00281409 0)
(-0.0574422 0.00202719 0)
(-0.0578834 0.00120747 0)
(-0.0580913 0.000360706 0)
(-0.05806 -0.000506532 0)
(-0.0577855 -0.00138692 0)
(-0.0572659 -0.00227242 0)
(-0.0565015 -0.00315434 0)
(-0.0554949 -0.00402347 0)
(-0.0542513 -0.00487015 0)
(-0.0527784 -0.00568442 0)
(-0.0510862 -0.00645621 0)
(-0.0491877 -0.00717545 0)
(-0.0470982 -0.00783231 0)
(-0.0448356 -0.00841735 0)
(-0.0424199 -0.00892176 0)
(-0.0398735 -0.00933753 0)
(-0.0372208 -0.00965763 0)
(-0.0344876 -0.00987625 0)
(-0.0317013 -0.00998893 0)
(-0.0288901 -0.00999272 0)
(-0.0260829 -0.00988634 0)
(-0.0233087 -0.00967028 0)
(-0.0205963 -0.00934688 0)
(-0.0179734 -0.00892042 0)
(-0.0154668 -0.00839715 0)
(-0.0131011 -0.00778533 0)
(-0.0108988 -0.00709527 0)
(-0.00887943 -0.00633935 0)
(-0.00705907 -0.00553207 0)
(-0.00544997 -0.00469015 0)
(-0.00405998 -0.0038327 0)
(-0.00289211 -0.00298138 0)
(-0.00194408 -0.00216078 0)
(-0.00120795 -0.00139882 0)
(-0.000669793 -0.000727328 0)
(-0.000309414 -0.000182783 0)
(-9.9996e-05 0.000193025 0)
(-7.7772e-06 0.000351995 0)
(6.84617e-06 0.000234771 0)
(-3.63279e-05 0.000160496 0)
(-0.000266835 0.000814343 0)
(-0.00079341 0.00167922 0)
(-0.00158492 0.00266521 0)
(-0.00262722 0.00370663 0)
(-0.00391274 0.00475349 0)
(-0.00542953 0.00576877 0)
(-0.00716229 0.00672621 0)
(-0.00909371 0.00760801 0)
(-0.0112049 0.00840292 0)
(-0.013476 0.00910461 0)
(-0.0158864 0.00971035 0)
(-0.0184152 0.01022 0)
(-0.0210416 0.010635 0)
(-0.0237449 0.010958 0)
(-0.0265049 0.0111919 0)
(-0.0293019 0.01134 0)
(-0.0321162 0.0114053 0)
(-0.0349291 0.0113906 0)
(-0.0377219 0.011298 0)
(-0.0404764 0.0111297 0)
(-0.0431747 0.0108869 0)
(-0.0457991 0.010571 0)
(-0.0483323 0.0101829 0)
(-0.0507571 0.00972323 0)
(-0.0530566 0.00919291 0)
(-0.0552142 0.00859286 0)
(-0.0572137 0.00792433 0)
(-0.0590392 0.00718898 0)
(-0.0606757 0.00638906 0)
(-0.0621087 0.00552745 0)
(-0.0633247 0.00460788 0)
(-0.064311 0.00363488 0)
(-0.0650565 0.00261396 0)
(-0.0655514 0.00155158 0)
(-0.0657875 0.000455195 0)
(-0.0657584 -0.000666754 0)
(-0.06546 -0.00180488 0)
(-0.0648901 -0.00294893 0)
(-0.0640492 -0.00408784 0)
(-0.06294 -0.00520987 0)
(-0.061568 -0.00630278 0)
(-0.0599416 -0.00735396 0)
(-0.0580717 -0.00835061 0)
(-0.0559721 -0.00928002 0)
(-0.0536595 -0.0101297 0)
(-0.0511529 -0.0108878 0)
(-0.0484743 -0.011543 0)
(-0.0456478 -0.0120853 0)
(-0.0426997 -0.0125057 0)
(-0.0396581 -0.0127967 0)
(-0.0365526 -0.0129528 0)
(-0.033414 -0.0129701 0)
(-0.0302738 -0.0128469 0)
(-0.0271636 -0.0125837 0)
(-0.0241149 -0.0121836 0)
(-0.0211583 -0.0116517 0)
(-0.0183231 -0.0109961 0)
(-0.0156366 -0.010227 0)
(-0.0131238 -0.00935756 0)
(-0.0108065 -0.00840331 0)
(-0.00870311 -0.00738252 0)
(-0.00682776 -0.00631619 0)
(-0.00519011 -0.00522814 0)
(-0.00379476 -0.0041452 0)
(-0.00264089 -0.00309751 0)
(-0.00172192 -0.00211883 0)
(-0.0010253 -0.00124713 0)
(-0.000532203 -0.000525185 0)
(-0.000217305 -1.1862e-06 0)
(-5.05083e-05 0.000270342 0)
(-9.63567e-08 0.000223598 0)
(-4.70409e-05 0.000310905 0)
(-0.000332484 0.00125658 0)
(-0.000971371 0.002405 0)
(-0.00191626 0.0036651 0)
(-0.00314315 0.00496917 0)
(-0.00463869 0.0062649 0)
(-0.00638606 0.00751307 0)
(-0.00836599 0.00868548 0)
(-0.010558 0.00976283 0)
(-0.0129407 0.0107327 0)
(-0.0154919 0.0115882 0)
(-0.0181892 0.0123261 0)
(-0.0210102 0.0129463 0)
(-0.0239325 0.0134504 0)
(-0.026934 0.0138412 0)
(-0.029993 0.0141222 0)
(-0.0330883 0.014297 0)
(-0.0361991 0.0143691 0)
(-0.0393051 0.0143416 0)
(-0.0423862 0.0142171 0)
(-0.0454228 0.013998 0)
(-0.0483955 0.0136861 0)
(-0.0512854 0.0132826 0)
(-0.0540735 0.0127889 0)
(-0.0567414 0.0122059 0)
(-0.0592707 0.0115348 0)
(-0.0616435 0.0107768 0)
(-0.0638424 0.00993368 0)
(-0.0658503 0.00900766 0)
(-0.0676508 0.00800164 0)
(-0.0692284 0.00691939 0)
(-0.0705686 0.00576562 0)
(-0.0716578 0.00454609 0)
(-0.072484 0.00326771 0)
(-0.0730366 0.00193855 0)
(-0.0733069 0.000567872 0)
(-0.073288 -0.000833867 0)
(-0.0729752 -0.00225508 0)
(-0.0723663 -0.00368313 0)
(-0.0714614 -0.00510442 0)
(-0.0702636 -0.00650454 0)
(-0.0687784 -0.00786847 0)
(-0.0670146 -0.00918074 0)
(-0.0649836 -0.0104257 0)
(-0.0627001 -0.0115877 0)
(-0.0601815 -0.0126515 0)
(-0.0574482 -0.0136025 0)
(-0.0545234 -0.0144269 0)
(-0.0514327 -0.0151123 0)
(-0.0482042 -0.0156475 0)
(-0.0448679 -0.0160235 0)
(-0.0414556 -0.0162331 0)
(-0.0380003 -0.0162717 0)
(-0.0345359 -0.0161369 0)
(-0.0310967 -0.0158293 0)
(-0.0277167 -0.0153523 0)
(-0.0244291 -0.0147124 0)
(-0.021266 -0.013919 0)
(-0.0182574 -0.0129847 0)
(-0.0154309 -0.0119255 0)
(-0.0128107 -0.0107601 0)
(-0.0104177 -0.00951087 0)
(-0.00826826 -0.00820315 0)
(-0.00637416 -0.00686565 0)
(-0.00474197 -0.00553053 0)
(-0.00337271 -0.00423353 0)
(-0.00226164 -0.00301434 0)
(-0.00139805 -0.00191693 0)
(-0.000764984 -0.000990172 0)
(-0.000339039 -0.000288196 0)
(-9.42117e-05 0.000128852 0)
(-6.95279e-06 0.00019017 0)
(-5.73083e-05 0.000494491 0)
(-0.000396418 0.00178675 0)
(-0.00114601 0.00326326 0)
(-0.00224291 0.00483343 0)
(-0.00365338 0.00642899 0)
(-0.0053581 0.00799665 0)
(-0.00733515 0.00949611 0)
(-0.00956099 0.0108982 0)
(-0.0120117 0.0121827 0)
(-0.014663 0.0133369 0)
(-0.0174906 0.0143533 0)
(-0.0204702 0.0152288 0)
(-0.0235775 0.0159633 0)
(-0.0267887 0.0165588 0)
(-0.0300805 0.0170186 0)
(-0.0334298 0.0173463 0)
(-0.0368141 0.0175462 0)
(-0.0402115 0.0176222 0)
(-0.0436003 0.0175777 0)
(-0.0469593 0.0174158 0)
(-0.0502677 0.0171391 0)
(-0.0535048 0.0167496 0)
(-0.0566504 0.0162491 0)
(-0.0596845 0.0156389 0)
(-0.0625873 0.0149205 0)
(-0.0653392 0.0140952 0)
(-0.0679212 0.0131647 0)
(-0.0703147 0.0121312 0)
(-0.0725014 0.0109975 0)
(-0.0744641 0.00976734 0)
(-0.076186 0.00844537 0)
(-0.0776518 0.00703738 0)
(-0.078847 0.00555044 0)
(-0.0797586 0.00399292 0)
(-0.0803755 0.00237461 0)
(-0.080688 0.000706675 0)
(-0.0806889 -0.000998309 0)
(-0.0803729 -0.00272644 0)
(-0.0797374 -0.00446257 0)
(-0.0787823 -0.00619043 0)
(-0.0775103 -0.00789281 0)
(-0.0759272 -0.00955173 0)
(-0.0740418 -0.0111487 0)
(-0.0718658 -0.0126651 0)
(-0.0694143 -0.0140821 0)
(-0.0667055 -0.0153816 0)
(-0.0637607 -0.0165459 0)
(-0.060604 -0.0175586 0)
(-0.0572624 -0.0184046 0)
(-0.0537656 -0.0190705 0)
(-0.0501451 -0.0195454 0)
(-0.0464348 -0.0198205 0)
(-0.0426699 -0.0198898 0)
(-0.0388865 -0.0197506 0)
(-0.0351214 -0.0194031 0)
(-0.0314112 -0.0188513 0)
(-0.027792 -0.0181025 0)
(-0.0242984 -0.0171679 0)
(-0.0209634 -0.0160623 0)
(-0.0178172 -0.0148043 0)
(-0.014887 -0.0134165 0)
(-0.0121962 -0.011925 0)
(-0.00976371 -0.0103597 0)
(-0.00760379 -0.00875438 0)
(-0.00572537 -0.00714657 0)
(-0.00413171 -0.00557773 0)
(-0.00282027 -0.00409344 0)
(-0.00178258 -0.00274366 0)
(-0.00100389 -0.00158312 0)
(-0.000462984 -0.000671544 0)
(-0.000138071 -7.40908e-05 0)
(-1.36072e-05 0.000134405 0)
(-6.71477e-05 0.000710222 0)
(-0.00045841 0.00240293 0)
(-0.00131632 0.00425193 0)
(-0.00256265 0.00616824 0)
(-0.00415419 0.00808427 0)
(-0.00606565 0.00994696 0)
(-0.00826989 0.011716 0)
(-0.0107389 0.013362 0)
(-0.0134452 0.0148649 0)
(-0.0163616 0.0162118 0)
(-0.0194613 0.0173954 0)
(-0.022718 0.018413 0)
(-0.0261058 0.0192649 0)
(-0.0295995 0.0199534 0)
(-0.0331742 0.0204823 0)
(-0.036806 0.0208559 0)
(-0.0404711 0.0210788 0)
(-0.0441465 0.0211553 0)
(-0.0478094 0.0210894 0)
(-0.0514377 0.0208846 0)
(-0.0550094 0.0205436 0)
(-0.0585029 0.0200689 0)
(-0.0618968 0.0194624 0)
(-0.06517 0.0187257 0)
(-0.0683018 0.0178606 0)
(-0.0712715 0.0168688 0)
(-0.074059 0.0157524 0)
(-0.0766448 0.014514 0)
(-0.0790095 0.0131572 0)
(-0.0811349 0.0116864 0)
(-0.0830033 0.0101072 0)
(-0.0845985 0.00842666 0)
(-0.085905 0.00665305 0)
(-0.0869091 0.00479636 0)
(-0.0875987 0.0028681 0)
(-0.0879637 0.000881453 0)
(-0.0879958 -0.00114883 0)
(-0.0876893 -0.00320645 0)
(-0.0870409 -0.00527364 0)
(-0.0860501 -0.00733137 0)
(-0.0847194 -0.00935948 0)
(-0.0830541 -0.011337 0)
(-0.0810629 -0.0132421 0)
(-0.0787577 -0.0150531 0)
(-0.0761537 -0.0167479 0)
(-0.0732696 -0.0183052 0)
(-0.0701271 -0.0197041 0)
(-0.0667512 -0.0209252 0)
(-0.0631701 -0.0219508 0)
(-0.0594146 -0.0227649 0)
(-0.055518 -0.0233543 0)
(-0.0515159 -0.0237085 0)
(-0.0474454 -0.0238201 0)
(-0.0433452 -0.0236855 0)
(-0.0392542 -0.0233047 0)
(-0.035212 -0.0226819 0)
(-0.0312574 -0.0218253 0)
(-0.0274279 -0.0207476 0)
(-0.0237595 -0.019466 0)
(-0.0202855 -0.0180019 0)
(-0.017036 -0.0163812 0)
(-0.0140374 -0.0146342 0)
(-0.0113117 -0.0127955 0)
(-0.00887577 -0.0109039 0)
(-0.00674132 -0.00900253 0)
(-0.00491423 -0.00713852 0)
(-0.00339451 -0.00536344 0)
(-0.00217622 -0.00373318 0)
(-0.00124707 -0.00230823 0)
(-0.00058813 -0.00115367 0)
(-0.00018176 -0.000339322 0)
(-2.00334e-05 5.64716e-05 0)
(-7.65832e-05 0.000957021 0)
(-0.000518355 0.00310282 0)
(-0.0014817 0.00536811 0)
(-0.00287404 0.00766642 0)
(-0.00464304 0.00993189 0)
(-0.00675754 0.0121127 0)
(-0.00918516 0.0141694 0)
(-0.0118934 0.0160735 0)
(-0.014851 0.0178054 0)
(-0.0180279 0.019353 0)
(-0.0213947 0.0207097 0)
(-0.024923 0.0218733 0)
(-0.0285854 0.0228448 0)
(-0.0323551 0.0236273 0)
(-0.0362061 0.0242251 0)
(-0.0401131 0.0246432 0)
(-0.0440516 0.0248867 0)
(-0.0479974 0.0249605 0)
(-0.051927 0.0248689 0)
(-0.0558172 0.0246158 0)
(-0.0596453 0.0242043 0)
(-0.0633887 0.023637 0)
(-0.0670251 0.0229163 0)
(-0.0705326 0.022044 0)
(-0.0738894 0.021022 0)
(-0.0770741 0.0198525 0)
(-0.0800656 0.018538 0)
(-0.0828434 0.0170817 0)
(-0.0853873 0.0154877 0)
(-0.0876782 0.0137613 0)
(-0.0896975 0.0119091 0)
(-0.0914279 0.00993914 0)
(-0.0928532 0.00786122 0)
(-0.0939589 0.00568684 0)
(-0.0947318 0.00342933 0)
(-0.095161 0.00110386 0)
(-0.0952375 -0.00127256 0)
(-0.0949546 -0.00368117 0)
(-0.0943085 -0.00610155 0)
(-0.0932979 -0.00851179 0)
(-0.0919246 -0.0108887 0)
(-0.0901935 -0.0132081 0)
(-0.0881128 -0.015445 0)
(-0.0856943 -0.0175742 0)
(-0.0829531 -0.0195702 0)
(-0.0799079 -0.0214083 0)
(-0.0765809 -0.0230643 0)
(-0.0729976 -0.0245155 0)
(-0.069187 -0.0257412 0)
(-0.0651811 -0.0267227 0)
(-0.0610145 -0.0274442 0)
(-0.0567246 -0.0278932 0)
(-0.0523506 -0.0280607 0)
(-0.0479331 -0.0279419 0)
(-0.0435141 -0.0275364 0)
(-0.0391355 -0.0268483 0)
(-0.0348391 -0.0258867 0)
(-0.0306659 -0.0246658 0)
(-0.0266548 -0.0232047 0)
(-0.0228426 -0.0215278 0)
(-0.0192627 -0.0196646 0)
(-0.0159448 -0.0176493 0)
(-0.0129142 -0.0155213 0)
(-0.010191 -0.0133247 0)
(-0.00778992 -0.011108 0)
(-0.00571991 -0.00892443 0)
(-0.00398381 -0.00683145 0)
(-0.00257845 -0.00489096 0)
(-0.00149415 -0.00316921 0)
(-0.000714323 -0.00173658 0)
(-0.00022528 -0.000667404 0)
(-2.62581e-05 -4.34129e-05 0)
(-8.56366e-05 0.0012338 0)
(-0.000576204 0.00388389 0)
(-0.00164179 0.00660838 0)
(-0.00317612 0.00932408 0)
(-0.00511813 0.0119677 0)
(-0.00743094 0.0144894 0)
(-0.0100771 0.0168518 0)
(-0.0130195 0.0190278 0)
(-0.0162232 0.0209994 0)
(-0.0196551 0.0227554 0)
(-0.0232833 0.0242906 0)
(-0.0270773 0.0256038 0)
(-0.031008 0.0266969 0)
(-0.0350471 0.027574 0)
(-0.0391675 0.0282403 0)
(-0.043343 0.0287014 0)
(-0.0475479 0.0289631 0)
(-0.0517573 0.0290308 0)
(-0.055947 0.0289093 0)
(-0.0600929 0.0286029 0)
(-0.0641716 0.0281151 0)
(-0.0681597 0.0274487 0)
(-0.0720343 0.0266063 0)
(-0.0757726 0.0255901 0)
(-0.0793521 0.0244022 0)
(-0.0827506 0.0230451 0)
(-0.0859463 0.0215217 0)
(-0.0889176 0.0198358 0)
(-0.0916439 0.0179921 0)
(-0.0941048 0.0159967 0)
(-0.0962812 0.0138571 0)
(-0.0981546 0.0115825 0)
(-0.0997081 0.00918418 0)
(-0.100926 0.00667508 0)
(-0.101795 0.00407037 0)
(-0.102302 0.00138724 0)
(-0.102437 -0.00135505 0)
(-0.102194 -0.00413524 0)
(-0.101566 -0.00693022 0)
(-0.100553 -0.00971517 0)
(-0.099154 -0.0124638 0)
(-0.0973743 -0.0151486 0)
(-0.0952213 -0.0177412 0)
(-0.0927059 -0.0202127 0)
(-0.089843 -0.0225343 0)
(-0.0866511 -0.0246774 0)
(-0.0831525 -0.0266144 0)
(-0.079373 -0.0283191 0)
(-0.0753423 -0.0297673 0)
(-0.0710932 -0.0309374 0)
(-0.0666617 -0.0318108 0)
(-0.0620868 -0.0323725 0)
(-0.0574095 -0.0326117 0)
(-0.0526729 -0.0325221 0)
(-0.0479214 -0.0321025 0)
(-0.0432001 -0.0313569 0)
(-0.0385538 -0.030295 0)
(-0.0340268 -0.028932 0)
(-0.0296618 -0.0272893 0)
(-0.025499 -0.025394 0)
(-0.0215756 -0.023279 0)
(-0.0179252 -0.0209827 0)
(-0.0145766 -0.0185493 0)
(-0.0115535 -0.0160281 0)
(-0.00887426 -0.0134735 0)
(-0.00655098 -0.0109445 0)
(-0.00458972 -0.00850495 0)
(-0.00299034 -0.0062227 0)
(-0.00174585 -0.00416991 0)
(-0.00084201 -0.00242234 0)
(-0.000268854 -0.00105898 0)
(-3.23401e-05 -0.000165115 0)
(-9.43234e-05 0.00153945 0)
(-0.00063192 0.00474343 0)
(-0.00179629 0.00796894 0)
(-0.00346814 0.0111367 0)
(-0.00557803 0.0141866 0)
(-0.00808364 0.017072 0)
(-0.0109424 0.0197579 0)
(-0.014113 0.0222196 0)
(-0.0175567 0.024441 0)
(-0.0212373 0.026413 0)
(-0.0251204 0.0281319 0)
(-0.0291736 0.029598 0)
(-0.0333658 0.0308146 0)
(-0.0376676 0.0317869 0)
(-0.0420507 0.032521 0)
(-0.0464878 0.0330236 0)
(-0.0509525 0.0333011 0)
(-0.0554192 0.0333596 0)
(-0.0598628 0.0332045 0)
(-0.0642589 0.0328404 0)
(-0.0685832 0.0322711 0)
(-0.0728118 0.0314998 0)
(-0.0769213 0.0305292 0)
(-0.0808881 0.0293618 0)
(-0.0846892 0.0280001 0)
(-0.0883017 0.0264468 0)
(-0.091703 0.0247051 0)
(-0.0948711 0.0227794 0)
(-0.0977841 0.020675 0)
(-0.100421 0.0183987 0)
(-0.102762 0.015959 0)
(-0.104788 0.0133662 0)
(-0.106481 0.0106328 0)
(-0.107823 0.00777346 0)
(-0.108801 0.00480494 0)
(-0.109401 0.0017465 0)
(-0.109612 -0.00138036 0)
(-0.109425 -0.00455191 0)
(-0.108834 -0.00774231 0)
(-0.107836 -0.0109238 0)
(-0.10643 -0.0140669 0)
(-0.10462 -0.0171407 0)
(-0.102413 -0.0201134 0)
(-0.0998176 -0.0229524 0)
(-0.0968492 -0.0256249 0)
(-0.0935255 -0.0280987 0)
(-0.0898685 -0.0303423 0)
(-0.0859042 -0.0323257 0)
(-0.0816626 -0.0340211 0)
(-0.0771773 -0.0354033 0)
(-0.0724854 -0.0364507 0)
(-0.0676274 -0.0371455 0)
(-0.0626463 -0.0374746 0)
(-0.0575874 -0.03743 0)
(-0.052498 -0.0370093 0)
(-0.0474261 -0.036216 0)
(-0.04242 -0.03506 0)
(-0.0375276 -0.0335579 0)
(-0.0327955 -0.0317326 0)
(-0.0282679 -0.029614 0)
(-0.0239864 -0.0272383 0)
(-0.0199885 -0.0246484 0)
(-0.0163071 -0.021893 0)
(-0.0129702 -0.019027 0)
(-0.00999971 -0.0161105 0)
(-0.00741162 -0.0132089 0)
(-0.00521541 -0.0103922 0)
(-0.00341415 -0.00773469 0)
(-0.0020037 -0.00531465 0)
(-0.000972069 -0.00321346 0)
(-0.000312851 -0.00151504 0)
(-3.83573e-05 -0.000308671 0)
(-0.000102651 0.00187289 0)
(-0.000685461 0.00567861 0)
(-0.00194496 0.00944565 0)
(-0.00374946 0.0130991 0)
(-0.00602158 0.016583 0)
(-0.00871373 0.0198543 0)
(-0.0117786 0.0228812 0)
(-0.0151705 0.0256421 0)
(-0.0188471 0.0281236 0)
(-0.0227693 0.030319 0)
(-0.0269001 0.0322268 0)
(-0.0312051 0.0338491 0)
(-0.0356517 0.0351909 0)
(-0.040209 0.0362589 0)
(-0.0448477 0.0370604 0)
(-0.0495395 0.0376031 0)
(-0.0542575 0.0378944 0)
(-0.0589752 0.0379411 0)
(-0.0636671 0.037749 0)
(-0.0683081 0.0373233 0)
(-0.0728737 0.0366681 0)
(-0.0773393 0.0357869 0)
(-0.0816811 0.0346826 0)
(-0.085875 0.0333581 0)
(-0.0898975 0.0318158 0)
(-0.0937251 0.030059 0)
(-0.0973347 0.0280911 0)
(-0.100703 0.025917 0)
(-0.103809 0.0235424 0)
(-0.10663 0.020975 0)
(-0.109144 0.0182241 0)
(-0.111333 0.0153011 0)
(-0.113177 0.0122196 0)
(-0.114658 0.00899576 0)
(-0.11576 0.00564818 0)
(-0.116469 0.00219797 0)
(-0.116773 -0.00133116 0)
(-0.116661 -0.00491304 0)
(-0.116125 -0.00851913 0)
(-0.115162 -0.0121187 0)
(-0.113769 -0.015679 0)
(-0.111949 -0.0191659 0)
(-0.109706 -0.0225437 0)
(-0.107049 -0.0257761 0)
(-0.103993 -0.0288263 0)
(-0.100553 -0.031658 0)
(-0.0967514 -0.0342356 0)
(-0.0926143 -0.0365249 0)
(-0.0881715 -0.0384942 0)
(-0.0834572 -0.0401146 0)
(-0.0785095 -0.0413608 0)
(-0.0733702 -0.0422117 0)
(-0.0680842 -0.0426517 0)
(-0.0626995 -0.0426704 0)
(-0.0572657 -0.042264 0)
(-0.0518343 -0.041435 0)
(-0.0464573 -0.0401935 0)
(-0.0411865 -0.0385566 0)
(-0.0360728 -0.036549 0)
(-0.0311648 -0.0342031 0)
(-0.0265087 -0.0315584 0)
(-0.0221466 -0.028662 0)
(-0.0181161 -0.0255676 0)
(-0.0144496 -0.0223355 0)
(-0.0111734 -0.019032 0)
(-0.00830756 -0.0157288 0)
(-0.00586526 -0.0125025 0)
(-0.00385307 -0.00943428 0)
(-0.00226979 -0.00660865 0)
(-0.00110568 -0.00411314 0)
(-0.000357744 -0.00203707 0)
(-4.43997e-05 -0.000474347 0)
(-0.00011062 0.00223298 0)
(-0.000736764 0.00668645 0)
(-0.00208755 0.0110341 0)
(-0.00401948 0.015206 0)
(-0.00644765 0.0191508 0)
(-0.0093195 0.0228295 0)
(-0.0125831 0.0262146 0)
(-0.0161886 0.029288 0)
(-0.0200903 0.0320397 0)
(-0.0242461 0.0344659 0)
(-0.0286167 0.0365677 0)
(-0.0331657 0.0383496 0)
(-0.0378588 0.0398185 0)
(-0.042664 0.0409828 0)
(-0.0475508 0.0418514 0)
(-0.0524903 0.0424333 0)
(-0.0574546 0.0427367 0)
(-0.0624171 0.0427692 0)
(-0.0673516 0.0425375 0)
(-0.0722326 0.042047 0)
(-0.0770353 0.0413023 0)
(-0.0817347 0.0403072 0)
(-0.0863066 0.0390649 0)
(-0.0907267 0.0375783 0)
(-0.0949709 0.0358502 0)