/*--------------------------------*- C++ -*----------------------------------*\
  =========                 |
  \\      /  F ield         | OpenFOAM: The Open Source CFD Toolbox
   \\    /   O peration     | Website:  https://openfoam.org
    \\  /    A nd           | Version:  dev
     \\/     M anipulation  |
\*---------------------------------------------------------------------------*/
FoamFile
{
    format      ascii;
    class       volScalarField;
    location    "22.95";
    object      p;
}
// * * * * * * * * * * * * * * * * * * * * * * * * * * * * * * * * * * * * * //

dimensions      [0 2 -2 0 0 0 0];

internalField   nonuniform List<scalar> 
5184
(
2.24126e-06
-8.7717e-06
-9.44936e-05
-0.000247264
-0.000446519
-0.000674997
-0.000918461
-0.00116497
-0.00140537
-0.00163252
-0.00184101
-0.00202683
-0.00218704
-0.00231953
-0.00242284
-0.00249597
-0.00253824
-0.00254922
-0.00252862
-0.00247628
-0.00239213
-0.00227613
-0.00212836
-0.00194893
-0.0017381
-0.00149625
-0.00122391
-0.000921842
-0.000591029
-0.000232747
0.000151421
0.000559549
0.000989347
0.00143814
0.00190288
0.00238011
0.00286602
0.00335645
0.00384692
0.00433271
0.00480886
0.00527032
0.00571195
0.00612868
0.00651557
0.0068679
0.00718131
0.00745187
0.00767622
0.00785162
0.00797606
0.00804834
0.0080681
0.00803592
0.00795329
0.00782265
0.00764738
0.0074318
0.00718112
0.00690139
0.00659948
0.00628297
0.00596018
0.00564004
0.00533212
0.0050465
0.00479367
0.00458425
0.00442819
0.00433395
0.00430699
0.00433422
1.63379e-05
3.93293e-06
-7.05957e-05
-0.000198262
-0.000363383
-0.00055349
-0.000757657
-0.000966292
-0.00117148
-0.00136681
-0.00154727
-0.00170894
-0.00184885
-0.00196478
-0.00205508
-0.00211857
-0.00215437
-0.00216189
-0.0021407
-0.00209051
-0.00201116
-0.00190255
-0.0017647
-0.00159771
-0.00140181
-0.00117737
-0.000924915
-0.000645177
-0.000339116
-7.9494e-06
0.000346816
0.000723365
0.00111955
0.00153288
0.00196052
0.00239927
0.00284564
0.0032958
0.00374566
0.00419091
0.00462704
0.00504945
0.00545352
0.00583465
0.00618839
0.00651053
0.00679716
0.00704479
0.00725046
0.00741177
0.007527
0.00759516
0.00761606
0.00759031
0.00751939
0.00740562
0.00725219
0.0070631
0.00684314
0.00659786
0.00633352
0.00605697
0.00577567
0.00549751
0.0052308
0.00498412
0.00476614
0.00458522
0.00444867
0.00436241
0.00433384
0.00436139
0.000103093
7.83569e-05
3.06569e-06
-0.000114386
-0.000261975
-0.000430068
-0.000609962
-0.00079383
-0.000974975
-0.00114784
-0.00130793
-0.00145165
-0.00157619
-0.00167939
-0.0017596
-0.00181558
-0.00184641
-0.00185139
-0.00183003
-0.00178197
-0.00170697
-0.00160489
-0.00147569
-0.00131944
-0.00113633
-0.000926691
-0.000691005
-0.000429954
-0.000144438
0.000164401
0.000495151
0.00084611
0.00121527
0.0016003
0.00199856
0.00240707
0.00282258
0.00324151
0.00366008
0.00407427
0.00447991
0.00487274
0.00524846
0.00560285
0.00593178
0.00623137
0.00649804
0.00672858
0.00692029
0.007071
0.00717917
0.00724397
0.00726526
0.00724371
0.00718074
0.00707859
0.00694026
0.00676953
0.00657089
0.00634948
0.00611105
0.00586192
0.00560883
0.0053589
0.0051195
0.00489806
0.00470207
0.00453858
0.00441362
0.00433243
0.00430465
0.00433524
0.000258048
0.000206637
0.000118887
2.64946e-08
-0.00014229
-0.000300287
-0.000466845
-0.000635599
-0.000801012
-0.000958399
-0.00110389
-0.00123436
-0.00134729
-0.00144073
-0.00151314
-0.00156336
-0.00159046
-0.00159377
-0.00157275
-0.00152703
-0.0014563
-0.0013604
-0.00123923
-0.00109281
-0.000921268
-0.000724878
-0.000504063
-0.000259426
8.21878e-06
0.000297825
0.000608088
0.000937432
0.00128399
0.00164558
0.00201974
0.00240367
0.00279432
0.00318833
0.00358214
0.00397195
0.00435385
0.00472381
0.00507778
0.00541174
0.00572183
0.00600436
0.00625596
0.00647361
0.00665476
0.00679738
0.00690004
0.00696197
0.00698309
0.00696405
0.00690624
0.00681181
0.00668362
0.00652525
0.00634094
0.00613553
0.0059144
0.00568339
0.00544869
0.00521682
0.0049944
0.00478811
0.00460455
0.00445001
0.0043299
0.00424929
0.00421826
0.00424345
0.000462661
0.000374083
0.000265554
0.000137957
-6.27019e-06
-0.000160969
-0.000320372
-0.00047948
-0.000633887
-0.000779794
-0.000914026
-0.00103397
-0.00113752
-0.00122299
-0.00128905
-0.00133464
-0.00135894
-0.00136129
-0.0013412
-0.00129824
-0.00123212
-0.0011426
-0.00102956
-0.000892941
-0.000732812
-0.000549367
-0.000342942
-0.000114049
0.000136604
0.000408082
0.000699209
0.00100854
0.00133436
0.00167464
0.00202708
0.00238907
0.00275771
0.00312987
0.00350215
0.00387095
0.00423255
0.00458311
0.00491874
0.00523563
0.00553005
0.00579847
0.00603766
0.0062447
0.00641717
0.00655309
0.00665111
0.00671048
0.00673113
0.00671368
0.00665948
0.00657058
0.00644973
0.00630034
0.00612641
0.00593253
0.00572375
0.0055055
0.00528354
0.0050638
0.00485236
0.00465522
0.00447828
0.00432718
0.00420687
0.00412212
0.00408171
0.00409149
0.00070078
0.000568819
0.000433745
0.000291822
0.000140034
-1.68523e-05
-0.000174235
-0.000328372
-0.000475932
-0.000613991
-0.000740079
-0.000852151
-0.000948533
-0.00102788
-0.0010891
-0.00113133
-0.00115385
-0.0011561
-0.00113759
-0.00109794
-0.00103681
-0.000953951
-0.000849164
-0.000722343
-0.000573473
-0.000402656
-0.000210129
3.70683e-06
0.000238262
0.000492733
0.000766078
0.001057
0.00136392
0.001685
0.00201806
0.00236068
0.00271012
0.0030634
0.00341728
0.00376834
0.00411297
0.00444747
0.00476811
0.00507116
0.005353
0.00561021
0.0058396
0.00603833
0.00620401
0.0063347
0.00642905
0.00648631
0.00650637
0.00648984
0.00643798
0.00635276
0.0062368
0.00609337
0.00592629
0.00573991
0.00553901
0.0053287
0.00511434
0.00490143
0.00469552
0.0045021
0.0043265
0.00417376
0.00404845
0.00395496
0.00389977
0.00388664
0.000958628
0.000779978
0.000614561
0.000454154
0.000290388
0.000126868
-3.27885e-05
-0.000185982
-0.00033038
-0.000463897
-0.000584762
-0.000691504
-0.000782916
-0.000858016
-0.000916003
-0.000956214
-0.000978094
-0.000981168
-0.000965021
-0.000929278
-0.000873607
-0.000797713
-0.000701352
-0.000584344
-0.000446586
-0.000288077
-0.000108943
9.05409e-05
0.000309918
0.000548524
0.000805466
0.0010796
0.0013695
0.00167346
0.0019895
0.00231532
0.00264833
0.00298569
0.00332429
0.00366082
0.00399179
0.00431358
0.00462253
0.00491499
0.00518737
0.00543628
0.00565854
0.00585133
0.00601223
0.00613928
0.0062311
0.00628689
0.0063065
0.00629045
0.00623994
0.00615683
0.00604365
0.00590352
0.00574012
0.0055576
0.00536051
0.0051537
0.00494222
0.00473123
0.00452586
0.00433118
0.00415202
0.00399296
0.00385824
0.00375189
0.00367758
0.00363653
0.0012241
0.000997427
0.000799411
0.000617668
0.000438723
0.000265215
9.99306e-05
-5.55609e-05
-0.000199852
-0.000331644
-0.000449844
-0.00055355
-0.000642028
-0.000714676
-0.000770993
-0.000810549
-0.000832956
-0.000837859
-0.000824911
-0.000793771
-0.000744102
-0.00067558
-0.000587904
-0.000480815
-0.000354115
-0.000207694
-4.15487e-05
0.000144179
0.000349177
0.000572933
0.000814707
0.00107351
0.00134808
0.00163687
0.00193803
0.00224941
0.00256855
0.00289273
0.00321894
0.00354396
0.00386436
0.00417658
0.00447699
0.00476194
0.00502785
0.00527129
0.00548906
0.00567828
0.00583645
0.00596157
0.00605216
0.00610735
0.00612688
0.0061112
0.0060614
0.00597926
0.00586719
0.00572819
0.00556581
0.00538405
0.00518727
0.00498013
0.00476742
0.00455404
0.00434482
0.00414446
0.00395745
0.00378796
0.00363998
0.00351724
0.00342049
0.0033483
0.00148694
0.00121202
0.000980241
0.000775333
0.000578989
0.000393045
0.000219579
5.92341e-05
-8.7434e-05
-0.000219866
-0.000337612
-0.000440323
-0.000527729
-0.000599611
-0.000655773
-0.000696023
-0.000720154
-0.000727933
-0.00071909
-0.00069332
-0.000650286
-0.00058963
-0.000510992
-0.000414028
-0.000298439
-0.000163989
-1.05456e-05
0.000161899
0.000353186
0.000562963
0.000790655
0.00103543
0.0012962
0.00157155
0.00185979
0.00215889
0.00246653
0.00278006
0.00309658
0.00341291
0.00372566
0.00403129
0.00432616
0.00460658
0.00486893
0.00510971
0.00532562
0.00551368
0.0056713
0.00579633
0.00588719
0.00594287
0.00596301
0.00594792
0.00589859
0.00581668
0.0057045
0.00556493
0.00540141
0.00521783
0.0050184
0.00480762
0.00459013
0.00437061
0.00415367
0.00394378
0.00374514
0.00356161
0.00339705
0.00325501
0.0031333
0.00302796
0.00173817
0.00141551
0.00114956
0.000920425
0.000705221
0.000505107
0.000321558
0.000154373
3.32473e-06
-0.000131716
-0.000250908
-0.000354431
-0.000442462
-0.000515156
-0.000572619
-0.000614896
-0.000641959
-0.000653698
-0.000649924
-0.000630363
-0.000594676
-0.00054247
-0.000473318
-0.000386788
-0.000282465
-0.000159988
-1.9077e-05
0.000140431
0.000318541
0.00051507
0.000729612
0.000961509
0.00120982
0.00147331
0.00175041
0.00203922
0.00233754
0.00264279
0.00295214
0.00326245
0.00357034
0.00387225
0.00416449
0.00444333
0.00470502
0.00494595
0.0051627
0.00535214
0.0055115
0.00563849
0.00573136
0.00578891
0.00581065
0.00579673
0.00574801
0.00566601
0.00555293
0.00541156
0.00524522
0.00505769
0.00485313
0.0046359
0.00441054
0.0041816
0.00395356
0.00373073
0.00351712
0.00331639
0.0031324
0.00296858
0.00282
0.0026803
0.00196986
0.0016004
0.00130041
0.00104654
0.000811602
0.000596155
0.00040115
0.000225614
6.85947e-05
-7.06797e-05
-0.000192939
-0.000298864
-0.000389059
-0.000464035
-0.000524192
-0.000569803
-0.000601011
-0.000617828
-0.000620135
-0.00060769
-0.000580145
-0.000537063
-0.000477948
-0.000402268
-0.000309488
-0.000199108
-7.06936e-05
7.6083e-05
0.000241402
0.000425257
0.000627421
0.000847409
0.00108445
0.00133746
0.00160503
0.00188537
0.00217636
0.00247555
0.00278011
0.00308693
0.00339264
0.00369362
0.00398611
0.00426626
0.00453021
0.00477418
0.00499458
0.00518806
0.00535168
0.00548291
0.00557978
0.00564092
0.0056656
0.00565381
0.00560623
0.00552424
0.00540992
0.00526594
0.00509555
0.00490245
0.00469071
0.00446466
0.00422879
0.00398757
0.00374545
0.00350665
0.00327511
0.00305441
0.00284846
0.00266077
0.00248377
0.0023089
0.00217487
0.00175981
0.00142626
0.0011476
0.000892488
0.000660994
0.000453587
0.00026858
0.000104345
-4.0491e-05
-0.000167195
-0.000276918
-0.000370669
-0.000449298
-0.00051348
-0.000563704
-0.000600275
-0.000623313
-0.000632764
-0.000628409
-0.000609882
-0.000576698
-0.000528278
-0.000463984
-0.000383152
-0.000285132
-0.000169327
-3.52319e-05
0.000117516
0.000289097
0.000479473
0.000688343
0.00091511
0.00115885
0.00141829
0.00169178
0.0019773
0.00227245
0.00257447
0.00288023
0.00318634
0.00348911
0.00378469
0.00406908
0.00433826
0.00458825
0.00481524
0.00501564
0.00518624
0.00532426
0.00542746
0.00549422
0.00552357
0.00551527
0.0054698
0.00538837
0.00527291
0.00512598
0.00495075
0.00475085
0.00453034
0.00429353
0.00404489
0.00378892
0.00353009
0.00327265
0.00302054
0.00277735
0.00254721
0.00233378
0.00212703
0.00191631
0.00234666
0.00188739
0.001521
0.00121778
0.000942418
0.000694509
0.000474093
0.000278811
0.000106401
-4.50756e-05
-0.000177391
-0.000292141
-0.000390714
-0.000474275
-0.000543757
-0.000599849
-0.000643002
-0.000673434
-0.000691144
-0.000695922
-0.000687379
-0.000664968
-0.000628019
-0.000575778
-0.000507441
-0.0004222
-0.00031928
-0.000197994
-5.77816e-05
0.000101736
0.000280717
0.000479054
0.000696334
0.000931803
0.00118434
0.00145242
0.00173412
0.00202712
0.00232868
0.00263569
0.0029447
0.00325194
0.00355344
0.00384503
0.00412249
0.00438161
0.0046183
0.0048287
0.00500928
0.00515696
0.00526917
0.00534398
0.00538013
0.00537711
0.00533517
0.0052553
0.00513927
0.00498951
0.00480911
0.00460166
0.00437119
0.00412206
0.00385877
0.00358594
0.00330809
0.00302961
0.00275453
0.00248657
0.00223016
0.00198925
0.00175148
0.00150419
0.00247916
0.00197715
0.00157887
0.00125155
0.000956109
0.00069169
0.000457925
0.000251817
7.05026e-05
-8.84916e-05
-0.000227415
-0.00034828
-0.00045283
-0.000542527
-0.000618538
-0.000681735
-0.000732698
-0.000771731
-0.000798869
-0.000813903
-0.000816402
-0.000805751
-0.000781178
-0.0007418
-0.000686664
-0.000614789
-0.000525217
-0.000417059
-0.000289551
-0.000142101
2.56575e-05
0.000213823
0.000422179
0.000650153
0.00089678
0.00116068
0.00144004
0.00173259
0.00203565
0.00234609
0.00266041
0.00297476
0.003285
0.0035868
0.0038757
0.0041472
0.00439692
0.00462066
0.00481452
0.00497506
0.00509935
0.00518506
0.00523061
0.00523515
0.00519864
0.00512183
0.00500629
0.00485431
0.00466886
0.00445353
0.00421234
0.00394972
0.00367028
0.00337875
0.00307986
0.00277818
0.00247794
0.00218308
0.00189843
0.00162835
0.00135822
0.00107345
0.00256666
0.00202351
0.00159439
0.00124362
0.000928467
0.000647648
0.000400398
0.000183111
-7.65357e-06
-0.000174879
-0.000321267
-0.000449221
-0.000560819
-0.000657794
-0.00074153
-0.000813062
-0.000873083
-0.000921962
-0.00095976
-0.000986253
-0.00100096
-0.00100318
-0.000992024
-0.000966478
-0.000925421
-0.000867691
-0.000792131
-0.000697639
-0.000583232
-0.000448092
-0.000291627
-0.00011352
8.62257e-05
0.000307232
0.00054871
0.00080943
0.00108769
0.00138132
0.00168766
0.0020036
0.00232556
0.00264961
0.00297144
0.00328651
0.0035901
0.00387741
0.00414371
0.0043844
0.0045952
0.0047722
0.00491204
0.00501199
0.00507002
0.0050849
0.00505625
0.00498454
0.00487107
0.00471797
0.00452811
0.00430503
0.00405279
0.00377589
0.00347912
0.0031674
0.0028457
0.00251886
0.00219142
0.00186761
0.00155279
0.0012518
0.000947849
0.000624417
0.00260374
0.00202113
0.00156235
0.00118892
0.000854576
0.000557627
0.000296919
6.82527e-05
-0.000132367
-0.000308412
-0.000463013
-0.000598944
-0.000718594
-0.000823948
-0.000916585
-0.000997685
-0.00106804
-0.00112806
-0.00117782
-0.00121707
-0.00124526
-0.00126159
-0.00126506
-0.00125448
-0.00122858
-0.00118598
-0.00112532
-0.00104527
-0.000944616
-0.000822292
-0.000677466
-0.000509581
-0.000318413
-0.000104123
0.000132694
0.000390977
0.000669162
0.000965171
0.0012764
0.00159974
0.00193157
0.00226784
0.0026041
0.00293556
0.00325722
0.00356395
0.00385062
0.0041122
0.00434393
0.00454141
0.00470078
0.00481878
0.00489293
0.00492152
0.00490375
0.00483973
0.00473048
0.00457793
0.00438482
0.00415461
0.00389142
0.00359988
0.00328495
0.00295182
0.00260577
0.002252
0.00189543
0.00154068
0.00119373
0.000860036
0.000520582
0.000156939
0.00258527
0.00196498
0.00147782
0.00108261
0.000729715
0.000417029
0.000143009
-9.71222e-05
-0.000307896
-0.000493253
-0.000656736
-0.000801469
-0.000930131
-0.00104494
-0.00114765
-0.00123957
-0.00132156
-0.00139408
-0.0014572
-0.0015106
-0.00155368
-0.00158551
-0.00160497
-0.0016107
-0.00160122
-0.00157497
-0.00153035
-0.00146578
-0.00137981
-0.0012711
-0.00113856
-0.000981374
-0.000799061
-0.000591548
-0.000359207
-0.00010291
0.000175941
0.000475387
0.000792898
0.00112538
0.00146917
0.00182013
0.00217362
0.00252463
0.00286786
0.0031978
0.00350888
0.0037956
0.00405266
0.0042751
0.00445846
0.00459892
0.0046934
0.00473967
0.00473643
0.00468335
0.00458112
0.00443139
0.00423673
0.00400055
0.00372701
0.00342087
0.00308731
0.00273185
0.00236014
0.00197783
0.00159029
0.00120264
0.000821565
0.000453204
7.63295e-05
-0.000329472
0.00250637
0.00185024
0.00133608
0.000920065
0.000549362
0.000221425
-6.56712e-05
-0.000317266
-0.000538414
-0.00073351
-0.000906488
-0.00106081
-0.00119941
-0.00132474
-0.00143871
-0.00154273
-0.00163772
-0.00172417
-0.00180211
-0.00187119
-0.00193069
-0.00197958
-0.00201657
-0.00204014
-0.0020486
-0.00204016
-0.00201299
-0.00196524
-0.00189519
-0.00180121
-0.00168194
-0.00153627
-0.00136344
-0.00116312
-0.00093541
-0.000680978
-0.000401031
-9.73796e-05
0.000227544
0.000570686
0.000928377
0.00129637
0.00166986
0.00204362
0.002412
0.00276912
0.00310892
0.00342536
0.00371255
0.00396489
0.00417727
0.00434518
0.00446487
0.00453347
0.00454911
0.00451093
0.00441919
0.00427521
0.00408136
0.00384095
0.00355818
0.00323793
0.00288568
0.00250728
0.00210884
0.00169653
0.00127626
0.000853729
0.000436443
3.13108e-05
-0.000385192
-0.000835539
0.00236236
0.00167238
0.00113266
0.000696911
0.000309206
-3.34231e-05
-0.000333292
-0.000596289
-0.000827979
-0.00103319
-0.00121625
-0.00138091
-0.00153039
-0.00166731
-0.00179374
-0.00191117
-0.00202059
-0.00212247
-0.00221682
-0.00230321
-0.00238083
-0.0024485
-0.00250477
-0.00254794
-0.00257609
-0.0025872
-0.00257917
-0.00254989
-0.00249732
-0.00241956
-0.00231491
-0.00218195
-0.00201962
-0.00182728
-0.00160475
-0.00135244
-0.00107133
-0.000763038
-0.000429869
-7.4801e-05
0.000298503
0.000685721
0.00108191
0.00148159
0.00187879
0.00226719
0.00264025
0.00299133
0.00331388
0.00360159
0.00384859
0.00404958
0.00420006
0.00429639
0.00433602
0.00431747
0.00424047
0.00410593
0.00391594
0.00367369
0.00338338
0.00305004
0.00267944
0.00227784
0.00185185
0.00140824
0.000953558
0.000494166
3.84751e-05
-0.000405724
-0.000864369
-0.00136211
0.00214886
0.00142709
0.000863361
0.000408999
5.1644e-06
-0.000351542
-0.000663829
-0.000938126
-0.00118049
-0.00139618
-0.00158987
-0.00176563
-0.00192691
-0.00207652
-0.00221664
-0.00234887
-0.0024742
-0.00259311
-0.00270556
-0.00281103
-0.00290861
-0.00299697
-0.00307447
-0.00313922
-0.00318908
-0.00322176
-0.00323488
-0.00322605
-0.0031929
-0.00313321
-0.00304493
-0.0029263
-0.00277591
-0.00259278
-0.00237642
-0.00212691
-0.00184497
-0.001532
-0.00119011
-0.000822173
-0.000431805
-2.33677e-05
0.000398068
0.000826781
0.00125648
0.00168041
0.00209149
0.00248245
0.002846
0.00317506
0.00346287
0.00370328
0.00389086
0.00402114
0.00409072
0.00409738
0.00404021
0.00391962
0.00373735
0.00349638
0.00320088
0.00285604
0.00246792
0.00204323
0.00158916
0.00111314
0.000622437
0.000124173
-0.00037222
-0.000857977
-0.0013616
-0.00191007
0.00186169
0.00111034
0.000524224
5.24436e-05
-0.000366594
-0.000736721
-0.00106104
-0.0013465
-0.00159965
-0.00182616
-0.00203104
-0.00221866
-0.00239269
-0.0025561
-0.0027112
-0.00285965
-0.00300246
-0.00314009
-0.00327244
-0.00339891
-0.00351845
-0.00362959
-0.0037305
-0.00381906
-0.00389291
-0.00394948
-0.0039861
-0.00400005
-0.00398864
-0.00394928
-0.00387955
-0.00377732
-0.00364078
-0.00346856
-0.00325982
-0.00301427
-0.00273232
-0.00241508
-0.00206442
-0.00168305
-0.0012745
-0.000843131
-0.000394107
6.66424e-05
0.000532503
0.00099628
0.00145032
0.00188668
0.00229729
0.00267416
0.00300961
0.00329647
0.0035283
0.00369959
0.00380598
0.00384437
0.00381308
0.00371189
0.00354206
0.00330631
0.00300873
0.00265464
0.00225038
0.00180316
0.00132079
0.000811454
0.000283219
-0.000255932
-0.000795437
-0.00132545
-0.00187723
-0.00248023
0.00149701
0.000718377
0.000111589
-0.000376359
-0.000809629
-0.00119248
-0.00152842
-0.0018249
-0.00208894
-0.0023266
-0.00254324
-0.00274349
-0.00293123
-0.00310961
-0.00328101
-0.00344716
-0.00360909
-0.00376723
-0.00392141
-0.00407093
-0.0042146
-0.0043508
-0.00447751
-0.00459237
-0.00469276
-0.00477585
-0.00483864
-0.00487809
-0.00489114
-0.0048748
-0.00482627
-0.00474297
-0.00462269
-0.00446362
-0.00426448
-0.00402459
-0.00374396
-0.00342336
-0.00306438
-0.00266948
-0.00224204
-0.00178637
-0.0013077
-0.000812109
-0.00030653
0.000201406
0.00070347
0.001191
0.00165507
0.00208675
0.00247729
0.00281837
0.00310239
0.00332269
0.00347375
0.00355143
0.0035531
0.00347777
0.00332611
0.00310046
0.00280476
0.00244439
0.002026
0.00155732
0.00104682
0.000503509
-6.36365e-05
-0.000645683
-0.00123081
-0.00180797
-0.0024114
-0.00307324
0.00105123
0.000247767
-0.0003779
-0.000880712
-0.0013272
-0.00172206
-0.00206918
-0.00237653
-0.00265156
-0.00290072
-0.00312968
-0.00334335
-0.0035458
-0.00374032
-0.00392941
-0.00411481
-0.00429758
-0.0044781
-0.00465615
-0.0048309
-0.00500105
-0.00516478
-0.00531988
-0.00546377
-0.00559355
-0.00570609
-0.00579809
-0.00586612
-0.00590675
-0.00591657
-0.00589235
-0.00583104
-0.00572996
-0.00558681
-0.00539984
-0.00516789
-0.00489051
-0.00456805
-0.00420174
-0.00379374
-0.00334721
-0.00286632
-0.0023563
-0.00182337
-0.00127471
-0.000718375
-0.000163185
0.000381455
0.000905732
0.00139966
0.00185331
0.00225712
0.00260216
0.00288041
0.00308505
0.00321067
0.00325353
0.00321168
0.00308502
0.0028754
0.00258649
0.00222368
0.00179392
0.00130542
0.000767413
0.000189787
-0.000417481
-0.0010444
-0.00167773
-0.00230514
-0.00296406
-0.00368953
0.000521156
-0.00030459
-0.000947264
-0.00146358
-0.00192225
-0.00232838
-0.00268624
-0.00300428
-0.0032904
-0.0035514
-0.00379328
-0.00402117
-0.00423935
-0.00445124
-0.00465941
-0.00486567
-0.00507107
-0.00527594
-0.00547999
-0.0056823
-0.00588139
-0.00607531
-0.00626161
-0.00643749
-0.00659977
-0.00674501
-0.00686957
-0.00696966
-0.00704141
-0.00708099
-0.00708467
-0.00704894
-0.00697055
-0.0068467
-0.00667506
-0.00645395
-0.00618239
-0.00586022
-0.00548823
-0.00506818
-0.00460293
-0.00409645
-0.00355387
-0.00298148
-0.00238667
-0.00177789
-0.00116453
-0.000556744
3.47003e-05
0.0005987
0.00112406
0.00159983
0.00201556
0.00236171
0.00262992
0.00281334
0.00290685
0.00290733
0.00281375
0.00262726
0.00235114
0.00199073
0.00155318
0.00104723
0.000482868
-0.000129037
-0.000777417
-0.0014511
-0.0021353
-0.00281621
-0.00353477
-0.00432917
-9.60811e-05
-0.000941432
-0.00159916
-0.0021276
-0.00259736
-0.00301399
-0.00338213
-0.00371071
-0.00400801
-0.00428121
-0.00453659
-0.00477952
-0.00501446
-0.00524495
-0.00547366
-0.00570243
-0.00593229
-0.00616355
-0.00639584
-0.00662811
-0.00685878
-0.00708568
-0.00730619
-0.00751724
-0.00771538
-0.00789686
-0.00805768
-0.00819364
-0.00830047
-0.00837385
-0.00840954
-0.00840348
-0.00835186
-0.00825127
-0.00809879
-0.00789209
-0.0076296
-0.00731059
-0.00693526
-0.00650492
-0.006022
-0.00549019
-0.00491443
-0.00430097
-0.00365737
-0.00299241
-0.00231601
-0.00163909
-0.000973385
-0.000331172
0.000274983
0.000832575
0.00132952
0.00175451
0.00209744
0.00234973
0.00250467
0.0025577
0.00250663
0.00235169
0.00209563
0.00174355
0.00130279
0.000782552
0.000193636
-0.000452048
-0.00114224
-0.00186445
-0.0026022
-0.00334003
-0.00412271
-0.0049918
-0.000802926
-0.0016651
-0.00233588
-0.00287498
-0.00335474
-0.00378109
-0.00415905
-0.00449798
-0.00480657
-0.00509231
-0.00536178
-0.00562057
-0.0058733
-0.00612365
-0.00637436
-0.00662729
-0.00688349
-0.00714323
-0.00740604
-0.0076708
-0.00793575
-0.00819859
-0.00845645
-0.00870605
-0.00894364
-0.00916516
-0.00936623
-0.00954225
-0.00968849
-0.00980014
-0.00987241
-0.00990066
-0.00988045
-0.00980772
-0.00967885
-0.00949085
-0.00924142
-0.00892916
-0.00855363
-0.00811552
-0.00761677
-0.00706063
-0.00645177
-0.0057963
-0.00510184
-0.00437741
-0.00363343
-0.00288156
-0.0021345
-0.00140575
-0.000709347
-5.94594e-05
0.000529985
0.00104574
0.00147567
0.00180921
0.00203775
0.00215503
0.00215736
0.00204385
0.00181647
0.00147995
0.00104166
0.000511267
-9.96416e-05
-0.000778041
-0.00151037
-0.0022827
-0.00307663
-0.00387494
-0.00472648
-0.00567651
-0.00160139
-0.00247752
-0.00315927
-0.00370758
-0.00419621
-0.00463148
-0.00501878
-0.00536788
-0.00568783
-0.00598646
-0.00627058
-0.00654602
-0.00681757
-0.00708901
-0.00736316
-0.00764193
-0.00792635
-0.00821665
-0.00851232
-0.00881212
-0.00911416
-0.00941596
-0.00971447
-0.0100061
-0.010287
-0.0105525
-0.0107981
-0.0110187
-0.011209
-0.0113638
-0.0114777
-0.0115454
-0.0115618
-0.0115221
-0.011422
-0.0112577
-0.011026
-0.0107249
-0.0103531
-0.00991066
-0.00939876
-0.00882015
-0.00817909
-0.00748144
-0.00673473
-0.00594818
-0.00513258
-0.00430028
-0.00346494
-0.00264131
-0.00184497
-0.00109186
-0.000397922
0.000221416
0.000751749
0.00118021
0.00149599
0.00169073
0.00175897
0.00169837
0.00150983
0.00119752
0.000768686
0.00023335
-0.000396092
-0.00110546
-0.00187978
-0.00270355
-0.00355625
-0.00441864
-0.00534408
-0.00638177
-0.00249303
-0.00338017
-0.00407079
-0.00462679
-0.00512315
-0.00556653
-0.00596268
-0.00632174
-0.00665311
-0.00696492
-0.00726424
-0.0075571
-0.00784844
-0.00814216
-0.00844117
-0.00874739
-0.00906188
-0.00938484
-0.00971568
-0.0100531
-0.010395
-0.0107389
-0.0110814
-0.0114188
-0.0117467
-0.0120606
-0.0123551
-0.012625
-0.0128644
-0.0130676
-0.0132285
-0.0133412
-0.0133999
-0.0133991
-0.0133335
-0.0131985
-0.0129902
-0.0127054
-0.0123422
-0.0118996
-0.0113782
-0.0107799
-0.0101085
-0.00936943
-0.00856998
-0.00771941
-0.00682883
-0.00591116
-0.00498099
-0.00405431
-0.00314827
-0.00228071
-0.00146974
-0.000733176
-8.79815e-05
0.000450362
0.000868444
0.00115549
0.00130385
0.00130934
0.00117151
0.000893646
0.00048269
-5.10949e-05
-0.000694561
-0.00143233
-0.00224793
-0.00312409
-0.00403799
-0.00496815
-0.00597275
-0.00710525
-0.00347891
-0.00437407
-0.0050714
-0.00563359
-0.00613652
-0.00658719
-0.00699167
-0.00736045
-0.00770327
-0.00802852
-0.00834352
-0.00865449
-0.00896652
-0.00928365
-0.00960883
-0.00994406
-0.0102904
-0.010648
-0.0110163
-0.0113938
-0.0117785
-0.0121674
-0.0125573
-0.0129441
-0.0133232
-0.0136895
-0.0140377
-0.0143617
-0.0146555
-0.0149126
-0.0151263
-0.01529
-0.0153973
-0.0154415
-0.0154168
-0.0153176
-0.0151388
-0.0148765
-0.0145275
-0.01409
-0.0135637
-0.0129495
-0.0122507
-0.0114719
-0.0106202
-0.00970472
-0.00873665
-0.00772942
-0.00669845
-0.00566094
-0.00463561
-0.00364228
-0.00270135
-0.00183327
-0.00105781
-0.000393432
0.000143493
0.000539315
0.000783751
0.00087037
0.00079693
0.000565525
0.00018251
-0.000341792
-0.00099356
-0.00175621
-0.00261165
-0.00354073
-0.00451803
-0.0055196
-0.00660884
-0.00784374
-0.00455957
-0.00545973
-0.00616164
-0.0067285
-0.00723683
-0.00769394
-0.00810621
-0.00848444
-0.00883867
-0.00917755
-0.00950862
-0.00983829
-0.0101718
-0.0105133
-0.0108659
-0.0112316
-0.0116114
-0.0120056
-0.0124134
-0.0128334
-0.0132635
-0.0137006
-0.0141411
-0.0145809
-0.0150151
-0.0154384
-0.0158448
-0.0162281
-0.0165816
-0.0168982
-0.0171708
-0.0173919
-0.0175542
-0.0176504
-0.0176735
-0.0176168
-0.0174746
-0.0172414
-0.0169132
-0.0164871
-0.0159614
-0.0153363
-0.014614
-0.0137985
-0.0128962
-0.011916
-0.010869
-0.00976901
-0.00863209
-0.00747661
-0.00632282
-0.00519255
-0.00410863
-0.00309428
-0.00217239
-0.00136472
-0.00069105
-0.000168364
0.000189925
0.000374624
0.000381235
0.000210222
-0.000132984
-0.000638243
-0.00129119
-0.00207405
-0.00296706
-0.003949
-0.0049916
-0.00606816
-0.00724768
-0.00859297
-0.00573503
-0.00663721
-0.00734155
-0.00791158
-0.00842415
-0.00888683
-0.0093063
-0.00969365
-0.0100592
-0.0104118
-0.0107592
-0.011108
-0.0114637
-0.0118304
-0.0122114
-0.0126087
-0.0130235
-0.0134559
-0.0139053
-0.0143701
-0.014848
-0.0153361
-0.0158305
-0.0163268
-0.01682
-0.0173044
-0.0177738
-0.0182214
-0.01864
-0.019022
-0.0193596
-0.0196446
-0.0198688
-0.020024
-0.0201022
-0.0200958
-0.0199976
-0.0198011
-0.0195011
-0.0190933
-0.0185749
-0.0179449
-0.0172043
-0.0163562
-0.0154063
-0.0143628
-0.0132367
-0.0120419
-0.010795
-0.00951535
-0.00822465
-0.00694673
-0.0057069
-0.00453135
-0.00344631
-0.00247721
-0.00164765
-0.000978468
-0.000486753
-0.000185043
-8.0655e-05
-0.000175269
-0.000464812
-0.000939648
-0.00158507
-0.00238218
-0.00330947
-0.00434351
-0.00545289
-0.00660785
-0.00788339
-0.00934745
-0.00700479
-0.00790604
-0.00861072
-0.00918243
-0.00969807
-0.0101655
-0.0105915
-0.0109876
-0.0113641
-0.0117304
-0.0120943
-0.0124625
-0.0128408
-0.0132333
-0.0136435
-0.0140735
-0.0145244
-0.0149965
-0.0154891
-0.0160006
-0.0165287
-0.0170704
-0.0176216
-0.0181778
-0.0187336
-0.0192833
-0.0198201
-0.0203369
-0.020826
-0.0212793
-0.0216881
-0.0220436
-0.0223367
-0.0225583
-0.0226994
-0.022751
-0.0227048
-0.0225532
-0.0222895
-0.0219079
-0.0214043
-0.0207765
-0.020024
-0.0191488
-0.0181556
-0.0170517
-0.0158478
-0.0145576
-0.013198
-0.0117891
-0.010354
-0.00891854
-0.00751039
-0.00615884
-0.00489371
-0.00374438
-0.00273874
-0.00190201
-0.00125556
-0.000815927
-0.000593896
-0.000593909
-0.000813782
-0.00124481
-0.00187222
-0.0026761
-0.00363321
-0.00471773
-0.00589485
-0.00713139
-0.00850875
-0.0101003
-0.00836778
-0.00926526
-0.00996826
-0.0105402
-0.0110578
-0.011529
-0.0119609
-0.0123651
-0.0127524
-0.0131322
-0.0135124
-0.0139001
-0.0143011
-0.0147198
-0.0151597
-0.0156229
-0.0161108
-0.0166237
-0.0171608
-0.0177207
-0.018301
-0.0188984
-0.019509
-0.0201281
-0.0207501
-0.0213688
-0.0219773
-0.022568
-0.0231329
-0.023663
-0.0241492
-0.0245818
-0.0249508
-0.0252463
-0.0254579
-0.0255757
-0.0255901
-0.025492
-0.0252732
-0.0249265
-0.0244463
-0.0238287
-0.0230718
-0.0221762
-0.0211453
-0.0199855
-0.0187067
-0.017322
-0.0158485
-0.0143069
-0.0127214
-0.0111195
-0.0095315
-0.00798967
-0.00652758
-0.00517892
-0.00397625
-0.00294971
-0.00212562
-0.00152523
-0.00116353
-0.00104845
-0.00118036
-0.001552
-0.00214891
-0.0029504
-0.00393149
-0.00506389
-0.00630903
-0.00762999
-0.00911495
-0.010843
-0.00982243
-0.0107135
-0.0114129
-0.0119837
-0.012502
-0.0129761
-0.0134131
-0.013825
-0.0142225
-0.0146152
-0.0150114
-0.0154184
-0.0158419
-0.0162868
-0.0167564
-0.0172532
-0.0177785
-0.0183328
-0.0189155
-0.0195249
-0.0201588
-0.0208138
-0.0214861
-0.0221705
-0.0228616
-0.0235528
-0.0242369
-0.0249059
-0.0255513
-0.0261636
-0.026733
-0.0272491
-0.027701
-0.0280777
-0.0283677
-0.0285601
-0.0286436
-0.0286079
-0.0284431
-0.0281406
-0.0276929
-0.0270945
-0.0263418
-0.0254338
-0.0243724
-0.0231627
-0.0218133
-0.0203369
-0.0187502
-0.0170741
-0.0153338
-0.0135582
-0.01178
-0.0100345
-0.00835918
-0.00679214
-0.00537106
-0.00413154
-0.00310553
-0.00231973
-0.00179422
-0.00154124
-0.00156447
-0.00185879
-0.00241056
-0.00319858
-0.00419626
-0.00537273
-0.00668537
-0.00809314
-0.00969141
-0.0115652
-0.0113666
-0.0122487
-0.0129428
-0.0135111
-0.0140292
-0.0145052
-0.0149465
-0.0153651
-0.0157721
-0.0161771
-0.0165888
-0.0170143
-0.0174599
-0.0179303
-0.0184293
-0.0189595
-0.0195222
-0.0201181
-0.0207466
-0.0214062
-0.0220946
-0.0228087
-0.0235441
-0.0242961
-0.0250587
-0.0258252
-0.0265883
-0.0273395
-0.0280698
-0.0287693
-0.0294274
-0.0300329
-0.0305742
-0.0310392
-0.0314154
-0.0316903
-0.0318516
-0.0318873
-0.031786
-0.0315373
-0.0311319
-0.0305625
-0.0298235
-0.0289123
-0.0278287
-0.0265765
-0.0251628
-0.0235992
-0.0219018
-0.0200915
-0.0181939
-0.0162392
-0.0142622
-0.0123011
-0.0103971
-0.0085932
-0.00693235
-0.00545615
-0.00420282
-0.00320541
-0.00248993
-0.00207391
-0.00196528
-0.00216187
-0.00265147
-0.00341284
-0.00441795
-0.00563331
-0.00701198
-0.00850838
-0.0102255
-0.0122544
-0.0129978
-0.0138688
-0.0145559
-0.0151206
-0.0156373
-0.0161142
-0.0165589
-0.0169834
-0.0173989
-0.0178152
-0.0182412
-0.0186842
-0.0191508
-0.0196459
-0.0201734
-0.020736
-0.0213355
-0.0219725
-0.0226466
-0.0233565
-0.0240998
-0.0248734