/*--------------------------------*- C++ -*----------------------------------*\
  =========                 |
  \\      /  F ield         | OpenFOAM: The Open Source CFD Toolbox
   \\    /   O peration     | Website:  https://openfoam.org
    \\  /    A nd           | Version:  dev
     \\/     M anipulation  |
\*---------------------------------------------------------------------------*/
FoamFile
{
    format      ascii;
    class       surfaceScalarField;
    location    "22.95";
    object      phi;
}
// * * * * * * * * * * * * * * * * * * * * * * * * * * * * * * * * * * * * * //

dimensions      [0 3 -1 0 0 0 0];

internalField   nonuniform List<scalar> 
10224
(
3.35801e-08
-3.50542e-08
8.76912e-08
-5.41069e-08
1.24239e-07
-3.65486e-08
1.25182e-07
-9.44602e-10
8.35487e-08
4.16335e-08
-1.92422e-09
8.54737e-08
-1.29411e-07
1.27486e-07
-2.95605e-07
1.66192e-07
-4.96445e-07
2.00839e-07
-7.27632e-07
2.31188e-07
-9.849e-07
2.57268e-07
-1.26416e-06
2.79258e-07
-1.56157e-06
2.97412e-07
-1.87358e-06
3.12014e-07
-2.19693e-06
3.23346e-07
-2.52861e-06
3.31676e-07
-2.86585e-06
3.37241e-07
-3.20609e-06
3.4024e-07
-3.54692e-06
3.40835e-07
-3.88607e-06
3.39149e-07
-4.22134e-06
3.35267e-07
-4.55058e-06
3.29241e-07
-4.87168e-06
3.21096e-07
-5.18251e-06
3.10836e-07
-5.48096e-06
2.98449e-07
-5.76487e-06
2.83913e-07
-6.03208e-06
2.67206e-07
-6.28039e-06
2.48312e-07
-6.50762e-06
2.27227e-07
-6.71158e-06
2.03964e-07
-6.89014e-06
1.78561e-07
-7.04123e-06
1.51087e-07
-7.16287e-06
1.21642e-07
-7.25324e-06
9.03666e-08
-7.31068e-06
5.74411e-08
-7.33376e-06
2.30878e-08
-7.32134e-06
-1.24281e-08
-7.27254e-06
-4.87987e-08
-7.18686e-06
-8.5675e-08
-7.06419e-06
-1.2267e-07
-6.90483e-06
-1.59363e-07
-6.70952e-06
-1.95305e-07
-6.4795e-06
-2.30028e-07
-6.21645e-06
-2.63047e-07
-5.92257e-06
-2.93876e-07
-5.60054e-06
-3.22034e-07
-5.25348e-06
-3.47055e-07
-4.88498e-06
-3.685e-07
-4.49901e-06
-3.85967e-07
-4.09991e-06
-3.99103e-07
-3.69229e-06
-4.07613e-07
-3.28103e-06
-4.11266e-07
-2.87112e-06
-4.09907e-07
-2.46766e-06
-4.0346e-07
-2.07572e-06
-3.91934e-07
-1.7003e-06
-3.75427e-07
-1.34617e-06
-3.54123e-07
-1.01788e-06
-3.28296e-07
-7.19573e-07
-2.98306e-07
-4.54975e-07
-2.646e-07
-2.27259e-07
-2.27716e-07
-3.89675e-08
-1.88288e-07
1.08091e-07
-1.47056e-07
2.12977e-07
-1.04887e-07
2.75799e-07
-6.28264e-08
2.9799e-07
-2.21936e-08
2.82725e-07
1.52651e-08
2.35595e-07
4.71314e-08
1.65652e-07
6.99424e-08
8.71786e-08
7.84685e-08
2.25391e-08
6.46292e-08
2.25287e-08
5.37576e-08
-8.88081e-08
1.12191e-07
-1.12544e-07
1.17945e-07
-4.23047e-08
3.8622e-08
7.83765e-08
-1.42169e-07
2.22422e-07
-4.29741e-07
3.73043e-07
-8.22323e-07
5.20066e-07
-1.31377e-06
6.5764e-07
-1.89552e-06
7.82592e-07
-2.55777e-06
8.93437e-07
-3.29025e-06
9.89745e-07
-4.08272e-06
1.07172e-06
-4.92525e-06
1.13994e-06
-5.80841e-06
1.19518e-06
-6.72332e-06
1.23826e-06
-7.66167e-06
1.27002e-06
-8.61564e-06
1.29121e-06
-9.57789e-06
1.3025e-06
-1.05415e-05
1.30443e-06
-1.14998e-05
1.29743e-06
-1.24463e-05
1.28182e-06
-1.33749e-05
1.2578e-06
-1.42793e-05
1.22549e-06
-1.51534e-05
1.18493e-06
-1.59911e-05
1.13614e-06
-1.67862e-05
1.07908e-06
-1.75327e-05
1.01373e-06
-1.82245e-05
9.40085e-07
-1.88555e-05
8.58193e-07
-1.94197e-05
7.68169e-07
-1.99113e-05
6.70213e-07
-2.03249e-05
5.64639e-07
-2.06551e-05
4.51878e-07
-2.08973e-05
3.32498e-07
-2.1047e-05
2.07214e-07
-2.11008e-05
7.68871e-08
-2.10558e-05
-5.74671e-08
-2.09099e-05
-1.94685e-07
-2.06621e-05
-3.33459e-07
-2.03124e-05
-4.72355e-07
-1.9862e-05
-6.09822e-07
-1.93131e-05
-7.44213e-07
-1.86693e-05
-8.73817e-07
-1.79354e-05
-9.96877e-07
-1.71177e-05
-1.11163e-06
-1.62234e-05
-1.21634e-06
-1.52611e-05
-1.30933e-06
-1.42406e-05
-1.38904e-06
-1.31725e-05
-1.45402e-06
-1.20686e-05
-1.50301e-06
-1.09413e-05
-1.53497e-06
-9.80343e-06
-1.54908e-06
-8.66853e-06
-1.54481e-06
-7.55009e-06
-1.5219e-06
-6.4616e-06
-1.48042e-06
-5.4163e-06
-1.42073e-06
-4.42689e-06
-1.34354e-06
-3.50529e-06
-1.24989e-06
-2.66247e-06
-1.14113e-06
-1.90809e-06
-1.01898e-06
-1.25034e-06
-8.85471e-07
-6.95611e-07
-7.43018e-07
-2.48213e-07
-5.94452e-07
9.00063e-08
-4.43102e-07
3.20115e-07
-2.92939e-07
4.46707e-07
-1.48796e-07
4.78768e-07
-1.68052e-08
4.30765e-07
9.51343e-08
3.24122e-07
1.76594e-07
1.88834e-07
2.13771e-07
6.43437e-08
1.89138e-07
8.68656e-08
3.7251e-08
-1.2606e-07
4.31294e-08
-1.18426e-07
-4.35133e-08
4.43395e-08
-2.58944e-07
2.93808e-07
-6.22767e-07
5.86242e-07
-1.14209e-06
8.92361e-07
-1.81516e-06
1.19314e-06
-2.63435e-06
1.47682e-06
-3.58827e-06
1.73652e-06
-4.66342e-06
1.96859e-06
-5.84523e-06
2.17155e-06
-7.11883e-06
2.34532e-06
-8.46951e-06
2.49062e-06
-9.88304e-06
2.60871e-06
-1.13458e-05
2.70103e-06
-1.28449e-05
2.76908e-06
-1.4368e-05
2.81431e-06
-1.59034e-05
2.83796e-06
-1.74401e-05
2.84112e-06
-1.89673e-05
2.82465e-06
-2.04747e-05
2.78919e-06
-2.19521e-05
2.73519e-06
-2.33896e-05
2.66293e-06
-2.47772e-05
2.57257e-06
-2.61052e-05
2.46415e-06
-2.73639e-05
2.33772e-06
-2.85434e-05
2.19329e-06
-2.96343e-05
2.03096e-06
-3.0627e-05
1.85092e-06
-3.15123e-05
1.65349e-06
-3.22813e-05
1.43921e-06
-3.29255e-05
1.20883e-06
-3.3437e-05
9.63343e-07
-3.38085e-05
7.04049e-07
-3.40339e-05
4.32526e-07
-3.41076e-05
1.50666e-07
-3.40258e-05
-1.39328e-07
-3.37855e-05
-4.34953e-07
-3.33856e-05
-7.33417e-07
-3.28262e-05
-1.03167e-06
-3.21096e-05
-1.32642e-06
-3.12396e-05
-1.61421e-06
-3.0222e-05
-1.89144e-06
-2.90645e-05
-2.15443e-06
-2.77766e-05
-2.39951e-06
-2.63699e-05
-2.62306e-06
-2.48576e-05
-2.82159e-06
-2.32548e-05
-2.99185e-06
-2.1578e-05
-3.13086e-06
-1.98449e-05
-3.23602e-06
-1.80747e-05
-3.30517e-06
-1.62872e-05
-3.33664e-06
-1.45026e-05
-3.32934e-06
-1.27418e-05
-3.28277e-06
-1.10251e-05
-3.19709e-06
-9.37272e-06
-3.07311e-06
-7.80391e-06
-2.91235e-06
-6.33677e-06
-2.71703e-06
-4.98782e-06
-2.49008e-06
-3.77167e-06
-2.23513e-06
-2.70054e-06
-1.9566e-06
-1.7839e-06
-1.65966e-06
-1.028e-06
-1.35037e-06
-4.35287e-07
-1.03581e-06
-3.87188e-09
-7.24349e-07
2.73305e-07
-4.2597e-07
4.09303e-07
-1.52805e-07
4.24344e-07
8.00864e-08
3.47031e-07
2.53893e-07
2.15544e-07
3.45247e-07
7.8584e-08
3.26107e-07
1.65449e-07
1.85129e-09
-1.27912e-07
-7.90589e-08
-3.75181e-08
-2.97743e-07
2.63023e-07
-6.879e-07
6.83964e-07
-1.26783e-06
1.16617e-06
-2.04381e-06
1.66833e-06
-3.01303e-06
2.16236e-06
-4.16624e-06
2.63004e-06
-5.48986e-06
3.06013e-06
-6.96756e-06
3.44629e-06
-8.58151e-06
3.78551e-06
-1.03132e-05
4.07705e-06
-1.21443e-05
4.32164e-06
-1.40564e-05
4.52084e-06
-1.60321e-05
4.67672e-06
-1.80544e-05
4.79144e-06
-2.01073e-05
4.86714e-06
-2.21751e-05
4.90578e-06
-2.4243e-05
4.90902e-06
-2.62966e-05
4.87822e-06
-2.83218e-05
4.81442e-06
-3.0305e-05
4.71839e-06
-3.22327e-05
4.59063e-06
-3.40916e-05
4.43145e-06
-3.58685e-05
4.24105e-06
-3.75503e-05
4.01956e-06
-3.91242e-05
3.76715e-06
-4.05773e-05
3.48408e-06
-4.18972e-05
3.17082e-06
-4.30717e-05
2.82805e-06
-4.40893e-05
2.45681e-06
-4.4939e-05
2.05848e-06
-4.56105e-05
1.63488e-06
-4.60948e-05
1.1883e-06
-4.63838e-05
7.2151e-07
-4.64709e-05
2.37779e-07
-4.63511e-05
-2.5911e-07
-4.60212e-05
-7.64884e-07
-4.54798e-05
-1.27481e-06
-4.47277e-05
-1.78373e-06
-4.3768e-05
-2.28612e-06
-4.26061e-05
-2.77618e-06
-4.12496e-05
-3.24789e-06
-3.97089e-05
-3.69512e-06
-3.79967e-05
-4.11174e-06
-3.6128e-05
-4.49176e-06
-3.41202e-05
-4.82939e-06
-3.19928e-05
-5.11924e-06
-2.97673e-05
-5.35639e-06
-2.74667e-05
-5.53655e-06
-2.51157e-05
-5.65614e-06
-2.274e-05
-5.71244e-06
-2.03657e-05
-5.70363e-06
-1.80195e-05
-5.62894e-06
-1.57279e-05
-5.48865e-06
-1.35169e-05
-5.28417e-06
-1.14111e-05
-5.01808e-06
-9.43406e-06
-4.69412e-06
-7.60688e-06
-4.31726e-06
-5.94834e-06
-3.89367e-06
-4.47414e-06
-3.4308e-06
-3.19638e-06
-2.93742e-06
-2.12303e-06
-2.42372e-06
-1.25729e-06
-1.90156e-06
-5.9692e-07
-1.38472e-06
-1.3349e-07
-8.89395e-07
1.48478e-07
-4.34769e-07
2.72429e-07
-4.38616e-08
2.70796e-07
2.55522e-07
1.86049e-07
4.29984e-07
7.21381e-08
4.40021e-07
2.37587e-07
-4.20731e-08
-8.58382e-08
-2.30036e-07
1.50443e-07
-6.06449e-07
6.39433e-07
-1.19787e-06
1.27538e-06
-2.01803e-06
1.98633e-06
-3.07008e-06
2.72039e-06
-4.34885e-06
3.44114e-06
-5.84292e-06
4.1241e-06
-7.53641e-06
4.75363e-06
-9.41054e-06
5.32042e-06
-1.14448e-05
5.81974e-06
-1.36177e-05
6.24997e-06
-1.59077e-05
6.61162e-06
-1.82933e-05
6.9065e-06
-2.07538e-05
7.13714e-06
-2.32687e-05
7.30636e-06
-2.58186e-05
7.41701e-06
-2.83845e-05
7.47171e-06
-3.09482e-05
7.47274e-06
-3.3492e-05
7.422e-06
-3.59986e-05
7.32099e-06
-3.8451e-05
7.17081e-06
-4.08326e-05
6.97224e-06
-4.3127e-05
6.72582e-06
-4.53178e-05
6.43192e-06
-4.73891e-05
6.09088e-06
-4.93251e-05
5.70309e-06
-5.11101e-05
5.26911e-06
-5.27291e-05
4.78977e-06
-5.41673e-05
4.2663e-06
-5.54109e-05
3.70038e-06
-5.64466e-05
3.09425e-06
-5.72625e-05
2.45077e-06
-5.78477e-05
1.77349e-06
-5.81929e-05
1.06665e-06
-5.82903e-05
3.35229e-07
-5.81343e-05
-4.15066e-07
-5.77214e-05
-1.17783e-06
-5.70502e-05
-1.94598e-06
-5.61221e-05
-2.71184e-06
-5.4941e-05
-3.46724e-06
-5.35136e-05
-4.20358e-06
-5.18495e-05
-4.91198e-06
-4.99612e-05
-5.58342e-06
-4.78641e-05
-6.20889e-06
-4.55762e-05
-6.77958e-06
-4.31186e-05
-7.28702e-06
-4.05146e-05
-7.72329e-06
-3.77898e-05
-8.0812e-06
-3.49718e-05
-8.35445e-06
-3.20902e-05
-8.53784e-06
-2.91752e-05
-8.62735e-06
-2.62585e-05
-8.62038e-06
-2.33717e-05
-8.51578e-06
-2.05463e-05
-8.31399e-06
-1.78134e-05
-8.01713e-06
-1.52024e-05
-7.62901e-06
-1.27413e-05
-7.15523e-06
-1.04555e-05
-6.60313e-06
-8.36723e-06
-5.98191e-06
-6.49544e-06
-5.3026e-06
-4.85466e-06
-4.57819e-06
-3.45463e-06
-3.82374e-06
-2.29958e-06
-3.0566e-06
-1.38757e-06
-2.29674e-06
-7.09749e-07
-1.56722e-06
-2.49672e-07
-8.94847e-07
1.74927e-08
-3.11025e-07
1.2577e-07
1.47247e-07
1.19268e-07
4.36485e-07
5.35839e-08
5.05704e-07
2.9117e-07
-8.94225e-08
3.58431e-09
-3.95231e-07
4.5625e-07
-9.44764e-07
1.18896e-06
-1.75458e-06
2.0852e-06
-2.83147e-06
3.06322e-06
-4.17366e-06
4.06258e-06
-5.77231e-06
5.03979e-06
-7.61304e-06
5.96483e-06
-9.67739e-06
6.81798e-06
-1.19441e-05
7.58711e-06
-1.43901e-05
8.26572e-06
-1.69914e-05
8.85127e-06
-1.97237e-05
9.34395e-06
-2.25629e-05
9.74569e-06
-2.54852e-05
1.00595e-05
-2.84675e-05
1.02887e-05
-3.14873e-05
1.04368e-05
-3.45228e-05
1.05072e-05
-3.75526e-05
1.05026e-05
-4.05563e-05
1.04256e-05
-4.35135e-05
1.02782e-05
-4.64043e-05
1.00617e-05
-4.92094e-05
9.7773e-06
-5.19094e-05
9.4258e-06
-5.44853e-05
9.00782e-06
-5.69184e-05
8.52396e-06
-5.91902e-05
7.97493e-06
-6.12828e-05
7.36168e-06
-6.31786e-05
6.68556e-06
-6.48607e-05
5.94845e-06
-6.63132e-05
5.15287e-06
-6.75211e-05
4.30211e-06
-6.84706e-05
3.40027e-06
-6.91495e-05
2.4524e-06
-6.95473e-05
1.46447e-06
-6.96555e-05
4.43453e-07
-6.94679e-05
-6.02728e-07
-6.89805e-05
-1.6652e-06
-6.81923e-05
-2.73421e-06
-6.71049e-05
-3.79922e-06
-6.57231e-05
-4.84902e-06
-6.40548e-05
-5.87186e-06
-6.21112e-05
-6.85563e-06
-5.99066e-05
-7.78804e-06
-5.74586e-05
-8.65683e-06
-5.47882e-05
-9.45002e-06
-5.19191e-05
-1.01561e-05
-4.88781e-05
-1.07643e-05
-4.56944e-05
-1.12649e-05
-4.23995e-05
-1.16493e-05
-3.90269e-05
-1.19104e-05
-3.56114e-05
-1.20429e-05
-3.21888e-05
-1.2043e-05
-2.87952e-05
-1.19093e-05
-2.54668e-05
-1.16424e-05
-2.22389e-05
-1.12451e-05
-1.91452e-05
-1.07226e-05
-1.62178e-05
-1.00826e-05
-1.34858e-05
-9.33518e-06
-1.09749e-05
-8.49279e-06
-8.70694e-06
-7.57054e-06
-6.69901e-06
-6.58613e-06
-4.96276e-06
-5.55998e-06
-3.50388e-06
-4.51549e-06
-2.32132e-06
-3.4793e-06
-1.40674e-06
-2.4818e-06
-7.43847e-07
-1.55774e-06
-3.07827e-07
-7.47047e-07
-6.47329e-08
-9.5845e-08
2.91524e-08
3.42603e-07
2.82443e-08
5.06611e-07
3.19413e-07
-1.37594e-07
1.41176e-07
-5.66073e-07
8.84728e-07
-1.29687e-06
1.91976e-06
-2.33507e-06
3.12339e-06
-3.67896e-06
4.40711e-06
-5.32048e-06
5.7041e-06
-7.24602e-06
6.96533e-06
-9.43749e-06
8.15629e-06
-1.18733e-05
9.25382e-06
-1.45296e-05
1.02434e-05
-1.73807e-05
1.11168e-05
-2.04003e-05
1.18708e-05
-2.35616e-05
1.25053e-05
-2.68382e-05
1.30223e-05
-3.02038e-05
1.3425e-05
-3.36327e-05
1.37176e-05
-3.71e-05
1.39041e-05
-4.05811e-05
1.39883e-05
-4.40524e-05
1.39739e-05
-4.74906e-05
1.38638e-05
-5.08727e-05
1.36603e-05
-5.41765e-05
1.33655e-05
-5.73798e-05
1.29806e-05
-6.04609e-05
1.25069e-05
-6.33983e-05
1.19452e-05
-6.61709e-05
1.12965e-05
-6.87579e-05
1.05619e-05
-7.11391e-05
9.74288e-06
-7.32949e-05
8.84135e-06
-7.52064e-05
7.86002e-06
-7.68559e-05
6.80238e-06
-7.82268e-05
5.67294e-06
-7.93038e-05
4.47725e-06
-8.00734e-05
3.22205e-06
-8.05242e-05
1.91528e-06
-8.06469e-05
5.66123e-07
-8.04346e-05
-8.15001e-07
-7.98833e-05
-2.21649e-06
-7.89919e-05
-3.62564e-06
-7.77624e-05
-5.02874e-06
-7.62002e-05
-6.41124e-06
-7.43141e-05
-7.75794e-06
-7.21166e-05
-9.05316e-06
-6.96236e-05
-1.0281e-05
-6.68547e-05
-1.14257e-05
-6.38329e-05
-1.24718e-05
-6.05846e-05
-1.34043e-05
-5.71394e-05
-1.42095e-05
-5.35296e-05
-1.48747e-05
-4.979e-05
-1.53889e-05
-4.59577e-05
-1.57428e-05
-4.20711e-05
-1.59294e-05
-3.81701e-05
-1.59441e-05
-3.42947e-05
-1.57847e-05
-3.04851e-05
-1.5452e-05
-2.67806e-05
-1.49496e-05
-2.3219e-05
-1.42843e-05
-1.9836e-05
-1.34657e-05
-1.66642e-05
-1.25069e-05
-1.37329e-05
-1.14241e-05
-1.10667e-05
-1.02367e-05
-8.68548e-06
-8.96739e-06
-6.60305e-06
-7.64242e-06
-4.82698e-06
-6.29156e-06
-3.35778e-06
-4.9485e-06
-2.18836e-06
-3.65122e-06
-1.30353e-06
-2.44257e-06
-6.79595e-07
-1.37098e-06
-2.83937e-07
-4.91502e-07
-7.47396e-08
1.33406e-07
-6.3759e-10
4.32507e-07
3.18774e-07
-1.85335e-07
3.2651e-07
-7.37673e-07
1.43707e-06
-1.65301e-06
2.8351e-06
-2.92435e-06
4.39473e-06
-4.54061e-06
6.02337e-06
-6.48648e-06
7.64997e-06
-8.74275e-06
9.22159e-06
-1.12869e-05
1.07004e-05
-1.40938e-05
1.20608e-05
-1.71366e-05
1.32861e-05
-2.03871e-05
1.43673e-05
-2.38164e-05
1.53002e-05
-2.73958e-05
1.60847e-05
-3.10963e-05
1.67228e-05
-3.48896e-05
1.72184e-05
-3.87479e-05
1.75759e-05
-4.26439e-05
1.78001e-05
-4.6551e-05
1.78954e-05
-5.04431e-05
1.7866e-05
-5.42947e-05
1.77154e-05
-5.80807e-05
1.74463e-05
-6.17763e-05
1.70611e-05
-6.53574e-05
1.65617e-05
-6.87998e-05
1.59493e-05
-7.208e-05
1.52254e-05
-7.51746e-05
1.43912e-05
-7.80609e-05
1.34483e-05
-8.07168e-05
1.23987e-05
-8.31206e-05
1.12452e-05
-8.52519e-05
9.99128e-06
-8.70911e-05
8.64164e-06
-8.86203e-05
7.20208e-06
-8.98228e-05
5.67978e-06
-9.06841e-05
4.08335e-06
-9.11917e-05
2.42287e-06
-9.13355e-05
7.09965e-07
-9.11083e-05
-1.04226e-06
-9.05055e-05
-2.81925e-06
-8.95261e-05
-4.60509e-06
-8.81721e-05
-6.38267e-06
-8.64495e-05
-8.13385e-06
-8.43678e-05
-9.83967e-06
-8.19403e-05
-1.14807e-05
-7.91843e-05
-1.30371e-05
-7.61208e-05
-1.44892e-05
-7.27748e-05
-1.58178e-05
-6.91747e-05
-1.70044e-05
-6.53524e-05
-1.80318e-05
-6.1343e-05
-1.88842e-05
-5.71842e-05
-1.95477e-05
-5.29161e-05
-2.00109e-05
-4.85806e-05
-2.02648e-05
-4.42211e-05
-2.03036e-05
-3.98812e-05
-2.01245e-05
-3.56049e-05
-1.97283e-05
-3.14352e-05
-1.91193e-05
-2.74137e-05
-1.83058e-05
-2.35797e-05
-1.72997e-05
-1.99696e-05
-1.6117e-05
-1.66158e-05
-1.47779e-05
-1.35463e-05
-1.33062e-05
-1.07837e-05
-1.17301e-05
-8.34442e-06
-1.00817e-05
-6.23845e-06
-8.39753e-06
-4.46839e-06
-6.71856e-06
-3.0291e-06
-5.09051e-06
-1.90727e-06
-3.56439e-06
-1.08116e-06
-2.19709e-06
-5.20435e-07
-1.05223e-06
-1.86179e-07
-2.0085e-07
-3.11068e-08
2.77434e-07
2.87669e-07
-2.32008e-07
5.58518e-07
-9.07275e-07
2.11233e-06
-2.00719e-06
3.93501e-06
-3.51269e-06
5.90023e-06
-5.40291e-06
7.91359e-06
-7.65471e-06
9.90177e-06
-1.02427e-05
1.18096e-05
-1.31393e-05
1.35971e-05
-1.63156e-05
1.5237e-05
-1.97413e-05
1.67118e-05
-2.33855e-05
1.80115e-05
-2.7217e-05
1.91317e-05
-3.12047e-05
2.00723e-05
-3.53176e-05
2.08358e-05
-3.95255e-05
2.14263e-05
-4.37986e-05
2.1849e-05
-4.81076e-05
2.21091e-05
-5.2424e-05
2.22118e-05
-5.67198e-05
2.21618e-05
-6.09674e-05
2.1963e-05
-6.51398e-05
2.16187e-05
-6.92103e-05
2.11316e-05
-7.31526e-05
2.0504e-05
-7.69408e-05
1.97375e-05
-8.05493e-05
1.88339e-05
-8.3953e-05
1.77948e-05
-8.71272e-05
1.66225e-05
-9.0048e-05
1.53195e-05
-9.26923e-05
1.38895e-05
-9.50379e-05
1.23369e-05
-9.70639e-05
1.06676e-05
-9.87507e-05
8.88892e-06
-0.000100081
7.00979e-06
-0.000101038
5.0408e-06
-0.00010161
2.99433e-06
-0.000101784
8.84592e-07
-0.000101554
-1.27244e-06
-0.000100914
-3.45907e-06
-9.98633e-05
-5.656e-06
-9.84035e-05
-7.8425e-06
-9.65407e-05
-9.99661e-06
-9.4285e-05
-1.20954e-05
-9.16503e-05
-1.41154e-05
-8.86547e-05
-1.60326e-05
-8.53206e-05
-1.78233e-05
-8.16741e-05
-1.94642e-05
-7.77457e-05
-2.09329e-05
-7.3569e-05
-2.22085e-05
-6.91814e-05
-2.32717e-05
-6.46234e-05
-2.41058e-05
-5.99376e-05
-2.46966e-05
-5.51693e-05
-2.50332e-05
-5.03648e-05
-2.51082e-05
-4.55714e-05
-2.49179e-05
-4.08365e-05
-2.44632e-05
-3.6207e-05
-2.37489e-05
-3.1728e-05
-2.27847e-05
-2.74428e-05
-2.15849e-05
-2.33912e-05
-2.01686e-05
-1.96093e-05
-1.85598e-05
-1.61284e-05
-1.67871e-05
-1.29744e-05
-1.48841e-05
-1.01668e-05
-1.28893e-05
-7.71828e-06
-1.0846e-05
-5.63422e-06
-8.80261e-06
-3.91201e-06
-6.81273e-06
-2.54085e-06
-4.93555e-06
-1.50163e-06
-3.23631e-06
-7.66936e-07
-1.78692e-06
-3.01352e-07
-6.66433e-07
-6.20614e-08
3.81438e-08
2.25609e-07
-2.77335e-07
8.35854e-07
-1.07335e-06
2.90835e-06
-2.35577e-06
5.21744e-06
-4.09379e-06
7.63826e-06
-6.25669e-06
1.00765e-05
-8.81322e-06
1.24583e-05
-1.17314e-05
1.47277e-05
-1.49783e-05
1.68441e-05
-1.85208e-05
1.87795e-05
-2.23249e-05
2.0516e-05
-2.63569e-05
2.20435e-05
-3.05831e-05
2.33579e-05
-3.49702e-05
2.44594e-05
-3.94853e-05
2.53509e-05
-4.40963e-05
2.60372e-05
-4.87715e-05
2.65242e-05
-5.34801e-05
2.68177e-05
-5.81919e-05
2.69236e-05
-6.2877e-05
2.68469e-05
-6.75062e-05
2.65922e-05
-7.20509e-05
2.61633e-05
-7.64826e-05
2.55633e-05
-8.07732e-05
2.47947e-05
-8.48953e-05
2.38595e-05
-8.88214e-05
2.276e-05
-9.25249e-05
2.14983e-05
-9.59795e-05
2.00771e-05
-9.91597e-05
1.84997e-05
-0.000102041
1.67705e-05
-0.000104599
1.48952e-05
-0.000106813
1.2881e-05
-0.00010866
1.07365e-05
-0.000110123
8.47271e-06
-0.000111184
6.10219e-06
-0.00011183
3.63977e-06
-0.000112048
1.10235e-06
-0.000111829
-1.49108e-06
-0.000111169
-4.11957e-06
-0.000110064
-6.76027e-06
-0.000108518
-9.38865e-06
-0.000106536
-1.19788e-05
-0.000104128
-1.45036e-05
-0.000101308
-1.69352e-05
-9.80951e-05
-1.92454e-05
-9.45123e-05
-2.14061e-05
-9.05869e-05
-2.33896e-05
-8.63506e-05
-2.51693e-05
-8.18387e-05
-2.67203e-05
-7.70907e-05
-2.80198e-05
-7.21489e-05
-2.90475e-05
-6.7059e-05
-2.97865e-05
-6.18688e-05
-3.02234e-05
-5.66278e-05
-3.03492e-05
-5.13866e-05
-3.01591e-05
-4.61962e-05
-2.96535e-05
-4.11071e-05
-2.8838e-05
-3.61684e-05
-2.77234e-05
-3.14271e-05
-2.63262e-05
-2.69269e-05
-2.46688e-05
-2.27079e-05
-2.27788e-05
-1.88049e-05
-2.069e-05
-1.52476e-05
-1.84414e-05
-1.20589e-05
-1.6078e-05
-9.25486e-06
-1.365e-05
-6.84404e-06
-1.12134e-05
-4.82689e-06
-8.82987e-06
-3.19571e-06
-6.56673e-06
-1.9345e-06
-4.49751e-06
-1.01921e-06
-2.70221e-06
-4.1815e-07
-1.26749e-06
-9.29483e-08
-2.87056e-07
1.32663e-07
-3.21203e-07
1.15706e-06
-1.23504e-06
3.82219e-06
-2.69652e-06
6.67891e-06
-4.66355e-06
9.60528e-06
-7.09569e-06
1.25086e-05
-9.95351e-06
1.53161e-05
-1.31982e-05
1.79724e-05
-1.67915e-05
2.04373e-05
-2.06953e-05
2.26833e-05
-2.48724e-05
2.4693e-05
-2.92857e-05
2.64568e-05
-3.38991e-05
2.79713e-05
-3.8677e-05
2.92373e-05
-4.35847e-05
3.02586e-05
-4.85883e-05
3.10408e-05
-5.36546e-05
3.15905e-05
-5.87512e-05
3.19143e-05
-6.38463e-05
3.20186e-05
-6.89087e-05
3.19093e-05
-7.39077e-05
3.15913e-05
-7.88132e-05
3.10688e-05
-8.35952e-05
3.03453e-05
-8.82243e-05
2.94238e-05
-9.26714e-05
2.83067e-05
-9.69078e-05
2.69964e-05
-0.000100905
2.54958e-05
-0.000104636
2.38079e-05
-0.000108073
2.1937e-05
-0.000111191
1.98882e-05
-0.000113964
1.76683e-05
-0.000116369
1.52859e-05
-0.000118384
1.27513e-05
-0.000119988
1.00772e-05
-0.000121164
7.27835e-06
-0.000121897
4.37213e-06
-0.000122173
1.37818e-06
-0.000121982
-1.68144e-06
-0.000121319
-4.78239e-06
-0.000120181
-7.89817e-06
-0.00011857
-1.10004e-05
-0.00011649
-1.40588e-05
-0.000113951
-1.70422e-05
-0.000110968
-1.99182e-05
-0.00010756
-2.26539e-05
-0.000103749
-2.52165e-05
-9.95649e-05
-2.75739e-05
-9.50391e-05
-2.96951e-05
-9.02088e-05
-3.15506e-05
-8.51149e-05
-3.31138e-05
-7.98019e-05
-3.43605e-05
-7.43176e-05
-3.52708e-05
-6.87125e-05
-3.58285e-05
-6.30393e-05
-3.60224e-05
-5.73519e-05
-3.58465e-05
-5.17048e-05
-3.53006e-05
-4.61523e-05
-3.43905e-05
-4.07474e-05
-3.31282e-05
-3.55414e-05
-3.15323e-05
-3.05821e-05
-2.9628e-05
-2.59137e-05
-2.74472e-05
-2.15755e-05
-2.50283e-05
-1.76008e-05
-2.24161e-05
-1.40168e-05
-1.9662e-05
-1.08434e-05
-1.68234e-05
-8.09277e-06
-1.39641e-05
-5.76893e-06
-1.11537e-05
-3.86772e-06
-8.46794e-06
-2.37666e-06
-5.98858e-06
-1.27526e-06
-3.80361e-06
-5.35645e-07
-2.0071e-06
-1.23566e-07
-6.99134e-07
9.09829e-09
-3.63571e-07
1.52063e-06
-1.39187e-06
4.85049e-06
-3.02803e-06
8.31507e-06
-5.2192e-06
1.17965e-05
-7.9155e-06
1.52049e-05
-1.10694e-05
1.847e-05
-1.46353e-05
2.15383e-05
-1.85691e-05
2.43712e-05
-2.28284e-05
2.69426e-05
-2.73717e-05
2.92363e-05
-3.2159e-05
3.12442e-05
-3.71516e-05
3.29639e-05
-4.23118e-05
3.43974e-05
-4.76029e-05
3.55497e-05
-5.29893e-05
3.64273e-05
-5.84365e-05
3.70377e-05
-6.39107e-05
3.73885e-05
-6.93787e-05
3.74867e-05
-7.48081e-05
3.73387e-05
-8.01671e-05
3.69502e-05
-8.54241e-05
3.63258e-05
-9.0548e-05
3.54693e-05
-9.55081e-05
3.43839e-05
-0.000100274
3.30727e-05
-0.000104816
3.15383e-05
-0.000109104
2.97841e-05
-0.00011311
2.78137e-05
-0.000116805
2.5632e-05
-0.000120162
2.32452e-05
-0.000123155
2.06611e-05
-0.000125759
1.78895e-05
-0.00012795
1.49425e-05
-0.000129707
1.18346e-05
-0.000131012
8.58285e-06
-0.000131847
5.20696e-06
-0.000132198
1.72943e-06
-0.000132055
-1.82454e-06
-0.00013141
-5.42719e-06
-0.00013026
-9.04829e-06
-0.000128605
-1.26554e-05
-0.00012645
-1.62141e-05
-0.000123803
-1.96886e-05
-0.000120679
-2.30419e-05
-0.000117097
-2.62362e-05
-0.00011308
-2.92341e-05
-0.000108655
-3.19983e-05
-0.000103857
-3.4493e-05
-9.87237e-05
-3.66843e-05
-9.32965e-05
-3.85409e-05
-8.76221e-05
-4.00349e-05
-8.17506e-05
-4.11423e-05
-7.5735e-05
-4.18441e-05
-6.96307e-05
-4.21266e-05
-6.34953e-05
-4.1982e-05
-5.73867e-05
-4.14092e-05
-5.13634e-05
-4.04138e-05
-4.54826e-05
-3.90089e-05
-3.97999e-05
-3.7215e-05
-3.43679e-05
-3.50601e-05
-2.92352e-05
-3.25799e-05
-2.44458e-05
-2.98177e-05
-2.00378e-05
-2.68241e-05
-1.60427e-05
-2.36571e-05
-1.24847e-05
-2.03814e-05
-9.38025e-06
-1.70685e-05
-6.7375e-06
-1.37965e-05
-4.55614e-06
-1.06493e-05
-2.82747e-06
-7.71725e-06
-1.53473e-06
-5.09635e-06
-6.53732e-07
-2.8881e-06
-1.53939e-07
-1.19893e-06
-1.44841e-07
-4.04425e-07
1.92505e-06
-1.54355e-06
5.98962e-06
-3.34937e-06
1.01209e-05
-5.75881e-06
1.42059e-05
-8.71291e-06
1.8159e-05
-1.21562e-05
2.19133e-05
-1.60364e-05
2.54184e-05
-2.03037e-05
2.86385e-05
-2.49108e-05
3.15497e-05
-2.98127e-05
3.41382e-05
-3.4966e-05
3.63975e-05
-4.03293e-05
3.83272e-05
-4.58628e-05
3.99309e-05
-5.1528e-05
4.12149e-05
-5.72879e-05
4.21872e-05
-6.31065e-05
4.28563e-05
-6.89487e-05
4.32306e-05
-7.47803e-05
4.33183e-05
-8.05678e-05
4.31263e-05
-8.62783e-05
4.26607e-05
-9.18792e-05
4.19267e-05
-9.73384e-05
4.09285e-05
-0.000102624
3.96697e-05
-0.000107705
3.81536e-05
-0.00011255
3.63834e-05
-0.000117129
3.43626e-05
-0.000121411
3.20957e-05
-0.000125367
2.95881e-05
-0.000128968
2.68469e-05
-0.000132188
2.3881e-05
-0.000135
2.07015e-05
-0.00013738
1.73221e-05
-0.000139304
1.37591e-05
-0.000140753
1.00317e-05
-0.000141708
6.16216e-06
-0.000142155
2.17573e-06
-0.00014208
-1.89929e-06
-0.000141475
-6.03167e-06
-0.000140336
-1.01874e-05
-0.000138662
-1.433e-05
-0.000136455
-1.84207e-05
-0.000133725
-2.2419e-05
-0.000130483
-2.62831e-05
-0.000126749
-2.99703e-05
-0.000122546
-3.34379e-05
-0.0001179
-3.66435e-05
-0.000112847
-3.95463e-05
-0.000107424
-4.21071e-05
-0.000101675
-4.42898e-05
-9.56483e-05
-4.6062e-05
-8.93949e-05
-4.73957e-05
-8.29707e-05
-4.82683e-05
-7.64344e-05
-4.86629e-05
-6.98465e-05
-4.85699e-05
-6.32692e-05
-4.79865e-05
-5.67649e-05
-4.69181e-05
-5.03955e-05
-4.53783e-05
-4.42214e-05
-4.33891e-05
-3.83002e-05
-4.09813e-05
-3.26856e-05
-3.81944e-05
-2.74269e-05
-3.50765e-05
-2.25671e-05
-3.16839e-05
-1.8143e-05
-2.80812e-05
-1.41836e-05
-2.43408e-05
-1.07102e-05
-2.0542e-05
-7.73521e-06
-1.67714e-05
-5.26278e-06
-1.31217e-05
-3.28818e-06
-9.69185e-06
-1.79843e-06
-6.5861e-06
-7.72882e-07
-3.91364e-06
-1.84247e-07
-1.78756e-06
-3.29089e-07
-4.43753e-07
2.36881e-06
-1.68986e-06
7.23574e-06
-3.65982e-06
1.20908e-05
-6.2809e-06
1.6827e-05
-9.4854e-06
2.13635e-05
-1.32102e-05
2.56382e-05
-1.73965e-05
2.96047e-05
-2.19888e-05
3.32308e-05
-2.69352e-05
3.64961e-05
-3.21867e-05
3.93897e-05
-3.76969e-05
4.19077e-05
-4.34217e-05
4.4052e-05
-4.93192e-05
4.58284e-05
-5.53491e-05
4.72449e-05
-6.1473e-05
4.83111e-05
-6.76536e-05
4.90369e-05
-7.38548e-05
4.94318e-05
-8.00414e-05
4.95048e-05
-8.61789e-05
4.92638e-05
-9.22336e-05
4.87154e-05
-9.81721e-05
4.78652e-05
-0.000103961
4.67178e-05
-0.000109569
4.52773e-05
-0.000114962
4.35471e-05
-0.00012011
4.15308e-05
-0.00012498
3.92325e-05
-0.000129541
3.6657e-05
-0.000133763
3.38104e-05
-0.000137617
3.07007e-05
-0.000141074
2.73376e-05
-0.000144106
2.37337e-05
-0.000146688
1.99041e-05
-0.000148796
1.58668e-05
-0.000150407
1.16431e-05
-0.000151503
7.25779e-06
-0.000152066
2.73876e-06
-0.000152082
-1.88258e-06
-0.000151543
-6.57159e-06
-0.000150439
-1.12905e-05
-0.000148771
-1.59987e-05
-0.000146538
-2.0653e-05
-0.000143749
-2.52083e-05
-0.000140415
-2.96175e-05
-0.000136552
-3.3833e-05
-0.000132183
-3.78065e-05
-0.000127337
-4.14903e-05
-0.000122045
-4.48378e-05
-0.000116348
-4.78045e-05
-0.000110288
-5.03491e-05
-0.000103916
-5.2434e-05
-9.72856e-05
-5.40265e-05
-9.0454e-05
-5.50999e-05
-8.34829e-05
-5.5634e-05
-7.64366e-05
-5.56162e-05
-6.93812e-05
-5.50419e-05
-6.23836e-05
-5.39157e-05
-5.55107e-05
-5.22512e-05
-4.8828e-05
-5.00718e-05
-4.23986e-05
-4.74107e-05
-3.62821e-05
-4.43109e-05
-3.05334e-05
-4.08252e-05
-2.52013e-05
-3.7016e-05
-2.03282e-05
-3.29543e-05
-1.59487e-05
-2.87203e-05
-1.20891e-05
-2.44015e-05
-8.7672e-06
-2.00933e-05
-5.99143e-06
-1.58975e-05
-3.76143e-06
-1.19219e-05
-2.06803e-06
-8.2795e-06
-8.93965e-07
-5.08771e-06
-2.14767e-07
-2.46676e-06
-5.43856e-07
-4.81536e-07
2.85034e-06
-1.8306e-06
8.5848e-06
-3.95879e-06
1.4219e-05
-6.7842e-06
1.96524e-05
-1.02308e-05
2.48102e-05
-1.42283e-05
2.96356e-05
-1.87112e-05
3.40876e-05
-2.36189e-05
3.81385e-05
-2.88947e-05
4.1772e-05
-3.44859e-05
4.49809e-05
-4.0343e-05
4.77647e-05
-4.64193e-05
5.01283e-05
-5.26707e-05
5.20798e-05
-5.90556e-05
5.36297e-05
-6.55338e-05
5.47894e-05
-7.20671e-05
5.55702e-05
-7.86184e-05
5.59831e-05
-8.51516e-05
5.60381e-05
-9.16316e-05
5.57438e-05
-9.80239e-05
5.51077e-05
-0.000104294
5.41357e-05
-0.00011041
5.2833e-05
-0.000116336
5.12038e-05
-0.000122041
4.9252e-05
-0.000127492
4.69814e-05
-0.000132656
4.43964e-05
-0.000137501
4.15023e-05
-0.000141996
3.83058e-05
-0.000146111
3.48156e-05
-0.000149816
3.10423e-05
-0.000153082
2.69997e-05
-0.000155882
2.27042e-05
-0.000158191
1.81755e-05
-0.000159985
1.34371e-05
-0.000161243
8.5157e-06
-0.000161946
3.44206e-06
-0.000162079
-1.74947e-06
-0.00016163
-7.0209e-06
-0.000160589
-1.23307e-05
-0.000158954
-1.76343e-05
-0.000156723
-2.28839e-05
-0.000153902
-2.80295e-05
-0.0001505
-3.30192e-05
-0.000146533
-3.77997e-05
-0.000142023
-4.23171e-05
-0.000136995
-4.65179e-05
-0.000131484
-5.03496e-05
-0.000125526
-5.37617e-05
-0.000119168
-5.67071e-05
-0.00011246
-5.91426e-05
-0.000105456
-6.10302e-05
-9.82174e-05
-6.23385e-05
-9.08083e-05
-6.30431e-05
-8.32966e-05
-6.31279e-05
-7.57525e-05
-6.2586e-05
-6.82478e-05
-6.14204e-05
-6.08546e-05
-5.96444e-05
-5.36441e-05
-5.72822e-05
-4.66856e-05
-5.43692e-05
-4.00449e-05
-5.09516e-05
-3.37831e-05
-4.7087e-05
-2.79558e-05
-4.28433e-05
-2.26114e-05
-3.82987e-05
-1.77908e-05
-3.35409e-05
-1.35261e-05
-2.86662e-05
-9.84045e-06
-2.3779e-05
-6.74734e-06
-1.89906e-05
-4.25087e-06
-1.44183e-05
-2.34582e-06
-1.01846e-05
-1.01814e-06
-6.41539e-06
-2.45846e-07
-3.23905e-06
-7.89703e-07
-5.17738e-07
3.36808e-06
-1.96555e-06
1.00326e-05
-4.24567e-06
1.64992e-05
-7.26753e-06
2.26742e-05
-1.09473e-05
2.84899e-05
-1.52075e-05
3.38958e-05
-1.99767e-05
3.88568e-05
-2.5189e-05
4.33507e-05
-3.07833e-05
4.73663e-05
-3.67032e-05
5.09007e-05
-4.28961e-05
5.39576e-05
-4.93129e-05
5.65451e-05
-5.59076e-05
5.86746e-05
-6.26368e-05
6.0359e-05
-6.94593e-05
6.16118e-05
-7.63357e-05
6.24465e-05
-8.3228e-05
6.28754e-05
-9.00996e-05
6.29097e-05
-9.69147e-05
6.25589e-05
-0.000103638
6.18312e-05
-0.000110236
6.07332e-05
-0.000116673
5.92704e-05
-0.000122916
5.74472e-05
-0.000128932
5.52679e-05
-0.000134687
5.27365e-05
-0.000140149
4.98577e-05
-0.000145284
4.66372e-05
-0.00015006
4.30821e-05
-0.000154446
3.92017e-05
-0.000158411
3.50076e-05
-0.000161926
3.05143e-05
-0.000164961
2.57396e-05
-0.000167491
2.07048e-05
-0.000169488
1.5435e-05
-0.000170932
9.95927e-06
-0.000171801
4.31075e-06
-0.000172077
-1.47337e-06
-0.000171746
-7.35183e-06
-0.000170797
-1.32795e-05
-0.000169224
-1.92076e-05
-0.000167024
-2.50841e-05
-0.000164199
-3.08541e-05
-0.000160758
-3.64603e-05
-0.000156714
-4.18438e-05
-0.000152086
-4.6945e-05
-0.0001469
-5.1704e-05
-0.000141187
-5.60619e-05
-0.000134987
-5.99621e-05
-0.000128343
-6.33508e-05
-0.000121307
-6.61786e-05
-0.000113936
-6.84017e-05
-0.000106291
-6.9983e-05
-9.84412e-05
-7.08932e-05
-9.04568e-05
-7.11123e-05
-8.24129e-05
-7.06299e-05
-7.43863e-05
-6.9447e-05
-6.64549e-05
-6.75759e-05
-5.8696e-05
-6.50411e-05
-5.11855e-05
-6.18796e-05
-4.39962e-05
-5.81409e-05
-3.71963e-05
-5.38869e-05
-3.08485e-05
-4.91912e-05
-2.50082e-05
-4.4139e-05
-1.97232e-05
-3.8826e-05
-1.50319e-05
-3.33575e-05
-1.09634e-05
-2.78475e-05
-7.53682e-06
-2.24172e-05
-4.76092e-06
-1.71942e-05
-2.63451e-06
-1.2311e-05
-1.14674e-06
-7.90315e-06
-2.77875e-07
-4.10792e-06
-1.06758e-06
-5.52305e-07
3.92039e-06
-2.09445e-06
1.15748e-05
-4.51984e-06
1.89245e-05
-7.72969e-06
2.58841e-05
-1.16328e-05
3.2393e-05
-1.6145e-05
3.84081e-05
-2.11891e-05
4.39009e-05
-2.66941e-05
4.88558e-05
-3.25949e-05
5.32671e-05
-3.88313e-05
5.71372e-05
-4.5348e-05
6.04743e-05
-5.20935e-05
6.32906e-05
-5.90199e-05
6.5601e-05
-6.60822e-05
6.74213e-05
-7.32381e-05
6.87678e-05
-8.04474e-05
6.96557e-05
-8.76713e-05
7.00993e-05
-9.48727e-05
7.0111e-05