/*--------------------------------*- C++ -*----------------------------------*\
  =========                 |
  \\      /  F ield         | OpenFOAM: The Open Source CFD Toolbox
   \\    /   O peration     | Website:  https://openfoam.org
    \\  /    A nd           | Version:  dev
     \\/     M anipulation  |
\*---------------------------------------------------------------------------*/
FoamFile
{
    format      ascii;
    class       volVectorField;
    location    "22.95";
    object      U;
}
// * * * * * * * * * * * * * * * * * * * * * * * * * * * * * * * * * * * * * //

dimensions      [0 1 -1 0 0 0 0];

internalField   nonuniform List<vector> 
5184
(
(1.22386e-05 -1.27816e-05 0)
(4.50132e-05 -2.09185e-05 0)
(8.01988e-05 -1.72488e-05 0)
(9.58526e-05 -8.18937e-06 0)
(8.20144e-05 2.67507e-06 0)
(3.63209e-05 1.36186e-05 0)
(-4.06734e-05 2.38413e-05 0)
(-0.000146949 3.3037e-05 0)
(-0.000279715 4.10885e-05 0)
(-0.000435916 4.80017e-05 0)
(-0.000612432 5.38377e-05 0)
(-0.000806231 5.86816e-05 0)
(-0.00101445 6.26261e-05 0)
(-0.00123442 6.5762e-05 0)
(-0.00146368 6.81741e-05 0)
(-0.00169999 6.99379e-05 0)
(-0.00194126 7.11175e-05 0)
(-0.00218559 7.17652e-05 0)
(-0.0024312 7.19219e-05 0)
(-0.00267639 7.16173e-05 0)
(-0.00291956 7.08707e-05 0)
(-0.00315916 6.96923e-05 0)
(-0.00339366 6.80854e-05 0)
(-0.00362152 6.6047e-05 0)
(-0.00384124 6.357e-05 0)
(-0.00405127 6.06443e-05 0)
(-0.00425005 5.72596e-05 0)
(-0.00443601 5.34063e-05 0)
(-0.00460758 4.90774e-05 0)
(-0.00476317 4.427e-05 0)
(-0.00490124 3.89864e-05 0)
(-0.00502025 3.32357e-05 0)
(-0.00511875 2.70352e-05 0)
(-0.00519536 2.0411e-05 0)
(-0.00524882 1.33988e-05 0)
(-0.00527802 6.04414e-06 0)
(-0.00528202 -1.59695e-06 0)
(-0.00526008 -9.45816e-06 0)
(-0.00521171 -1.7463e-05 0)
(-0.00513668 -2.55257e-05 0)
(-0.00503505 -3.35519e-05 0)
(-0.00490719 -4.14401e-05 0)
(-0.00475382 -4.90831e-05 0)
(-0.00457597 -5.63703e-05 0)
(-0.00437506 -6.3189e-05 0)
(-0.00415284 -6.94275e-05 0)
(-0.00391139 -7.49771e-05 0)
(-0.00365315 -7.97347e-05 0)
(-0.00338084 -8.3606e-05 0)
(-0.00309746 -8.65073e-05 0)
(-0.00280624 -8.8368e-05 0)
(-0.00251061 -8.91329e-05 0)
(-0.00221414 -8.87637e-05 0)
(-0.00192048 -8.72405e-05 0)
(-0.00163329 -8.45629e-05 0)
(-0.00135622 -8.07506e-05 0)
(-0.0010928 -7.5843e-05 0)
(-0.000846406 -6.98987e-05 0)
(-0.000620176 -6.29946e-05 0)
(-0.000416961 -5.52264e-05 0)
(-0.000239259 -4.67081e-05 0)
(-8.91455e-05 -3.75733e-05 0)
(3.17912e-05 -2.79771e-05 0)
(0.000122535 -1.81013e-05 0)
(0.000182751 -8.17045e-06 0)
(0.000212941 1.52056e-06 0)
(0.000214692 1.05484e-05 0)
(0.000191049 1.82759e-05 0)
(0.000147036 2.36918e-05 0)
(9.07406e-05 2.51055e-05 0)
(3.66152e-05 1.98331e-05 0)
(6.22797e-06 6.24124e-06 0)
(2.07821e-05 -4.59714e-05 0)
(6.54721e-05 -6.57293e-05 0)
(9.45248e-05 -4.0536e-05 0)
(7.25972e-05 7.65744e-06 0)
(-1.91371e-05 6.56818e-05 0)
(-0.000187481 0.000125962 0)
(-0.000433011 0.00018423 0)
(-0.000752508 0.000238238 0)
(-0.00114043 0.000286851 0)
(-0.00159 0.000329628 0)
(-0.00209387 0.000366529 0)
(-0.0026446 0.000397745 0)
(-0.00323489 0.000423586 0)
(-0.00385775 0.000444419 0)
(-0.00450657 0.000460621 0)
(-0.00517517 0.000472551 0)
(-0.00585774 0.000480531 0)
(-0.00654885 0.000484836 0)
(-0.00724337 0.00048569 0)
(-0.00793641 0.000483264 0)
(-0.00862328 0.000477679 0)
(-0.00929942 0.000469012 0)
(-0.00996038 0.000457301 0)
(-0.0106017 0.000442556 0)
(-0.0112191 0.000424766 0)
(-0.011808 0.000403906 0)
(-0.0123641 0.000379952 0)
(-0.0128829 0.000352887 0)
(-0.0133602 0.000322713 0)
(-0.0137915 0.000289456 0)
(-0.0141726 0.000253176 0)
(-0.0144994 0.000213975 0)
(-0.014768 0.000172004 0)
(-0.0149749 0.000127466 0)
(-0.0151166 8.06191e-05 0)
(-0.0151905 3.17826e-05 0)
(-0.015194 -1.86653e-05 0)
(-0.0151256 -7.02867e-05 0)
(-0.0149839 -0.000122587 0)
(-0.0147687 -0.00017502 0)
(-0.0144804 -0.000226991 0)
(-0.0141201 -0.000277869 0)
(-0.0136899 -0.000326994 0)
(-0.013193 -0.000373687 0)
(-0.0126333 -0.000417264 0)
(-0.0120155 -0.00045705 0)
(-0.0113455 -0.000492394 0)
(-0.0106299 -0.000522682 0)
(-0.00987607 -0.000547352 0)
(-0.00909205 -0.000565911 0)
(-0.00828657 -0.000577945 0)
(-0.0074688 -0.000583136 0)
(-0.00664826 -0.000581267 0)
(-0.00583468 -0.000572235 0)
(-0.00503785 -0.000556056 0)
(-0.00426741 -0.000532868 0)
(-0.00353276 -0.000502936 0)
(-0.00284279 -0.000466646 0)
(-0.0022058 -0.000424515 0)
(-0.00162924 -0.000377179 0)
(-0.0011196 -0.000325407 0)
(-0.000682176 -0.000270103 0)
(-0.000320877 -0.000212329 0)
(-3.79901e-05 -0.000153335 0)
(0.000166113 -9.46306e-05 0)
(0.000293347 -3.8091e-05 0)
(0.000348457 1.38277e-05 0)
(0.000339704 5.78203e-05 0)
(0.000279567 8.92965e-05 0)
(0.000185885 0.000101762 0)
(8.63091e-05 8.64506e-05 0)
(1.96714e-05 3.64662e-05 0)
(1.75973e-05 -8.12935e-05 0)
(4.12182e-05 -9.49701e-05 0)
(1.94344e-05 -1.90658e-05 0)
(-8.41734e-05 0.000105958 0)
(-0.000290378 0.000254606 0)
(-0.000607917 0.000410449 0)
(-0.00103805 0.000563185 0)
(-0.00157695 0.000706685 0)
(-0.00221747 0.000837502 0)
(-0.00295042 0.000953935 0)
(-0.00376553 0.00105539 0)
(-0.00465209 0.00114196 0)
(-0.0055994 0.00121415 0)
(-0.00659698 0.00127271 0)
(-0.00763481 0.00131844 0)
(-0.00870331 0.00135217 0)
(-0.00979342 0.00137466 0)
(-0.0108965 0.0013866 0)
(-0.0120045 0.00138854 0)
(-0.0131094 0.00138094 0)
(-0.0142036 0.0013641 0)
(-0.01528 0.00133827 0)
(-0.0163311 0.00130356 0)
(-0.0173499 0.00126005 0)
(-0.0183292 0.00120773 0)
(-0.0192622 0.00114661 0)
(-0.0201417 0.00107667 0)
(-0.0209607 0.000997927 0)
(-0.0217125 0.000910444 0)
(-0.0223902 0.00081436 0)
(-0.0229873 0.000709907 0)
(-0.0234975 0.00059743 0)
(-0.0239149 0.000477401 0)
(-0.0242339 0.000350435 0)
(-0.0244498 0.000217296 0)
(-0.0245583 7.89072e-05 0)
(-0.024556 -6.36529e-05 0)
(-0.0244404 -0.00020915 0)
(-0.02421 -0.000356202 0)
(-0.0238645 -0.000503292 0)
(-0.0234046 -0.000648788 0)
(-0.0228326 -0.000790958 0)
(-0.0221518 -0.000928001 0)
(-0.0213672 -0.00105808 0)
(-0.020485 -0.00117933 0)
(-0.0195127 -0.00128996 0)
(-0.0184594 -0.00138819 0)
(-0.0173351 -0.00147239 0)
(-0.0161514 -0.00154106 0)
(-0.0149206 -0.00159288 0)
(-0.013656 -0.00162676 0)
(-0.0123716 -0.00164185 0)
(-0.011082 -0.0016376 0)
(-0.00980203 -0.00161374 0)
(-0.00854651 -0.00157035 0)
(-0.00733016 -0.00150782 0)
(-0.00616721 -0.00142691 0)
(-0.0050712 -0.0013287 0)
(-0.00405464 -0.00121465 0)
(-0.00312882 -0.00108656 0)
(-0.00230347 -0.000946604 0)
(-0.00158648 -0.00079734 0)
(-0.000983581 -0.000641777 0)
(-0.000498013 -0.000483445 0)
(-0.000130092 -0.000326539 0)
(0.000123247 -0.000176141 0)
(0.000269088 -3.85626e-05 0)
(0.000319261 7.81854e-05 0)
(0.000290885 0.000163811 0)
(0.000207167 0.000205155 0)
(0.000102355 0.000186111 0)
(2.49584e-05 9.03282e-05 0)
(8.81529e-06 -9.76608e-05 0)
(-7.08119e-06 -7.30173e-05 0)
(-0.00010767 8.48724e-05 0)
(-0.000322407 0.000318344 0)
(-0.000669518 0.000589921 0)
(-0.0011574 0.000873999 0)
(-0.00178679 0.00115356 0)
(-0.00255293 0.00141784 0)
(-0.00344727 0.00166036 0)
(-0.0044588 0.00187759 0)
(-0.00557503 0.00206798 0)
(-0.00678278 0.00223129 0)
(-0.00806864 0.00236806 0)
(-0.00941936 0.00247935 0)
(-0.0108221 0.00256641 0)
(-0.0122643 0.00263058 0)
(-0.0137342 0.00267314 0)
(-0.0152204 0.00269525 0)
(-0.0167118 0.00269787 0)
(-0.0181981 0.0026818 0)
(-0.019669 0.00264764 0)
(-0.0211144 0.00259581 0)
(-0.0225248 0.00252659 0)
(-0.0238903 0.00244013 0)
(-0.0252015 0.00233652 0)
(-0.026449 0.00221579 0)
(-0.0276233 0.002078 0)
(-0.0287153 0.00192327 0)
(-0.0297158 0.0017518 0)
(-0.0306159 0.00156393 0)
(-0.0314071 0.0013602 0)
(-0.0320812 0.00114133 0)
(-0.0326306 0.000908311 0)
(-0.0330482 0.000662367 0)
(-0.0333278 0.000405014 0)
(-0.0334643 0.000138052 0)
(-0.0334532 -0.000136433 0)
(-0.0332917 -0.000416074 0)
(-0.0329781 -0.000698236 0)
(-0.0325121 -0.000980047 0)
(-0.0318951 -0.00125842 0)
(-0.0311301 -0.00153011 0)
(-0.0302219 -0.00179173 0)
(-0.0291769 -0.00203985 0)
(-0.0280033 -0.00227102 0)
(-0.0267113 -0.00248186 0)
(-0.0253125 -0.00266912 0)
(-0.0238201 -0.00282976 0)
(-0.0222491 -0.002961 0)
(-0.0206155 -0.00306042 0)
(-0.0189365 -0.003126 0)
(-0.0172302 -0.0031562 0)
(-0.0155154 -0.00314999 0)
(-0.0138113 -0.00310691 0)
(-0.0121371 -0.00302714 0)
(-0.0105116 -0.00291143 0)
(-0.00895329 -0.00276124 0)
(-0.0074795 -0.00257863 0)
(-0.00610639 -0.00236639 0)
(-0.00484845 -0.00212795 0)
(-0.00371817 -0.00186746 0)
(-0.00272566 -0.00158981 0)
(-0.00187825 -0.00130072 0)
(-0.00118007 -0.00100683 0)
(-0.00063159 -0.00071598 0)
(-0.00022912 -0.00043742 0)
(3.58046e-05 -0.00018229 0)
(0.000177062 3.58088e-05 0)
(0.000214359 0.000200171 0)
(0.000173838 0.000290416 0)
(9.2917e-05 0.000282258 0)
(2.40049e-05 0.000147161 0)
(-2.13809e-06 -8.42925e-05 0)
(-6.73149e-05 2.10449e-05 0)
(-0.00026409 0.000295498 0)
(-0.000609619 0.000667881 0)
(-0.00111638 0.00109042 0)
(-0.00179058 0.00152922 0)
(-0.00263121 0.00196088 0)
(-0.00363191 0.00236992 0)
(-0.00478255 0.00274664 0)
(-0.00607043 0.00308541 0)
(-0.0074812 0.00338345 0)
(-0.00899963 0.00363995 0)
(-0.0106101 0.00385538 0)
(-0.0122972 0.00403096 0)
(-0.0140454 0.00416837 0)
(-0.0158401 0.00426942 0)
(-0.0176669 0.0043359 0)
(-0.0195119 0.00436945 0)
(-0.0213618 0.00437151 0)
(-0.0232037 0.00434324 0)
(-0.0250249 0.00428554 0)
(-0.0268131 0.0041991 0)
(-0.0285563 0.00408435 0)
(-0.0302426 0.00394159 0)
(-0.0318602 0.00377103 0)
(-0.0333974 0.00357281 0)
(-0.0348428 0.00334712 0)
(-0.0361851 0.00309424 0)
(-0.0374132 0.00281461 0)
(-0.0385164 0.00250889 0)
(-0.0394843 0.00217803 0)
(-0.0403071 0.0018233 0)
(-0.0409757 0.00144635 0)
(-0.0414819 0.00104922 0)
(-0.0418183 0.000634398 0)
(-0.0419789 0.000204798 0)
(-0.0419586 -0.000236224 0)
(-0.0417542 -0.000684885 0)
(-0.041364 -0.001137 0)
(-0.0407877 -0.00158801 0)
(-0.0400275 -0.00203307 0)
(-0.0390869 -0.00246705 0)
(-0.037972 -0.00288466 0)
(-0.0366906 -0.00328054 0)
(-0.0352529 -0.00364929 0)
(-0.0336708 -0.00398566 0)
(-0.0319585 -0.00428459 0)
(-0.0301319 -0.00454133 0)
(-0.0282087 -0.00475159 0)
(-0.0262083 -0.00491161 0)
(-0.0241511 -0.00501826 0)
(-0.0220587 -0.00506916 0)
(-0.0199537 -0.00506273 0)
(-0.0178588 -0.00499828 0)
(-0.0157968 -0.00487609 0)
(-0.0137904 -0.0046974 0)
(-0.0118614 -0.00446448 0)
(-0.0100307 -0.00418065 0)
(-0.00831755 -0.00385029 0)
(-0.00673918 -0.00347884 0)
(-0.00531057 -0.00307289 0)
(-0.00404385 -0.00264015 0)
(-0.00294789 -0.00218961 0)
(-0.00202783 -0.00173168 0)
(-0.00128462 -0.00127839 0)
(-0.000714506 -0.000843783 0)
(-0.00030851 -0.000444339 0)
(-5.18788e-05 -9.96041e-05 0)
(7.62443e-05 0.0001671 0)
(0.000103339 0.000328058 0)
(6.73949e-05 0.000350549 0)
(1.96423e-05 0.000193953 0)
(-1.36984e-05 -3.74031e-05 0)
(-0.000132807 0.000197478 0)
(-0.000435678 0.000626829 0)
(-0.000924258 0.00116997 0)
(-0.00160316 0.00177098 0)
(-0.00247495 0.00238904 0)
(-0.00353577 0.00299511 0)
(-0.00477693 0.00356943 0)
(-0.00618635 0.00409914 0)
(-0.00774952 0.0045765 0)
(-0.00945031 0.00499744 0)
(-0.0112717 0.00536046 0)
(-0.0131961 0.00566581 0)
(-0.0152062 0.00591485 0)
(-0.0172845 0.00610957 0)
(-0.0194143 0.00625223 0)
(-0.021579 0.0063451 0)
(-0.0237628 0.00639033 0)
(-0.0259501 0.00638977 0)
(-0.0281258 0.006345 0)
(-0.0302753 0.00625725 0)
(-0.0323841 0.00612744 0)
(-0.0344382 0.00595625 0)
(-0.0364234 0.00574416 0)
(-0.0383261 0.00549151 0)
(-0.0401327 0.00519864 0)
(-0.0418297 0.0048659 0)
(-0.0434041 0.00449385 0)
(-0.044843 0.00408323 0)
(-0.046134 0.00363514 0)
(-0.0472652 0.00315107 0)
(-0.0482255 0.00263297 0)
(-0.0490045 0.00208332 0)
(-0.0495928 0.00150516 0)
(-0.0499821 0.00090213 0)
(-0.0501656 0.000278487 0)
(-0.0501379 -0.000360914 0)
(-0.0498953 -0.00101062 0)
(-0.049436 -0.00166464 0)
(-0.0487602 -0.00231647 0)
(-0.0478702 -0.00295919 0)
(-0.0467705 -0.00358554 0)
(-0.0454679 -0.00418801 0)
(-0.0439716 -0.00475901 0)
(-0.0422932 -0.00529094 0)
(-0.0404466 -0.00577636 0)
(-0.0384479 -0.00620816 0)
(-0.0363152 -0.00657966 0)
(-0.0340689 -0.0068848 0)
(-0.0317308 -0.00711829 0)
(-0.0293244 -0.00727574 0)
(-0.0268744 -0.00735379 0)
(-0.0244062 -0.00735022 0)
(-0.0219459 -0.00726407 0)
(-0.0195196 -0.00709574 0)
(-0.0171531 -0.006847 0)
(-0.0148714 -0.00652109 0)
(-0.0126984 -0.00612273 0)
(-0.010656 -0.00565814 0)
(-0.0087643 -0.00513508 0)
(-0.00704042 -0.00456291 0)
(-0.00549851 -0.00395257 0)
(-0.00414902 -0.00331678 0)
(-0.00299833 -0.0026701 0)
(-0.00204821 -0.00202926 0)
(-0.00129541 -0.00141343 0)
(-0.000731167 -0.000844729 0)
(-0.000340765 -0.00034883 0)
(-0.000103269 4.43113e-05 0)
(8.92998e-06 0.000299775 0)
(3.23965e-05 0.000376769 0)
(1.35993e-05 0.000224272 0)
(-2.51803e-05 4.42012e-05 0)
(-0.00019993 0.00046128 0)
(-0.000613787 0.00108677 0)
(-0.00125226 0.00183398 0)
(-0.00211087 0.00264111 0)
(-0.00318747 0.00346194 0)
(-0.00447448 0.00426288 0)
(-0.0059602 0.0050205 0)
(-0.00763014 0.0057192 0)
(-0.00946776 0.0063493 0)
(-0.0114551 0.0069055 0)
(-0.0135733 0.00738563 0)
(-0.0158032 0.00778971 0)
(-0.0181256 0.00811917 0)
(-0.0205215 0.00837627 0)
(-0.0229721 0.00856367 0)
(-0.0254591 0.00868413 0)
(-0.0279649 0.00874022 0)
(-0.030472 0.00873426 0)
(-0.0329636 0.0086682 0)
(-0.0354229 0.0085436 0)
(-0.0378339 0.00836169 0)
(-0.0401804 0.00812337 0)
(-0.0424466 0.00782932 0)
(-0.0446171 0.00748009 0)
(-0.0466764 0.00707623 0)
(-0.0486096 0.00661837 0)
(-0.0504017 0.00610737 0)
(-0.0520385 0.00554439 0)
(-0.053506 0.00493106 0)
(-0.0547911 0.00426953 0)
(-0.0558812 0.00356256 0)
(-0.056765 0.0028136 0)
(-0.057432 0.00202685 0)
(-0.0578733 0.0012073 0)
(-0.0580812 0.000360706 0)
(-0.0580499 -0.000506357 0)
(-0.0577754 -0.00138657 0)
(-0.057256 -0.00227189 0)
(-0.0564918 -0.00315364 0)
(-0.0554854 -0.0040226 0)
(-0.0542421 -0.00486911 0)
(-0.0527695 -0.00568323 0)
(-0.0510777 -0.00645487 0)
(-0.0491796 -0.00717398 0)
(-0.0470905 -0.00783073 0)
(-0.0448283 -0.00841568 0)
(-0.0424131 -0.00892002 0)
(-0.0398673 -0.00933573 0)
(-0.0372151 -0.0096558 0)
(-0.0344824 -0.00987441 0)
(-0.0316966 -0.00998709 0)
(-0.0288859 -0.00999092 0)
(-0.0260792 -0.0098846 0)
(-0.0233055 -0.00966862 0)
(-0.0205935 -0.00934532 0)
(-0.0179711 -0.00891897 0)
(-0.0154649 -0.00839584 0)
(-0.0130996 -0.00778417 0)
(-0.0108976 -0.00709426 0)
(-0.00887855 -0.00633851 0)
(-0.00705844 -0.00553139 0)
(-0.00544955 -0.00468964 0)
(-0.00405973 -0.00383235 0)
(-0.00289199 -0.00298118 0)
(-0.00194405 -0.00216072 0)
(-0.00120798 -0.00139887 0)
(-0.000669846 -0.000727469 0)
(-0.00030947 -0.000182977 0)
(-0.000100038 0.000192819 0)
(-7.79834e-06 0.000351824 0)
(6.84152e-06 0.000234691 0)
(-3.63244e-05 0.000160516 0)
(-0.000266801 0.000814316 0)
(-0.000793299 0.00167909 0)
(-0.00158469 0.00266493 0)
(-0.00262683 0.00370618 0)
(-0.00391214 0.00475285 0)
(-0.00542867 0.00576795 0)
(-0.00716113 0.0067252 0)
(-0.00909222 0.00760683 0)
(-0.0112031 0.00840158 0)
(-0.0134738 0.00910313 0)
(-0.0158837 0.00970874 0)
(-0.0184121 0.0102183 0)
(-0.021038 0.0106332 0)
(-0.0237408 0.0109561 0)
(-0.0265003 0.01119 0)
(-0.0292967 0.011338 0)
(-0.0321106 0.0114033 0)
(-0.0349229 0.0113885 0)
(-0.0377152 0.011296 0)
(-0.0404692 0.0111276 0)
(-0.043167 0.010885 0)
(-0.045791 0.0105691 0)
(-0.0483237 0.010181 0)
(-0.050748 0.00972143 0)
(-0.0530471 0.0091912 0)
(-0.0552043 0.00859126 0)
(-0.0572034 0.00792285 0)
(-0.0590287 0.00718765 0)
(-0.0606649 0.00638788 0)
(-0.0620976 0.00552645 0)
(-0.0633134 0.00460705 0)
(-0.0642996 0.00363426 0)
(-0.065045 0.00261354 0)
(-0.0655398 0.00155138 0)
(-0.0657758 0.000455216 0)
(-0.0657469 -0.000666506 0)
(-0.0654485 -0.00180441 0)
(-0.0648788 -0.00294822 0)
(-0.0640381 -0.0040869 0)
(-0.0629292 -0.00520872 0)
(-0.0615575 -0.00630142 0)
(-0.0599315 -0.0073524 0)
(-0.0580619 -0.00834888 0)
(-0.0559628 -0.00927812 0)
(-0.0536506 -0.0101277 0)
(-0.0511446 -0.0108856 0)
(-0.0484665 -0.0115408 0)
(-0.0456406 -0.012083 0)
(-0.042693 -0.0125033 0)
(-0.039652 -0.0127943 0)
(-0.0365471 -0.0129504 0)
(-0.0334091 -0.0129677 0)
(-0.0302694 -0.0128446 0)
(-0.0271598 -0.0125816 0)
(-0.0241116 -0.0121815 0)
(-0.0211555 -0.0116498 0)
(-0.0183208 -0.0109944 0)
(-0.0156347 -0.0102255 0)
(-0.0131223 -0.00935621 0)
(-0.0108053 -0.00840216 0)
(-0.00870222 -0.00738159 0)
(-0.00682712 -0.00631547 0)
(-0.00518968 -0.00522762 0)
(-0.00379451 -0.00414488 0)
(-0.00264076 -0.00309736 0)
(-0.00172187 -0.00211883 0)
(-0.00102529 -0.00124725 0)
(-0.000532224 -0.000525376 0)
(-0.000217329 -1.40406e-06 0)
(-5.05229e-05 0.000270154 0)
(-1.00098e-07 0.000223508 0)
(-4.70345e-05 0.000310904 0)
(-0.000332435 0.00125649 0)
(-0.000971219 0.00240476 0)
(-0.00191595 0.00366466 0)
(-0.00314264 0.00496851 0)
(-0.00463791 0.00626401 0)
(-0.00638498 0.00751195 0)
(-0.00836456 0.00868414 0)
(-0.0105562 0.00976127 0)
(-0.0129384 0.010731 0)
(-0.0154892 0.0115863 0)
(-0.018186 0.012324 0)
(-0.0210065 0.0129441 0)
(-0.0239282 0.013448 0)
(-0.0269292 0.0138388 0)
(-0.0299876 0.0141197 0)
(-0.0330824 0.0142945 0)
(-0.0361926 0.0143665 0)
(-0.039298 0.014339 0)
(-0.0423785 0.0142146 0)
(-0.0454146 0.0139955 0)
(-0.0483868 0.0136835 0)
(-0.0512761 0.0132802 0)
(-0.0540637 0.0127865 0)
(-0.0567311 0.0122036 0)
(-0.0592599 0.0115326 0)
(-0.0616323 0.0107748 0)
(-0.0638308 0.00993185 0)
(-0.0658383 0.009006 0)
(-0.0676385 0.00800019 0)
(-0.0692159 0.00691815 0)
(-0.0705559 0.00576461 0)
(-0.0716449 0.00454533 0)
(-0.072471 0.00326721 0)
(-0.0730236 0.00193832 0)
(-0.0732938 0.000567923 0)
(-0.073275 -0.000833533 0)
(-0.0729623 -0.00225446 0)
(-0.0723536 -0.00368223 0)
(-0.071449 -0.00510324 0)
(-0.0702514 -0.00650309 0)
(-0.0687666 -0.00786676 0)
(-0.0670031 -0.00917879 0)
(-0.0649726 -0.0104235 0)
(-0.0626896 -0.0115853 0)
(-0.0601715 -0.012649 0)
(-0.0574388 -0.0135998 0)
(-0.0545145 -0.0144241 0)
(-0.0514244 -0.0151093 0)
(-0.0481966 -0.0156445 0)
(-0.0448609 -0.0160205 0)
(-0.0414492 -0.0162302 0)
(-0.0379946 -0.0162688 0)
(-0.0345308 -0.016134 0)
(-0.0310922 -0.0158266 0)
(-0.0277128 -0.0153498 0)
(-0.0244258 -0.01471 0)
(-0.0212632 -0.0139168 0)
(-0.0182551 -0.0129828 0)
(-0.015429 -0.0119237 0)
(-0.0128092 -0.0107586 0)
(-0.0104165 -0.00950963 0)
(-0.00826739 -0.00820217 0)
(-0.00637354 -0.00686493 0)
(-0.00474155 -0.00553004 0)
(-0.00337246 -0.00423326 0)
(-0.0022615 -0.00301425 0)
(-0.00139799 -0.001917 0)
(-0.000764967 -0.00099034 0)
(-0.000339043 -0.000288411 0)
(-9.4219e-05 0.000128657 0)
(-6.95534e-06 0.000190073 0)
(-5.72991e-05 0.000494463 0)
(-0.000396353 0.00178657 0)
(-0.00114581 0.00326288 0)
(-0.00224252 0.00483279 0)
(-0.00365274 0.00642807 0)
(-0.00535715 0.00799545 0)
(-0.00733385 0.00949463 0)
(-0.00955927 0.0108964 0)
(-0.0120095 0.0121807 0)
(-0.0146604 0.0133347 0)
(-0.0174875 0.0143508 0)
(-0.0204665 0.0152262 0)
(-0.0235732 0.0159605 0)
(-0.0267838 0.0165559 0)
(-0.030075 0.0170155 0)
(-0.0334236 0.0173432 0)
(-0.0368073 0.0175431 0)
(-0.0402041 0.017619 0)
(-0.0435922 0.0175745 0)
(-0.0469506 0.0174126 0)
(-0.0502584 0.0171359 0)
(-0.0534949 0.0167465 0)
(-0.05664 0.0162461 0)
(-0.0596735 0.0156361 0)
(-0.0625757 0.0149177 0)
(-0.0653272 0.0140926 0)
(-0.0679087 0.0131622 0)
(-0.0703018 0.0121289 0)
(-0.0724882 0.0109955 0)
(-0.0744505 0.00976559 0)
(-0.0761722 0.00844389 0)
(-0.0776377 0.00703619 0)
(-0.0788327 0.00554955 0)
(-0.0797442 0.00399235 0)
(-0.080361 0.00237436 0)
(-0.0806736 0.000706764 0)
(-0.0806746 -0.000997877 0)
(-0.0803587 -0.00272566 0)
(-0.0797234 -0.00446145 0)
(-0.0787685 -0.00618897 0)
(-0.0774969 -0.00789102 0)
(-0.0759142 -0.00954964 0)
(-0.0740291 -0.0111463 0)
(-0.0718536 -0.0126624 0)
(-0.0694027 -0.0140792 0)
(-0.0666944 -0.0153785 0)
(-0.0637502 -0.0165426 0)
(-0.0605941 -0.0175551 0)
(-0.0572532 -0.018401 0)
(-0.053757 -0.0190669 0)
(-0.0501373 -0.0195418 0)
(-0.0464277 -0.0198168 0)
(-0.0426634 -0.0198863 0)
(-0.0388807 -0.0197471 0)
(-0.0351162 -0.0193998 0)
(-0.0314067 -0.0188481 0)
(-0.0277881 -0.0180995 0)
(-0.0242951 -0.0171651 0)
(-0.0209606 -0.0160598 0)
(-0.0178149 -0.0148021 0)
(-0.0148852 -0.0134146 0)
(-0.0121947 -0.0119234 0)
(-0.00976258 -0.0103584 0)
(-0.00760297 -0.00875341 0)
(-0.00572478 -0.00714588 0)
(-0.00413132 -0.0055773 0)
(-0.00282004 -0.00409324 0)
(-0.00178245 -0.00274365 0)
(-0.00100383 -0.00158324 0)
(-0.000462967 -0.000671739 0)
(-0.00013807 -7.42815e-05 0)
(-1.36086e-05 0.000134306 0)
(-6.7136e-05 0.000710158 0)
(-0.000458328 0.00240264 0)
(-0.00131608 0.00425136 0)
(-0.00256218 0.00616736 0)
(-0.00415342 0.00808305 0)
(-0.00606453 0.00994541 0)
(-0.00826836 0.0117141 0)
(-0.0107369 0.0133598 0)
(-0.0134427 0.0148624 0)
(-0.0163585 0.016209 0)
(-0.0194576 0.0173924 0)
(-0.0227137 0.0184098 0)
(-0.0261009 0.0192615 0)
(-0.0295939 0.0199499 0)
(-0.033168 0.0204786 0)
(-0.0367991 0.0208521 0)
(-0.0404635 0.021075 0)
(-0.0441382 0.0211515 0)
(-0.0478005 0.0210856 0)
(-0.0514281 0.0208808 0)
(-0.0549991 0.0205398 0)
(-0.0584919 0.0200652 0)
(-0.0618852 0.0194588 0)
(-0.0651579 0.0187223 0)
(-0.0682891 0.0178573 0)
(-0.0712583 0.0168657 0)
(-0.0740453 0.0157495 0)
(-0.0766306 0.0145114 0)
(-0.0789949 0.0131548 0)
(-0.08112 0.0116843 0)
(-0.0829882 0.0101055 0)
(-0.084583 0.00842526 0)
(-0.0858894 0.00665202 0)
(-0.0868934 0.0047957 0)
(-0.087583 0.00286784 0)
(-0.0879479 0.000881587 0)
(-0.0879801 -0.00114829 0)
(-0.0876738 -0.0032055 0)
(-0.0870256 -0.00527229 0)
(-0.0860351 -0.00732962 0)
(-0.0847047 -0.00935735 0)
(-0.0830398 -0.0113344 0)
(-0.0810491 -0.0132393 0)
(-0.0787444 -0.0150499 0)
(-0.076141 -0.0167445 0)
(-0.0732574 -0.0183014 0)
(-0.0701155 -0.0197001 0)
(-0.0667403 -0.0209211 0)
(-0.0631599 -0.0219465 0)
(-0.0594051 -0.0227606 0)
(-0.0555093 -0.0233499 0)
(-0.0515079 -0.0237041 0)
(-0.0474382 -0.0238158 0)
(-0.0433386 -0.0236813 0)
(-0.0392484 -0.0233007 0)
(-0.0352069 -0.022678 0)
(-0.0312529 -0.0218217 0)
(-0.027424 -0.0207443 0)
(-0.0237562 -0.019463 0)
(-0.0202828 -0.0179992 0)
(-0.0170338 -0.0163788 0)
(-0.0140357 -0.0146322 0)
(-0.0113103 -0.0127939 0)
(-0.00887473 -0.0109027 0)
(-0.00674056 -0.0090016 0)
(-0.00491371 -0.00713791 0)
(-0.00339417 -0.0053631 0)
(-0.00217603 -0.00373306 0)
(-0.00124697 -0.00230828 0)
(-0.000588092 -0.00115383 0)
(-0.000181752 -0.000339497 0)
(-2.00338e-05 5.63749e-05 0)
(-7.65695e-05 0.000956913 0)
(-0.000518258 0.00310241 0)
(-0.00148142 0.00536733 0)
(-0.0028735 0.00766526 0)
(-0.00464216 0.00993032 0)
(-0.00675624 0.0121107 0)
(-0.0091834 0.014167 0)
(-0.0118911 0.0160707 0)
(-0.0148482 0.0178023 0)
(-0.0180244 0.0193496 0)
(-0.0213906 0.0207061 0)
(-0.0249183 0.0218695 0)
(-0.0285799 0.0228408 0)
(-0.0323489 0.0236231 0)
(-0.0361991 0.0242208 0)
(-0.0401054 0.0246388 0)
(-0.0440432 0.0248822 0)
(-0.0479882 0.024956 0)
(-0.0519171 0.0248644 0)
(-0.0558067 0.0246113 0)
(-0.059634 0.0241998 0)
(-0.0633767 0.0236327 0)
(-0.0670125 0.0229121 0)
(-0.0705193 0.0220399 0)
(-0.0738756 0.0210182 0)
(-0.0770597 0.0198489 0)
(-0.0800507 0.0185347 0)
(-0.082828 0.0170786 0)
(-0.0853716 0.015485 0)
(-0.0876621 0.0137589 0)
(-0.0896811 0.0119071 0)
(-0.0914112 0.00993754 0)
(-0.0928364 0.00786004 0)
(-0.0939419 0.0056861 0)
(-0.0947148 0.00342905 0)
(-0.095144 0.00110404 0)
(-0.0952205 -0.0012719 0)
(-0.0949379 -0.00368004 0)
(-0.094292 -0.00609994 0)
(-0.0932816 -0.00850973 0)
(-0.0919087 -0.0108862 0)
(-0.090178 -0.0132052 0)
(-0.0880978 -0.0154417 0)
(-0.0856799 -0.0175705 0)
(-0.0829393 -0.0195662 0)
(-0.0798947 -0.0214039 0)
(-0.0765683 -0.0230597 0)
(-0.0729857 -0.0245107 0)
(-0.0691759 -0.0257362 0)
(-0.0651707 -0.0267176 0)
(-0.0610049 -0.0274391 0)
(-0.0567158 -0.0278881 0)
(-0.0523425 -0.0280556 0)
(-0.0479258 -0.027937 0)
(-0.0435075 -0.0275316 0)
(-0.0391297 -0.0268437 0)
(-0.034834 -0.0258824 0)
(-0.0306615 -0.0246618 0)
(-0.0266511 -0.0232011 0)
(-0.0228394 -0.0215246 0)
(-0.0192601 -0.0196617 0)
(-0.0159427 -0.0176469 0)
(-0.0129125 -0.0155193 0)
(-0.0101897 -0.0133231 0)
(-0.00778899 -0.0111068 0)
(-0.00571925 -0.00892359 0)
(-0.00398337 -0.00683093 0)
(-0.00257818 -0.00489072 0)
(-0.001494 -0.00316918 0)
(-0.000714261 -0.00173668 0)
(-0.000225264 -0.000667552 0)
(-2.62574e-05 -4.35032e-05 0)
(-8.56208e-05 0.00123364 0)
(-0.000576092 0.00388333 0)
(-0.00164146 0.00660737 0)
(-0.0031755 0.00932259 0)
(-0.00511712 0.0119657 0)
(-0.00742948 0.014487 0)
(-0.0100751 0.0168489 0)
(-0.0130169 0.0190246 0)
(-0.01622 0.0209957 0)
(-0.0196512 0.0227514 0)
(-0.0232787 0.0242863 0)
(-0.027072 0.0255992 0)
(-0.0310019 0.0266921 0)
(-0.0350403 0.0275691 0)
(-0.0391599 0.0282352 0)
(-0.0433346 0.0286961 0)
(-0.0475387 0.0289578 0)
(-0.0517474 0.0290254 0)
(-0.0559363 0.028904 0)
(-0.0600814 0.0285977 0)
(-0.0641593 0.0281099 0)
(-0.0681467 0.0274437 0)
(-0.0720206 0.0266015 0)
(-0.0757583 0.0255854 0)
(-0.0793372 0.0243978 0)
(-0.0827351 0.0230409 0)
(-0.0859302 0.0215179 0)
(-0.0889011 0.0198323 0)
(-0.0916269 0.017989 0)
(-0.0940875 0.015994 0)
(-0.0962635 0.0138548 0)
(-0.0981367 0.0115807 0)
(-0.0996901 0.00918285 0)
(-0.100908 0.00667427 0)
(-0.101776 0.00407008 0)
(-0.102283 0.00138748 0)
(-0.102419 -0.00135426 0)
(-0.102176 -0.00413391 0)
(-0.101548 -0.00692836 0)
(-0.100535 -0.00971277 0)
(-0.099137 -0.0124609 0)
(-0.0973578 -0.0151452 0)
(-0.0952052 -0.0177373 0)
(-0.0926903 -0.0202084 0)
(-0.089828 -0.0225296 0)
(-0.0866368 -0.0246724 0)
(-0.0831389 -0.0266091 0)
(-0.0793602 -0.0283135 0)
(-0.0753302 -0.0297616 0)
(-0.0710819 -0.0309316 0)
(-0.0666513 -0.0318049 0)
(-0.0620771 -0.0323666 0)
(-0.0574006 -0.0326058 0)
(-0.0526649 -0.0325164 0)
(-0.0479142 -0.032097 0)
(-0.0431937 -0.0313516 0)
(-0.0385482 -0.03029 0)
(-0.0340219 -0.0289274 0)
(-0.0296576 -0.0272851 0)
(-0.0254954 -0.0253902 0)
(-0.0215727 -0.0232756 0)
(-0.0179228 -0.0209798 0)
(-0.0145746 -0.0185469 0)
(-0.011552 -0.0160261 0)
(-0.00887314 -0.013472 0)
(-0.00655018 -0.0109434 0)
(-0.00458918 -0.00850421 0)
(-0.00299 -0.00622229 0)
(-0.00174566 -0.00416976 0)
(-0.000841925 -0.00242237 0)
(-0.000268829 -0.00105909 0)
(-3.2338e-05 -0.000165195 0)
(-9.4305e-05 0.00153923 0)
(-0.000631793 0.0047427 0)
(-0.00179593 0.00796765 0)
(-0.00346744 0.0111348 0)
(-0.00557691 0.0141842 0)
(-0.00808201 0.0170691 0)
(-0.0109402 0.0197544 0)
(-0.0141102 0.0222156 0)
(-0.0175532 0.0244366 0)
(-0.0212331 0.0264083 0)
(-0.0251154 0.0281268 0)
(-0.0291678 0.0295927 0)
(-0.0333592 0.030809 0)
(-0.0376602 0.0317811 0)
(-0.0420424 0.032515 0)
(-0.0464787 0.0330175 0)
(-0.0509425 0.033295 0)
(-0.0554084 0.0333535 0)
(-0.0598512 0.0331984 0)
(-0.0642465 0.0328344 0)
(-0.06857 0.0322652 0)
(-0.0727979 0.031494 0)
(-0.0769067 0.0305237 0)
(-0.0808728 0.0293565 0)
(-0.0846733 0.0279951 0)
(-0.0882852 0.026442 0)
(-0.0916859 0.0247008 0)
(-0.0948535 0.0227755 0)
(-0.0977661 0.0206715 0)
(-0.100403 0.0183956 0)
(-0.102744 0.0159564 0)
(-0.104769 0.0133642 0)
(-0.106462 0.0106314 0)
(-0.107804 0.00777256 0)
(-0.108782 0.00480464 0)
(-0.109382 0.00174681 0)
(-0.109593 -0.00137944 0)
(-0.109406 -0.00455038 0)
(-0.108815 -0.00774017 0)
(-0.107817 -0.0109211 0)
(-0.106412 -0.0140636 0)
(-0.104603 -0.0171368 0)
(-0.102396 -0.020109 0)
(-0.099801 -0.0229475 0)
(-0.0968332 -0.0256196 0)
(-0.0935102 -0.028093 0)
(-0.0898539 -0.0303363 0)
(-0.0858904 -0.0323194 0)
(-0.0816496 -0.0340145 0)
(-0.0771651 -0.0353966 0)
(-0.0724741 -0.0364439 0)
(-0.0676169 -0.0371387 0)
(-0.0626366 -0.0374679 0)
(-0.0575787 -0.0374235 0)
(-0.0524901 -0.0370029 0)
(-0.047419 -0.0362099 0)
(-0.0424137 -0.0350543 0)
(-0.0375221 -0.0335525 0)
(-0.0327908 -0.0317277 0)
(-0.028264 -0.0296095 0)
(-0.0239831 -0.0272344 0)
(-0.0199857 -0.0246449 0)
(-0.0163049 -0.0218901 0)
(-0.0129685 -0.0190246 0)
(-0.00999841 -0.0161086 0)
(-0.00741068 -0.0132075 0)
(-0.00521476 -0.0103912 0)
(-0.00341374 -0.0077341 0)
(-0.00200347 -0.00531436 0)
(-0.00097196 -0.0032134 0)
(-0.000312817 -0.0015151 0)
(-3.83538e-05 -0.000308737 0)
(-0.00010263 0.0018726 0)
(-0.000685318 0.00567768 0)
(-0.00194456 0.00944406 0)
(-0.00374868 0.0130969 0)
(-0.00602034 0.0165802 0)
(-0.00871194 0.0198508 0)
(-0.0117762 0.0228771 0)
(-0.0151674 0.0256375 0)
(-0.0188433 0.0281185 0)
(-0.0227647 0.0303135 0)
(-0.0268947 0.0322209 0)
(-0.0311989 0.0338429 0)
(-0.0356446 0.0351845 0)
(-0.040201 0.0362522 0)
(-0.0448388 0.0370536 0)
(-0.0495298 0.0375962 0)
(-0.0542468 0.0378875 0)
(-0.0589637 0.0379341 0)
(-0.0636547 0.0377421 0)
(-0.0682949 0.0373165 0)
(-0.0728596 0.0366614 0)
(-0.0773246 0.0357804 0)
(-0.0816656 0.0346764 0)
(-0.0858588 0.0333521 0)
(-0.0898806 0.0318102 0)
(-0.0937076 0.0300537 0)
(-0.0973166 0.0280862 0)
(-0.100685 0.0259125 0)
(-0.10379 0.0235385 0)
(-0.10661 0.0209716 0)
(-0.109125 0.0182212 0)
(-0.111313 0.0152988 0)
(-0.113157 0.012218 0)
(-0.114638 0.00899478 0)
(-0.11574 0.00564787 0)
(-0.116449 0.00219834 0)
(-0.116753 -0.0013301 0)
(-0.116641 -0.0049113 0)
(-0.116106 -0.0085167 0)
(-0.115143 -0.0121156 0)
(-0.11375 -0.0156753 0)
(-0.11193 -0.0191615 0)
(-0.109688 -0.0225388 0)
(-0.107032 -0.0257706 0)
(-0.103976 -0.0288203 0)
(-0.100537 -0.0316516 0)
(-0.0967359 -0.0342288 0)
(-0.0925996 -0.0365178 0)
(-0.0881576 -0.0384869 0)
(-0.0834442 -0.0401071 0)
(-0.0784973 -0.0413531 0)
(-0.0733589 -0.0422041 0)
(-0.0680739 -0.0426441 0)
(-0.06269 -0.042663 0)
(-0.0572572 -0.0422567 0)
(-0.0518267 -0.0414281 0)
(-0.0464505 -0.0401869 0)
(-0.0411806 -0.0385504 0)
(-0.0360676 -0.0365433 0)
(-0.0311604 -0.0341979 0)
(-0.026505 -0.0315538 0)
(-0.0221436 -0.028658 0)
(-0.0181137 -0.0255641 0)
(-0.0144477 -0.0223326 0)
(-0.011172 -0.0190296 0)
(-0.00830648 -0.015727 0)
(-0.00586451 -0.0125013 0)
(-0.00385259 -0.00943346 0)
(-0.00226951 -0.0066082 0)
(-0.00110555 -0.00411297 0)
(-0.000357702 -0.00203707 0)
(-4.43949e-05 -0.000474396 0)
(-0.000110597 0.00223261 0)
(-0.000736608 0.00668531 0)
(-0.00208711 0.0110322 0)
(-0.00401864 0.0152034 0)
(-0.00644631 0.0191473 0)
(-0.00931756 0.0228254 0)
(-0.0125805 0.0262098 0)
(-0.0161853 0.0292827 0)
(-0.0200862 0.0320339 0)
(-0.0242412 0.0344596 0)
(-0.0286109 0.036561 0)
(-0.033159 0.0383425 0)
(-0.0378512 0.0398112 0)
(-0.0426555 0.0409753 0)
(-0.0475414 0.0418437 0)
(-0.0524799 0.0424255 0)
(-0.0574434 0.0427288 0)
(-0.0624049 0.0427614 0)
(-0.0673385 0.0425297 0)
(-0.0722187 0.0420393 0)
(-0.0770205 0.0412948 0)
(-0.0817191 0.0402999 0)
(-0.0862903 0.0390579 0)
(-0.0907096 0.0375716 0)
(-0.0949532 0.0358439 0)
(-0.098997 0.0338781 0)