/*--------------------------------*- C++ -*----------------------------------*\
  =========                 |
  \\      /  F ield         | OpenFOAM: The Open Source CFD Toolbox
   \\    /   O peration     | Website:  https://openfoam.org
    \\  /    A nd           | Version:  dev
     \\/     M anipulation  |
\*---------------------------------------------------------------------------*/
FoamFile
{
    format      ascii;
    class       volScalarField;
    location    "22.95";
    object      Uy;
}
// * * * * * * * * * * * * * * * * * * * * * * * * * * * * * * * * * * * * * //

dimensions      [0 1 -1 0 0 0 0];

internalField   nonuniform List<scalar> 
5184
(
-1.27816e-05
-2.09185e-05
-1.72488e-05
-8.18937e-06
2.67507e-06
1.36186e-05
2.38413e-05
3.3037e-05
4.10885e-05
4.80017e-05
5.38377e-05
5.86816e-05
6.26261e-05
6.5762e-05
6.81741e-05
6.99379e-05
7.11175e-05
7.17652e-05
7.19219e-05
7.16173e-05
7.08707e-05
6.96923e-05
6.80854e-05
6.6047e-05
6.357e-05
6.06443e-05
5.72596e-05
5.34063e-05
4.90774e-05
4.427e-05
3.89864e-05
3.32357e-05
2.70352e-05
2.0411e-05
1.33988e-05
6.04414e-06
-1.59695e-06
-9.45816e-06
-1.7463e-05
-2.55257e-05
-3.35519e-05
-4.14401e-05
-4.90831e-05
-5.63703e-05
-6.3189e-05
-6.94275e-05
-7.49771e-05
-7.97347e-05
-8.3606e-05
-8.65073e-05
-8.8368e-05
-8.91329e-05
-8.87637e-05
-8.72405e-05
-8.45629e-05
-8.07506e-05
-7.5843e-05
-6.98987e-05
-6.29946e-05
-5.52264e-05
-4.67081e-05
-3.75733e-05
-2.79771e-05
-1.81013e-05
-8.17045e-06
1.52056e-06
1.05484e-05
1.82759e-05
2.36918e-05
2.51055e-05
1.98331e-05
6.24124e-06
-4.59714e-05
-6.57293e-05
-4.0536e-05
7.65744e-06
6.56818e-05
0.000125962
0.00018423
0.000238238
0.000286851
0.000329628
0.000366529
0.000397745
0.000423586
0.000444419
0.000460621
0.000472551
0.000480531
0.000484836
0.00048569
0.000483264
0.000477679
0.000469012
0.000457301
0.000442556
0.000424766
0.000403906
0.000379952
0.000352887
0.000322713
0.000289456
0.000253176
0.000213975
0.000172004
0.000127466
8.06191e-05
3.17826e-05
-1.86653e-05
-7.02867e-05
-0.000122587
-0.00017502
-0.000226991
-0.000277869
-0.000326994
-0.000373687
-0.000417264
-0.00045705
-0.000492394
-0.000522682
-0.000547352
-0.000565911
-0.000577945
-0.000583136
-0.000581267
-0.000572235
-0.000556056
-0.000532868
-0.000502936
-0.000466646
-0.000424515
-0.000377179
-0.000325407
-0.000270103
-0.000212329
-0.000153335
-9.46306e-05
-3.8091e-05
1.38277e-05
5.78203e-05
8.92965e-05
0.000101762
8.64506e-05
3.64662e-05
-8.12935e-05
-9.49701e-05
-1.90658e-05
0.000105958
0.000254606
0.000410449
0.000563185
0.000706685
0.000837502
0.000953935
0.00105539
0.00114196
0.00121415
0.00127271
0.00131844
0.00135217
0.00137466
0.0013866
0.00138854
0.00138094
0.0013641
0.00133827
0.00130356
0.00126005
0.00120773
0.00114661
0.00107667
0.000997927
0.000910444
0.00081436
0.000709907
0.00059743
0.000477401
0.000350435
0.000217296
7.89072e-05
-6.36529e-05
-0.00020915
-0.000356202
-0.000503292
-0.000648788
-0.000790958
-0.000928001
-0.00105808
-0.00117933
-0.00128996
-0.00138819
-0.00147239
-0.00154106
-0.00159288
-0.00162676
-0.00164185
-0.0016376
-0.00161374
-0.00157035
-0.00150782
-0.00142691
-0.0013287
-0.00121465
-0.00108656
-0.000946604
-0.00079734
-0.000641777
-0.000483445
-0.000326539
-0.000176141
-3.85626e-05
7.81854e-05
0.000163811
0.000205155
0.000186111
9.03282e-05
-9.76608e-05
-7.30173e-05
8.48724e-05
0.000318344
0.000589921
0.000873999
0.00115356
0.00141784
0.00166036
0.00187759
0.00206798
0.00223129
0.00236806
0.00247935
0.00256641
0.00263058
0.00267314
0.00269525
0.00269787
0.0026818
0.00264764
0.00259581
0.00252659
0.00244013
0.00233652
0.00221579
0.002078
0.00192327
0.0017518
0.00156393
0.0013602
0.00114133
0.000908311
0.000662367
0.000405014
0.000138052
-0.000136433
-0.000416074
-0.000698236
-0.000980047
-0.00125842
-0.00153011
-0.00179173
-0.00203985
-0.00227102
-0.00248186
-0.00266912
-0.00282976
-0.002961
-0.00306042
-0.003126
-0.0031562
-0.00314999
-0.00310691
-0.00302714
-0.00291143
-0.00276124
-0.00257863
-0.00236639
-0.00212795
-0.00186746
-0.00158981
-0.00130072
-0.00100683
-0.00071598
-0.00043742
-0.00018229
3.58088e-05
0.000200171
0.000290416
0.000282258
0.000147161
-8.42925e-05
2.10449e-05
0.000295498
0.000667881
0.00109042
0.00152922
0.00196088
0.00236992
0.00274664
0.00308541
0.00338345
0.00363995
0.00385538
0.00403096
0.00416837
0.00426942
0.0043359
0.00436945
0.00437151
0.00434324
0.00428554
0.0041991
0.00408435
0.00394159
0.00377103
0.00357281
0.00334712
0.00309424
0.00281461
0.00250889
0.00217803
0.0018233
0.00144635
0.00104922
0.000634398
0.000204798
-0.000236224
-0.000684885
-0.001137
-0.00158801
-0.00203307
-0.00246705
-0.00288466
-0.00328054
-0.00364929
-0.00398566
-0.00428459
-0.00454133
-0.00475159
-0.00491161
-0.00501826
-0.00506916
-0.00506273
-0.00499828
-0.00487609
-0.0046974
-0.00446448
-0.00418065
-0.00385029
-0.00347884
-0.00307289
-0.00264015
-0.00218961
-0.00173168
-0.00127839
-0.000843783
-0.000444339
-9.96041e-05
0.0001671
0.000328058
0.000350549
0.000193953
-3.74031e-05
0.000197478
0.000626829
0.00116997
0.00177098
0.00238904
0.00299511
0.00356943
0.00409914
0.0045765
0.00499744
0.00536046
0.00566581
0.00591485
0.00610957
0.00625223
0.0063451
0.00639033
0.00638977
0.006345
0.00625725
0.00612744
0.00595625
0.00574416
0.00549151
0.00519864
0.0048659
0.00449385
0.00408323
0.00363514
0.00315107
0.00263297
0.00208332
0.00150516
0.00090213
0.000278487
-0.000360914
-0.00101062
-0.00166464
-0.00231647
-0.00295919
-0.00358554
-0.00418801
-0.00475901
-0.00529094
-0.00577636
-0.00620816
-0.00657966
-0.0068848
-0.00711829
-0.00727574
-0.00735379
-0.00735022
-0.00726407
-0.00709574
-0.006847
-0.00652109
-0.00612273
-0.00565814
-0.00513508
-0.00456291
-0.00395257
-0.00331678
-0.0026701
-0.00202926
-0.00141343
-0.000844729
-0.00034883
4.43113e-05
0.000299775
0.000376769
0.000224272
4.42012e-05
0.00046128
0.00108677
0.00183398
0.00264111
0.00346194
0.00426288
0.0050205
0.0057192
0.0063493
0.0069055
0.00738563
0.00778971
0.00811917
0.00837627
0.00856367
0.00868413
0.00874022
0.00873426
0.0086682
0.0085436
0.00836169
0.00812337
0.00782932
0.00748009
0.00707623
0.00661837
0.00610737
0.00554439
0.00493106
0.00426953
0.00356256
0.0028136
0.00202685
0.0012073
0.000360706
-0.000506357
-0.00138657
-0.00227189
-0.00315364
-0.0040226
-0.00486911
-0.00568323
-0.00645487
-0.00717398
-0.00783073
-0.00841568
-0.00892002
-0.00933573
-0.0096558
-0.00987441
-0.00998709
-0.00999092
-0.0098846
-0.00966862
-0.00934532
-0.00891897
-0.00839584
-0.00778417
-0.00709426
-0.00633851
-0.00553139
-0.00468964
-0.00383235
-0.00298118
-0.00216072
-0.00139887
-0.000727469
-0.000182977
0.000192819
0.000351824
0.000234691
0.000160516
0.000814316
0.00167909
0.00266493
0.00370618
0.00475285
0.00576795
0.0067252
0.00760683
0.00840158
0.00910313
0.00970874
0.0102183
0.0106332
0.0109561
0.01119
0.011338
0.0114033
0.0113885
0.011296
0.0111276
0.010885
0.0105691
0.010181
0.00972143
0.0091912
0.00859126
0.00792285
0.00718765
0.00638788
0.00552645
0.00460705
0.00363426
0.00261354
0.00155138
0.000455216
-0.000666506
-0.00180441
-0.00294822
-0.0040869
-0.00520872
-0.00630142
-0.0073524
-0.00834888
-0.00927812
-0.0101277
-0.0108856
-0.0115408
-0.012083
-0.0125033
-0.0127943
-0.0129504
-0.0129677
-0.0128446
-0.0125816
-0.0121815
-0.0116498
-0.0109944
-0.0102255
-0.00935621
-0.00840216
-0.00738159
-0.00631547
-0.00522762
-0.00414488
-0.00309736
-0.00211883
-0.00124725
-0.000525376
-1.40406e-06
0.000270154
0.000223508
0.000310904
0.00125649
0.00240476
0.00366466
0.00496851
0.00626401
0.00751195
0.00868414
0.00976127
0.010731
0.0115863
0.012324
0.0129441
0.013448
0.0138388
0.0141197
0.0142945
0.0143665
0.014339
0.0142146
0.0139955
0.0136835
0.0132802
0.0127865
0.0122036
0.0115326
0.0107748
0.00993185
0.009006
0.00800019
0.00691815
0.00576461
0.00454533
0.00326721
0.00193832
0.000567923
-0.000833533
-0.00225446
-0.00368223
-0.00510324
-0.00650309
-0.00786676
-0.00917879
-0.0104235
-0.0115853
-0.012649
-0.0135998
-0.0144241
-0.0151093
-0.0156445
-0.0160205
-0.0162302
-0.0162688
-0.016134
-0.0158266
-0.0153498
-0.01471
-0.0139168
-0.0129828
-0.0119237
-0.0107586
-0.00950963
-0.00820217
-0.00686493
-0.00553004
-0.00423326
-0.00301425
-0.001917
-0.00099034
-0.000288411
0.000128657
0.000190073
0.000494463
0.00178657
0.00326288
0.00483279
0.00642807
0.00799545
0.00949463
0.0108964
0.0121807
0.0133347
0.0143508
0.0152262
0.0159605
0.0165559
0.0170155
0.0173432
0.0175431
0.017619
0.0175745
0.0174126
0.0171359
0.0167465
0.0162461
0.0156361
0.0149177
0.0140926
0.0131622
0.0121289
0.0109955
0.00976559
0.00844389
0.00703619
0.00554955
0.00399235
0.00237436
0.000706764
-0.000997877
-0.00272566
-0.00446145
-0.00618897
-0.00789102
-0.00954964
-0.0111463
-0.0126624
-0.0140792
-0.0153785
-0.0165426
-0.0175551
-0.018401
-0.0190669
-0.0195418
-0.0198168
-0.0198863
-0.0197471
-0.0193998
-0.0188481
-0.0180995
-0.0171651
-0.0160598
-0.0148021
-0.0134146
-0.0119234
-0.0103584
-0.00875341
-0.00714588
-0.0055773
-0.00409324
-0.00274365
-0.00158324
-0.000671739
-7.42815e-05
0.000134306
0.000710158
0.00240264
0.00425136
0.00616736
0.00808305
0.00994541
0.0117141
0.0133598
0.0148624
0.016209
0.0173924
0.0184098
0.0192615
0.0199499
0.0204786
0.0208521
0.021075
0.0211515
0.0210856
0.0208808
0.0205398
0.0200652
0.0194588
0.0187223
0.0178573
0.0168657
0.0157495
0.0145114
0.0131548
0.0116843
0.0101055
0.00842526
0.00665202
0.0047957
0.00286784
0.000881587
-0.00114829
-0.0032055
-0.00527229
-0.00732962
-0.00935735
-0.0113344
-0.0132393
-0.0150499
-0.0167445
-0.0183014
-0.0197001
-0.0209211
-0.0219465
-0.0227606
-0.0233499
-0.0237041
-0.0238158
-0.0236813
-0.0233007
-0.022678
-0.0218217
-0.0207443
-0.019463
-0.0179992
-0.0163788
-0.0146322
-0.0127939
-0.0109027
-0.0090016
-0.00713791
-0.0053631
-0.00373306
-0.00230828
-0.00115383
-0.000339497
5.63749e-05
0.000956913
0.00310241
0.00536733
0.00766526
0.00993032
0.0121107
0.014167
0.0160707
0.0178023
0.0193496
0.0207061
0.0218695
0.0228408
0.0236231
0.0242208
0.0246388
0.0248822
0.024956
0.0248644
0.0246113
0.0241998
0.0236327
0.0229121
0.0220399
0.0210182
0.0198489
0.0185347
0.0170786
0.015485
0.0137589
0.0119071
0.00993754
0.00786004
0.0056861
0.00342905
0.00110404
-0.0012719
-0.00368004
-0.00609994
-0.00850973
-0.0108862
-0.0132052
-0.0154417
-0.0175705
-0.0195662
-0.0214039
-0.0230597
-0.0245107
-0.0257362
-0.0267176
-0.0274391
-0.0278881
-0.0280556
-0.027937
-0.0275316
-0.0268437
-0.0258824
-0.0246618
-0.0232011
-0.0215246
-0.0196617
-0.0176469
-0.0155193
-0.0133231
-0.0111068
-0.00892359
-0.00683093
-0.00489072
-0.00316918
-0.00173668
-0.000667552
-4.35032e-05
0.00123364
0.00388333
0.00660737
0.00932259
0.0119657
0.014487
0.0168489
0.0190246
0.0209957
0.0227514
0.0242863
0.0255992
0.0266921
0.0275691
0.0282352
0.0286961
0.0289578
0.0290254
0.028904
0.0285977
0.0281099
0.0274437
0.0266015
0.0255854
0.0243978
0.0230409
0.0215179
0.0198323
0.017989
0.015994
0.0138548
0.0115807
0.00918285
0.00667427
0.00407008
0.00138748
-0.00135426
-0.00413391
-0.00692836
-0.00971277
-0.0124609
-0.0151452
-0.0177373
-0.0202084
-0.0225296
-0.0246724
-0.0266091
-0.0283135
-0.0297616
-0.0309316
-0.0318049
-0.0323666
-0.0326058
-0.0325164
-0.032097
-0.0313516
-0.03029
-0.0289274
-0.0272851
-0.0253902
-0.0232756
-0.0209798
-0.0185469
-0.0160261
-0.013472
-0.0109434
-0.00850421
-0.00622229
-0.00416976
-0.00242237
-0.00105909
-0.000165195
0.00153923
0.0047427
0.00796765
0.0111348
0.0141842
0.0170691
0.0197544
0.0222156
0.0244366
0.0264083
0.0281268
0.0295927
0.030809
0.0317811
0.032515
0.0330175
0.033295
0.0333535
0.0331984
0.0328344
0.0322652
0.031494
0.0305237
0.0293565
0.0279951
0.026442
0.0247008
0.0227755
0.0206715
0.0183956
0.0159564
0.0133642
0.0106314
0.00777256
0.00480464
0.00174681
-0.00137944
-0.00455038
-0.00774017
-0.0109211
-0.0140636
-0.0171368
-0.020109
-0.0229475
-0.0256196
-0.028093
-0.0303363
-0.0323194
-0.0340145
-0.0353966
-0.0364439
-0.0371387
-0.0374679
-0.0374235
-0.0370029
-0.0362099
-0.0350543
-0.0335525
-0.0317277
-0.0296095
-0.0272344
-0.0246449
-0.0218901
-0.0190246
-0.0161086
-0.0132075
-0.0103912
-0.0077341
-0.00531436
-0.0032134
-0.0015151
-0.000308737
0.0018726
0.00567768
0.00944406
0.0130969
0.0165802
0.0198508
0.0228771
0.0256375
0.0281185
0.0303135
0.0322209
0.0338429
0.0351845
0.0362522
0.0370536
0.0375962
0.0378875
0.0379341
0.0377421
0.0373165
0.0366614
0.0357804
0.0346764
0.0333521
0.0318102
0.0300537
0.0280862
0.0259125
0.0235385
0.0209716
0.0182212
0.0152988
0.012218
0.00899478
0.00564787
0.00219834
-0.0013301
-0.0049113
-0.0085167
-0.0121156
-0.0156753
-0.0191615
-0.0225388
-0.0257706
-0.0288203
-0.0316516
-0.0342288
-0.0365178
-0.0384869
-0.0401071
-0.0413531
-0.0422041
-0.0426441
-0.042663
-0.0422567
-0.0414281
-0.0401869
-0.0385504
-0.0365433
-0.0341979
-0.0315538
-0.028658
-0.0255641
-0.0223326
-0.0190296
-0.015727
-0.0125013
-0.00943346
-0.0066082
-0.00411297
-0.00203707
-0.000474396
0.00223261
0.00668531
0.0110322
0.0152034
0.0191473
0.0228254
0.0262098
0.0292827
0.0320339
0.0344596
0.036561
0.0383425
0.0398112
0.0409753
0.0418437
0.0424255
0.0427288
0.0427614
0.0425297
0.0420393
0.0412948
0.0402999
0.0390579
0.0375716
0.0358439
0.0338781
0.031678
0.0292489
0.026597
0.0237305
0.0206595
0.0173964
0.0139561
0.0103559
0.00661611
0.00275965
-0.00118766
-0.00519728
-0.00923799
-0.0132761
-0.0172758
-0.0211993
-0.0250073
-0.0286593
-0.0321147
-0.0353326
-0.0382731
-0.0408976
-0.0431699
-0.0450569
-0.0465292
-0.0475622
-0.0481369
-0.0482403
-0.0478664
-0.0470166
-0.0457005
-0.0439355
-0.0417479
-0.0391721
-0.0362513
-0.0330363
-0.0295859
-0.0259662
-0.0222497
-0.0185148
-0.0148453
-0.011329
-0.00805761
-0.00512522
-0.00262715
-0.000662708
0.00261811
0.00776249
0.0127274
0.0174483
0.0218789
0.0259854
0.0297447
0.0331431
0.0361744
0.0388382
0.0411387
0.0430832
0.0446809
0.0459423
0.046878
0.0474982
0.0478124
0.0478292
0.0475559
0.0469984
0.0461618
0.0450502
0.0436669
0.042015
0.0400975
0.037918
0.0354805
0.0327904
0.0298546
0.0266816
0.0232823
0.0196698
0.0158601
0.0118719
0.0077267
0.00344934
-0.000932419
-0.00538773
-0.00988282
-0.0143811
-0.0188435
-0.0232288
-0.0274938
-0.031594
-0.0354843
-0.0391194
-0.0424544
-0.0454462
-0.0480537
-0.0502389
-0.0519679
-0.053212
-0.0539483
-0.0541604
-0.0538399
-0.0529863
-0.0516082
-0.0497231
-0.0473584
-0.0445505
-0.0413456
-0.0377988
-0.0339741
-0.0299431
-0.0257851
-0.0215855
-0.0174356
-0.0134307
-0.00967021
-0.00625532
-0.00328821
-0.000874505
0.0030279
0.00890596
0.0145247
0.0198255
0.0247677
0.0293229
0.0334733
0.0372099
0.040531
0.0434401
0.045945
0.048056
0.0497851
0.051145
0.0521483
0.0528068
0.0531313
0.0531314
0.052815
0.052189
0.0512587
0.0500284
0.0485018
0.0466821
0.0445724
0.0421763
0.0394981
0.0365433
0.0333191
0.0298346
0.0261009
0.0221322
0.017945
0.0135591
0.00899766
0.00428681
-0.000543761
-0.00546105
-0.0104288
-0.0154077
-0.0203554
-0.0252271
-0.0299759
-0.034553
-0.0389088
-0.0429931
-0.0467562
-0.0501494
-0.0531265
-0.0556443
-0.0576638
-0.0591513
-0.0600793
-0.0604278
-0.0601849
-0.0593479
-0.0579236
-0.0559292
-0.0533926
-0.0503522
-0.046857
-0.0429663
-0.0387489
-0.0342828
-0.029654
-0.0249555
-0.0202864
-0.0157505
-0.0114551
-0.00750964
-0.00402393
-0.00111093
0.00346071
0.0101123
0.0164189
0.0223282
0.0278058
0.0328292
0.0373863
0.0414735
0.0450938
0.0482555
0.05097
0.0532513
0.0551143
0.0565743
0.057646
0.0583431
0.0586778
0.0586609
0.0583011
0.057606
0.0565813
0.0552317
0.053561
0.0515725
0.0492695
0.0466555
0.043735
0.0405135
0.0369984
0.033199
0.0291269
0.0247966
0.0202256
0.0154345
0.0104474
0.00529198
-4.06127e-07
-0.0053948
-0.0108526
-0.0163318
-0.021787
-0.0271698
-0.0324295
-0.0375131
-0.042366
-0.0469332
-0.0511594
-0.0549906
-0.0583746
-0.0612624
-0.0636092
-0.0653758
-0.0665296
-0.0670457
-0.0669083
-0.0661115
-0.0646599
-0.0625699
-0.0598692
-0.0565976
-0.0528071
-0.0485606
-0.0439324
-0.0390066
-0.0338764
-0.028643
-0.0234138
-0.0183017
-0.0134229
-0.00889577
-0.00483882
-0.00137346
0.00391523
0.0113779
0.0184045
0.0249494
0.0309849
0.0364949
0.0414737
0.0459234
0.0498524
0.0532737
0.0562031
0.0586586
0.0606582
0.0622202
0.0633616
0.0640982
0.0644437
0.0644101
0.0640074
0.0632435
0.0621248
0.0606563
0.058842
0.0566852
0.0541893
0.0513578
0.0481949
0.0447065
0.0408997
0.0367839
0.0323711
0.0276761
0.0227168
0.0175145
0.0120943
0.00648498
0.000719306
-0.00516594
-0.01113
-0.0171283
-0.0231126
-0.029031
-0.0348288
-0.0404487
-0.0458314
-0.0509164
-0.0556429
-0.0599507
-0.0637814
-0.0670796
-0.0697941
-0.0718792
-0.0732964
-0.0740152
-0.0740151
-0.0732861
-0.0718299
-0.0696608
-0.0668064
-0.0633075
-0.059218
-0.0546051
-0.0495481
-0.0441376
-0.0384745
-0.0326683
-0.0268359
-0.0210996
-0.0155857
-0.0104226
-0.00573827
-0.00166389
0.00439005
0.0126989
0.0204755
0.0276815
0.0342961
0.0403104
0.0457251
0.0505486
0.0547952
0.0584831
0.0616329
0.0642665
0.0664057
0.068072
0.0692848
0.0700622
0.0704197
0.0703707
0.0699261
0.0690947
0.0678834
0.0662976
0.0643414
0.0620182
0.0593312
0.0562839
0.0528805
0.0491265
0.0450291
0.0405975
0.0358438
0.0307828
0.0254328
0.0198155
0.0139565
0.00788574
0.00163708
-0.00475116
-0.0112363
-0.0177714
-0.0243054
-0.0307832
-0.0371461
-0.0433324
-0.049278
-0.0549169
-0.0601822
-0.0650074
-0.0693273
-0.0730793
-0.076205
-0.0786518
-0.0803742
-0.0813352
-0.0815084
-0.0808789
-0.0794445
-0.077217
-0.0742226
-0.0705026
-0.0661129
-0.0611242
-0.055621
-0.0497007
-0.0434721
-0.0370537
-0.0305725
-0.0241614
-0.0179575
-0.0121003
-0.00672855
-0.00198437
0.00488368
0.0140713
0.0226258
0.0305165
0.0377301
0.0442651
0.0501291
0.0553374
0.0599103
0.0638715
0.0672469
0.0700627
0.0723448
0.0741178
0.0754043
0.0762244
0.0765957
0.076533
0.0760484
0.0751517
0.0738502
0.0721497
0.0700545
0.067568
0.0646933
0.0614337
0.0577931
0.0537768
0.0493916
0.0446467
0.0395538
0.0341276
0.0283865
0.0223524
0.0160513
0.00951363
0.00277426
-0.00412723
-0.0111465
-0.0182346
-0.0253377
-0.0323976
-0.039352
-0.0461347
-0.0526766
-0.0589061
-0.0647501
-0.0701352
-0.0749889
-0.0792409
-0.0828251
-0.0856805
-0.087754
-0.089001
-0.0893882
-0.0888946
-0.0875131
-0.0852519
-0.0821351
-0.0782036
-0.0735149
-0.0681429
-0.0621772
-0.0557221
-0.0488947
-0.0418233
-0.0346456
-0.027506
-0.0205538
-0.0139404
-0.00781681
-0.00233738
0.00539454
0.0154907
0.0248488
0.0334461
0.0412771
0.0483479
0.0546739
0.0602771
0.0651845
0.0694257
0.0730319
0.0760341
0.0784625
0.0803451
0.0817076
0.0825727
0.0829601
0.0828861
0.0823643
0.0814051
0.0800168
0.0782053
0.0759751
0.0733297
0.070272
0.0668049
0.0629321
0.0586585
0.0539904
0.0489365
0.0435081
0.0377198
0.0315895
0.0251391
0.0183947
0.0113869
0.00415141
-0.00327142
-0.0108359
-0.0184911
-0.0261811
-0.0338445
-0.0414156
-0.048824
-0.0559954
-0.0628525
-0.0693158
-0.0753048
-0.080739
-0.0855401
-0.0896329
-0.0929478
-0.0954225
-0.0970041
-0.0976509
-0.0973346
-0.0960422
-0.0937768
-0.0905597
-0.0864303
-0.081447
-0.0756866
-0.0692437
-0.0622293
-0.0547695
-0.047003
-0.0390789
-0.0311543
-0.0233916
-0.0159557
-0.00901114
-0.00272574
0.00592096
0.0169527
0.0271376
0.0364613
0.0449265
0.0525473
0.0593469
0.0653546
0.0706042
0.0751316
0.0789737
0.0821665
0.0847446
0.0867398
0.0881811
0.0890939
0.0895001
0.0894179
0.0888621
0.0878443
0.0863732
0.0844553
0.0820953
0.0792965
0.0760617
0.0723935
0.0682951
0.0637707
0.0588263
0.0534697
0.0477119
0.0415665
0.0350512
0.0281874
0.0210009
0.0135225
0.00578781
-0.00216195
-0.0102802
-0.0185145
-0.0268068
-0.0350934
-0.0433049
-0.0513669
-0.0592002
-0.0667217
-0.0738453
-0.0804831
-0.0865463
-0.0919476
-0.0966024
-0.100431
-0.103362
-0.105331
-0.106289
-0.106197
-0.105035
-0.1028
-0.0995099
-0.0952008
-0.0899313
-0.0837805
-0.0768477
-0.0692509
-0.0611253
-0.0526204
-0.043898
-0.0351288
-0.0264897
-0.0181605
-0.0103205
-0.00315263
0.00646119
0.0184525
0.029485
0.0395529
0.0486674
0.056851
0.0641348
0.0705558
0.0761549
0.0809745
0.0850573
0.0884448
0.091176
0.093287
0.09481
0.0957735
0.0962016
0.0961146
0.0955286
0.0944564
0.0929074
0.0908886
0.0884048
0.0854592
0.0820545
0.0781929
0.0738769
0.0691101
0.0638976
0.0582467
0.0521672
0.0456723
0.0387784
0.0315065
0.0238819
0.0159348
0.0077009
-0.000778559
-0.00945631
-0.0182789
-0.0271866
-0.0361133
-0.0449867
-0.0537285
-0.0622546
-0.0704765
-0.0783012
-0.085633
-0.0923747
-0.0984294
-0.103702
-0.108103
-0.111548
-0.113964
-0.115288
-0.115473
-0.11449
-0.112327
-0.108996
-0.104531
-0.0989886
-0.0924493
-0.0850168
-0.0768161
-0.0679915
-0.0587044
-0.0491299
-0.0394537
-0.0298685
-0.0205703
-0.0117547
-0.00362154
0.00701338
0.0199852
0.0318835
0.0427113
0.0524885
0.0612463
0.0690239
0.0758662
0.0818214
0.0869386
0.0912668
0.0948528
0.0977406
0.0999704
0.101578
0.102595
0.103049
0.102961
0.102349
0.101227
0.0996056
0.097492
0.0948912
0.0918065
0.0882401
0.0841938
0.0796695
0.0746701
0.0691996
0.0632645
0.0568734
0.0500384
0.042775
0.035103
0.0270469
0.0186361
0.00990577
0.000896957
-0.00834291
-0.0177598
-0.0272926
-0.0368736
-0.0464276
-0.0558727
-0.0651207
-0.0740771
-0.0826425
-0.0907134
-0.0981836
-0.104946
-0.110896
-0.11593
-0.119952
-0.122877
-0.12463
-0.125151
-0.1244
-0.122357
-0.119026
-0.114434
-0.108637
-0.101716
-0.0937778
-0.0849539
-0.0753986
-0.0652853
-0.0548035
-0.0441549
-0.0335497
-0.0232017
-0.0133246
-0.00413635
0.00757561
0.0215457
0.0343251
0.0459264
0.056378
0.0657199
0.0739997
0.0812705
0.0875877
0.0930076
0.0975853
0.101373
0.104421
0.106773
0.108468
0.109542
0.110025
0.109939
0.109306
0.10814
0.106452
0.10425
0.10154
0.098324
0.094605
0.090384
0.0856621
0.0804411
0.0747243
0.0685168
0.0618261
0.0546628
0.0470412
0.0389798
0.0305016
0.0216351
0.0124145
0.00288012
-0.00692091
-0.0169344
-0.0270986
-0.0373442
-0.047594
-0.057763
-0.0677588
-0.0774817
-0.0868257
-0.0956795
-0.103928
-0.111454
-0.118139
-0.12387
-0.128537
-0.132039
-0.134288
-0.135211
-0.134754
-0.132885
-0.1296
-0.124919
-0.118893
-0.111602
-0.103156
-0.0936934
-0.0833773
-0.072394
-0.0609484
-0.0492596
-0.0375566
-0.0260729
-0.0150417
-0.00470125
0.00814589
0.0231285
0.0368019
0.0491878
0.0603237
0.0702582
0.0790475
0.0867528
0.0934373
0.0991642
0.103995
0.107989
0.111199
0.113675
0.115461
0.116596
0.11711
0.117031
0.116381
0.115175
0.113427
0.111144
0.108332
0.104995
0.101133
0.096748
0.09184
0.08641
0.0804599
0.0739935
0.067017
0.0595394
0.0515734
0.0431357
0.034248
0.024937
0.0152357
0.00518316
-0.00517417
-0.0157825
-0.02658
-0.0374965
-0.0484533
-0.0593626
-0.0701285
-0.0806464
-0.0908042
-0.100483
-0.109558
-0.117902
-0.125385
-0.131878
-0.137259
-0.14141
-0.144229
-0.145625
-0.14553
-0.1439
-0.140715
-0.13599
-0.129767
-0.122125
-0.113176
-0.103063
-0.0919582
-0.0800622
-0.0675956
-0.0547963
-0.0419137
-0.0292028
-0.0169185
-0.00532077
0.0087222
0.0247282
0.0393056
0.0524851
0.0643131
0.0748471
0.084152
0.092297
0.0993531
0.105391
0.110478
0.114679
0.118055
0.120658
0.122538
0.123734
0.124284
0.124216
0.123553
0.122313
0.120511
0.118154
0.115248
0.111798
0.107804
0.103267
0.0981853
0.0925596
0.0863906
0.0796805
0.0724338
0.0646578
0.0563634
0.0475654
0.0382835
0.0285425
0.0183736
0.00781439
-0.00309019
-0.0142873
-0.0257154
-0.0373043
-0.0489742
-0.0606356
-0.0721893
-0.0835266
-0.0945295
-0.105072
-0.11502
-0.124235
-0.132576
-0.1399
-0.146067
-0.150944
-0.15441
-0.156358
-0.156702
-0.15538
-0.15236
-0.147644
-0.141265
-0.1333
-0.123858
-0.113087
-0.101171
-0.0883214
-0.0747765
-0.0607945
-0.0466469
-0.032612
-0.0189684
-0.00599982
0.00930245
0.0263395
0.0418278
0.0558074
0.0683336
0.0794725
0.0892976
0.0978863
0.105317
0.111668
0.117014
0.121426
0.124968
0.127701
0.129675
0.130937
0.131525
0.13147
0.130799
0.129531
0.127679
0.125256
0.122265
0.118712
0.114596
0.109918
0.104676
0.0988692
0.0924965
0.085559
0.0780593
0.0700029
0.0613984
0.0522586
0.0426008
0.0324477
0.0218281
0.0107776
-0.000660728
-0.0124356
-0.0244866
-0.0367441
-0.0491279
-0.0615475
-0.0739013
-0.0860771
-0.0979517
-0.109392
-0.120256
-0.130395
-0.139653
-0.147874
-0.154901
-0.160584
-0.16478
-0.167365
-0.168231
-0.167298
-0.164516
-0.159872
-0.153389
-0.145135
-0.135219
-0.123792
-0.111044
-0.0972028
-0.0825231
-0.0672845
-0.0517828
-0.0363216
-0.0212053
-0.0067436
0.00988457
0.0279566
0.0443602
0.0591442
0.0723725
0.08412
0.0944686
0.103504
0.111312
0.117978
0.123585
0.128208
0.131918
0.134781
0.136851
0.13818
0.138808
0.13877
0.138094
0.136801
0.134907
0.132423
0.129356
0.125709
0.121482
0.116676
0.111287
0.105314
0.0987536
0.0916061
0.0838721
0.0755548
0.0666606
0.0571999
0.0471874
0.0366432
0.0255936
0.0140715
0.00211754
-0.010219
-0.0228798
-0.0357961
-0.0488886
-0.0620663
-0.0752263
-0.0882535
-0.101021
-0.113388
-0.125207
-0.136316
-0.146549
-0.155733
-0.163695
-0.170265
-0.17528
-0.178591
-0.180071
-0.179616
-0.177155
-0.172656
-0.166131
-0.157634
-0.147272
-0.135196
-0.121604
-0.106737
-0.0908668
-0.0742972
-0.0573491
-0.040354
-0.0236442
-0.00755768
0.0104665
0.0295743
0.0468945
0.0624846
0.0764172
0.0887753
0.0996492
0.109132
0.117319
0.124302
0.130168
0.135003
0.138882
0.141875
0.144042
0.145439
0.146108
0.146089
0.145411
0.144098
0.142166
0.139628
0.136492
0.13276
0.128433
0.12351
0.117988
0.111864
0.105133
0.0977943
0.0898457
0.0812886
0.0721271
0.0623686
0.0520254
0.0411145
0.0296591
0.0176891
0.00524246
-0.00763462
-0.0208861
-0.0344455
-0.0482347
-0.0621635
-0.0761286
-0.0900131
-0.103686
-0.117004
-0.129809
-0.141931
-0.153192
-0.163403
-0.172374
-0.179914
-0.185838
-0.189972
-0.192164
-0.192283
-0.190237
-0.18597
-0.179474
-0.170793
-0.160023
-0.147316
-0.132874
-0.116951
-0.0998388
-0.0818634
-0.0633741
-0.0447322
-0.0263007
-0.00844795
0.0110462
0.031187
0.0494224
0.0658183
0.0804552
0.0934243
0.104824
0.114755
0.12332
0.130618
0.136745
0.141791
0.145837
0.148959
0.151223
0.152687
0.153398
0.153399
0.152721
0.15139
0.149425
0.146839
0.14364
0.139832
0.135415
0.130388
0.124746
0.118486
0.111603
0.104091
0.0959489
0.0871745
0.0777694
0.0677387
0.0570911
0.0458408
0.0340075
0.0216178
0.0087059
-0.00468509
-0.0185024
-0.0326824
-0.0471495
-0.061815
-0.0765762
-0.0913159
-0.105901
-0.120184
-0.134
-0.147172
-0.159507
-0.170805
-0.180856
-0.189449
-0.196374
-0.201431
-0.20444
-0.205241
-0.203713
-0.199774
-0.193395
-0.184599
-0.173472
-0.160161
-0.144874
-0.127872
-0.109469
-0.0900138
-0.0698863
-0.04948
-0.0291909
-0.00942061
0.0116217
0.0327897
0.0519363
0.0691352
0.0844745
0.0980531
0.109977
0.120355
0.129297
0.136909
0.143294
0.148548
0.15276
0.156009
0.158368
0.159897
0.16065
0.16067
0.159993
0.158647
0.156652
0.154022
0.150766
0.14689
0.142392
0.137272
0.131525
0.125144
0.118125
0.11046
0.102146
0.0931775
0.0835544
0.0732784
0.0623553
0.0507957
0.0386157
0.0258382
0.0124934
-0.00137964
-0.015732
-0.0305037
-0.0456223
-0.0610021
-0.0765422
-0.0921259
-0.10762
-0.122873
-0.137717
-0.151966
-0.165417
-0.177856
-0.189055
-0.19878
-0.206799
-0.212882
-0.216818
-0.218415
-0.21752
-0.214019
-0.207855
-0.199029
-0.18761
-0.173737
-0.157617
-0.139523
-0.119785
-0.0987785
-0.0769146
-0.0546217
-0.0323317
-0.0104822
0.0121913
0.0343775
0.0544289
0.0724259
0.0884638
0.102649
0.115094
0.125916
0.135231
0.143154
0.149794
0.155253
0.159626
0.163
0.165449
0.167041
0.167833
0.167871
0.167195
0.165833
0.16381
0.16114
0.157833
0.153895
0.149326
0.144123
0.138283
0.131797
0.124659
0.116861
0.108396
0.0992582
0.0894434
0.0789508
0.067783
0.0559468
0.0434546
0.0303249
0.0165838
0.00226577
-0.0125848
-0.0279125
-0.0436491
-0.0597125
-0.0760052
-0.0924126
-0.108802
-0.125021
-0.140899
-0.156243
-0.170842
-0.184467
-0.196875
-0.207811
-0.217014
-0.224228
-0.229205
-0.23172
-0.231582
-0.228641
-0.222806
-0.214049
-0.202418
-0.188037
-0.171112
-0.151921
-0.130812
-0.108186
-0.0844873
-0.0601818
-0.0357403
-0.0116395
0.0127533
0.0359462
0.0568933
0.0756816
0.0924124
0.107199
0.120161
0.131422
0.141106
0.149335
0.156224
0.161883
0.166412
0.169904
0.172439
0.17409
0.174916
0.174969
0.174291
0.172914
0.170863
0.168155
0.164801
0.160807
0.156173
0.150899
0.144977
0.1384
0.131161
0.123249
0.114655
0.105372
0.0953933
0.0847141
0.073334
0.0612561
0.0484888
0.0350461
0.0209494
0.00622824
-0.00907816
-0.0249195
-0.0412329
-0.0579412
-0.0749511
-0.0921518
-0.109413
-0.126583
-0.143489
-0.159936
-0.175703
-0.190552
-0.204222
-0.216437
-0.226913
-0.23536
-0.241496
-0.245057
-0.245809
-0.243563
-0.238184
-0.229612
-0.217866
-0.203049
-0.18536
-0.16508
-0.142572
-0.118263
-0.0926323
-0.066185
-0.0394347
-0.0128995
0.0133062
0.0374918
0.0593239
0.0788946
0.0963109
0.111692
0.125164
0.136858
0.146905
0.155433
0.162564
0.168415
0.173093
0.176696
0.17931
0.181012
0.181868
0.181931
0.181248
0.179852
0.177772
0.175026
0.171627
0.167582
0.162891
0.157553
0.151561
0.144907
0.137582
0.129575
0.120876
0.111472
0.101357
0.0905216
0.0789629
0.0666801
0.0536771
0.0399636
0.0255558
0.0104779
-0.00523658
-0.0215432
-0.0383851
-0.0556911
-0.0733736
-0.0913269
-0.109425
-0.127519
-0.145436
-0.162979
-0.179924
-0.196021
-0.210996
-0.224553
-0.236382
-0.246163
-0.253576
-0.258314
-0.260099
-0.258691
-0.253913
-0.245659
-0.233911
-0.218749
-0.200354
-0.179006
-0.155082
-0.129034
-0.101376
-0.072656
-0.0434326
-0.0142698
0.0138488
0.0390112
0.0617156
0.0820584
0.100151
0.116119
0.130093
0.142212
0.152612
0.161429
0.168794
0.174827
0.179645
0.183349
0.186033
0.187779
0.188655
0.188722
0.188027
0.186609
0.184497
0.181713
0.17827
0.174175
0.169432
0.164037
0.157986
0.151268
0.143873
0.13579
0.127005
0.117506
0.107282
0.0963225
0.0846201
0.0721704
0.0589732
0.0450334
0.0303621
0.0149779
-0.00109201
-0.0178096
-0.0351249
-0.0529736
-0.0712751
-0.0899303
-0.108819
-0.127797
-0.146695
-0.165316
-0.183433
-0.200789
-0.217099
-0.232049
-0.245304
-0.256513
-0.265318
-0.271368
-0.274332
-0.27392
-0.269899
-0.262113
-0.250498
-0.235099
-0.216075
-0.1937
-0.168356
-0.140521
-0.110744
-0.0796187
-0.0477523
-0.0157577
0.0143803
0.0405022
0.064065
0.085168
0.103927
0.12047
0.134937
0.14747
0.158213
0.167309
0.174894
0.181099
0.186043
0.189837
0.19258
0.194357
0.195244
0.195305
0.194591
0.193144
0.190996
0.18817
0.184682
0.18054
0.175748
0.170304
0.164201
0.157431
0.149981
0.141839
0.13299
0.12342
0.113115
0.102063
0.0902516
0.0776742
0.0643257
0.0502063
0.0353219
0.019685
0.0033165
-0.0137526
-0.0314799
-0.0498089
-0.0686671
-0.0879635