/*--------------------------------*- C++ -*----------------------------------*\
  =========                 |
  \\      /  F ield         | OpenFOAM: The Open Source CFD Toolbox
   \\    /   O peration     | Website:  https://openfoam.org
    \\  /    A nd           | Version:  dev
     \\/     M anipulation  |
\*---------------------------------------------------------------------------*/
FoamFile
{
    format      ascii;
    class       volVectorField;
    location    "19.35";
    object      U;
}
// * * * * * * * * * * * * * * * * * * * * * * * * * * * * * * * * * * * * * //

dimensions      [0 1 -1 0 0 0 0];

internalField   nonuniform List<vector> 
5184
(
(1.2472e-05 -1.25396e-05 0)
(4.53472e-05 -2.07334e-05 0)
(8.02969e-05 -1.71638e-05 0)
(9.57957e-05 -8.15294e-06 0)
(8.18875e-05 2.69202e-06 0)
(3.61701e-05 1.36249e-05 0)
(-4.0826e-05 2.38404e-05 0)
(-0.000147087 3.30308e-05 0)
(-0.000279823 4.1079e-05 0)
(-0.000435979 4.7988e-05 0)
(-0.00061244 5.38209e-05 0)
(-0.000806175 5.86626e-05 0)
(-0.00101432 6.26048e-05 0)
(-0.00123421 6.5739e-05 0)
(-0.00146339 6.81497e-05 0)
(-0.00169961 6.99119e-05 0)
(-0.00194079 7.10901e-05 0)
(-0.00218502 7.17369e-05 0)
(-0.00243052 7.18928e-05 0)
(-0.00267561 7.15878e-05 0)
(-0.00291869 7.08411e-05 0)
(-0.00315818 6.96629e-05 0)
(-0.00339258 6.80562e-05 0)
(-0.00362035 6.60181e-05 0)
(-0.00383997 6.35415e-05 0)
(-0.0040499 6.06167e-05 0)
(-0.00424858 5.7233e-05 0)
(-0.00443446 5.33808e-05 0)
(-0.00460595 4.90536e-05 0)
(-0.00476147 4.4248e-05 0)
(-0.00489946 3.89667e-05 0)
(-0.00501842 3.32187e-05 0)
(-0.00511687 2.70211e-05 0)
(-0.00519344 2.04e-05 0)
(-0.00524688 1.33909e-05 0)
(-0.00527606 6.03942e-06 0)
(-0.00528005 -1.59814e-06 0)
(-0.00525813 -9.45535e-06 0)
(-0.00520978 -1.7456e-05 0)
(-0.00513478 -2.55146e-05 0)
(-0.0050332 -3.35368e-05 0)
(-0.0049054 -4.14212e-05 0)
(-0.00475209 -4.90608e-05 0)
(-0.00457433 -5.63447e-05 0)
(-0.00437351 -6.31603e-05 0)
(-0.00415139 -6.93958e-05 0)
(-0.00391006 -7.49429e-05 0)
(-0.00365194 -7.96987e-05 0)
(-0.00337975 -8.35685e-05 0)
(-0.0030965 -8.6469e-05 0)
(-0.00280541 -8.83295e-05 0)
(-0.00250991 -8.90948e-05 0)
(-0.00221357 -8.87264e-05 0)
(-0.00192002 -8.72049e-05 0)
(-0.00163295 -8.45298e-05 0)
(-0.00135599 -8.07203e-05 0)
(-0.00109267 -7.58156e-05 0)
(-0.000846368 -6.98742e-05 0)
(-0.000620214 -6.29739e-05 0)
(-0.000417063 -5.52103e-05 0)
(-0.00023941 -4.66972e-05 0)
(-8.93335e-05 -3.75673e-05 0)
(3.15802e-05 -2.79755e-05 0)
(0.000122315 -1.81038e-05 0)
(0.000182538 -8.1772e-06 0)
(0.000212748 1.50954e-06 0)
(0.000214529 1.05342e-05 0)
(0.000190923 1.82601e-05 0)
(0.000146951 2.36762e-05 0)
(9.06937e-05 2.50928e-05 0)
(3.65989e-05 1.98271e-05 0)
(6.22647e-06 6.24215e-06 0)
(2.09435e-05 -4.55922e-05 0)
(6.57109e-05 -6.53928e-05 0)
(9.46204e-05 -4.03355e-05 0)
(7.25503e-05 7.76432e-06 0)
(-1.92632e-05 6.57358e-05 0)
(-0.000187634 0.000125975 0)
(-0.000433146 0.000184208 0)
(-0.000752583 0.000238187 0)
(-0.00114041 0.000286776 0)
(-0.00158985 0.00032953 0)
(-0.00209356 0.000366412 0)
(-0.00264411 0.00039761 0)
(-0.00323419 0.000423436 0)
(-0.00385681 0.000444257 0)
(-0.00450539 0.000460449 0)
(-0.00517373 0.000472371 0)
(-0.00585603 0.000480343 0)
(-0.00654687 0.000484643 0)
(-0.0072411 0.000485492 0)
(-0.00793385 0.000483064 0)
(-0.00862043 0.000477478 0)
(-0.00929629 0.000468811 0)
(-0.00995696 0.000457103 0)
(-0.010598 0.000442362 0)
(-0.0112151 0.000424576 0)
(-0.0118037 0.000403722 0)
(-0.0123596 0.000379777 0)
(-0.0128782 0.000352723 0)
(-0.0133552 0.000322561 0)
(-0.0137863 0.000289317 0)
(-0.0141672 0.000253053 0)
(-0.0144939 0.00021387 0)
(-0.0147624 0.000171919 0)
(-0.0149691 0.000127401 0)
(-0.0151108 8.05766e-05 0)
(-0.0151846 3.17631e-05 0)
(-0.0151882 -1.86607e-05 0)
(-0.0151198 -7.0257e-05 0)
(-0.0149782 -0.000122532 0)
(-0.0147631 -0.000174939 0)
(-0.0144749 -0.000226885 0)
(-0.0141148 -0.000277739 0)
(-0.0136848 -0.000326841 0)
(-0.0131882 -0.000373512 0)
(-0.0126287 -0.000417069 0)
(-0.0120112 -0.000456839 0)
(-0.0113415 -0.000492168 0)
(-0.0106263 -0.000522443 0)
(-0.00987274 -0.000547105 0)
(-0.00908908 -0.000565658 0)
(-0.00828395 -0.000577691 0)
(-0.00746654 -0.000582884 0)
(-0.00664635 -0.000581021 0)
(-0.00583312 -0.000571998 0)
(-0.00503662 -0.000555832 0)
(-0.00426649 -0.000532661 0)
(-0.00353212 -0.000502747 0)
(-0.00284241 -0.000466479 0)
(-0.00220564 -0.000424371 0)
(-0.00162927 -0.000377062 0)
(-0.00111979 -0.000325318 0)
(-0.000682479 -0.000270043 0)
(-0.000321261 -0.000212297 0)
(-3.84178e-05 -0.000153329 0)
(0.000165676 -9.46484e-05 0)
(0.000292937 -3.81315e-05 0)
(0.0003481 1.37684e-05 0)
(0.00033942 5.7748e-05 0)
(0.000279367 8.92199e-05 0)
(0.000185769 0.000101694 0)
(8.62594e-05 8.64076e-05 0)
(1.96609e-05 3.64567e-05 0)
(1.76533e-05 -8.10878e-05 0)
(4.13084e-05 -9.46693e-05 0)
(1.94724e-05 -1.88187e-05 0)
(-8.41966e-05 0.000106122 0)
(-0.000290434 0.000254684 0)
(-0.000607958 0.000410442 0)
(-0.00103801 0.000563098 0)
(-0.00157679 0.000706521 0)
(-0.00221713 0.00083727 0)
(-0.00294985 0.000953641 0)
(-0.00376469 0.00105504 0)
(-0.00465094 0.00114156 0)
(-0.00559789 0.00121372 0)
(-0.0065951 0.00127223 0)
(-0.00763252 0.00131793 0)
(-0.0087006 0.00135164 0)
(-0.00979028 0.00137412 0)
(-0.0108929 0.00138604 0)
(-0.0120004 0.00138797 0)
(-0.0131048 0.00138036 0)
(-0.0141987 0.00136352 0)
(-0.0152745 0.00133769 0)
(-0.0163252 0.00130299 0)
(-0.0173435 0.00125949 0)
(-0.0183224 0.00120719 0)
(-0.019255 0.00114609 0)
(-0.020134 0.00107618 0)
(-0.0209527 0.000997466 0)
(-0.0217041 0.00091002 0)
(-0.0223815 0.000813977 0)
(-0.0229784 0.00070957 0)
(-0.0234883 0.000597144 0)
(-0.0239055 0.000477171 0)
(-0.0242244 0.000350265 0)
(-0.0244402 0.00021719 0)
(-0.0245487 7.88675e-05 0)
(-0.0245464 -6.36236e-05 0)
(-0.0244308 -0.00020905 0)
(-0.0242006 -0.000356031 0)
(-0.0238552 -0.000503052 0)
(-0.0233955 -0.000648478 0)
(-0.0228238 -0.00079058 0)
(-0.0221434 -0.000927559 0)
(-0.0213591 -0.00105757 0)
(-0.0204773 -0.00117878 0)
(-0.0195055 -0.00128935 0)
(-0.0184527 -0.00138755 0)
(-0.017329 -0.00147171 0)
(-0.0161458 -0.00154036 0)
(-0.0149155 -0.00159217 0)
(-0.0136515 -0.00162604 0)
(-0.0123677 -0.00164114 0)
(-0.0110787 -0.0016369 0)
(-0.0097992 -0.00161307 0)
(-0.00854421 -0.00156971 0)
(-0.00732835 -0.00150723 0)
(-0.00616586 -0.00142637 0)
(-0.00507025 -0.00132822 0)
(-0.00405406 -0.00121424 0)
(-0.00312856 -0.00108621 0)
(-0.00230347 -0.00094633 0)
(-0.00158669 -0.000797143 0)
(-0.000983939 -0.000641656 0)
(-0.000498466 -0.000483396 0)
(-0.000130589 -0.000326556 0)
(0.000122754 -0.000176216 0)
(0.000268642 -3.86865e-05 0)
(0.000318895 7.8027e-05 0)
(0.000290619 0.000163638 0)
(0.000207009 0.000204994 0)
(0.000102287 0.000185994 0)
(2.49436e-05 9.02864e-05 0)
(8.82615e-06 -9.75492e-05 0)
(-7.0662e-06 -7.27638e-05 0)
(-0.000107656 8.51267e-05 0)
(-0.000322388 0.000318511 0)
(-0.000669462 0.000589965 0)
(-0.00115725 0.000873909 0)
(-0.00178649 0.00115334 0)
(-0.00255241 0.00141747 0)
(-0.00344647 0.00165987 0)
(-0.00445766 0.00187698 0)
(-0.00557349 0.00206728 0)
(-0.00678079 0.00223049 0)
(-0.00806616 0.00236719 0)
(-0.00941636 0.00247841 0)
(-0.0108185 0.00256541 0)
(-0.0122602 0.00262954 0)
(-0.0137295 0.00267207 0)
(-0.015215 0.00269414 0)
(-0.0167058 0.00269675 0)
(-0.0181915 0.00268067 0)
(-0.0196617 0.00264651 0)
(-0.0211065 0.00259469 0)
(-0.0225162 0.00252549 0)
(-0.0238812 0.00243905 0)
(-0.0251918 0.00233547 0)
(-0.0264387 0.00221479 0)
(-0.0276125 0.00207705 0)
(-0.028704 0.00192238 0)
(-0.029704 0.00175098 0)
(-0.0306037 0.0015632 0)
(-0.0313946 0.00135956 0)
(-0.0320684 0.0011408 0)
(-0.0326175 0.000907886 0)
(-0.0330349 0.000662059 0)
(-0.0333144 0.000404829 0)
(-0.0334508 0.000137995 0)
(-0.0334398 -0.000136357 0)
(-0.0332784 -0.000415863 0)
(-0.032965 -0.000697889 0)
(-0.0324992 -0.000979565 0)
(-0.0318825 -0.00125781 0)
(-0.0311179 -0.00152936 0)
(-0.0302101 -0.00179087 0)
(-0.0291656 -0.00203887 0)
(-0.0279927 -0.00226994 0)
(-0.0267012 -0.00248069 0)
(-0.0253031 -0.00266788 0)
(-0.0238114 -0.00282846 0)
(-0.0222411 -0.00295965 0)
(-0.0206083 -0.00305905 0)
(-0.01893 -0.00312462 0)
(-0.0172245 -0.00315482 0)
(-0.0155105 -0.00314864 0)
(-0.0138071 -0.00310561 0)
(-0.0121336 -0.0030259 0)
(-0.0105088 -0.00291028 0)
(-0.00895103 -0.00276017 0)
(-0.00747781 -0.00257768 0)
(-0.00610521 -0.00236556 0)
(-0.00484771 -0.00212725 0)
(-0.00371781 -0.0018669 0)
(-0.00272561 -0.00158939 0)
(-0.00187843 -0.00130043 0)
(-0.0011804 -0.00100669 0)
(-0.000632021 -0.000715961 0)
(-0.000229584 -0.000437511 0)
(3.53613e-05 -0.000182473 0)
(0.000176683 3.55626e-05 0)
(0.000214074 0.000199896 0)
(0.000173662 0.000290153 0)
(9.28411e-05 0.000282056 0)
(2.39882e-05 0.000147077 0)
(-2.13925e-06 -8.42101e-05 0)
(-6.73123e-05 2.12657e-05 0)
(-0.000264056 0.000295717 0)
(-0.000609518 0.000667985 0)
(-0.00111616 0.00109035 0)
(-0.00179018 0.00152896 0)
(-0.00263056 0.00196041 0)
(-0.00363093 0.00236925 0)
(-0.00478118 0.00274578 0)
(-0.00606859 0.00308437 0)
(-0.00747883 0.00338225 0)
(-0.00899667 0.00363862 0)
(-0.0106065 0.00385392 0)
(-0.0122929 0.0040294 0)
(-0.0140404 0.00416672 0)
(-0.0158344 0.0042677 0)
(-0.0176604 0.00433412 0)
(-0.0195046 0.00436764 0)
(-0.0213537 0.00436967 0)
(-0.0231947 0.00434139 0)
(-0.0250151 0.0042837 0)
(-0.0268026 0.00419727 0)
(-0.028545 0.00408255 0)
(-0.0302306 0.00393984 0)
(-0.0318474 0.00376934 0)
(-0.033384 0.0035712 0)
(-0.0348288 0.0033456 0)
(-0.0361704 0.00309283 0)
(-0.037398 0.00281332 0)
(-0.0385006 0.00250774 0)
(-0.0394681 0.00217703 0)
(-0.0402905 0.00182246 0)
(-0.0409589 0.00144569 0)
(-0.0414649 0.00104875 0)
(-0.0418012 0.000634129 0)
(-0.0419616 0.000204735 0)
(-0.0419415 -0.000236074 0)
(-0.0417372 -0.000684518 0)
(-0.0413471 -0.00113641 0)
(-0.0407712 -0.00158721 0)
(-0.0400113 -0.00203206 0)
(-0.0390713 -0.00246584 0)
(-0.0379569 -0.00288326 0)
(-0.0366762 -0.00327896 0)
(-0.0352392 -0.00364755 0)
(-0.0336578 -0.00398378 0)
(-0.0319463 -0.00428258 0)
(-0.0301206 -0.00453923 0)
(-0.0281983 -0.00474942 0)
(-0.0261988 -0.00490939 0)
(-0.0241425 -0.00501603 0)
(-0.0220511 -0.00506694 0)
(-0.019947 -0.00506055 0)
(-0.017853 -0.00499618 0)
(-0.0157919 -0.00487408 0)
(-0.0137863 -0.00469552 0)
(-0.0118581 -0.00446275 0)
(-0.0100282 -0.00417909 0)
(-0.00831562 -0.00384892 0)
(-0.00673782 -0.00347768 0)
(-0.0053097 -0.00307193 0)
(-0.00404339 -0.00263941 0)
(-0.00294775 -0.00218909 0)
(-0.00202793 -0.00173137 0)
(-0.00128488 -0.00127828 0)
(-0.000714853 -0.000843849 0)
(-0.000308878 -0.000444551 0)
(-5.22148e-05 -9.99203e-05 0)
(7.598e-05 0.00016673 0)
(0.00010317 0.000327694 0)
(6.73191e-05 0.000350262 0)
(1.96255e-05 0.000193828 0)
(-1.37001e-05 -3.73274e-05 0)
(-0.000132791 0.000197654 0)
(-0.00043559 0.000626963 0)
(-0.000924034 0.00116994 0)
(-0.00160273 0.00177072 0)
(-0.00247423 0.00238851 0)
(-0.00353469 0.0029943 0)
(-0.00477541 0.00356834 0)
(-0.0061843 0.00409778 0)
(-0.00774686 0.0045749 0)
(-0.00944697 0.00499561 0)
(-0.0112676 0.00535843 0)
(-0.0131913 0.00566361 0)
(-0.0152005 0.00591251 0)
(-0.0172779 0.00610711 0)
(-0.0194068 0.00624967 0)
(-0.0215706 0.00634247 0)
(-0.0237534 0.00638764 0)
(-0.0259397 0.00638705 0)
(-0.0281145 0.00634227 0)
(-0.030263 0.00625453 0)
(-0.0323709 0.00612476 0)
(-0.034424 0.00595362 0)
(-0.0364084 0.0057416 0)
(-0.0383102 0.00548905 0)
(-0.040116 0.00519629 0)
(-0.0418123 0.0048637 0)
(-0.043386 0.0044918 0)
(-0.0448242 0.00408137 0)
(-0.0461146 0.00363349 0)
(-0.0472454 0.00314964 0)
(-0.0482053 0.00263179 0)
(-0.0489839 0.0020824 0)
(-0.049572 0.00150451 0)
(-0.0499611 0.000901776 0)
(-0.0501446 0.000278433 0)
(-0.050117 -0.000360659 0)
(-0.0498746 -0.00101006 0)
(-0.0494156 -0.00166376 0)
(-0.0487401 -0.00231528 0)
(-0.0478506 -0.0029577 0)
(-0.0467514 -0.00358375 0)
(-0.0454495 -0.00418595 0)
(-0.043954 -0.00475669 0)
(-0.0422765 -0.00528839 0)
(-0.0404307 -0.00577361 0)
(-0.038433 -0.00620523 0)
(-0.0363013 -0.00657659 0)
(-0.034056 -0.00688163 0)
(-0.031719 -0.00711506 0)
(-0.0293137 -0.00727249 0)
(-0.0268648 -0.00735055 0)
(-0.0243977 -0.00734704 0)
(-0.0219385 -0.00726099 0)
(-0.0195132 -0.0070928 0)
(-0.0171477 -0.00684424 0)
(-0.014867 -0.00651854 0)
(-0.0126948 -0.00612041 0)
(-0.0106532 -0.00565609 0)
(-0.00876217 -0.00513332 0)
(-0.00703891 -0.00456144 0)
(-0.00549751 -0.00395142 0)
(-0.00414845 -0.00331593 0)
(-0.00299809 -0.00266955 0)
(-0.00204822 -0.00202899 0)
(-0.00129557 -0.00141341 0)
(-0.000731405 -0.000844922 0)
(-0.000341015 -0.000349181 0)
(-0.000103482 4.38701e-05 0)
(8.78499e-06 0.000299324 0)
(3.23285e-05 0.000376404 0)
(1.3584e-05 0.000224108 0)
(-2.51794e-05 4.42654e-05 0)
(-0.000199889 0.000461384 0)
(-0.00061362 0.00108676 0)
(-0.00125188 0.00183374 0)
(-0.00211019 0.00264055 0)
(-0.00318639 0.00346103 0)
(-0.00447292 0.0042616 0)
(-0.00595806 0.00501885 0)
(-0.00762732 0.0057172 0)
(-0.00946419 0.00634698 0)
(-0.0114507 0.00690289 0)
(-0.013568 0.00738276 0)
(-0.015797 0.00778661 0)
(-0.0181184 0.00811588 0)
(-0.0205132 0.00837282 0)
(-0.0229627 0.00856011 0)
(-0.0254487 0.00868047 0)
(-0.0279533 0.00873649 0)
(-0.0304593 0.0087305 0)
(-0.0329497 0.00866444 0)
(-0.035408 0.00853987 0)
(-0.0378179 0.00835801 0)
(-0.0401633 0.00811977 0)
(-0.0424286 0.00782582 0)
(-0.0445981 0.00747674 0)
(-0.0466565 0.00707305 0)
(-0.0485888 0.00661538 0)
(-0.0503801 0.00610461 0)
(-0.0520161 0.00554189 0)
(-0.053483 0.00492885 0)
(-0.0547676 0.00426762 0)
(-0.0558573 0.00356099 0)
(-0.0567407 0.00281238 0)
(-0.0574075 0.00202602 0)
(-0.0578486 0.00120686 0)
(-0.0580564 0.000360679 0)
(-0.0580252 -0.000505965 0)
(-0.057751 -0.00138575 0)
(-0.0572319 -0.00227065 0)
(-0.0564681 -0.00315198 0)
(-0.0554623 -0.00402054 0)
(-0.0542197 -0.00486666 0)
(-0.0527478 -0.00568041 0)
(-0.0510569 -0.00645171 0)
(-0.0491597 -0.00717051 0)
(-0.0470717 -0.00782698 0)
(-0.0448106 -0.0084117 0)
(-0.0423965 -0.00891585 0)
(-0.0398519 -0.00933142 0)
(-0.0372009 -0.0096514 0)
(-0.0344695 -0.00986997 0)
(-0.0316849 -0.00998268 0)
(-0.0288755 -0.00998658 0)
(-0.02607 -0.00988039 0)
(-0.0232975 -0.00966458 0)
(-0.0205867 -0.00934151 0)
(-0.0179653 -0.00891544 0)
(-0.0154601 -0.00839262 0)
(-0.0130958 -0.0077813 0)
(-0.0108947 -0.00709178 0)
(-0.0088763 -0.00633641 0)
(-0.00705682 -0.00552971 0)
(-0.00544847 -0.00468837 0)
(-0.00405909 -0.00383147 0)
(-0.00289167 -0.00298068 0)
(-0.00194397 -0.00216055 0)
(-0.00120804 -0.00139899 0)
(-0.000669977 -0.000727807 0)
(-0.00030961 -0.000183452 0)
(-0.000100145 0.000192308 0)
(-7.8523e-06 0.000351399 0)
(6.8287e-06 0.000234494 0)
(-3.63189e-05 0.000160552 0)
(-0.000266726 0.000814308 0)
(-0.000793038 0.00167888 0)
(-0.00158414 0.00266438 0)
(-0.00262586 0.00370522 0)
(-0.00391066 0.00475144 0)
(-0.00542657 0.00576606 0)
(-0.00715831 0.00672285 0)
(-0.00908858 0.00760405 0)
(-0.0111985 0.00839839 0)
(-0.0134682 0.00909957 0)
(-0.0158771 0.00970486 0)
(-0.0184043 0.0102141 0)
(-0.0210291 0.0106288 0)
(-0.0237307 0.0109515 0)
(-0.026489 0.0111852 0)
(-0.0292842 0.0113332 0)
(-0.0320967 0.0113984 0)
(-0.0349078 0.0113836 0)
(-0.0376988 0.011291 0)
(-0.0404516 0.0111227 0)
(-0.0431482 0.0108801 0)
(-0.0457709 0.0105644 0)
(-0.0483025 0.0101764 0)
(-0.0507258 0.00971707 0)
(-0.0530238 0.00918707 0)
(-0.0551801 0.0085874 0)
(-0.0571783 0.0079193 0)
(-0.0590028 0.00718443 0)
(-0.0606383 0.00638504 0)
(-0.0620704 0.00552402 0)
(-0.0632857 0.00460507 0)
(-0.0642715 0.00363274 0)
(-0.0650166 0.00261252 0)
(-0.0655113 0.00155086 0)
(-0.0657474 0.000455234 0)
(-0.0657185 -0.000665947 0)
(-0.0654204 -0.0018033 0)
(-0.0648511 -0.00294658 0)
(-0.0640109 -0.00408472 0)
(-0.0629026 -0.00520602 0)
(-0.0615317 -0.00629822 0)
(-0.0599065 -0.00734872 0)
(-0.0580379 -0.00834475 0)
(-0.0559398 -0.0092736 0)
(-0.0536288 -0.0101228 0)
(-0.051124 -0.0108805 0)
(-0.0484472 -0.0115354 0)
(-0.0456226 -0.0120774 0)
(-0.0426764 -0.0124976 0)
(-0.0396368 -0.0127886 0)
(-0.0365333 -0.0129447 0)
(-0.0333967 -0.0129621 0)
(-0.0302584 -0.0128391 0)
(-0.0271501 -0.0125763 0)
(-0.0241032 -0.0121765 0)
(-0.0211484 -0.0116452 0)
(-0.0183148 -0.0109901 0)
(-0.0156298 -0.0102217 0)
(-0.0131183 -0.00935287 0)
(-0.0108023 -0.00839932 0)
(-0.0086999 -0.00737926 0)
(-0.00682546 -0.00631366 0)
(-0.00518856 -0.00522632 0)
(-0.00379381 -0.00414405 0)
(-0.00264038 -0.00309696 0)
(-0.00172172 -0.00211881 0)
(-0.00102528 -0.00124752 0)
(-0.000532274 -0.00052584 0)
(-0.000217389 -1.9416e-06 0)
(-5.05592e-05 0.000269689 0)
(-1.0985e-07 0.000223286 0)
(-4.70221e-05 0.000310895 0)
(-0.000332321 0.00125632 0)
(-0.000970855 0.00240426 0)
(-0.0019152 0.00366371 0)
(-0.00314137 0.00496703 0)
(-0.004636 0.00626196 0)
(-0.0063823 0.00750932 0)
(-0.00836101 0.00868094 0)
(-0.0105516 0.00975754 0)
(-0.0129328 0.0107268 0)
(-0.0154824 0.0115816 0)
(-0.0181781 0.012319 0)
(-0.0209973 0.0129387 0)
(-0.0239177 0.0134424 0)
(-0.0269172 0.0138329 0)
(-0.0299743 0.0141137 0)
(-0.0330676 0.0142883 0)
(-0.0361764 0.0143603 0)
(-0.0392804 0.0143327 0)
(-0.0423595 0.0142083 0)
(-0.0453942 0.0139893 0)
(-0.048365 0.0136775 0)
(-0.051253 0.0132742 0)
(-0.0540394 0.0127808 0)
(-0.0567056 0.0121982 0)
(-0.0592333 0.0115274 0)
(-0.0616047 0.01077 0)
(-0.0638022 0.00992742 0)
(-0.0658089 0.00900201 0)
(-0.0676083 0.00799668 0)
(-0.0691851 0.00691516 0)
(-0.0705245 0.00576218 0)
(-0.0716132 0.00454349 0)
(-0.072439 0.00326599 0)
(-0.0729914 0.00193774 0)
(-0.0732617 0.000568007 0)
(-0.073243 -0.000832776 0)
(-0.0729306 -0.00225303 0)
(-0.0723223 -0.00368012 0)
(-0.0714182 -0.00510046 0)
(-0.0702214 -0.00649967 0)
(-0.0687374 -0.00786271 0)
(-0.0669748 -0.00917415 0)
(-0.0649454 -0.0104183 0)
(-0.0626635 -0.0115797 0)
(-0.0601466 -0.0126429 0)
(-0.0574153 -0.0135933 0)
(-0.0544924 -0.0144173 0)
(-0.0514038 -0.0151023 0)
(-0.0481774 -0.0156374 0)
(-0.0448433 -0.0160133 0)
(-0.0414332 -0.0162229 0)
(-0.0379801 -0.0162616 0)
(-0.0345179 -0.0161271 0)
(-0.0310808 -0.0158199 0)
(-0.0277028 -0.0153434 0)
(-0.0244171 -0.0147041 0)
(-0.0212559 -0.0139113 0)
(-0.018249 -0.0129778 0)
(-0.015424 -0.0119194 0)
(-0.0128052 -0.0107549 0)
(-0.0104134 -0.00950654 0)
(-0.00826508 -0.00819971 0)
(-0.00637189 -0.00686308 0)
(-0.00474043 -0.00552879 0)
(-0.00337176 -0.00423255 0)
(-0.00226111 -0.00301401 0)
(-0.00139781 -0.00191714 0)
(-0.000764914 -0.000990741 0)
(-0.000339048 -0.000288935 0)
(-9.42354e-05 0.000128177 0)
(-6.96191e-06 0.000189836 0)
(-5.72802e-05 0.000494387 0)
(-0.000396198 0.00178619 0)
(-0.00114534 0.00326202 0)
(-0.00224156 0.00483133 0)
(-0.00365114 0.00642594 0)
(-0.00535478 0.00799262 0)
(-0.00733057 0.0094911 0)
(-0.00955496 0.0108922 0)
(-0.0120041 0.0121759 0)
(-0.0146537 0.0133292 0)
(-0.0174795 0.0143449 0)
(-0.0204571 0.0152198 0)
(-0.0235624 0.0159538 0)
(-0.0267715 0.0165488 0)
(-0.0300611 0.0170082 0)
(-0.0334082 0.0173357 0)
(-0.0367904 0.0175354 0)
(-0.0401855 0.0176112 0)
(-0.0435721 0.0175667 0)
(-0.046929 0.0174049 0)
(-0.0502352 0.0171283 0)
(-0.0534703 0.0167391 0)
(-0.0566139 0.0162388 0)
(-0.0596461 0.0156291 0)
(-0.062547 0.0149111 0)
(-0.0652973 0.0140863 0)
(-0.0678777 0.0131564 0)
(-0.0702697 0.0121236 0)
(-0.0724552 0.0109907 0)
(-0.0744167 0.00976137 0)
(-0.0761377 0.0084403 0)
(-0.0776027 0.00703329 0)
(-0.0787973 0.00554737 0)
(-0.0797085 0.00399092 0)
(-0.0803252 0.00237372 0)
(-0.0806378 0.000706931 0)
(-0.0806389 -0.000996893 0)
(-0.0803234 -0.00272386 0)
(-0.0796885 -0.00445883 0)
(-0.0787343 -0.00618554 0)
(-0.0774634 -0.00788681 0)
(-0.0758815 -0.00954467 0)
(-0.0739975 -0.0111407 0)
(-0.0718231 -0.0126561 0)
(-0.0693734 -0.0140723 0)
(-0.0666666 -0.015371 0)
(-0.0637238 -0.0165347 0)
(-0.0605692 -0.0175469 0)
(-0.0572299 -0.0183924 0)
(-0.0537353 -0.0190582 0)
(-0.0501173 -0.0195329 0)
(-0.0464094 -0.019808 0)
(-0.0426468 -0.0198775 0)
(-0.0388658 -0.0197386 0)
(-0.035103 -0.0193916 0)
(-0.031395 -0.0188403 0)
(-0.0277779 -0.0180922 0)
(-0.0242864 -0.0171583 0)
(-0.0209533 -0.0160536 0)
(-0.0178088 -0.0147967 0)
(-0.0148802 -0.0134099 0)
(-0.0121908 -0.0119194 0)
(-0.00975959 -0.0103552 0)
(-0.00760075 -0.00875091 0)
(-0.00572321 -0.0071441 0)
(-0.00413027 -0.00557618 0)
(-0.00281939 -0.0040927 0)
(-0.00178209 -0.00274359 0)
(-0.00100367 -0.00158352 0)
(-0.000462913 -0.000672207 0)
(-0.000138066 -7.47481e-05 0)
(-1.3612e-05 0.000134063 0)
(-6.71097e-05 0.000709993 0)
(-0.00045813 0.00240199 0)
(-0.00131549 0.00425006 0)
(-0.002561 0.00616529 0)
(-0.00415149 0.00808016 0)
(-0.00606168 0.00994167 0)
(-0.00826445 0.0117095 0)
(-0.0107318 0.0133544 0)
(-0.0134363 0.0148563 0)
(-0.0163507 0.0162022 0)
(-0.0194483 0.017385 0)
(-0.0227029 0.0184019 0)
(-0.0260884 0.0192532 0)
(-0.0295798 0.0199412 0)
(-0.0331522 0.0204696 0)
(-0.0367816 0.0208429 0)
(-0.0404443 0.0210656 0)
(-0.0441172 0.0211421 0)
(-0.0477778 0.0210762 0)
(-0.0514038 0.0208714 0)
(-0.0549732 0.0205307 0)
(-0.0584644 0.0200562 0)
(-0.0618562 0.0194501 0)
(-0.0651274 0.0187139 0)
(-0.0682572 0.0178494 0)
(-0.0712251 0.0168582 0)
(-0.0740109 0.0157425 0)
(-0.0765951 0.014505 0)
(-0.0789585 0.0131491 0)
(-0.0810827 0.0116793 0)
(-0.0829502 0.0101013 0)
(-0.0845445 0.00842186 0)
(-0.0858504 0.00664949 0)
(-0.0868541 0.00479407 0)
(-0.0875436 0.00286715 0)
(-0.0879085 0.000881853 0)
(-0.0879409 -0.00114706 0)
(-0.0876349 -0.00320329 0)
(-0.0869872 -0.00526911 0)
(-0.0859974 -0.00732549 0)
(-0.0846678 -0.00935229 0)
(-0.0830039 -0.0113285 0)
(-0.0810142 -0.0132325 0)
(-0.0787107 -0.0150423 0)
(-0.0761086 -0.0167362 0)
(-0.0732265 -0.0182925 0)
(-0.0700862 -0.0196907 0)
(-0.0667126 -0.0209112 0)
(-0.0631339 -0.0219363 0)
(-0.0593809 -0.0227501 0)
(-0.0554869 -0.0233393 0)
(-0.0514873 -0.0236935 0)
(-0.0474194 -0.0238053 0)
(-0.0433216 -0.0236711 0)
(-0.0392332 -0.0232908 0)
(-0.0351934 -0.0226686 0)
(-0.0312411 -0.0218128 0)
(-0.0274139 -0.020736 0)
(-0.0237476 -0.0194554 0)
(-0.0202755 -0.0179924 0)
(-0.0170279 -0.0163729 0)
(-0.0140309 -0.0146272 0)
(-0.0113066 -0.0127897 0)
(-0.00887191 -0.0108994 0)
(-0.00673851 -0.00899918 0)
(-0.00491229 -0.00713627 0)
(-0.00339325 -0.00536216 0)
(-0.00217548 -0.00373272 0)
(-0.00124668 -0.00230838 0)
(-0.000587976 -0.00115419 0)
(-0.000181725 -0.00033992 0)
(-2.00338e-05 5.61376e-05 0)
(-7.65354e-05 0.000956637 0)
(-0.000518015 0.00310143 0)
(-0.00148071 0.0053655 0)
(-0.0028721 0.00766247 0)
(-0.00463988 0.00992653 0)
(-0.00675292 0.0121059 0)
(-0.00917887 0.0141612 0)
(-0.0118852 0.016064 0)
(-0.0148408 0.0177948 0)
(-0.0180155 0.0193413 0)
(-0.02138 0.0206971 0)
(-0.024906 0.0218599 0)
(-0.0285659 0.0228307 0)
(-0.032333 0.0236126 0)
(-0.0361814 0.02421 0)
(-0.0400858 0.0246278 0)
(-0.0440217 0.0248711 0)
(-0.0479649 0.0249448 0)
(-0.051892 0.0248532 0)
(-0.0557797 0.0246003 0)
(-0.0596053 0.024189 0)
(-0.0633463 0.0236221 0)
(-0.0669805 0.0229018 0)
(-0.0704858 0.0220301 0)
(-0.0738405 0.0210088 0)
(-0.0770233 0.0198401 0)
(-0.080013 0.0185265 0)
(-0.0827892 0.0170712 0)
(-0.0853317 0.0154784 0)
(-0.0876213 0.0137531 0)
(-0.0896396 0.0119022 0)
(-0.0913692 0.00993363 0)
(-0.0927939 0.00785715 0)
(-0.0938991 0.00568427 0)
(-0.0946719 0.00342831 0)
(-0.0951011 0.00110442 0)
(-0.0951779 -0.00127039 0)
(-0.0948955 -0.00367739 0)
(-0.0942502 -0.00609617 0)
(-0.0932405 -0.00850484 0)
(-0.0918684 -0.0108802 0)
(-0.0901387 -0.0131982 0)
(-0.0880597 -0.0154337 0)
(-0.085643 -0.0175616 0)
(-0.0829038 -0.0195565 0)
(-0.0798608 -0.0213935 0)
(-0.0765361 -0.0230486 0)
(-0.0729552 -0.0244991 0)
(-0.0691472 -0.0257242 0)
(-0.0651439 -0.0267053 0)
(-0.06098 -0.0274266 0)
(-0.0566928 -0.0278756 0)
(-0.0523215 -0.0280433 0)
(-0.0479068 -0.0279248 0)
(-0.0434904 -0.0275199 0)
(-0.0391145 -0.0268325 0)
(-0.0348207 -0.0258718 0)
(-0.0306499 -0.0246519 0)
(-0.0266411 -0.023192 0)
(-0.022831 -0.0215164 0)
(-0.0192531 -0.0196545 0)
(-0.0159371 -0.0176407 0)
(-0.012908 -0.0155142 0)
(-0.0101863 -0.0133189 0)
(-0.00778644 -0.0111036 0)
(-0.00571745 -0.00892134 0)
(-0.00398216 -0.00682951 0)
(-0.00257744 -0.00489001 0)
(-0.0014936 -0.00316903 0)
(-0.000714082 -0.0017369 0)
(-0.000225215 -0.0006679 0)
(-2.62541e-05 -4.37231e-05 0)
(-8.55792e-05 0.00123323 0)
(-0.000575806 0.00388196 0)
(-0.00164064 0.00660491 0)
(-0.00317388 0.00931896 0)
(-0.0051145 0.0119609 0)
(-0.00742568 0.014481 0)
(-0.0100699 0.0168418 0)
(-0.0130103 0.0190164 0)
(-0.0162118 0.0209866 0)
(-0.0196412 0.0227414 0)
(-0.0232669 0.0242755 0)
(-0.0270583 0.0255878 0)
(-0.0309863 0.0266802 0)
(-0.0350227 0.0275567 0)
(-0.0391403 0.0282225 0)
(-0.043313 0.0286832 0)
(-0.0475151 0.0289447 0)
(-0.0517218 0.0290124 0)
(-0.0559087 0.028891 0)
(-0.0600519 0.0285848 0)
(-0.064128 0.0280973 0)
(-0.0681136 0.0274314 0)
(-0.0719858 0.0265896 0)
(-0.0757218 0.025574 0)
(-0.0792991 0.024387 0)
(-0.0826956 0.0230308 0)
(-0.0858894 0.0215085 0)
(-0.0888591 0.0198238 0)
(-0.0915839 0.0179814 0)
(-0.0940435 0.0159873 0)
(-0.0962187 0.0138492 0)
(-0.0980913 0.0115763 0)
(-0.0996442 0.00917959 0)
(-0.100862 0.00667222 0)
(-0.10173 0.00406929 0)
(-0.102237 0.00138798 0)
(-0.102373 -0.00135246 0)
(-0.10213 -0.00413081 0)
(-0.101503 -0.00692396 0)
(-0.100491 -0.0097071 0)
(-0.0990935 -0.012454 0)
(-0.0973153 -0.0151371 0)
(-0.0951639 -0.0177281 0)
(-0.0926504 -0.0201981 0)
(-0.0897896 -0.0225184 0)
(-0.0866 -0.0246603 0)
(-0.0831038 -0.0265962 0)
(-0.0793269 -0.0283001 0)
(-0.0752988 -0.0297477 0)
(-0.0710525 -0.0309173 0)
(-0.0666239 -0.0317904 0)
(-0.0620518 -0.0323521 0)
(-0.0573775 -0.0325914 0)
(-0.0526438 -0.0325022 0)
(-0.0478952 -0.0320832 0)
(-0.0431767 -0.0313384 0)
(-0.0385332 -0.0302775 0)
(-0.0340088 -0.0289157 0)
(-0.0296463 -0.0272743 0)
(-0.0254858 -0.0253804 0)
(-0.0215647 -0.0232669 0)
(-0.0179163 -0.0209723 0)
(-0.0145694 -0.0185405 0)
(-0.011548 -0.016021 0)
(-0.00887009 -0.0134679 0)
(-0.00654798 -0.0109405 0)
(-0.00458768 -0.00850222 0)
(-0.00298905 -0.00622114 0)
(-0.00174513 -0.00416929 0)
(-0.000841682 -0.00242238 0)
(-0.000268758 -0.00105933 0)
(-3.23314e-05 -0.000165385 0)
(-9.42563e-05 0.00153867 0)
(-0.000631463 0.00474089 0)
(-0.00179498 0.00796448 0)
(-0.0034656 0.0111302 0)
(-0.00557396 0.0141782 0)
(-0.00807774 0.0170617 0)
(-0.0109345 0.0197458 0)
(-0.0141028 0.0222058 0)
(-0.017544 0.0244258 0)
(-0.021222 0.0263964 0)
(-0.0251023 0.0281142 0)
(-0.0291527 0.0295793 0)
(-0.033342 0.0307951 0)
(-0.0376409 0.0317667 0)
(-0.042021 0.0325003 0)
(-0.0464551 0.0330025 0)
(-0.0509168 0.0332799 0)
(-0.0553805 0.0333384 0)
(-0.0598213 0.0331834 0)
(-0.0642146 0.0328196 0)
(-0.0685361 0.0322507 0)
(-0.0727621 0.0314799 0)
(-0.0768691 0.0305101 0)
(-0.0808335 0.0293435 0)
(-0.0846323 0.0279827 0)
(-0.0882427 0.0264305 0)
(-0.0916421 0.0246901 0)
(-0.0948084 0.0227658 0)
(-0.0977199 0.0206629 0)
(-0.100356 0.0183882 0)
(-0.102696 0.0159502 0)
(-0.104721 0.0133592 0)
(-0.106412 0.0106277 0)
(-0.107755 0.0077703 0)
(-0.108732 0.00480381 0)
(-0.109332 0.00174744 0)
(-0.109543 -0.00137733 0)
(-0.109357 -0.00454679 0)
(-0.108767 -0.00773512 0)
(-0.10777 -0.0109146 0)
(-0.106365 -0.0140557 0)
(-0.104557 -0.0171276 0)
(-0.102351 -0.0200985 0)
(-0.0997581 -0.0229358 0)
(-0.0967919 -0.0256068 0)
(-0.0934705 -0.0280792 0)
(-0.089816 -0.0303216 0)
(-0.0858544 -0.032304 0)
(-0.0816156 -0.0339986 0)
(-0.0771332 -0.0353803 0)
(-0.0724443 -0.0364273 0)
(-0.0675893 -0.0371221 0)
(-0.0626113 -0.0374514 0)
(-0.0575555 -0.0374072 0)
(-0.0524692 -0.036987 0)
(-0.0474002 -0.0361946 0)
(-0.0423971 -0.0350398 0)
(-0.0375075 -0.0335389 0)
(-0.0327781 -0.0317151 0)
(-0.0282532 -0.0295981 0)
(-0.023974 -0.0272241 0)
(-0.0199783 -0.0246359 0)
(-0.0162989 -0.0218824 0)
(-0.0129637 -0.0190182 0)
(-0.00999484 -0.0161035 0)
(-0.00740808 -0.0132037 0)
(-0.00521297 -0.0103885 0)
(-0.0034126 -0.00773242 0)
(-0.00200281 -0.00531351 0)
(-0.000971653 -0.00321315 0)
(-0.000312724 -0.0015152 0)
(-3.83439e-05 -0.000308886 0)
(-0.000102575 0.00187186 0)
(-0.000684947 0.00567536 0)
(-0.0019435 0.0094401 0)
(-0.00374664 0.0130913 0)
(-0.00601706 0.0165729 0)
(-0.00870722 0.0198419 0)
(-0.0117698 0.0228668 0)
(-0.0151592 0.0256259 0)
(-0.0188332 0.0281057 0)
(-0.0227525 0.0302997 0)
(-0.0268804 0.0322062 0)
(-0.0311824 0.0338274 0)
(-0.0356259 0.0351684 0)
(-0.0401801 0.0362356 0)
(-0.0448156 0.0370366 0)
(-0.0495043 0.037579 0)
(-0.0542191 0.0378702 0)
(-0.0589337 0.0379169 0)
(-0.0636226 0.037725 0)
(-0.0682607 0.0372996 0)
(-0.0728233 0.0366449 0)
(-0.0772862 0.0357644 0)
(-0.0816254 0.034661 0)
(-0.0858168 0.0333374 0)
(-0.0898369 0.0317962 0)
(-0.0936624 0.0300406 0)
(-0.0972699 0.0280742 0)
(-0.100637 0.0259016 0)
(-0.103741 0.0235288 0)
(-0.10656 0.0209632 0)
(-0.109074 0.0182142 0)
(-0.111262 0.0152932 0)
(-0.113105 0.0122139 0)
(-0.114585 0.00899229 0)
(-0.115687 0.00564699 0)
(-0.116397 0.0021991 0)
(-0.1167 -0.00132769 0)
(-0.116589 -0.00490722 0)
(-0.116054 -0.00851098 0)
(-0.115092 -0.0121083 0)
(-0.113701 -0.0156664 0)
(-0.111882 -0.0191511 0)
(-0.10964 -0.0225269 0)
(-0.106986 -0.0257574 0)
(-0.103931 -0.0288059 0)
(-0.100494 -0.031636 0)
(-0.0966953 -0.0342122 0)
(-0.092561 -0.0365005 0)
(-0.0881211 -0.0384689 0)
(-0.0834098 -0.0400886 0)
(-0.0784652 -0.0413343 0)
(-0.0733291 -0.0421852 0)
(-0.0680464 -0.0426253 0)
(-0.0626648 -0.0426444 0)
(-0.0572343 -0.0422386 0)
(-0.0518061 -0.0414106 0)
(-0.0464322 -0.0401702 0)
(-0.0411645 -0.0385347 0)
(-0.0360536 -0.0365288 0)
(-0.0311484 -0.0341846 0)
(-0.0264949 -0.0315418 0)
(-0.0221352 -0.0286474 0)
(-0.0181069 -0.025555 0)
(-0.0144423 -0.022325 0)
(-0.0111679 -0.0190235 0)
(-0.00830348 -0.0157222 0)
(-0.00586242 -0.0124978 0)
(-0.00385124 -0.00943117 0)
(-0.00226873 -0.00660689 0)
(-0.00110518 -0.00411241 0)
(-0.000357586 -0.002037 0)
(-4.43816e-05 -0.000474493 0)
(-0.000110535 0.00223167 0)
(-0.000736196 0.00668244 0)
(-0.00208594 0.0110274 0)
(-0.0040164 0.0151966 0)
(-0.00644272 0.0191387 0)
(-0.0093124 0.0228149 0)
(-0.0125735 0.0261977 0)
(-0.0161764 0.0292691 0)
(-0.0200753 0.032019 0)
(-0.024228 0.0344436 0)
(-0.0285955 0.036544 0)
(-0.0331413 0.0383247 0)
(-0.0378311 0.0397927 0)
(-0.042633 0.0409563 0)
(-0.0475165 0.0418244 0)
(-0.0524527 0.042406 0)
(-0.0574137 0.0427093 0)
(-0.062373 0.0427419 0)
(-0.0673043 0.0425104 0)
(-0.0721823 0.0420203 0)
(-0.0769819 0.0412763 0)
(-0.0816785 0.040282 0)
(-0.0862477 0.0390406 0)
(-0.0906652 0.0375551 0)