/*--------------------------------*- C++ -*----------------------------------*\
  =========                 |
  \\      /  F ield         | OpenFOAM: The Open Source CFD Toolbox
   \\    /   O peration     | Website:  https://openfoam.org
    \\  /    A nd           | Version:  dev
     \\/     M anipulation  |
\*---------------------------------------------------------------------------*/
FoamFile
{
    format      ascii;
    class       volScalarField;
    location    "19.35";
    object      Ux;
}
// * * * * * * * * * * * * * * * * * * * * * * * * * * * * * * * * * * * * * //

dimensions      [0 1 -1 0 0 0 0];

internalField   nonuniform List<scalar> 
5184
(
1.2472e-05
4.53472e-05
8.02969e-05
9.57957e-05
8.18875e-05
3.61701e-05
-4.0826e-05
-0.000147087
-0.000279823
-0.000435979
-0.00061244
-0.000806175
-0.00101432
-0.00123421
-0.00146339
-0.00169961
-0.00194079
-0.00218502
-0.00243052
-0.00267561
-0.00291869
-0.00315818
-0.00339258
-0.00362035
-0.00383997
-0.0040499
-0.00424858
-0.00443446
-0.00460595
-0.00476147
-0.00489946
-0.00501842
-0.00511687
-0.00519344
-0.00524688
-0.00527606
-0.00528005
-0.00525813
-0.00520978
-0.00513478
-0.0050332
-0.0049054
-0.00475209
-0.00457433
-0.00437351
-0.00415139
-0.00391006
-0.00365194
-0.00337975
-0.0030965
-0.00280541
-0.00250991
-0.00221357
-0.00192002
-0.00163295
-0.00135599
-0.00109267
-0.000846368
-0.000620214
-0.000417063
-0.00023941
-8.93335e-05
3.15802e-05
0.000122315
0.000182538
0.000212748
0.000214529
0.000190923
0.000146951
9.06937e-05
3.65989e-05
6.22647e-06
2.09435e-05
6.57109e-05
9.46204e-05
7.25503e-05
-1.92632e-05
-0.000187634
-0.000433146
-0.000752583
-0.00114041
-0.00158985
-0.00209356
-0.00264411
-0.00323419
-0.00385681
-0.00450539
-0.00517373
-0.00585603
-0.00654687
-0.0072411
-0.00793385
-0.00862043
-0.00929629
-0.00995696
-0.010598
-0.0112151
-0.0118037
-0.0123596
-0.0128782
-0.0133552
-0.0137863
-0.0141672
-0.0144939
-0.0147624
-0.0149691
-0.0151108
-0.0151846
-0.0151882
-0.0151198
-0.0149782
-0.0147631
-0.0144749
-0.0141148
-0.0136848
-0.0131882
-0.0126287
-0.0120112
-0.0113415
-0.0106263
-0.00987274
-0.00908908
-0.00828395
-0.00746654
-0.00664635
-0.00583312
-0.00503662
-0.00426649
-0.00353212
-0.00284241
-0.00220564
-0.00162927
-0.00111979
-0.000682479
-0.000321261
-3.84178e-05
0.000165676
0.000292937
0.0003481
0.00033942
0.000279367
0.000185769
8.62594e-05
1.96609e-05
1.76533e-05
4.13084e-05
1.94724e-05
-8.41966e-05
-0.000290434
-0.000607958
-0.00103801
-0.00157679
-0.00221713
-0.00294985
-0.00376469
-0.00465094
-0.00559789
-0.0065951
-0.00763252
-0.0087006
-0.00979028
-0.0108929
-0.0120004
-0.0131048
-0.0141987
-0.0152745
-0.0163252
-0.0173435
-0.0183224
-0.019255
-0.020134
-0.0209527
-0.0217041
-0.0223815
-0.0229784
-0.0234883
-0.0239055
-0.0242244
-0.0244402
-0.0245487
-0.0245464
-0.0244308
-0.0242006
-0.0238552
-0.0233955
-0.0228238
-0.0221434
-0.0213591
-0.0204773
-0.0195055
-0.0184527
-0.017329
-0.0161458
-0.0149155
-0.0136515
-0.0123677
-0.0110787
-0.0097992
-0.00854421
-0.00732835
-0.00616586
-0.00507025
-0.00405406
-0.00312856
-0.00230347
-0.00158669
-0.000983939
-0.000498466
-0.000130589
0.000122754
0.000268642
0.000318895
0.000290619
0.000207009
0.000102287
2.49436e-05
8.82615e-06
-7.0662e-06
-0.000107656
-0.000322388
-0.000669462
-0.00115725
-0.00178649
-0.00255241
-0.00344647
-0.00445766
-0.00557349
-0.00678079
-0.00806616
-0.00941636
-0.0108185
-0.0122602
-0.0137295
-0.015215
-0.0167058
-0.0181915
-0.0196617
-0.0211065
-0.0225162
-0.0238812
-0.0251918
-0.0264387
-0.0276125
-0.028704
-0.029704
-0.0306037
-0.0313946
-0.0320684
-0.0326175
-0.0330349
-0.0333144
-0.0334508
-0.0334398
-0.0332784
-0.032965
-0.0324992
-0.0318825
-0.0311179
-0.0302101
-0.0291656
-0.0279927
-0.0267012
-0.0253031
-0.0238114
-0.0222411
-0.0206083
-0.01893
-0.0172245
-0.0155105
-0.0138071
-0.0121336
-0.0105088
-0.00895103
-0.00747781
-0.00610521
-0.00484771
-0.00371781
-0.00272561
-0.00187843
-0.0011804
-0.000632021
-0.000229584
3.53613e-05
0.000176683
0.000214074
0.000173662
9.28411e-05
2.39882e-05
-2.13925e-06
-6.73123e-05
-0.000264056
-0.000609518
-0.00111616
-0.00179018
-0.00263056
-0.00363093
-0.00478118
-0.00606859
-0.00747883
-0.00899667
-0.0106065
-0.0122929
-0.0140404
-0.0158344
-0.0176604
-0.0195046
-0.0213537
-0.0231947
-0.0250151
-0.0268026
-0.028545
-0.0302306
-0.0318474
-0.033384
-0.0348288
-0.0361704
-0.037398
-0.0385006
-0.0394681
-0.0402905
-0.0409589
-0.0414649
-0.0418012
-0.0419616
-0.0419415
-0.0417372
-0.0413471
-0.0407712
-0.0400113
-0.0390713
-0.0379569
-0.0366762
-0.0352392
-0.0336578
-0.0319463
-0.0301206
-0.0281983
-0.0261988
-0.0241425
-0.0220511
-0.019947
-0.017853
-0.0157919
-0.0137863
-0.0118581
-0.0100282
-0.00831562
-0.00673782
-0.0053097
-0.00404339
-0.00294775
-0.00202793
-0.00128488
-0.000714853
-0.000308878
-5.22148e-05
7.598e-05
0.00010317
6.73191e-05
1.96255e-05
-1.37001e-05
-0.000132791
-0.00043559
-0.000924034
-0.00160273
-0.00247423
-0.00353469
-0.00477541
-0.0061843
-0.00774686
-0.00944697
-0.0112676
-0.0131913
-0.0152005
-0.0172779
-0.0194068
-0.0215706
-0.0237534
-0.0259397
-0.0281145
-0.030263
-0.0323709
-0.034424
-0.0364084
-0.0383102
-0.040116
-0.0418123
-0.043386
-0.0448242
-0.0461146
-0.0472454
-0.0482053
-0.0489839
-0.049572
-0.0499611
-0.0501446
-0.050117
-0.0498746
-0.0494156
-0.0487401
-0.0478506
-0.0467514
-0.0454495
-0.043954
-0.0422765
-0.0404307
-0.038433
-0.0363013
-0.034056
-0.031719
-0.0293137
-0.0268648
-0.0243977
-0.0219385
-0.0195132
-0.0171477
-0.014867
-0.0126948
-0.0106532
-0.00876217
-0.00703891
-0.00549751
-0.00414845
-0.00299809
-0.00204822
-0.00129557
-0.000731405
-0.000341015
-0.000103482
8.78499e-06
3.23285e-05
1.3584e-05
-2.51794e-05
-0.000199889
-0.00061362
-0.00125188
-0.00211019
-0.00318639
-0.00447292
-0.00595806
-0.00762732
-0.00946419
-0.0114507
-0.013568
-0.015797
-0.0181184
-0.0205132
-0.0229627
-0.0254487
-0.0279533
-0.0304593
-0.0329497
-0.035408
-0.0378179
-0.0401633
-0.0424286
-0.0445981
-0.0466565
-0.0485888
-0.0503801
-0.0520161
-0.053483
-0.0547676
-0.0558573
-0.0567407
-0.0574075
-0.0578486
-0.0580564
-0.0580252
-0.057751
-0.0572319
-0.0564681
-0.0554623
-0.0542197
-0.0527478
-0.0510569
-0.0491597
-0.0470717
-0.0448106
-0.0423965
-0.0398519
-0.0372009
-0.0344695
-0.0316849
-0.0288755
-0.02607
-0.0232975
-0.0205867
-0.0179653
-0.0154601
-0.0130958
-0.0108947
-0.0088763
-0.00705682
-0.00544847
-0.00405909
-0.00289167
-0.00194397
-0.00120804
-0.000669977
-0.00030961
-0.000100145
-7.8523e-06
6.8287e-06
-3.63189e-05
-0.000266726
-0.000793038
-0.00158414
-0.00262586
-0.00391066
-0.00542657
-0.00715831
-0.00908858
-0.0111985
-0.0134682
-0.0158771
-0.0184043
-0.0210291
-0.0237307
-0.026489
-0.0292842
-0.0320967
-0.0349078
-0.0376988
-0.0404516
-0.0431482
-0.0457709
-0.0483025
-0.0507258
-0.0530238
-0.0551801
-0.0571783
-0.0590028
-0.0606383
-0.0620704
-0.0632857
-0.0642715
-0.0650166
-0.0655113
-0.0657474
-0.0657185
-0.0654204
-0.0648511
-0.0640109
-0.0629026
-0.0615317
-0.0599065
-0.0580379
-0.0559398
-0.0536288
-0.051124
-0.0484472
-0.0456226
-0.0426764
-0.0396368
-0.0365333
-0.0333967
-0.0302584
-0.0271501
-0.0241032
-0.0211484
-0.0183148
-0.0156298
-0.0131183
-0.0108023
-0.0086999
-0.00682546
-0.00518856
-0.00379381
-0.00264038
-0.00172172
-0.00102528
-0.000532274
-0.000217389
-5.05592e-05
-1.0985e-07
-4.70221e-05
-0.000332321
-0.000970855
-0.0019152
-0.00314137
-0.004636
-0.0063823
-0.00836101
-0.0105516
-0.0129328
-0.0154824
-0.0181781
-0.0209973
-0.0239177
-0.0269172
-0.0299743
-0.0330676
-0.0361764
-0.0392804
-0.0423595
-0.0453942
-0.048365
-0.051253
-0.0540394
-0.0567056
-0.0592333
-0.0616047
-0.0638022
-0.0658089
-0.0676083
-0.0691851
-0.0705245
-0.0716132
-0.072439
-0.0729914
-0.0732617
-0.073243
-0.0729306
-0.0723223
-0.0714182
-0.0702214
-0.0687374
-0.0669748
-0.0649454
-0.0626635
-0.0601466
-0.0574153
-0.0544924
-0.0514038
-0.0481774
-0.0448433
-0.0414332
-0.0379801
-0.0345179
-0.0310808
-0.0277028
-0.0244171
-0.0212559
-0.018249
-0.015424
-0.0128052
-0.0104134
-0.00826508
-0.00637189
-0.00474043
-0.00337176
-0.00226111
-0.00139781
-0.000764914
-0.000339048
-9.42354e-05
-6.96191e-06
-5.72802e-05
-0.000396198
-0.00114534
-0.00224156
-0.00365114
-0.00535478
-0.00733057
-0.00955496
-0.0120041
-0.0146537
-0.0174795
-0.0204571
-0.0235624
-0.0267715
-0.0300611
-0.0334082
-0.0367904
-0.0401855
-0.0435721
-0.046929
-0.0502352
-0.0534703
-0.0566139
-0.0596461
-0.062547
-0.0652973
-0.0678777
-0.0702697
-0.0724552
-0.0744167
-0.0761377
-0.0776027
-0.0787973
-0.0797085
-0.0803252
-0.0806378
-0.0806389
-0.0803234
-0.0796885
-0.0787343
-0.0774634
-0.0758815
-0.0739975
-0.0718231
-0.0693734
-0.0666666
-0.0637238
-0.0605692
-0.0572299
-0.0537353
-0.0501173
-0.0464094
-0.0426468
-0.0388658
-0.035103
-0.031395
-0.0277779
-0.0242864
-0.0209533
-0.0178088
-0.0148802
-0.0121908
-0.00975959
-0.00760075
-0.00572321
-0.00413027
-0.00281939
-0.00178209
-0.00100367
-0.000462913
-0.000138066
-1.3612e-05
-6.71097e-05
-0.00045813
-0.00131549
-0.002561
-0.00415149
-0.00606168
-0.00826445
-0.0107318
-0.0134363
-0.0163507
-0.0194483
-0.0227029
-0.0260884
-0.0295798
-0.0331522
-0.0367816
-0.0404443
-0.0441172
-0.0477778
-0.0514038
-0.0549732
-0.0584644
-0.0618562
-0.0651274
-0.0682572
-0.0712251
-0.0740109
-0.0765951
-0.0789585
-0.0810827
-0.0829502
-0.0845445
-0.0858504
-0.0868541
-0.0875436
-0.0879085
-0.0879409
-0.0876349
-0.0869872
-0.0859974
-0.0846678
-0.0830039
-0.0810142
-0.0787107
-0.0761086
-0.0732265
-0.0700862
-0.0667126
-0.0631339
-0.0593809
-0.0554869
-0.0514873
-0.0474194
-0.0433216
-0.0392332
-0.0351934
-0.0312411
-0.0274139
-0.0237476
-0.0202755
-0.0170279
-0.0140309
-0.0113066
-0.00887191
-0.00673851
-0.00491229
-0.00339325
-0.00217548
-0.00124668
-0.000587976
-0.000181725
-2.00338e-05
-7.65354e-05
-0.000518015
-0.00148071
-0.0028721
-0.00463988
-0.00675292
-0.00917887
-0.0118852
-0.0148408
-0.0180155
-0.02138
-0.024906
-0.0285659
-0.032333
-0.0361814
-0.0400858
-0.0440217
-0.0479649
-0.051892
-0.0557797
-0.0596053
-0.0633463
-0.0669805
-0.0704858
-0.0738405
-0.0770233
-0.080013
-0.0827892
-0.0853317
-0.0876213
-0.0896396
-0.0913692
-0.0927939
-0.0938991
-0.0946719
-0.0951011
-0.0951779
-0.0948955
-0.0942502
-0.0932405
-0.0918684
-0.0901387
-0.0880597
-0.085643
-0.0829038
-0.0798608
-0.0765361
-0.0729552
-0.0691472
-0.0651439
-0.06098
-0.0566928
-0.0523215
-0.0479068
-0.0434904
-0.0391145
-0.0348207
-0.0306499
-0.0266411
-0.022831
-0.0192531
-0.0159371
-0.012908
-0.0101863
-0.00778644
-0.00571745
-0.00398216
-0.00257744
-0.0014936
-0.000714082
-0.000225215
-2.62541e-05
-8.55792e-05
-0.000575806
-0.00164064
-0.00317388
-0.0051145
-0.00742568
-0.0100699
-0.0130103
-0.0162118
-0.0196412
-0.0232669
-0.0270583
-0.0309863
-0.0350227
-0.0391403
-0.043313
-0.0475151
-0.0517218
-0.0559087
-0.0600519
-0.064128
-0.0681136
-0.0719858
-0.0757218
-0.0792991
-0.0826956
-0.0858894
-0.0888591
-0.0915839
-0.0940435
-0.0962187
-0.0980913
-0.0996442
-0.100862
-0.10173
-0.102237
-0.102373
-0.10213
-0.101503
-0.100491
-0.0990935
-0.0973153
-0.0951639
-0.0926504
-0.0897896
-0.0866
-0.0831038
-0.0793269
-0.0752988
-0.0710525
-0.0666239
-0.0620518
-0.0573775
-0.0526438
-0.0478952
-0.0431767
-0.0385332
-0.0340088
-0.0296463
-0.0254858
-0.0215647
-0.0179163
-0.0145694
-0.011548
-0.00887009
-0.00654798
-0.00458768
-0.00298905
-0.00174513
-0.000841682
-0.000268758
-3.23314e-05
-9.42563e-05
-0.000631463
-0.00179498
-0.0034656
-0.00557396
-0.00807774
-0.0109345
-0.0141028
-0.017544
-0.021222
-0.0251023
-0.0291527
-0.033342
-0.0376409
-0.042021
-0.0464551
-0.0509168
-0.0553805
-0.0598213
-0.0642146
-0.0685361
-0.0727621
-0.0768691
-0.0808335
-0.0846323
-0.0882427
-0.0916421
-0.0948084
-0.0977199
-0.100356
-0.102696
-0.104721
-0.106412
-0.107755
-0.108732
-0.109332
-0.109543
-0.109357
-0.108767
-0.10777
-0.106365
-0.104557
-0.102351
-0.0997581
-0.0967919
-0.0934705
-0.089816
-0.0858544
-0.0816156
-0.0771332
-0.0724443
-0.0675893
-0.0626113
-0.0575555
-0.0524692
-0.0474002
-0.0423971
-0.0375075
-0.0327781
-0.0282532
-0.023974
-0.0199783
-0.0162989
-0.0129637
-0.00999484
-0.00740808
-0.00521297
-0.0034126
-0.00200281
-0.000971653
-0.000312724
-3.83439e-05
-0.000102575
-0.000684947
-0.0019435
-0.00374664
-0.00601706
-0.00870722
-0.0117698
-0.0151592
-0.0188332
-0.0227525
-0.0268804
-0.0311824
-0.0356259
-0.0401801
-0.0448156
-0.0495043
-0.0542191
-0.0589337
-0.0636226
-0.0682607
-0.0728233
-0.0772862
-0.0816254
-0.0858168
-0.0898369
-0.0936624
-0.0972699
-0.100637
-0.103741
-0.10656
-0.109074
-0.111262
-0.113105
-0.114585
-0.115687
-0.116397
-0.1167
-0.116589
-0.116054
-0.115092
-0.113701
-0.111882
-0.10964
-0.106986
-0.103931
-0.100494
-0.0966953
-0.092561
-0.0881211
-0.0834098
-0.0784652
-0.0733291
-0.0680464
-0.0626648
-0.0572343
-0.0518061
-0.0464322
-0.0411645
-0.0360536
-0.0311484
-0.0264949
-0.0221352
-0.0181069
-0.0144423
-0.0111679
-0.00830348
-0.00586242
-0.00385124
-0.00226873
-0.00110518
-0.000357586
-4.43816e-05
-0.000110535
-0.000736196
-0.00208594
-0.0040164
-0.00644272
-0.0093124
-0.0125735
-0.0161764
-0.0200753
-0.024228
-0.0285955
-0.0331413
-0.0378311
-0.042633
-0.0475165
-0.0524527
-0.0574137
-0.062373
-0.0673043
-0.0721823
-0.0769819
-0.0816785
-0.0862477
-0.0906652
-0.094907
-0.0989492
-0.102768
-0.106341
-0.109644
-0.112654
-0.115352
-0.117714
-0.119721
-0.121355
-0.122598
-0.123434
-0.123849
-0.123832
-0.123373
-0.122467
-0.121109
-0.1193
-0.117044
-0.114348
-0.111224
-0.107687
-0.103759
-0.0994654
-0.0948351
-0.0899029
-0.0847078
-0.0792928
-0.0737047
-0.0679936
-0.0622123
-0.0564155
-0.050659
-0.044999
-0.0394909
-0.0341884
-0.0291426
-0.0244006
-0.0200053
-0.015994
-0.0123977
-0.00924104
-0.00654132
-0.00430882
-0.00254541
-0.00124365
-0.000403887
-5.05424e-05
-0.000118131
-0.000785131
-0.00222202
-0.00427425
-0.00684985
-0.00989162
-0.0133433
-0.0171512
-0.0212664
-0.0256439
-0.0302422
-0.0350231
-0.0399509
-0.0449922
-0.0501157
-0.0552918
-0.0604921
-0.0656894
-0.0708574
-0.0759702
-0.0810026
-0.0859298
-0.090727
-0.0953698
-0.0998338
-0.104095
-0.108129
-0.111912
-0.115421
-0.118632
-0.121523
-0.124072
-0.126257
-0.128059
-0.12946
-0.130441
-0.130987
-0.131085
-0.130724
-0.129895
-0.128594
-0.126818
-0.124568
-0.121852
-0.118678
-0.115061
-0.111021
-0.106582
-0.101773
-0.0966295
-0.0911903
-0.0854997
-0.0796062
-0.0735623
-0.0674238
-0.0612489
-0.0550977
-0.0490309
-0.0431089
-0.0373909
-0.0319333
-0.0267893
-0.0220072
-0.0176299
-0.0136939
-0.0102284
-0.00725561
-0.00478962
-0.00283565
-0.00138862
-0.000452216
-5.69284e-05
-0.00012535
-0.000831647
-0.0023514
-0.00451952
-0.00723732
-0.0104432
-0.0140767
-0.0180806
-0.0224027
-0.0269954
-0.0318152
-0.0368218
-0.0419782
-0.0472501
-0.0526051
-0.058013
-0.0634449
-0.0688734
-0.0742717
-0.0796139
-0.0848747
-0.090029
-0.095052
-0.0999192
-0.104606
-0.109088
-0.11334
-0.117339
-0.121061
-0.124481
-0.127576
-0.130324
-0.132701
-0.134688
-0.136263
-0.137408
-0.138106
-0.138341
-0.1381
-0.137372
-0.136151
-0.134431
-0.132212
-0.129497
-0.126296
-0.122619
-0.118485
-0.113918
-0.108945
-0.103602
-0.0979265
-0.0919652
-0.0857678
-0.0793891
-0.0728879
-0.066326
-0.059768
-0.0532796
-0.0469265
-0.0407738
-0.0348841
-0.0293168
-0.0241265
-0.0193623
-0.0150665
-0.011274
-0.0080117
-0.00529828
-0.00314249
-0.00154174
-0.000503193
-6.36445e-05
-0.000132173
-0.000875619
-0.00247374
-0.0047515
-0.00760395
-0.0109653
-0.0147714
-0.0189615
-0.0234803
-0.0282781
-0.0333089
-0.0385311
-0.0439062
-0.0493989
-0.0549761
-0.060607
-0.0662624
-0.0719143
-0.0775362
-0.0831019
-0.088586
-0.0939635
-0.0992096
-0.1043
-0.109209
-0.113913
-0.118387
-0.122607
-0.126548
-0.130185
-0.133495
-0.136454
-0.139038
-0.141224
-0.142992
-0.144321
-0.14519
-0.145584
-0.145486
-0.144884
-0.143767
-0.142129
-0.139965
-0.137278
-0.134073
-0.130359
-0.126153
-0.121476
-0.116356
-0.110826
-0.104926
-0.0987007
-0.0922028
-0.085489
-0.0786209
-0.0716643
-0.0646882
-0.0577635
-0.050962
-0.044355
-0.0380118
-0.0319988
-0.0263775
-0.0212037
-0.0165263
-0.0123864
-0.00881632
-0.00583968
-0.0034691
-0.00170472
-0.00055746
-7.07975e-05
-0.00013858
-0.000916904
-0.00258862
-0.00496941
-0.00794848
-0.0114563
-0.015425
-0.0197906
-0.0244955
-0.0294871
-0.0347179
-0.0401447
-0.0457277
-0.0514307
-0.05722
-0.0630642
-0.0689339
-0.074801
-0.0806387
-0.086421
-0.0921226
-0.0977186
-0.103184
-0.108495
-0.113626
-0.118553
-0.123251
-0.127696
-0.131861
-0.135724
-0.139258
-0.142439
-0.145243
-0.147645
-0.149623
-0.151154
-0.152217
-0.152792
-0.152861
-0.152409
-0.151423
-0.149893
-0.147812
-0.145179
-0.141995
-0.13827
-0.134015
-0.129251
-0.124003
-0.118303
-0.112191
-0.105712
-0.0989199
-0.091873
-0.084636
-0.0772786
-0.0698743
-0.0624997
-0.0552328
-0.0481517
-0.0413331
-0.0348509
-0.0287742
-0.0231666
-0.0180841
-0.0135745
-0.00967639
-0.0064188
-0.00381872
-0.00187933
-0.000615672
-7.8495e-05
-0.000144545
-0.000955344
-0.00269561
-0.00517243
-0.00826963
-0.0119141
-0.0160349
-0.020565
-0.025444
-0.0306177
-0.0360366
-0.041656
-0.0474353
-0.0533372
-0.0593275
-0.0653744
-0.0714483
-0.0775212
-0.0835661
-0.0895573
-0.0954696
-0.101278
-0.106959
-0.112487
-0.117838
-0.122987
-0.12791
-0.132582
-0.136978
-0.141072
-0.144839
-0.148253
-0.151289
-0.153922
-0.156126
-0.157878
-0.159155
-0.159934
-0.160194
-0.159918
-0.159089
-0.157695
-0.155725
-0.153174
-0.150042
-0.146332
-0.142055
-0.137229
-0.131875
-0.126026
-0.119718
-0.113
-0.105922
-0.0985475
-0.0909423
-0.0831803
-0.0753397
-0.0675029
-0.0597544
-0.0521798
-0.0448638
-0.0378882
-0.0313309
-0.0252637
-0.0197506
-0.0148472
-0.0105989
-0.00704075
-0.00419467
-0.00206737
-0.000678492
-8.68452e-05
-0.00015004
-0.000990771
-0.00279425
-0.0053597
-0.00856603
-0.012337
-0.0165986
-0.0212811
-0.0263221
-0.0316652
-0.0372593
-0.0430587
-0.0490215
-0.0551098
-0.0612891
-0.0675271
-0.0737942
-0.0800622
-0.0863045
-0.0924955
-0.0986103
-0.104624
-0.110514
-0.116254
-0.121822
-0.127191
-0.132339
-0.13724
-0.141869
-0.146199
-0.150206
-0.153862
-0.157141
-0.160018
-0.162464
-0.164456
-0.165966
-0.16697
-0.167446
-0.167372
-0.166728
-0.165498
-0.163668
-0.161231
-0.15818
-0.154516
-0.150247
-0.145386
-0.139954
-0.133979
-0.127498
-0.120556
-0.113207
-0.105513
-0.097544
-0.0893765
-0.0810941
-0.0727848
-0.0645402
-0.0564536
-0.0486182
-0.041125
-0.034061
-0.0275071
-0.0215367
-0.0162135
-0.0115909
-0.00771062
-0.00460028
-0.00227063
-0.00074659
-9.59572e-05
-0.000155035
-0.00102301
-0.00288408
-0.00553037
-0.00883636
-0.012723
-0.0171135
-0.021936
-0.0271257
-0.0326247
-0.0383805
-0.044346
-0.0504787
-0.0567402
-0.0630952
-0.0695115
-0.0759593
-0.0824107
-0.0888392
-0.0952195
-0.101527
-0.107738
-0.113829
-0.119775
-0.125553
-0.13114
-0.13651
-0.141639
-0.146502
-0.151072
-0.155323
-0.159228
-0.16276
-0.165892
-0.168595
-0.170841
-0.172604
-0.173855
-0.17457
-0.174722
-0.174291
-0.173255
-0.171597
-0.169304
-0.166368
-0.162784
-0.158555
-0.153692
-0.148211
-0.142139
-0.135509
-0.128366
-0.120764
-0.112764
-0.104439
-0.0958694
-0.087143
-0.0783538
-0.0696006
-0.060985
-0.0526092
-0.0445742
-0.0369769
-0.0299087
-0.0234526
-0.0176821
-0.0126592
-0.00843347
-0.00503889
-0.00249094
-0.000820636
-0.00010594
-0.000159502
-0.00105189
-0.00296463
-0.00568357
-0.00907928
-0.0130702
-0.0175772
-0.0225263
-0.027851
-0.0334915
-0.0393944
-0.0455115
-0.0517996
-0.0582195
-0.0647359
-0.0713165
-0.0779314
-0.084553
-0.091155
-0.0977125
-0.104202
-0.110599
-0.116881
-0.123025
-0.129007
-0.134804
-0.140392
-0.145746
-0.150841
-0.155651
-0.16015
-0.164309
-0.168101
-0.171497
-0.174468
-0.176984
-0.179016
-0.180534
-0.181509
-0.181914
-0.181723
-0.18091
-0.179456
-0.177341
-0.174554
-0.171085
-0.166933
-0.162103
-0.156608
-0.150471
-0.143724
-0.136407
-0.128573
-0.120286
-0.111619
-0.102655
-0.0934865
-0.0842136
-0.0749423
-0.0657829
-0.0568474
-0.0482471
-0.0400901
-0.0324791
-0.0255082
-0.0192614
-0.0138106
-0.0092143
-0.00551377
-0.00273009
-0.000901303
-0.000116906
-0.00016341
-0.00107724
-0.00303547
-0.00581849
-0.00929353
-0.0133768
-0.0179874
-0.0230492
-0.0284941
-0.0342612
-0.0402957
-0.0465488
-0.0529766
-0.0595394
-0.0662017
-0.0729312
-0.0796981
-0.086475
-0.0932361
-0.0999571
-0.106614
-0.113185
-0.119647
-0.125978
-0.132154
-0.138153
-0.143951
-0.149525
-0.154848
-0.159896
-0.164642
-0.169056
-0.173112
-0.17678
-0.180028
-0.182825
-0.185141
-0.186944
-0.188201
-0.188882
-0.188957
-0.188398
-0.187178
-0.185277
-0.182675
-0.179359
-0.175322
-0.170565
-0.165096
-0.158932
-0.152101
-0.144643
-0.136608
-0.128058
-0.119067
-0.109722
-0.100119
-0.0903629
-0.080568
-0.0708531
-0.0613405
-0.052153
-0.0434106
-0.0352282
-0.0277126
-0.0209594
-0.0150516
-0.010058
-0.0060282
-0.00298987
-0.000989264
-0.000128965
-0.000166733
-0.0010989
-0.00309618
-0.00593438
-0.00947794
-0.0136413
-0.0183417
-0.0235016
-0.0290516
-0.0349294
-0.0410794
-0.047452
-0.0540027
-0.0606917
-0.0674831
-0.0743448
-0.0812471
-0.0881629
-0.0950671
-0.101936
-0.108746
-0.115476
-0.122103
-0.128607
-0.134965
-0.141155
-0.147153
-0.152937
-0.158482
-0.163762
-0.168751
-0.17342
-0.177741
-0.181682
-0.185214
-0.188302
-0.190914
-0.193016
-0.194573
-0.195552
-0.195919
-0.195642
-0.19469
-0.193036
-0.190658
-0.187535
-0.183655
-0.179013
-0.173612
-0.167464
-0.160592
-0.153031
-0.144829
-0.136047
-0.126759
-0.117053
-0.107027
-0.0967946
-0.086475
-0.0761969
-0.0660932
-0.0562986
-0.0469462
-0.0381646
-0.0300739
-0.0227833
-0.0163884
-0.0109692
-0.00658534
-0.00327205
-0.00108519
-0.000142231
-0.000169446
-0.00111674
-0.0031464
-0.00603058
-0.0096315
-0.0138622
-0.0186384
-0.0238813
-0.0295203
-0.0354923
-0.0417408
-0.0482155
-0.0548714
-0.0616686
-0.0685711
-0.0755468
-0.0825663
-0.0896031
-0.0966323
-0.103631
-0.110577
-0.117448
-0.124225
-0.130886
-0.13741
-0.143776
-0.149962
-0.155944
-0.1617
-0.167203
-0.172428
-0.177346
-0.181928
-0.186144
-0.18996
-0.193345
-0.196262
-0.198675
-0.200549
-0.201845
-0.202527
-0.202559
-0.201906
-0.200535
-0.198418
-0.195529
-0.191851
-0.187371
-0.182085
-0.175999
-0.169133
-0.161515
-0.153188
-0.144213
-0.13466
-0.124619
-0.114192
-0.103495
-0.0926552
-0.0818111
-0.071106
-0.0606876
-0.0507029
-0.041295
-0.0325994
-0.0247401
-0.0178268
-0.0119525
-0.00718827
-0.00357838
-0.00118975
-0.000156819
-0.000171528
-0.00113064
-0.00318584
-0.00610657
-0.00975337
-0.0140382
-0.0188758
-0.0241861
-0.0298978
-0.0359467
-0.0422758
-0.0488342
-0.0555767
-0.0624631
-0.0694573
-0.0765275
-0.0836446
-0.0907824
-0.0979168
-0.105025
-0.112087
-0.119081
-0.125987
-0.132787
-0.139459
-0.145984
-0.15234
-0.158505
-0.164456
-0.17017
-0.175619
-0.180777
-0.185613
-0.190098
-0.194199
-0.19788
-0.201107
-0.20384
-0.206042
-0.207672
-0.20869
-0.209056
-0.208731
-0.207678
-0.205861
-0.203249
-0.199818
-0.195548
-0.190429
-0.184459
-0.17765
-0.170026
-0.161625
-0.152501
-0.142725
-0.132384
-0.121583
-0.110441
-0.0990938
-0.0876868
-0.0763754
-0.0653203
-0.0546836
-0.0446245
-0.0352949
-0.0268355
-0.0193719
-0.013012
-0.00783996
-0.00391055
-0.00130361
-0.000172847
-0.000172966
-0.00114053
-0.0032143
-0.00616196
-0.00984299
-0.0141686
-0.0190527
-0.0244145
-0.0301818
-0.0362899
-0.0426812
-0.0493043
-0.0561136
-0.063069
-0.0701344
-0.077278
-0.0844714
-0.0916886
-0.0989064
-0.106103
-0.113258
-0.120352
-0.127367
-0.134282
-0.141081
-0.147744
-0.154249
-0.160578
-0.166707
-0.172614
-0.178272
-0.183655
-0.188735
-0.19348
-0.197858
-0.201833
-0.205369
-0.208427
-0.210965
-0.212941
-0.214313
-0.215036
-0.215067
-0.214363
-0.212883
-0.210592
-0.207455
-0.203446
-0.198548
-0.192751
-0.186058
-0.178485
-0.170066
-0.160847
-0.150897
-0.1403
-0.129162
-0.117604
-0.105769
-0.0938092
-0.0818924
-0.0701929
-0.0588884
-0.0481556
-0.0381646
-0.0290743
-0.0210284
-0.0141517
-0.00854321
-0.00427021
-0.00142742
-0.000190433
-0.00017375
-0.00114637
-0.00323169
-0.0061966
-0.00990007
-0.0142529
-0.0191685
-0.0245656
-0.0303712
-0.0365202
-0.0429545
-0.0496224
-0.0564781
-0.0634813
-0.0705961
-0.0777908
-0.0850375
-0.0923108
-0.0995881
-0.106848
-0.114073
-0.121242
-0.12834
-0.135347
-0.142248
-0.149023
-0.155655
-0.162124
-0.168408
-0.174486
-0.180333
-0.185924
-0.19123
-0.196221
-0.200865
-0.205126
-0.208966
-0.212347
-0.215224
-0.217555
-0.219294
-0.220392
-0.220803
-0.220479
-0.219374
-0.217444
-0.214649
-0.210955
-0.206334
-0.20077
-0.194256
-0.1868
-0.178426
-0.169175
-0.159109
-0.148309
-0.13688
-0.124945
-0.11265
-0.100156
-0.0876425
-0.0752969
-0.0633139
-0.0518886
-0.0412109
-0.0314602
-0.0228002
-0.015375
-0.00930065
-0.00465895
-0.00156184
-0.0002097
-0.000173881
-0.00114816
-0.00323803
-0.00621053
-0.00992468
-0.0142912
-0.0192232
-0.0246391
-0.0304655
-0.0366368
-0.0430946
-0.0497868
-0.0566675
-0.0636963
-0.0708375
-0.0780597
-0.0853353
-0.0926396
-0.0999506
-0.107249
-0.114515
-0.121733
-0.128885
-0.135957
-0.142931
-0.149792
-0.156522
-0.163103
-0.169516
-0.175739
-0.181751
-0.187525
-0.193037
-0.198254
-0.203147
-0.20768
-0.211815
-0.215512
-0.218727
-0.221416
-0.22353
-0.225018
-0.225829
-0.225912
-0.225215
-0.223687
-0.22128
-0.217953
-0.21367
-0.208402
-0.202135
-0.194866
-0.186608
-0.177395
-0.167281
-0.156342
-0.144678
-0.132414
-0.119698
-0.106698
-0.0936047
-0.0806189
-0.0679525
-0.0558204
-0.0444341
-0.0339954
-0.0246904
-0.0166849
-0.0101147
-0.00507828
-0.0017075
-0.000230771
-0.000173366
-0.00114596
-0.00323351
-0.00620409
-0.00991732
-0.0142841
-0.0192176
-0.0246359
-0.0304653
-0.0366401
-0.0431014
-0.0497969
-0.0566807
-0.0637121
-0.0708557
-0.0780804
-0.0853589
-0.0926674
-0.0999846
-0.107292
-0.114571
-0.121807
-0.128985
-0.136089
-0.143106
-0.150021
-0.156817
-0.163479
-0.169989
-0.176328
-0.182475
-0.188405
-0.194095
-0.199515
-0.204634
-0.209419
-0.213833
-0.217834
-0.22138
-0.224424
-0.226915
-0.228803
-0.23003
-0.230543
-0.230283
-0.229194
-0.227222
-0.224315
-0.220428
-0.215523
-0.209574
-0.202566
-0.194503
-0.185407
-0.175321
-0.164316
-0.152485
-0.139951
-0.126864
-0.113398
-0.099751
-0.0861393
-0.072792
-0.0599446
-0.047832
-0.0366803
-0.0267009
-0.0180838
-0.0109874
-0.00552959
-0.00186502
-0.000253774
-0.000172226
-0.00113991
-0.00321846
-0.00617791
-0.00987894
-0.0142329
-0.0191531
-0.0245576
-0.0303725
-0.0365319
-0.0429765
-0.049654
-0.0565181
-0.0635283
-0.0706493
-0.0778504
-0.0851047
-0.0923889
-0.0996828
-0.106968
-0.11423
-0.121452
-0.128621
-0.135725
-0.14275
-0.149683
-0.156511
-0.16322
-0.169792
-0.176211
-0.182459
-0.188512
-0.194348
-0.19994
-0.205259
-0.210271
-0.214941
-0.219229
-0.223092
-0.226482
-0.229348
-0.231637
-0.233291
-0.23425
-0.234453
-0.233838
-0.232342
-0.229905
-0.226474
-0.221998
-0.216441
-0.209774
-0.201989
-0.193095
-0.183125
-0.172137
-0.160218
-0.147486
-0.13409
-0.120208
-0.106045
-0.0918324
-0.0778152
-0.0642511
-0.0513995
-0.0395137
-0.0288325
-0.0195735
-0.0119205
-0.00601417
-0.002035
-0.000278837
-0.00017049
-0.0011302
-0.00319344
-0.00613299
-0.00981102
-0.0141395
-0.0190322
-0.024407
-0.0301902
-0.0363154
-0.0427231
-0.0493609
-0.0561823
-0.063147
-0.0702196
-0.0773698
-0.0845713
-0.0918016
-0.0990411
-0.106273
-0.113482
-0.120656
-0.127781
-0.134848
-0.141844
-0.148758
-0.155579
-0.162294
-0.16889
-0.175351
-0.181661
-0.1878
-0.193746
-0.199475
-0.204959
-0.210168
-0.215067
-0.219617
-0.223775
-0.227496
-0.230727
-0.233415
-0.235499
-0.236916
-0.237602
-0.237488
-0.236506
-0.234588
-0.231669
-0.227689
-0.222598
-0.216355
-0.208937
-0.200337
-0.190576
-0.179699
-0.167782
-0.154936
-0.141306
-0.127072
-0.112444
-0.0976654
-0.0829993
-0.0687251
-0.0551286
-0.0424919
-0.0310846
-0.0211549
-0.0129156
-0.00653314
-0.00221799
-0.000306089
-0.000168203
-0.00111711
-0.0031592
-0.0060707
-0.00971566
-0.0140069
-0.0188583
-0.0241884
-0.0299229
-0.0359954
-0.0423463
-0.0489227
-0.0556782
-0.0625724
-0.0695701
-0.0766414
-0.0837605
-0.0909055
-0.0980579
-0.105202
-0.112324
-0.119412
-0.126456
-0.133446
-0.140373
-0.147227
-0.153999
-0.160679
-0.167256
-0.173716
-0.180046
-0.186227
-0.192242
-0.198067
-0.203679
-0.209048
-0.214141
-0.218922
-0.223351
-0.22738
-0.23096
-0.234035
-0.236545
-0.238425
-0.239607
-0.240017
-0.239581
-0.238224
-0.235871
-0.232452
-0.227901
-0.222166
-0.215205
-0.206999
-0.197549
-0.186886
-0.175073
-0.162209
-0.148433
-0.133923
-0.118894
-0.103598
-0.0883152
-0.0733474
-0.0590076
-0.0456091
-0.0334551
-0.022828
-0.0139735
-0.00708746
-0.00241454
-0.000335661
-0.000165423
-0.00110099
-0.00311671
-0.00599286
-0.0095956
-0.0138386
-0.0186363
-0.0239071
-0.029577
-0.0355789
-0.0418532
-0.0483467
-0.0550129
-0.0618113
-0.0687072
-0.0756706
-0.0826767
-0.0897041
-0.0967354
-0.103756
-0.110753
-0.117717
-0.124639
-0.131512
-0.138326
-0.145077
-0.151756
-0.158356
-0.164867
-0.17128
-0.177583
-0.183761
-0.189799
-0.195676
-0.201371
-0.206858
-0.212106
-0.217082
-0.221746
-0.226055
-0.22996
-0.233405
-0.23633
-0.23867
-0.240352
-0.241302
-0.241438
-0.240679
-0.23894
-0.236141
-0.232203
-0.227058
-0.220649
-0.212937
-0.203906
-0.193569
-0.181972
-0.169199
-0.15538
-0.140685
-0.125333
-0.109582
-0.0937275
-0.0780933
-0.0630208
-0.0488565
-0.03594
-0.0245919
-0.0150946
-0.00767788
-0.0026251
-0.000367685
-0.000162223
-0.00108232
-0.00306723
-0.00590174
-0.00945431
-0.0136394
-0.018372
-0.0235704
-0.0291603
-0.0350747
-0.0412532
-0.0476426
-0.0541962
-0.0608736
-0.06764
-0.0744662
-0.0813277
-0.0882042
-0.0950791
-0.101939
-0.108773
-0.115573
-0.122331
-0.129042
-0.1357
-0.142301
-0.14884
-0.155311
-0.161708
-0.168025
-0.174251
-0.180376
-0.186387
-0.192267
-0.197997
-0.203555
-0.208913
-0.214041
-0.218902
-0.223455
-0.227653
-0.231443
-0.234764
-0.237551
-0.239732
-0.241227
-0.241953
-0.241821
-0.240739
-0.238614
-0.235357
-0.230883
-0.225119
-0.218005
-0.209506
-0.199613
-0.188353
-0.175792
-0.162044
-0.147272
-0.131689
-0.115561
-0.0991933
-0.0829326
-0.0671484
-0.0522224
-0.0385336
-0.0264444
-0.0162787
-0.0083049
-0.00285012
-0.000402289
-0.000158695
-0.00106166
-0.0030123
-0.00580019
-0.0092961
-0.0134152
-0.0180727
-0.0231869
-0.0286831
-0.0344937
-0.0405582
-0.0468228
-0.0532408
-0.0597717
-0.0663811
-0.0730402
-0.079725
-0.0864162
-0.0930984
-0.0997595
-0.10639
-0.112983
-0.119534
-0.126038
-0.132493
-0.138897
-0.145246
-0.151538
-0.157771
-0.163938
-0.170036
-0.176055
-0.181985
-0.187815
-0.193528
-0.199106
-0.204525
-0.209756