/*--------------------------------*- C++ -*----------------------------------*\
  =========                 |
  \\      /  F ield         | OpenFOAM: The Open Source CFD Toolbox
   \\    /   O peration     | Website:  https://openfoam.org
    \\  /    A nd           | Version:  dev
     \\/     M anipulation  |
\*---------------------------------------------------------------------------*/
FoamFile
{
    format      ascii;
    class       volScalarField;
    location    "19.35";
    object      Uy;
}
// * * * * * * * * * * * * * * * * * * * * * * * * * * * * * * * * * * * * * //

dimensions      [0 1 -1 0 0 0 0];

internalField   nonuniform List<scalar> 
5184
(
-1.25396e-05
-2.07334e-05
-1.71638e-05
-8.15294e-06
2.69202e-06
1.36249e-05
2.38404e-05
3.30308e-05
4.1079e-05
4.7988e-05
5.38209e-05
5.86626e-05
6.26048e-05
6.5739e-05
6.81497e-05
6.99119e-05
7.10901e-05
7.17369e-05
7.18928e-05
7.15878e-05
7.08411e-05
6.96629e-05
6.80562e-05
6.60181e-05
6.35415e-05
6.06167e-05
5.7233e-05
5.33808e-05
4.90536e-05
4.4248e-05
3.89667e-05
3.32187e-05
2.70211e-05
2.04e-05
1.33909e-05
6.03942e-06
-1.59814e-06
-9.45535e-06
-1.7456e-05
-2.55146e-05
-3.35368e-05
-4.14212e-05
-4.90608e-05
-5.63447e-05
-6.31603e-05
-6.93958e-05
-7.49429e-05
-7.96987e-05
-8.35685e-05
-8.6469e-05
-8.83295e-05
-8.90948e-05
-8.87264e-05
-8.72049e-05
-8.45298e-05
-8.07203e-05
-7.58156e-05
-6.98742e-05
-6.29739e-05
-5.52103e-05
-4.66972e-05
-3.75673e-05
-2.79755e-05
-1.81038e-05
-8.1772e-06
1.50954e-06
1.05342e-05
1.82601e-05
2.36762e-05
2.50928e-05
1.98271e-05
6.24215e-06
-4.55922e-05
-6.53928e-05
-4.03355e-05
7.76432e-06
6.57358e-05
0.000125975
0.000184208
0.000238187
0.000286776
0.00032953
0.000366412
0.00039761
0.000423436
0.000444257
0.000460449
0.000472371
0.000480343
0.000484643
0.000485492
0.000483064
0.000477478
0.000468811
0.000457103
0.000442362
0.000424576
0.000403722
0.000379777
0.000352723
0.000322561
0.000289317
0.000253053
0.00021387
0.000171919
0.000127401
8.05766e-05
3.17631e-05
-1.86607e-05
-7.0257e-05
-0.000122532
-0.000174939
-0.000226885
-0.000277739
-0.000326841
-0.000373512
-0.000417069
-0.000456839
-0.000492168
-0.000522443
-0.000547105
-0.000565658
-0.000577691
-0.000582884
-0.000581021
-0.000571998
-0.000555832
-0.000532661
-0.000502747
-0.000466479
-0.000424371
-0.000377062
-0.000325318
-0.000270043
-0.000212297
-0.000153329
-9.46484e-05
-3.81315e-05
1.37684e-05
5.7748e-05
8.92199e-05
0.000101694
8.64076e-05
3.64567e-05
-8.10878e-05
-9.46693e-05
-1.88187e-05
0.000106122
0.000254684
0.000410442
0.000563098
0.000706521
0.00083727
0.000953641
0.00105504
0.00114156
0.00121372
0.00127223
0.00131793
0.00135164
0.00137412
0.00138604
0.00138797
0.00138036
0.00136352
0.00133769
0.00130299
0.00125949
0.00120719
0.00114609
0.00107618
0.000997466
0.00091002
0.000813977
0.00070957
0.000597144
0.000477171
0.000350265
0.00021719
7.88675e-05
-6.36236e-05
-0.00020905
-0.000356031
-0.000503052
-0.000648478
-0.00079058
-0.000927559
-0.00105757
-0.00117878
-0.00128935
-0.00138755
-0.00147171
-0.00154036
-0.00159217
-0.00162604
-0.00164114
-0.0016369
-0.00161307
-0.00156971
-0.00150723
-0.00142637
-0.00132822
-0.00121424
-0.00108621
-0.00094633
-0.000797143
-0.000641656
-0.000483396
-0.000326556
-0.000176216
-3.86865e-05
7.8027e-05
0.000163638
0.000204994
0.000185994
9.02864e-05
-9.75492e-05
-7.27638e-05
8.51267e-05
0.000318511
0.000589965
0.000873909
0.00115334
0.00141747
0.00165987
0.00187698
0.00206728
0.00223049
0.00236719
0.00247841
0.00256541
0.00262954
0.00267207
0.00269414
0.00269675
0.00268067
0.00264651
0.00259469
0.00252549
0.00243905
0.00233547
0.00221479
0.00207705
0.00192238
0.00175098
0.0015632
0.00135956
0.0011408
0.000907886
0.000662059
0.000404829
0.000137995
-0.000136357
-0.000415863
-0.000697889
-0.000979565
-0.00125781
-0.00152936
-0.00179087
-0.00203887
-0.00226994
-0.00248069
-0.00266788
-0.00282846
-0.00295965
-0.00305905
-0.00312462
-0.00315482
-0.00314864
-0.00310561
-0.0030259
-0.00291028
-0.00276017
-0.00257768
-0.00236556
-0.00212725
-0.0018669
-0.00158939
-0.00130043
-0.00100669
-0.000715961
-0.000437511
-0.000182473
3.55626e-05
0.000199896
0.000290153
0.000282056
0.000147077
-8.42101e-05
2.12657e-05
0.000295717
0.000667985
0.00109035
0.00152896
0.00196041
0.00236925
0.00274578
0.00308437
0.00338225
0.00363862
0.00385392
0.0040294
0.00416672
0.0042677
0.00433412
0.00436764
0.00436967
0.00434139
0.0042837
0.00419727
0.00408255
0.00393984
0.00376934
0.0035712
0.0033456
0.00309283
0.00281332
0.00250774
0.00217703
0.00182246
0.00144569
0.00104875
0.000634129
0.000204735
-0.000236074
-0.000684518
-0.00113641
-0.00158721
-0.00203206
-0.00246584
-0.00288326
-0.00327896
-0.00364755
-0.00398378
-0.00428258
-0.00453923
-0.00474942
-0.00490939
-0.00501603
-0.00506694
-0.00506055
-0.00499618
-0.00487408
-0.00469552
-0.00446275
-0.00417909
-0.00384892
-0.00347768
-0.00307193
-0.00263941
-0.00218909
-0.00173137
-0.00127828
-0.000843849
-0.000444551
-9.99203e-05
0.00016673
0.000327694
0.000350262
0.000193828
-3.73274e-05
0.000197654
0.000626963
0.00116994
0.00177072
0.00238851
0.0029943
0.00356834
0.00409778
0.0045749
0.00499561
0.00535843
0.00566361
0.00591251
0.00610711
0.00624967
0.00634247
0.00638764
0.00638705
0.00634227
0.00625453
0.00612476
0.00595362
0.0057416
0.00548905
0.00519629
0.0048637
0.0044918
0.00408137
0.00363349
0.00314964
0.00263179
0.0020824
0.00150451
0.000901776
0.000278433
-0.000360659
-0.00101006
-0.00166376
-0.00231528
-0.0029577
-0.00358375
-0.00418595
-0.00475669
-0.00528839
-0.00577361
-0.00620523
-0.00657659
-0.00688163
-0.00711506
-0.00727249
-0.00735055
-0.00734704
-0.00726099
-0.0070928
-0.00684424
-0.00651854
-0.00612041
-0.00565609
-0.00513332
-0.00456144
-0.00395142
-0.00331593
-0.00266955
-0.00202899
-0.00141341
-0.000844922
-0.000349181
4.38701e-05
0.000299324
0.000376404
0.000224108
4.42654e-05
0.000461384
0.00108676
0.00183374
0.00264055
0.00346103
0.0042616
0.00501885
0.0057172
0.00634698
0.00690289
0.00738276
0.00778661
0.00811588
0.00837282
0.00856011
0.00868047
0.00873649
0.0087305
0.00866444
0.00853987
0.00835801
0.00811977
0.00782582
0.00747674
0.00707305
0.00661538
0.00610461
0.00554189
0.00492885
0.00426762
0.00356099
0.00281238
0.00202602
0.00120686
0.000360679
-0.000505965
-0.00138575
-0.00227065
-0.00315198
-0.00402054
-0.00486666
-0.00568041
-0.00645171
-0.00717051
-0.00782698
-0.0084117
-0.00891585
-0.00933142
-0.0096514
-0.00986997
-0.00998268
-0.00998658
-0.00988039
-0.00966458
-0.00934151
-0.00891544
-0.00839262
-0.0077813
-0.00709178
-0.00633641
-0.00552971
-0.00468837
-0.00383147
-0.00298068
-0.00216055
-0.00139899
-0.000727807
-0.000183452
0.000192308
0.000351399
0.000234494
0.000160552
0.000814308
0.00167888
0.00266438
0.00370522
0.00475144
0.00576606
0.00672285
0.00760405
0.00839839
0.00909957
0.00970486
0.0102141
0.0106288
0.0109515
0.0111852
0.0113332
0.0113984
0.0113836
0.011291
0.0111227
0.0108801
0.0105644
0.0101764
0.00971707
0.00918707
0.0085874
0.0079193
0.00718443
0.00638504
0.00552402
0.00460507
0.00363274
0.00261252
0.00155086
0.000455234
-0.000665947
-0.0018033
-0.00294658
-0.00408472
-0.00520602
-0.00629822
-0.00734872
-0.00834475
-0.0092736
-0.0101228
-0.0108805
-0.0115354
-0.0120774
-0.0124976
-0.0127886
-0.0129447
-0.0129621
-0.0128391
-0.0125763
-0.0121765
-0.0116452
-0.0109901
-0.0102217
-0.00935287
-0.00839932
-0.00737926
-0.00631366
-0.00522632
-0.00414405
-0.00309696
-0.00211881
-0.00124752
-0.00052584
-1.9416e-06
0.000269689
0.000223286
0.000310895
0.00125632
0.00240426
0.00366371
0.00496703
0.00626196
0.00750932
0.00868094
0.00975754
0.0107268
0.0115816
0.012319
0.0129387
0.0134424
0.0138329
0.0141137
0.0142883
0.0143603
0.0143327
0.0142083
0.0139893
0.0136775
0.0132742
0.0127808
0.0121982
0.0115274
0.01077
0.00992742
0.00900201
0.00799668
0.00691516
0.00576218
0.00454349
0.00326599
0.00193774
0.000568007
-0.000832776
-0.00225303
-0.00368012
-0.00510046
-0.00649967
-0.00786271
-0.00917415
-0.0104183
-0.0115797
-0.0126429
-0.0135933
-0.0144173
-0.0151023
-0.0156374
-0.0160133
-0.0162229
-0.0162616
-0.0161271
-0.0158199
-0.0153434
-0.0147041
-0.0139113
-0.0129778
-0.0119194
-0.0107549
-0.00950654
-0.00819971
-0.00686308
-0.00552879
-0.00423255
-0.00301401
-0.00191714
-0.000990741
-0.000288935
0.000128177
0.000189836
0.000494387
0.00178619
0.00326202
0.00483133
0.00642594
0.00799262
0.0094911
0.0108922
0.0121759
0.0133292
0.0143449
0.0152198
0.0159538
0.0165488
0.0170082
0.0173357
0.0175354
0.0176112
0.0175667
0.0174049
0.0171283
0.0167391
0.0162388
0.0156291
0.0149111
0.0140863
0.0131564
0.0121236
0.0109907
0.00976137
0.0084403
0.00703329
0.00554737
0.00399092
0.00237372
0.000706931
-0.000996893
-0.00272386
-0.00445883
-0.00618554
-0.00788681
-0.00954467
-0.0111407
-0.0126561
-0.0140723
-0.015371
-0.0165347
-0.0175469
-0.0183924
-0.0190582
-0.0195329
-0.019808
-0.0198775
-0.0197386
-0.0193916
-0.0188403
-0.0180922
-0.0171583
-0.0160536
-0.0147967
-0.0134099
-0.0119194
-0.0103552
-0.00875091
-0.0071441
-0.00557618
-0.0040927
-0.00274359
-0.00158352
-0.000672207
-7.47481e-05
0.000134063
0.000709993
0.00240199
0.00425006
0.00616529
0.00808016
0.00994167
0.0117095
0.0133544
0.0148563
0.0162022
0.017385
0.0184019
0.0192532
0.0199412
0.0204696
0.0208429
0.0210656
0.0211421
0.0210762
0.0208714
0.0205307
0.0200562
0.0194501
0.0187139
0.0178494
0.0168582
0.0157425
0.014505
0.0131491
0.0116793
0.0101013
0.00842186
0.00664949
0.00479407
0.00286715
0.000881853
-0.00114706
-0.00320329
-0.00526911
-0.00732549
-0.00935229
-0.0113285
-0.0132325
-0.0150423
-0.0167362
-0.0182925
-0.0196907
-0.0209112
-0.0219363
-0.0227501
-0.0233393
-0.0236935
-0.0238053
-0.0236711
-0.0232908
-0.0226686
-0.0218128
-0.020736
-0.0194554
-0.0179924
-0.0163729
-0.0146272
-0.0127897
-0.0108994
-0.00899918
-0.00713627
-0.00536216
-0.00373272
-0.00230838
-0.00115419
-0.00033992
5.61376e-05
0.000956637
0.00310143
0.0053655
0.00766247
0.00992653
0.0121059
0.0141612
0.016064
0.0177948
0.0193413
0.0206971
0.0218599
0.0228307
0.0236126
0.02421
0.0246278
0.0248711
0.0249448
0.0248532
0.0246003
0.024189
0.0236221
0.0229018
0.0220301
0.0210088
0.0198401
0.0185265
0.0170712
0.0154784
0.0137531
0.0119022
0.00993363
0.00785715
0.00568427
0.00342831
0.00110442
-0.00127039
-0.00367739
-0.00609617
-0.00850484
-0.0108802
-0.0131982
-0.0154337
-0.0175616
-0.0195565
-0.0213935
-0.0230486
-0.0244991
-0.0257242
-0.0267053
-0.0274266
-0.0278756
-0.0280433
-0.0279248
-0.0275199
-0.0268325
-0.0258718
-0.0246519
-0.023192
-0.0215164
-0.0196545
-0.0176407
-0.0155142
-0.0133189
-0.0111036
-0.00892134
-0.00682951
-0.00489001
-0.00316903
-0.0017369
-0.0006679
-4.37231e-05
0.00123323
0.00388196
0.00660491
0.00931896
0.0119609
0.014481
0.0168418
0.0190164
0.0209866
0.0227414
0.0242755
0.0255878
0.0266802
0.0275567
0.0282225
0.0286832
0.0289447
0.0290124
0.028891
0.0285848
0.0280973
0.0274314
0.0265896
0.025574
0.024387
0.0230308
0.0215085
0.0198238
0.0179814
0.0159873
0.0138492
0.0115763
0.00917959
0.00667222
0.00406929
0.00138798
-0.00135246
-0.00413081
-0.00692396
-0.0097071
-0.012454
-0.0151371
-0.0177281
-0.0201981
-0.0225184
-0.0246603
-0.0265962
-0.0283001
-0.0297477
-0.0309173
-0.0317904
-0.0323521
-0.0325914
-0.0325022
-0.0320832
-0.0313384
-0.0302775
-0.0289157
-0.0272743
-0.0253804
-0.0232669
-0.0209723
-0.0185405
-0.016021
-0.0134679
-0.0109405
-0.00850222
-0.00622114
-0.00416929
-0.00242238
-0.00105933
-0.000165385
0.00153867
0.00474089
0.00796448
0.0111302
0.0141782
0.0170617
0.0197458
0.0222058
0.0244258
0.0263964
0.0281142
0.0295793
0.0307951
0.0317667
0.0325003
0.0330025
0.0332799
0.0333384
0.0331834
0.0328196
0.0322507
0.0314799
0.0305101
0.0293435
0.0279827
0.0264305
0.0246901
0.0227658
0.0206629
0.0183882
0.0159502
0.0133592
0.0106277
0.0077703
0.00480381
0.00174744
-0.00137733
-0.00454679
-0.00773512
-0.0109146
-0.0140557
-0.0171276
-0.0200985
-0.0229358
-0.0256068
-0.0280792
-0.0303216
-0.032304
-0.0339986
-0.0353803
-0.0364273
-0.0371221
-0.0374514
-0.0374072
-0.036987
-0.0361946
-0.0350398
-0.0335389
-0.0317151
-0.0295981
-0.0272241
-0.0246359
-0.0218824
-0.0190182
-0.0161035
-0.0132037
-0.0103885
-0.00773242
-0.00531351
-0.00321315
-0.0015152
-0.000308886
0.00187186
0.00567536
0.0094401
0.0130913
0.0165729
0.0198419
0.0228668
0.0256259
0.0281057
0.0302997
0.0322062
0.0338274
0.0351684
0.0362356
0.0370366
0.037579
0.0378702
0.0379169
0.037725
0.0372996
0.0366449
0.0357644
0.034661
0.0333374
0.0317962
0.0300406
0.0280742
0.0259016
0.0235288
0.0209632
0.0182142
0.0152932
0.0122139
0.00899229
0.00564699
0.0021991
-0.00132769
-0.00490722
-0.00851098
-0.0121083
-0.0156664
-0.0191511
-0.0225269
-0.0257574
-0.0288059
-0.031636
-0.0342122
-0.0365005
-0.0384689
-0.0400886
-0.0413343
-0.0421852
-0.0426253
-0.0426444
-0.0422386
-0.0414106
-0.0401702
-0.0385347
-0.0365288
-0.0341846
-0.0315418
-0.0286474
-0.025555
-0.022325
-0.0190235
-0.0157222
-0.0124978
-0.00943117
-0.00660689
-0.00411241
-0.002037
-0.000474493
0.00223167
0.00668244
0.0110274
0.0151966
0.0191387
0.0228149
0.0261977
0.0292691
0.032019
0.0344436
0.036544
0.0383247
0.0397927
0.0409563
0.0418244
0.042406
0.0427093
0.0427419
0.0425104
0.0420203
0.0412763
0.040282
0.0390406
0.0375551
0.0358283
0.0338635
0.0316647
0.0292368
0.0265862
0.0237212
0.0206517
0.0173903
0.0139516
0.0103532
0.00661518
0.00276054
-0.00118493
-0.00519271
-0.00923159
-0.0132679
-0.0172659
-0.0211877
-0.024994
-0.0286446
-0.0320986
-0.0353153
-0.0382546
-0.0408782
-0.0431498
-0.0450361
-0.0465081
-0.0475409
-0.0481156
-0.0482193
-0.0478458
-0.0469968
-0.0456815
-0.0439176
-0.0417312
-0.0391568
-0.0362374
-0.033024
-0.0295753
-0.0259572
-0.0222423
-0.018509
-0.0148409
-0.011326
-0.00805578
-0.0051243
-0.00262687
-0.000662742
0.00261695
0.00775901
0.0127216
0.0174403
0.0218688
0.0259733
0.0297307
0.0331275
0.0361573
0.0388199
0.0411193
0.0430629
0.04466
0.0459209
0.0468562
0.0474762
0.0477905
0.0478074
0.0475343
0.0469772
0.0461411
0.0450302
0.0436477
0.0419967
0.0400803
0.0379019
0.0354657
0.032777
0.0298427
0.0266713
0.0232737
0.0196631
0.0158552
0.0118689
0.0077257
0.00345035
-0.000929381
-0.00538267
-0.00987574
-0.0143721
-0.0188326
-0.0232159
-0.0274791
-0.0315777
-0.0354665
-0.0391001
-0.042434
-0.0454247
-0.0480313
-0.0502158
-0.0519444
-0.0531883
-0.0539245
-0.0541369
-0.0538168
-0.052964
-0.0515868
-0.0497029
-0.0473394
-0.044533
-0.0413297
-0.0377847
-0.0339617
-0.0299326
-0.0257763
-0.0215786
-0.0174303
-0.013427
-0.00966779
-0.006254
-0.0032877
-0.000874464
0.0030265
0.00890183
0.0145179
0.0198161
0.0247559
0.0293089
0.0334573
0.0371921
0.0405116
0.0434194
0.0459231
0.0480332
0.0497617
0.0511211
0.052124
0.0527823
0.0531068
0.0531071
0.0527911
0.0521655
0.0512358
0.0500063
0.0484806
0.0466619
0.0445534
0.0421586
0.0394818
0.0365286
0.0333061
0.0298233
0.0260916
0.0221248
0.0179396
0.0135559
0.00899658
0.00428793
-0.000540421
-0.0054555
-0.0104211
-0.0153978
-0.0203433
-0.025213
-0.0299599
-0.0345352
-0.0388893
-0.042972
-0.0467337
-0.0501257
-0.0531019
-0.0556189
-0.0576378
-0.059125
-0.060053
-0.0604017
-0.0601593
-0.059323
-0.0578996
-0.0559065
-0.0533713
-0.0503325
-0.046839
-0.0429501
-0.0387347
-0.0342706
-0.0296438
-0.0249473
-0.02028
-0.0157458
-0.011452
-0.00750786
-0.00402315
-0.00111081
0.00345907
0.0101075
0.016411
0.0223174
0.0277923
0.0328132
0.0373681
0.0414533
0.045072
0.0482322
0.0509456
0.0532259
0.0550882
0.0565477
0.0576191
0.058316
0.0586508
0.0586341
0.0582747
0.0575802
0.0565562
0.0552074
0.0535378
0.0515505
0.0492488
0.0466362
0.0437173
0.0404975
0.0369843
0.0331868
0.0291167
0.0247886
0.0202198
0.015431
0.0104462
0.00529321
3.22315e-06
-0.00538876
-0.0108442
-0.016321
-0.0217739
-0.0271545
-0.0324121
-0.0374936
-0.0423447
-0.0469102
-0.0511349
-0.0549648
-0.0583477
-0.0612346
-0.0635808
-0.065347
-0.0665006
-0.0670169
-0.06688
-0.0660839
-0.0646333
-0.0625445
-0.0598453
-0.0565754
-0.0527867
-0.0485423
-0.0439162
-0.0389926
-0.0338646
-0.0286334
-0.0234063
-0.0182961
-0.0134191
-0.00889348
-0.00483774
-0.00137324
0.00391332
0.0113723
0.0183954
0.0249371
0.0309696
0.0364769
0.0414533
0.0459009
0.0498281
0.0532478
0.056176
0.0586305
0.0606294
0.0621908
0.063332
0.0640684
0.0644141
0.0643808
0.0639785
0.0632153
0.0620974
0.0606299
0.0588167
0.0566612
0.0541668
0.0513368
0.0481757
0.0446891
0.0408843
0.0367707
0.0323602
0.0276675
0.0227106
0.0175107
0.0120931
0.00648629
0.00072321
-0.00515944
-0.0111209
-0.0171167
-0.0230985
-0.0290145
-0.03481
-0.0404277
-0.0458084
-0.0508915
-0.0556163
-0.0599226
-0.0637521
-0.0670493
-0.0697631
-0.0718477
-0.0732647
-0.0739837
-0.0739841
-0.0732557
-0.0718005
-0.0696328
-0.0667799
-0.0632827
-0.0591953
-0.0545845
-0.0495298
-0.0441217
-0.038461
-0.0326572
-0.0268271
-0.021093
-0.0155811
-0.0104197
-0.00573687
-0.00166356
0.00438786
0.0126925
0.0204652
0.0276676
0.034279
0.0402903
0.0457024
0.0505236
0.0547683
0.0584546
0.061603
0.0642356
0.0663741
0.0680398
0.0692524
0.0700298
0.0703875
0.0703388
0.0698947
0.069064
0.0678537
0.066269
0.064314
0.0619922
0.0593069
0.0562613
0.0528598
0.0491079
0.0450126
0.0405833
0.035832
0.0307735
0.025426
0.0198114
0.0139552
0.00788713
0.00164124
-0.00474422
-0.0112266
-0.017759
-0.0242903
-0.0307655
-0.0371259
-0.0433099
-0.0492533
-0.0548901
-0.0601536
-0.0649772
-0.0692957
-0.0730465
-0.0761714
-0.0786177
-0.0803398
-0.0813009
-0.0814745
-0.0808457
-0.0794123
-0.0771861
-0.0741934
-0.0704752
-0.0660876
-0.0611012
-0.0556005
-0.0496828
-0.0434568
-0.0370411
-0.0305624
-0.0241537
-0.0179521
-0.0120968
-0.00672679
-0.00198393
0.0048812
0.0140641
0.0226143
0.0305011
0.0377111
0.0442428
0.050104
0.0553099
0.0598807
0.0638402
0.0672142
0.070029
0.0723103
0.0740829
0.0753691
0.0761892
0.0765607
0.0764984
0.0760145
0.0751186
0.0738182
0.0721189
0.070025
0.0675401
0.0646671
0.0614094
0.0577709
0.0537568
0.0493739
0.0446315
0.0395411
0.0341177
0.0283793
0.022348
0.0160498
0.00951508
0.00277866
-0.00411987
-0.0111362
-0.0182214
-0.0253216
-0.0323788
-0.0393305
-0.0461107
-0.0526502
-0.0588775
-0.0647195
-0.0701028
-0.074955
-0.0792058
-0.0827889
-0.0856438
-0.0877168
-0.0889639
-0.0893514
-0.0888585
-0.087478
-0.0852182
-0.0821031
-0.0781735
-0.073487
-0.0681175
-0.0621544
-0.0557021
-0.0488775
-0.041809
-0.0346341
-0.0274971
-0.0205474
-0.0139363
-0.00781467
-0.00233681
0.00539176
0.0154828
0.024836
0.033429
0.0412561
0.0483234
0.0546464
0.060247
0.0651522
0.0693916
0.0729963
0.0759975
0.0784251
0.0803072
0.0816695
0.0825347
0.0829224
0.082849
0.0823279
0.0813697
0.0799825
0.0781723
0.0759436
0.0732999
0.0702441
0.066779
0.0629085
0.0586372
0.0539715
0.0489203
0.0434947
0.0377092
0.0315818
0.0251344
0.0183931
0.0113884
0.00415604
-0.00326366
-0.010825
-0.0184772
-0.0261641
-0.0338246
-0.0413929
-0.0487985
-0.0559674
-0.0628221
-0.0692833
-0.0752703
-0.0807029
-0.0855025
-0.0895943
-0.0929084
-0.0953827
-0.0969642
-0.0976112
-0.0972956
-0.0960042
-0.0937402
-0.0905248
-0.0863974
-0.0814165
-0.0756586
-0.0692185
-0.0622071
-0.0547504
-0.0469869
-0.0390659
-0.0311442
-0.0233843
-0.0159509
-0.00900858
-0.00272504
0.00591788
0.0169439
0.0271236
0.0364426
0.0449035
0.0525206
0.0593169
0.0653219
0.0705691
0.0750947
0.0789353
0.082127
0.0847043
0.0866991
0.0881402
0.0890532
0.0894597
0.0893781
0.0888232
0.0878064
0.0863365
0.0844201
0.0820618
0.0792648
0.076032
0.072366
0.06827
0.0637481
0.0588063
0.0534526
0.0476976
0.0415553
0.0350431
0.0281824
0.0209991
0.013524
0.00579264
-0.00215382
-0.0102688
-0.0184999
-0.026789
-0.0350725
-0.043281
-0.0513401
-0.0591706
-0.0666896
-0.073811
-0.0804466
-0.086508
-0.0919078
-0.0965614
-0.100389
-0.103319
-0.105289
-0.106246
-0.106155
-0.104994
-0.102761
-0.0994721
-0.0951651
-0.0898981
-0.08375
-0.0768201
-0.0692265
-0.061104
-0.0526025
-0.0438833
-0.0351174
-0.0264814
-0.018155
-0.0103175
-0.00315178
0.00645781
0.0184429
0.0294697
0.0395325
0.0486425
0.0568221
0.0641024
0.0705205
0.0761171
0.0809348
0.0850161
0.0884025
0.0911329
0.0932434
0.0947663
0.09573
0.0961586
0.0960723
0.0954872
0.0944162
0.0928686
0.0908513
0.0883693
0.0854258
0.0820232
0.0781639
0.0738504
0.0690862
0.0638766
0.0582286
0.0521522
0.0456604
0.0387699
0.0315013
0.0238801
0.0159364
0.00770593
-0.000770083
-0.00944439
-0.0182636
-0.027168
-0.0360914
-0.0449617
-0.0537004
-0.0622237
-0.0704428
-0.078265
-0.0855946
-0.0923343
-0.0983874
-0.103659
-0.108059
-0.111503
-0.113918
-0.115243
-0.115428
-0.114446
-0.112285
-0.108956
-0.104493
-0.0989526
-0.0924161
-0.0849867
-0.0767892
-0.0679681
-0.0586846
-0.0491137
-0.0394409
-0.0298591
-0.020564
-0.0117513
-0.00362054
0.0070097
0.0199748
0.0318669
0.0426892
0.0524616
0.0612151
0.068989
0.0758283
0.0817809
0.0868962
0.0912228
0.0948076
0.0976946
0.099924
0.101532
0.102549
0.103003
0.102916
0.102305
0.101184
0.0995646
0.0974527
0.0948538
0.0917712
0.0882072
0.0841633
0.0796417
0.0746451
0.0691776
0.0632456
0.0568577
0.050026
0.042766
0.0350975
0.0270449
0.0186377
0.00991098
0.000905761
-0.00833053
-0.0177438
-0.0272732
-0.0368508
-0.0464014
-0.0558435
-0.0650884
-0.074042
-0.0826048
-0.0906733
-0.0981414
-0.104902
-0.11085
-0.115883
-0.119905
-0.122829
-0.124582
-0.125103
-0.124353
-0.122312
-0.118982
-0.114393
-0.108599
-0.10168
-0.0937451
-0.0849247
-0.075373
-0.0652635
-0.0547855
-0.0441407
-0.0335391
-0.0231946
-0.0133206
-0.00413518
0.00757163
0.0215344
0.0343073
0.0459027
0.0563492
0.0656865
0.0739625
0.08123
0.0875446
0.0929624
0.0975385
0.101325
0.104372
0.106724
0.108419
0.109494
0.109977
0.109892
0.10926
0.108095
0.106408
0.104209
0.1015
0.098287
0.0945706
0.0903521
0.085633
0.080415
0.0747014
0.0684971
0.0618097
0.0546499
0.0470319
0.0389741
0.0304996
0.0216368
0.0124199
0.00288924
-0.00690808
-0.0169179
-0.0270785
-0.0373205
-0.0475669
-0.0577326
-0.0677253
-0.0774452
-0.0867864
-0.0956377
-0.103884
-0.111408
-0.118092
-0.123821
-0.128487
-0.131989
-0.134237
-0.13516
-0.134704
-0.132837
-0.129554
-0.124875
-0.118851
-0.111563
-0.103121
-0.0936618
-0.0833495
-0.0723702
-0.0609287
-0.0492439
-0.0375449
-0.0260649
-0.0150372
-0.0046999
0.00814163
0.0231164
0.0367829
0.0491626
0.060293
0.0702227
0.079008
0.0867099
0.0933916
0.0991164
0.103946
0.107938
0.111147
0.113623
0.11541
0.116544
0.117059
0.116982
0.116333
0.115129
0.113382
0.111101
0.108291
0.104956
0.101097
0.0967148
0.0918098
0.0863829
0.080436
0.0739731
0.0670001
0.0595261
0.0515637
0.0431298
0.0342459
0.0249387
0.0152412
0.00519259
-0.00516092
-0.0157655
-0.0265593
-0.0374721
-0.0484253
-0.0593313
-0.0700939
-0.0806087
-0.0907635
-0.10044
-0.109512
-0.117854
-0.125335
-0.131827
-0.137207
-0.141358
-0.144176
-0.145572
-0.145478
-0.143849
-0.140666
-0.135943
-0.129722
-0.122084
-0.113138
-0.103028
-0.0919281
-0.0800363
-0.0675741
-0.0547791
-0.0419008
-0.029194
-0.0169135
-0.00531925
0.00871766
0.0247155
0.0392854
0.0524583
0.0642806
0.0748096
0.0841103
0.0922517
0.0993049
0.10534
0.110426
0.114626
0.118001
0.120604
0.122483
0.123681
0.124231
0.124164
0.123502
0.122265
0.120464
0.118109
0.115206
0.111758
0.107767
0.103232
0.098154
0.0925316
0.086366
0.0796594
0.0724163
0.0646441
0.0563535
0.0475594
0.0382813
0.0285444
0.0183794
0.00782412
-0.00307654
-0.0142697
-0.0256941
-0.0372792
-0.0489455
-0.0606034
-0.0721537
-0.0834878
-0.0944877
-0.105027
-0.114973
-0.124186
-0.132525
-0.139847
-0.146012
-0.150889
-0.154355
-0.156303
-0.156647
-0.155327
-0.152309
-0.147594
-0.141218
-0.133256
-0.123817
-0.113051
-0.101139
-0.0882935
-0.0747532
-0.0607758
-0.0466327
-0.0326022
-0.0189628
-0.0059981
0.00929764
0.026326
0.0418065
0.0557792
0.0682993
0.0794331
0.0892538
0.0978388
0.105267
0.111615
0.11696
0.12137
0.124912
0.127644
0.129619
0.130881
0.13147
0.131416
0.130747
0.12948
0.127631
0.125209
0.122221
0.11867
0.114558
0.109883
0.104644
0.0988403
0.0924713
0.0855374
0.0780415
0.0699889
0.0613883
0.0522525
0.0425987
0.0324496
0.0218341
0.0107876
-0.000646685
-0.0124176
-0.0244647
-0.0367184
-0.0490985
-0.0615145
-0.0738649
-0.0860374
-0.0979089
-0.109346
-0.120208
-0.130344
-0.1396
-0.147819
-0.154845
-0.160527
-0.164723
-0.167308
-0.168174
-0.167242
-0.164462
-0.15982
-0.153339
-0.145089
-0.135176
-0.123753
-0.11101
-0.0971728
-0.0824979
-0.0672642
-0.0517673
-0.0363109
-0.0211991
-0.00674168
0.00987951
0.0279425
0.0443379
0.0591146
0.0723366
0.0840787
0.0944227
0.103454
0.111259
0.117923
0.123528
0.128149
0.131859
0.134722
0.136793
0.138122
0.138751
0.138714
0.13804
0.136749
0.134857
0.132375
0.129311
0.125666
0.121443
0.116639
0.111254
0.105284
0.0987277
0.0915841
0.083854
0.0755406
0.0666505
0.0571938
0.0471854
0.0366454
0.0255999
0.0140818
0.00213197
-0.0102006
-0.0228574
-0.0357699
-0.0488586
-0.0620327
-0.0751892
-0.0882131
-0.100977
-0.113342
-0.125158
-0.136264
-0.146495
-0.155677
-0.163638
-0.170206
-0.175221
-0.178532
-0.180012
-0.179558
-0.177098
-0.172602
-0.166079
-0.157585
-0.147226
-0.135155
-0.121568
-0.106705
-0.0908398
-0.0742753
-0.0573324
-0.0403423
-0.0236375
-0.00755556
0.0104612
0.0295595
0.0468712
0.0624538
0.0763798
0.0887323
0.0996015
0.109081
0.117264
0.124244
0.130109
0.134943
0.138821
0.141814
0.143982
0.145378
0.146049
0.146031
0.145355
0.144044
0.142114
0.139579
0.136445
0.132716
0.128392
0.123473
0.117954
0.111834
0.105107
0.0977719
0.0898274
0.0812744
0.0721169
0.0623626
0.0520236
0.0411169
0.0296656
0.0176999
0.00525729
-0.00761575
-0.0208633
-0.0344187
-0.0482042
-0.0621294
-0.0760909
-0.0899721
-0.103642
-0.116957
-0.129759
-0.141879
-0.153137
-0.163346
-0.172316
-0.179854
-0.185777
-0.189912
-0.192103
-0.192224
-0.190179
-0.185913
-0.17942
-0.170742
-0.159975
-0.147272
-0.132835
-0.116917
-0.0998099
-0.0818399
-0.063356
-0.0447196
-0.0262933
-0.00844561
0.0110407
0.0311716
0.0493982
0.0657863
0.0804164
0.0933797
0.104774
0.114702
0.123263
0.130559
0.136684
0.141728
0.145774
0.148896
0.151161
0.152625
0.153338
0.15334
0.152664
0.151335
0.149372
0.146789
0.143592
0.139787
0.135374
0.13035
0.124712
0.118456
0.111576
0.104069
0.0959305
0.0871603
0.0777594
0.0677329
0.0570896
0.0458435
0.0340144
0.0216289
0.00872114
-0.0046658
-0.0184792
-0.0326553
-0.0471186
-0.0617804
-0.0765382
-0.0912745
-0.105857
-0.120136
-0.13395
-0.147119
-0.159452
-0.170748
-0.180797
-0.189388
-0.196312
-0.20137
-0.204378
-0.20518
-0.203653
-0.199716
-0.193338
-0.184545
-0.173422
-0.160116
-0.144833
-0.127836
-0.109438
-0.0899888
-0.069867
-0.0494664
-0.0291829
-0.00941805
0.0116161
0.0327738
0.0519114
0.0691023
0.0844345
0.0980071
0.109926
0.1203
0.129238
0.136848
0.143231
0.148484
0.152695
0.155945
0.158303
0.159833
0.160587
0.160609
0.159934
0.15859
0.156597
0.15397
0.150718
0.146844
0.14235
0.137234
0.13149
0.125114
0.118098
0.110438
0.102128
0.0931635
0.0835446
0.0732729
0.0623541
0.0507988
0.0386231
0.0258497
0.0125091
-0.00135993
-0.0157083
-0.0304762
-0.0455911
-0.0609672
-0.0765038
-0.0920843
-0.107575
-0.122825
-0.137666
-0.151912
-0.165361
-0.177798
-0.188995
-0.198719
-0.206737
-0.212819
-0.216755
-0.218353
-0.217458
-0.213959
-0.207797
-0.198974
-0.187558
-0.173689
-0.157574
-0.139485
-0.119752
-0.0987518
-0.076894
-0.0546071
-0.032323
-0.0104794
0.0121855
0.0343612
0.0544033
0.0723921
0.0884228
0.102602
0.115042
0.125859
0.135171
0.143092
0.149729
0.155187
0.15956
0.162933
0.165383
0.166976
0.167769
0.167809
0.167135
0.165776
0.163755
0.161088
0.157784
0.153849
0.149284
0.144085
0.138248
0.131766
0.124633
0.116839
0.108378
0.0992444
0.089434
0.0789458
0.0677823
0.0559504
0.0434624
0.030337
0.0165999
0.00228591
-0.0125608
-0.0278846
-0.0436175
-0.0596774
-0.0759667
-0.0923708
-0.108757
-0.124974
-0.140848
-0.15619
-0.170786
-0.18441
-0.196816
-0.207749
-0.216952
-0.224164
-0.229141
-0.231657
-0.231519
-0.22858
-0.222746
-0.213992
-0.202364
-0.187988
-0.171067
-0.151881
-0.130777
-0.108158
-0.0844654
-0.0601662
-0.0357311
-0.0116364
0.0127474
0.0359295
0.0568672
0.075647
0.0923705
0.107151
0.120107
0.131364
0.141045
0.149271
0.156158
0.161816
0.166344
0.169836
0.172372
0.174023
0.174851
0.174906
0.17423
0.172856
0.170807
0.168102
0.164751
0.160761
0.156131
0.15086
0.144942
0.13837
0.131135
0.123227
0.114638
0.105359
0.0953844
0.0847096
0.0733338
0.0612603
0.0484972
0.0350587
0.020966
0.00624883
-0.00905373
-0.0248914
-0.0412012
-0.057906
-0.0749126
-0.09211
-0.109368
-0.126535
-0.143439
-0.159883
-0.175648
-0.190494
-0.204162
-0.216376
-0.22685
-0.235296
-0.241432
-0.244993
-0.245746
-0.2435
-0.238124
-0.229554
-0.217811
-0.202998
-0.185313
-0.165039
-0.142536
-0.118234
-0.0926091
-0.0661685
-0.0394248
-0.0128963
0.0133001
0.0374749
0.0592973
0.0788594
0.0962683
0.111643
0.12511
0.1368
0.146843
0.155368
0.162497
0.168347
0.173024
0.176627
0.179242
0.180945
0.181802
0.181867
0.181186
0.179793
0.177716
0.174973
0.171578
0.167536
0.162849
0.157514
0.151526
0.144877
0.137557
0.129554
0.120858
0.11146
0.101348
0.0905177
0.0789635
0.0666849
0.0536862
0.0399768
0.0255729
0.0104989
-0.00521176
-0.0215148
-0.0383532
-0.0556558
-0.0733352
-0.0912854
-0.10938
-0.127471
-0.145386
-0.162927
-0.179869
-0.195964
-0.210937
-0.224493
-0.23632
-0.2461
-0.253512
-0.25825
-0.260035
-0.258628
-0.253852
-0.2456
-0.233855
-0.218697
-0.200306
-0.178964
-0.155045
-0.129004
-0.101352
-0.0726385
-0.0434221
-0.0142663
0.0138427
0.0389941
0.0616888
0.0820228
0.100108
0.116069
0.130038
0.142152
0.152549
0.161364
0.168726
0.174758
0.179575
0.18328
0.185964
0.187711
0.188589
0.188657
0.187965
0.186549
0.184441
0.181659
0.17822
0.174129
0.16939
0.163999
0.157952
0.151238
0.143848
0.135769
0.126989
0.117494
0.107275
0.0963194
0.0846213
0.0721759
0.058983
0.0450472
0.0303799
0.0149994
-0.0010668
-0.0177809
-0.0350928
-0.0529383
-0.0712368
-0.089889
-0.108775
-0.12775
-0.146646
-0.165264
-0.183379
-0.200733
-0.217041
-0.231989
-0.245243
-0.256451
-0.265255
-0.271304
-0.274268
-0.273857
-0.269837
-0.262053
-0.250441
-0.235046
-0.216026
-0.193655
-0.168318
-0.140489
-0.110719
-0.0796003
-0.0477412
-0.015754
0.0143742
0.040485
0.064038
0.0851322
0.103883
0.12042
0.134881
0.14741
0.158149
0.167242
0.174826
0.181029
0.185973
0.189767
0.19251
0.194289
0.195178
0.195241
0.194529
0.193084
0.190939
0.188117
0.184632
0.180495
0.175707
0.170266
0.164168
0.157401
0.149956
0.141818
0.132974
0.123409
0.113108
0.10206
0.0902538
0.0776805
0.0643362
0.0502209
0.0353402
0.019707
0.0033421
-0.0137237
-0.0314477