#           y            Uy
         0.05             0
         0.05      0.015306
         0.05     0.0306119
         0.05     0.0459179
         0.05     0.0612238
         0.05     0.0763139
         0.05     0.0873027
         0.05     0.0982915
         0.05       0.10928
         0.05      0.120269
         0.05      0.130811
         0.05      0.137332
         0.05      0.143853
         0.05      0.150373
         0.05      0.156894
         0.05      0.162807
         0.05       0.16527
         0.05      0.167734
         0.05      0.170198
         0.05      0.172662
         0.05      0.174449
         0.05      0.173527
         0.05      0.172605
         0.05      0.171683
         0.05      0.170761
         0.05      0.169171
         0.05      0.165578
         0.05      0.161984
         0.05      0.158391
         0.05      0.154797
         0.05      0.150599
         0.05      0.144989
         0.05      0.139379
         0.05       0.13377
         0.05       0.12816
         0.05       0.12204
         0.05      0.114972
         0.05      0.107905
         0.05      0.100837
         0.05     0.0937696
         0.05     0.0863046
         0.05     0.0782434
         0.05     0.0701823
         0.05     0.0621211
         0.05       0.05406
         0.05     0.0457318
         0.05     0.0370773
         0.05     0.0284228
         0.05     0.0197682
         0.05     0.0111137
         0.05    0.00235278
         0.05   -0.00651453
         0.05    -0.0153818
         0.05    -0.0242492
         0.05    -0.0331165
         0.05    -0.0418739
         0.05    -0.0505414
         0.05    -0.0592089
         0.05    -0.0678764
         0.05    -0.0765439
         0.05    -0.0847938
         0.05    -0.0927652
         0.05     -0.100737
         0.05     -0.108708
         0.05      -0.11668
         0.05     -0.123794
         0.05     -0.130447
         0.05     -0.137099
         0.05     -0.143752
         0.05     -0.150405
         0.05     -0.155597
         0.05     -0.160163
         0.05      -0.16473
         0.05     -0.169296
         0.05     -0.173862
         0.05     -0.176199
         0.05     -0.177794
         0.05     -0.179388
         0.05     -0.180982
         0.05     -0.182576
         0.05     -0.181069
         0.05     -0.178786
         0.05     -0.176503
         0.05      -0.17422
         0.05     -0.171937
         0.05     -0.165734
         0.05      -0.15884
         0.05     -0.151946
         0.05     -0.145051
         0.05     -0.138157
         0.05     -0.126892
         0.05     -0.115142
         0.05     -0.103391
         0.05     -0.091641
         0.05    -0.0798906
         0.05    -0.0640833
         0.05    -0.0480625
         0.05    -0.0320416
         0.05    -0.0160208
         0.05             0