/*--------------------------------*- C++ -*----------------------------------*\
  =========                 |
  \\      /  F ield         | OpenFOAM: The Open Source CFD Toolbox
   \\    /   O peration     | Website:  https://openfoam.org
    \\  /    A nd           | Version:  dev
     \\/     M anipulation  |
\*---------------------------------------------------------------------------*/
FoamFile
{
    format      ascii;
    class       volScalarField;
    location    "18.9";
    object      p;
}
// * * * * * * * * * * * * * * * * * * * * * * * * * * * * * * * * * * * * * //

dimensions      [0 2 -2 0 0 0 0];

internalField   nonuniform List<scalar> 
5184
(
1.93055e-06
-9.23699e-06
-9.49342e-05
-0.000247647
-0.000446798
-0.000675101
-0.000918319
-0.00116457
-0.00140472
-0.00163165
-0.00183992
-0.00202552
-0.0021855
-0.00231776
-0.00242084
-0.00249375
-0.00253581
-0.00254659
-0.00252581
-0.00247329
-0.00238897
-0.00227281
-0.00212489
-0.00194533
-0.00173439
-0.00149244
-0.00122002
-0.000917878
-0.000587011
-0.000228687
0.000155508
0.00056365
0.000993445
0.00144222
0.00190692
0.00238411
0.00286997
0.00336034
0.00385075
0.00433646
0.00481254
0.00527392
0.00571549
0.00613217
0.00651901
0.0068713
0.0071847
0.00745527
0.00767966
0.00785511
0.00797964
0.00805203
0.00807193
0.00803991
0.00795746
0.00782702
0.00765197
0.00743662
0.00718618
0.0069067
0.00660502
0.00628875
0.00596618
0.00564626
0.00533854
0.00505309
0.00480039
0.00459107
0.00443508
0.00434086
0.0043139
0.00434111
1.59011e-05
3.51173e-06
-7.10075e-05
-0.000198634
-0.000363657
-0.000553594
-0.000757539
-0.000965941
-0.0011709
-0.00136604
-0.0015463
-0.00170776
-0.00184745
-0.00196316
-0.00205324
-0.00211651
-0.00215211
-0.00215944
-0.00213807
-0.00208771
-0.00200818
-0.00189941
-0.00176141
-0.00159428
-0.00139827
-0.00117372
-0.000921174
-0.000641358
-0.00033523
-4.00831e-06
0.000350801
0.00072738
0.00112358
0.00153691
0.00196453
0.00240327
0.0028496
0.00329973
0.00374955
0.00419474
0.00463082
0.00505318
0.0054572
0.00583829
0.00619201
0.00651412
0.00680075
0.00704841
0.00725412
0.00741549
0.00753081
0.00759908
0.00762011
0.00759452
0.00752377
0.00741019
0.00725695
0.00706807
0.00684833
0.00660328
0.00633915
0.00606282
0.00578171
0.00550375
0.00523722
0.00499069
0.00477283
0.004592
0.00445551
0.00436928
0.00434072
0.00436823
0.00010263
7.78874e-05
2.59351e-06
-0.000114799
-0.00026226
-0.000430175
-0.000609865
-0.000793528
-0.000974481
-0.00114717
-0.00130707
-0.00145058
-0.00157491
-0.00167789
-0.00175789
-0.00181367
-0.0018443
-0.0018491
-0.00182756
-0.00177932
-0.00170414
-0.0016019
-0.00147254
-0.00131616
-0.00113292
-0.00092317
-0.000687384
-0.000426245
-0.00014065
0.000168258
0.000499064
0.000850067
0.00121926
0.0016043
0.00200256
0.00241107
0.00282656
0.00324547
0.00366401
0.00407817
0.00448378
0.00487657
0.00525227
0.00560663
0.00593554
0.00623512
0.00650179
0.00673236
0.00692412
0.0070749
0.00718316
0.00724807
0.00726949
0.00724808
0.00718527
0.0070833
0.00694516
0.00677463
0.00657619
0.00635498
0.00611676
0.00586783
0.00561493
0.00536518
0.00512593
0.00490463
0.00470875
0.00454535
0.00442045
0.0043393
0.00431152
0.00434206
0.000257506
0.000206078
0.000118344
-4.33709e-07
-0.000142599
-0.000300415
-0.000466786
-0.000635361
-0.000800604
-0.000957822
-0.00110313
-0.0012334
-0.00134613
-0.00143936
-0.00151156
-0.00156158
-0.0015885
-0.00159162
-0.00157042
-0.00152451
-0.00145361
-0.00135753
-0.00123621
-0.00108964
-0.00091797
-0.000721461
-0.000500536
-0.000255799
1.19349e-05
0.000301621
0.000611953
0.000941353
0.00128795
0.00164957
0.00202374
0.00240768
0.00279833
0.00319234
0.00358613
0.00397593
0.00435781
0.00472775
0.00508169
0.00541564
0.00572571
0.00600825
0.00625986
0.00647754
0.00665874
0.00680143
0.00690418
0.00696622
0.00698746
0.00696856
0.00691091
0.00681664
0.00668863
0.00653045
0.00634634
0.00614113
0.00592019
0.00568936
0.00545485
0.00522313
0.00500086
0.0047947
0.00461126
0.0044568
0.00433676
0.00425618
0.00422514
0.00425029
0.000461991
0.000373429
0.000264959
0.000137466
-6.61098e-06
-0.000161141
-0.000320379
-0.00047933
-0.00063358
-0.000779324
-0.000913377
-0.00103313
-0.00113647
-0.00122174
-0.00128759
-0.00133299
-0.00135711
-0.00135928
-0.00133899
-0.00129585
-0.00122954
-0.00113986
-0.00102665
-0.000889879
-0.000729613
-0.000546038
-0.000339493
-0.000110488
0.000140266
0.000411836
0.000703043
0.00101244
0.00133831
0.00167863
0.0020311
0.00239311
0.00276177
0.00313394
0.00350621
0.00387501
0.0042366
0.00458714
0.00492277
0.00523964
0.00553406
0.00580249
0.00604169
0.00624878
0.00642129
0.00655729
0.00665539
0.00671487
0.00673564
0.00671833
0.00666428
0.00657554
0.00645486
0.00630565
0.00613191
0.00593821
0.00572961
0.00551154
0.00528975
0.00507018
0.00485888
0.00466186
0.00448503
0.00433402
0.00421377
0.00412904
0.00408864
0.00409838
0.000699984
0.000568076
0.000433096
0.000291292
0.000139644
-1.70948e-05
-0.000174332
-0.000328324
-0.000475733
-0.000613628
-0.000739536
-0.000851414
-0.000947598
-0.00102675
-0.00108778
-0.00112982
-0.00115215
-0.00115421
-0.00113551
-0.00109566
-0.00103435
-0.000951306
-0.000846351
-0.000719373
-0.000570356
-0.000399399
-0.000206741
7.2191e-06
0.000241889
0.000496463
0.000769899
0.0010609
0.00136789
0.00168901
0.00202212
0.00236477
0.00271424
0.00306753
0.00342143
0.00377248
0.00411711
0.00445161
0.00477224
0.00507529
0.00535714
0.00561435
0.00584376
0.00604254
0.00620827
0.00633903
0.00643347
0.00649083
0.00651101
0.00649461
0.0064429
0.00635783
0.00624204
0.00609878
0.00593189
0.00574569
0.00554497
0.00533483
0.00512063
0.00490788
0.00470211
0.00450881
0.00433331
0.00418066
0.00405541
0.00396195
0.00390677
0.00389361
0.000957713
0.000779143
0.000613835
0.000453551
0.000289913
0.000126526
-3.29958e-05
-0.000186048
-0.000330292
-0.000463641
-0.000584323
-0.000690874
-0.000782094
-0.000857005
-0.000914803
-0.000954825
-0.000976513
-0.000979392
-0.000963045
-0.000927104
-0.000871238
-0.000795158
-0.000698621
-0.000581447
-0.000443532
-0.000284872
-0.000105593
9.40275e-05
0.000313532
0.000552253
0.000809297
0.00108352
0.00137349
0.00167752
0.00199361
0.00231947
0.00265252
0.00298991
0.00332853
0.00366507
0.00399604
0.00431784
0.00462679
0.00491925
0.00519163
0.00544055
0.00566284
0.00585567
0.00601662
0.00614375
0.00623565
0.00629154
0.00631127
0.00629535
0.00624497
0.00616202
0.006049
0.00590904
0.00574581
0.00556347
0.00536656
0.00515992
0.0049486
0.00473776
0.00453253
0.00433797
0.00415892
0.00399994
0.00386529
0.00375898
0.00368468
0.00364361
0.00122305
0.000996475
0.000798574
0.000616952
0.00043813
0.000264749
9.96011e-05
-5.57425e-05
-0.000199872
-0.000331491
-0.000449508
-0.000553028
-0.000641319
-0.00071378
-0.000769909
-0.000809272
-0.000831482
-0.000836182
-0.000823028
-0.000791682
-0.000741813
-0.000673097
-0.000585237
-0.000477972
-0.000351103
-0.000204517
-3.82135e-05
0.000147665
0.000352802
0.000576685
0.000818572
0.00107747
0.00135213
0.001641
0.00194222
0.00225365
0.00257284
0.00289705
0.00322329
0.00354833
0.00386874
0.00418097
0.00448138
0.00476633
0.00503225
0.00527571
0.0054935
0.00568276
0.00584099
0.00596617
0.00605685
0.00611213
0.00613177
0.00611622
0.00606656
0.00598456
0.00587265
0.00573381
0.0055716
0.00539002
0.00519341
0.00498644
0.00477389
0.00456066
0.00435158
0.00415135
0.00396445
0.00379505
0.00364714
0.00352446
0.00342773
0.00335552
0.0014857
0.00121091
0.000979255
0.000774471
0.000578256
0.000392447
0.000219127
5.89412e-05
-8.7557e-05
-0.000219812
-0.000337377
-0.000439906
-0.000527129
-0.000598824
-0.000654793
-0.000694844
-0.00071877
-0.000726339
-0.000717283
-0.000691301
-0.000648058
-0.0005872
-0.000508367
-0.000411216
-0.000295443
-0.000160815
-7.19749e-06
0.000165412
0.000356851
0.000566766
0.000794582
0.00103947
0.00130033
0.00157577
0.00186408
0.00216325
0.00247094
0.00278452
0.00310107
0.00341742
0.00373018
0.00403583
0.0043307
0.00461113
0.00487349
0.00511428
0.00533021
0.00551831
0.00567598
0.00580108
0.00589201
0.00594778
0.00596803
0.00595306
0.00590386
0.0058221
0.00571006
0.00557066
0.00540732
0.0052239
0.00502464
0.00481403
0.00459671
0.00437734
0.00416054
0.00395079
0.00375226
0.00356883
0.00340436
0.00326237
0.00314069
0.00303537
0.00173671
0.00141421
0.0011484
0.000919404
0.000704343
0.00050438
0.000320992
0.000153978
3.10584e-06
-0.000131757
-0.000250771
-0.000354114
-0.000441963
-0.000514465
-0.000571728
-0.000613798
-0.000640647
-0.000652169
-0.000648173
-0.000628392
-0.000592487
-0.000540069
-0.00047071
-0.000383979
-0.000279458
-0.000156786
-1.56851e-05
0.000144001
0.000322277
0.000518956
0.000733634
0.000965652
0.00121407
0.00147766
0.00175484
0.00204372
0.0023421
0.0026474
0.00295679
0.00326712
0.00357503
0.00387696
0.00416921
0.00444804
0.00470974
0.00495069
0.00516746
0.00535693
0.00551634
0.00564339
0.00573632
0.00579396
0.00581581
0.005802
0.0057534
0.00567155
0.00555862
0.0054174
0.00525123
0.00506388
0.00485949
0.00464243
0.00441724
0.00418846
0.00396056
0.00373787
0.00352438
0.00332377
0.00313986
0.00297612
0.00282758
0.00268791
0.00196816
0.0015989
0.00129907
0.00104537
0.00081059
0.000595314
0.000400484
0.000225126
6.82853e-05
-7.0812e-05
-0.000192894
-0.000298638
-0.000388646
-0.000463425
-0.000523373
-0.000568767
-0.000599753
-0.000616343
-0.00061842
-0.000605744
-0.000577971
-0.000534665
-0.000475329
-0.000399431
-0.000306436
-0.000195844
-6.72234e-05
7.9747e-05
0.000245245
0.000429263
0.000631574
0.000851696
0.00108886
0.00134198
0.00160963
0.00189005
0.00218112
0.00248035
0.00278496
0.00309181
0.00339754
0.00369853
0.00399103
0.00427118
0.00453513
0.00477911
0.00499953
0.00519304
0.00535669
0.00548798
0.00558491
0.00564612
0.0056709
0.00565922
0.00561176
0.00552991
0.00541574
0.00527192
0.00510169
0.00490876
0.00469719
0.00447132
0.00423562
0.00399457
0.0037526
0.00351395
0.00328254
0.00306195
0.00285611
0.0026685
0.00249157
0.00231674
0.00217294
0.00175812
0.00142476
0.00114629
0.000891362
0.000660053
0.000452832
0.000268007
0.000103951
-4.07076e-05
-0.000167232
-0.000276769
-0.000370326
-0.000448749
-0.000512712
-0.000562708
-0.000599046
-0.000621848
-0.000631059
-0.000626462
-0.000607695
-0.000574271
-0.000525614
-0.000461084
-0.000380018
-0.000281768
-0.000165739
-3.14354e-05
0.000121506
0.000293265
0.000483803
0.000692819
0.000919718
0.00116358
0.00142312
0.0016967
0.00198229
0.0022775
0.00257956
0.00288536
0.00319149
0.00349427
0.00378985
0.00407424
0.00434342
0.00459341
0.00482041
0.00502082
0.00519145
0.00532951
0.00543277
0.0054996
0.00552904
0.00552083
0.00547548
0.00539418
0.00527886
0.00513209
0.00495703
0.00475731
0.00453697
0.00430033
0.00405187
0.00379608
0.0035374
0.00328012
0.00302815
0.00278509
0.00255506
0.00234173
0.00213506
0.0019244
0.00234453
0.00188552
0.00151937
0.00121635
0.000941195
0.000693483
0.000473259
0.000278162
0.000105933
-4.53637e-05
-0.000177494
-0.00029205
-0.000390418
-0.000473763
-0.000543015
-0.000598869
-0.000641778
-0.000671963
-0.000689421
-0.000693946
-0.000685146
-0.000662478
-0.000625273
-0.000572775
-0.000504184
-0.000418693
-0.000315533
-0.00019402
-5.35979e-05
0.000106113
0.000285272
0.00048377
0.000701195
0.000936793
0.00118944
0.00145762
0.0017394
0.00203247
0.00233407
0.00264112
0.00295014
0.00325739
0.00355888
0.00385046
0.00412792
0.00438703
0.00462372
0.00483413
0.00501473
0.00516243
0.00527469
0.00534955
0.00538578
0.00538285
0.00534101
0.00526127
0.00514538
0.00499578
0.00481554
0.00460826
0.00437797
0.00412902
0.00386591
0.00359325
0.00331558
0.00303726
0.00276234
0.00249451
0.00223823
0.00199743
0.00175975
0.00151255
0.00247684
0.00197515
0.00157712
0.00125003
0.000954805
0.000690591
0.000457021
0.000251102
6.99748e-05
-8.88323e-05
-0.000227562
-0.000348223
-0.000452557
-0.000542026
-0.000617797
-0.000680744
-0.000731453
-0.000770226
-0.000797098
-0.000811862
-0.000814087
-0.000803158
-0.000778306
-0.00073865
-0.000683237
-0.000611092
-0.00052126
-0.000412857
-0.000285121
-0.000137459
3.04942e-05
0.000218838
0.000427353
0.000655467
0.000902217
0.00116622
0.00144567
0.00173829
0.0020414
0.00235187
0.0026662
0.00298055
0.00329079
0.00359257
0.00388144
0.00415293
0.00440264
0.00462637
0.00482024
0.00498079
0.0051051
0.00519087
0.00523647
0.00524109
0.00520467
0.00512798
0.00501257
0.00486074
0.00467546
0.0044603
0.00421929
0.00395685
0.00367759
0.00338625
0.00308754
0.00278603
0.00248596
0.00219124
0.00190673
0.00163678
0.00136676
0.0010821
0.00256418
0.00202139
0.00159255
0.00124202
0.000927094
0.000646487
0.00039944
0.00018235
-8.21909e-06
-0.000175247
-0.00032143
-0.00044917
-0.000560541
-0.000657277
-0.000740761
-0.000812031
-0.000871784
-0.000920389
-0.000957906
-0.000984109
-0.000998519
-0.00100044
-0.00098898
-0.000963131
-0.000921775
-0.000863753
-0.000787911
-0.000693153
-0.000578496
-0.000443124
-0.000286446
-0.000108143
9.17775e-05
0.000312938
0.00055455
0.000815383
0.00109374
0.00138744
0.00169383
0.00200979
0.00233177
0.00265581
0.00297762
0.00329266
0.00359622
0.0038835
0.00414977
0.00439044
0.00460122
0.00477822
0.00491808
0.00501805
0.00507612
0.00509107
0.00506251
0.00499089
0.00487755
0.00472459
0.00453489
0.00431198
0.00405992
0.00378321
0.00348663
0.0031751
0.00285358
0.00252693
0.00219966
0.00187601
0.00156134
0.0012605
0.000956671
0.000633368
0.00260114
0.00201892
0.00156044
0.00118726
0.000853154
0.000556428
0.000295932
6.74732e-05
-0.000132941
-0.000308777
-0.000463162
-0.000598868
-0.000718281
-0.000823383
-0.000915756
-0.000996581
-0.00106665
-0.00112638
-0.00117584
-0.00121478
-0.00124265
-0.00125865
-0.00126179
-0.00125089
-0.00122466
-0.00118174
-0.00112078
-0.00104044
-0.00093951
-0.000816932
-0.000671872
-0.000503773
-0.000312412
-9.7952e-05
0.000139012
0.000397417
0.000675701
0.000971784
0.00128306
0.00160643
0.00193826
0.00227452
0.00261075
0.00294217
0.00326378
0.00357047
0.00385709
0.00411862
0.00435032
0.00454778
0.00470713
0.00482515
0.00489931
0.00492794
0.00491024
0.00484631
0.00473718
0.00458476
0.0043918
0.00416176
0.00389875
0.0036074
0.00329266
0.00295973
0.00261387
0.00226029
0.0019039
0.00154933
0.00120255
0.000869002
0.000529696
0.000166202
0.00258258
0.00196269
0.00147586
0.00108091
0.000728273
0.000415823
0.000142026
-9.78863e-05
-0.000308443
-0.000493581
-0.000656837
-0.000801334
-0.000929746
-0.00104429
-0.00114672
-0.00123835
-0.00132004
-0.00139225
-0.00145504
-0.00150811
-0.00155084
-0.00158232
-0.00160142
-0.00160679
-0.00159696
-0.00157037
-0.00152542
-0.00146054
-0.00137427
-0.00126528
-0.00113248
-0.000975058
-0.000792534
-0.000584834
-0.000352333
-9.59031e-05
0.000183053
0.000482574
0.000800132
0.00113263
0.00147643
0.00182736
0.00218081
0.00253177
0.00287493
0.0032048
0.00351582
0.00380247
0.00405946
0.00428185
0.00446518
0.00460562
0.0047001
0.00474639
0.0047432
0.0046902
0.00458807
0.00443845
0.00424393
0.00400792
0.00373456
0.0034286
0.00309524
0.00273998
0.00236847
0.00198636
0.00159901
0.00121155
0.000830652
0.000462458
8.57456e-05
-0.000319886
0.00250361
0.00184793
0.00133411
0.000918377
0.000547938
0.00022025
-6.66107e-05
-0.000317976
-0.000538898
-0.000733765
-0.000906506
-0.00106058
-0.00119892
-0.00132397
-0.00143765
-0.00154135
-0.00163603
-0.00172214
-0.00179973
-0.00186844
-0.00192757
-0.00197608
-0.00201268
-0.00203587
-0.00204395
-0.00203514
-0.0020076
-0.00195951
-0.00188913
-0.00179485
-0.0016753
-0.00152937
-0.00135631
-0.00115577
-0.000927894
-0.000673319
-0.00039326
-8.95312e-05
0.000235439
0.000578598
0.000936279
0.00130423
0.00167768
0.00205136
0.00241966
0.00277668
0.00311639
0.00343273
0.00371984
0.0039721
0.00418442
0.00435228
0.00447194
0.00454054
0.00455619
0.00451807
0.00442641
0.00428254
0.00408882
0.00384856
0.00356596
0.00324589
0.00289384
0.00251564
0.00211741
0.0017053
0.00128524
0.000862909
0.000445813
4.08613e-05
-0.000375463
-0.000825622
0.0023596
0.00167008
0.00113072
0.000695273
0.000307845
-3.45246e-05
-0.000334146
-0.000596905
-0.00082836
-0.00103334
-0.00121614
-0.00138055
-0.00152975
-0.00166638
-0.0017925
-0.0019096
-0.00201868
-0.00212019
-0.00221416
-0.00230016
-0.00237736
-0.00244462
-0.00250048
-0.00254323
-0.00257097
-0.00258168
-0.00257325
-0.0025436
-0.00249067
-0.00241258
-0.00230761
-0.00217437
-0.00201179
-0.00181922
-0.00159651
-0.00134404
-0.00106281
-0.000754436
-0.00042122
-6.61397e-05
0.000307146
0.000694318
0.00109044
0.00149002
0.00188712
0.0022754
0.00264834
0.00299929
0.00332172
0.00360932
0.00385622
0.00405713
0.00420754
0.00430385
0.00434347
0.00432495
0.004248
0.00411355
0.00392367
0.00368157
0.00339141
0.00305826
0.00268785
0.00228645
0.00186067
0.00141728
0.000962807
0.000503624
4.81375e-05
-0.000395867
-0.000854319
-0.00135185
0.00214613
0.00142486
0.000861507
0.000407459
3.91425e-06
-0.000352524
-0.000664557
-0.000938607
-0.00118073
-0.00139617
-0.0015896
-0.00176509
-0.00192608
-0.00207538
-0.00221517
-0.00234704
-0.002472
-0.00259052
-0.00270255
-0.0028076
-0.00290474
-0.00299265
-0.00306971
-0.00313401
-0.00318342
-0.00321566
-0.00322836
-0.00321912
-0.00318558
-0.00312552
-0.0030369
-0.00291796
-0.00276729
-0.00258392
-0.00236735
-0.00211767
-0.0018356
-0.00152255
-0.00118061
-0.000812664
-0.000422323
-1.39458e-05
0.000407402
0.000836003
0.00126557
0.00168936
0.00210028
0.00249108
0.00285448
0.00318338
0.00347105
0.00371134
0.00389883
0.00402904
0.00409858
0.00410523
0.00404809
0.00392757
0.00374539
0.00350454
0.00320919
0.00286453
0.00247659
0.00205211
0.00159825
0.00112245
0.000631963
0.00013392
-0.000362257
-0.000847808
-0.00135123
-0.00189946
0.00185908
0.00110823
0.00052251
5.10539e-05
-0.000367686
-0.000737537
-0.00106159
-0.00134681
-0.0015997
-0.00182595
-0.00203057
-0.0022179
-0.00239162
-0.00255471
-0.00270945
-0.00285751
-0.00299992
-0.00313713
-0.00326903
-0.00339505
-0.00351411
-0.00362477
-0.0037252
-0.00381328
-0.00388664
-0.00394273
-0.00397889
-0.0039924
-0.00398056
-0.0039408
-0.0038707
-0.00376812
-0.00363128
-0.0034588
-0.00324983
-0.0030041
-0.00272201
-0.00240467
-0.00205397
-0.00167259
-0.00126408
-0.000832783
-0.000383865
7.67502e-05
0.000542454
0.00100605
0.00145991
0.00189607
0.00230648
0.00268316
0.00301843
0.00330513
0.00353681
0.003708
0.00381431
0.00385266
0.00382137
0.00372021
0.00355044
0.0033148
0.00301735
0.00266341
0.00225934
0.00181232
0.00133016
0.000821042
0.000293034
-0.000245889
-0.000785166
-0.00131496
-0.00186651
-0.00246926
0.00149456
0.000716455
0.00011007
-0.000377549
-0.000810515
-0.00119309
-0.00152876
-0.00182498
-0.00208876
-0.00232616
-0.00254251
-0.00274246
-0.00292988
-0.0031079
-0.00327892
-0.00344466
-0.00360616
-0.00376384
-0.00391754
-0.00406657
-0.00420973
-0.00434541
-0.0044716
-0.00458593
-0.00468581
-0.00476838
-0.00483067
-0.00486963
-0.00488221
-0.00486544
-0.0048165
-0.00473283
-0.00461222
-0.00445286
-0.00425348
-0.00401339
-0.00373261
-0.00341191
-0.00305287
-0.00265797
-0.00223058
-0.001775
-0.00129644
-0.000801015
-0.000295621
0.000212108
0.000713946
0.00120123
0.00166507
0.00209651
0.00248682
0.00282769
0.00311153
0.00333167
0.00348261
0.0035602
0.00356183
0.0034865
0.00333488
0.00310931
0.00281371
0.00245348
0.00203527
0.00156677
0.00105648
0.000513392
-5.35228e-05
-0.000635334
-0.00122022
-0.00179715
-0.00240035
-0.00306192
0.00104902
0.000246089
-0.00037917
-0.000881649
-0.00132783
-0.00172241
-0.00206926
-0.00237634
-0.0026511
-0.00289999
-0.00312866
-0.00334201
-0.00354411
-0.00373825
-0.00392693
-0.00411189
-0.00429419
-0.00447423
-0.00465176
-0.00482598
-0.00499558
-0.00515876
-0.00531329
-0.00545661
-0.00558583
-0.00569782
-0.00578927
-0.00585677
-0.00589689
-0.00590624
-0.00588157
-0.00581987
-0.00571842
-0.00557496
-0.00538773
-0.00515556
-0.00487802
-0.00455545
-0.00418908
-0.00378108
-0.0033346
-0.00285382
-0.00234394
-0.00181119
-0.00126274
-0.000706648
-0.000151722
0.000392639
0.000916628
0.00141026
0.00186364
0.00226719
0.00261199
0.00289004
0.0030945
0.00321999
0.00326277
0.00322087
0.00309422
0.00288464
0.0025958
0.00223312
0.00180351
0.00131519
0.000777383
0.000199978
-0.000407058
-0.00103373
-0.00166682
-0.00229399
-0.00295265
-0.00367784
0.000519238
-0.000305969
-0.000948231
-0.00146422
-0.00192258
-0.00232841
-0.002686
-0.00300378
-0.00328962
-0.00355033
-0.0037919
-0.00401945
-0.00423726
-0.00444874
-0.00465648
-0.00486227
-0.00506717
-0.00527152
-0.00547502
-0.00567675
-0.00587527
-0.00606858
-0.00625428
-0.00642954
-0.00659121
-0.00673586
-0.00685983
-0.00695934
-0.00703054
-0.00706961
-0.00707282
-0.00703664
-0.00695787
-0.00683367
-0.00666175
-0.0064404
-0.00616866
-0.00584638
-0.00547432
-0.00505427
-0.00458908
-0.00408271
-0.00354029
-0.0029681
-0.00237353
-0.00176503
-0.00115198
-0.000544518
4.65913e-05
0.000610253
0.00113529
0.00161073
0.00202617
0.00237206
0.00264004
0.00282327
0.00291664
0.00291703
0.00282341
0.00263693
0.00236086
0.00200054
0.00156313
0.00105733
0.000493164
-0.000118526
-0.000766674
-0.00144011
-0.00212406
-0.00280472
-0.00352301
-0.00431711
-9.76365e-05
-0.000942452
-0.00159977
-0.00212787
-0.00259733
-0.00301367
-0.00338154
-0.00370984
-0.00400686
-0.00427976
-0.00453481
-0.00477738
-0.00501192
-0.00524198
-0.00547023
-0.00569849
-0.00592782
-0.00615852
-0.00639022
-0.00662189
-0.00685193
-0.00707819
-0.00729804
-0.00750843
-0.00770592
-0.00788676
-0.00804694
-0.00818229
-0.00828852
-0.00836134
-0.00839652
-0.00838998
-0.00833794
-0.00823698
-0.00808418
-0.00787723
-0.00761455
-0.0072954
-0.00692001
-0.00648966
-0.00600681
-0.00547511
-0.00489953
-0.0042863
-0.00364298
-0.00297833
-0.00230228
-0.00162573
-0.000960404
-0.000318582
0.000287186
0.000844402
0.00134099
0.00176566
0.0021083
0.00236034
0.00251509
0.00256798
0.00251681
0.00236183
0.00210578
0.00175377
0.00131311
0.000793012
0.000204272
-0.000441207
-0.00113117
-0.00185313
-0.00259062
-0.00332819
-0.00411059
-0.00497936
-0.000804054
-0.0016657
-0.00233608
-0.00287485
-0.00335431
-0.00378037
-0.00415805
-0.0044967
-0.00480499
-0.00509042
-0.00535954
-0.00561795
-0.00587026
-0.00612015
-0.00637037
-0.00662277
-0.0068784
-0.00713754
-0.00739972
-0.00766383
-0.00792812
-0.00819026
-0.00844743
-0.00869632
-0.00893321
-0.00915403
-0.00935442
-0.00952978
-0.00967538
-0.00978643
-0.00985815
-0.00988588
-0.00986522
-0.00979209
-0.00966288
-0.0094746
-0.00922496
-0.00891255
-0.00853694
-0.00809883
-0.00760015
-0.00704413
-0.00643546
-0.00578025
-0.00508608
-0.00436201
-0.00361842
-0.00286696
-0.00212033
-0.00139203
-0.000696073
-4.66232e-05
0.000542403
0.00105776
0.00148734
0.00182057
0.00204885
0.00216592
0.00216811
0.00205451
0.0018271
0.0014906
0.00105238
0.000522101
-8.86489e-05
-0.000766855
-0.00149896
-0.00227104
-0.00306472
-0.00386275
-0.004714
-0.0056637
-0.00160203
-0.00247764
-0.003159
-0.00370698
-0.00419531
-0.0046303
-0.00501732
-0.00536613
-0.00568577
-0.00598407
-0.00626783
-0.00654287
-0.00681398
-0.00708494
-0.00735857
-0.00763677
-0.00792059
-0.00821026
-0.00850526
-0.00880436
-0.00910569
-0.00940675
-0.00970452
-0.00999543
-0.0102755
-0.0105403
-0.0107852
-0.011005
-0.0111947
-0.0113488
-0.0114621
-0.0115293
-0.0115452
-0.0115051
-0.0114046
-0.0112399
-0.0110081
-0.0107068
-0.0103349
-0.00989245
-0.00938062
-0.00880215
-0.00816129
-0.00746391
-0.00671754
-0.00593136
-0.00511619
-0.00428435
-0.0034495
-0.00262638
-0.00183054
-0.00107793
-0.000384478
0.000234399
0.000764308
0.00119239
0.00150783
0.00170231
0.00177034
0.00170959
0.00152097
0.00120863
0.00077983
0.00024458
-0.000384726
-0.00109392
-0.00186802
-0.00269154
-0.00354398
-0.00440611
-0.00533125
-0.00636858
-0.00249311
-0.00337975
-0.00406998
-0.00462568
-0.00512174
-0.00556484
-0.00596071
-0.00631947
-0.00665053
-0.006962
-0.00726095
-0.00755338
-0.00784426
-0.00813747
-0.00843592
-0.00874155
-0.00905541
-0.00937769
-0.00970782
-0.0100445
-0.0103857
-0.0107287
-0.0110704
-0.011407
-0.0117342
-0.0120472
-0.012341
-0.0126101
-0.0128488
-0.0130513
-0.0132116
-0.0133237
-0.0133819
-0.0133806
-0.0133146
-0.0131793
-0.0129707
-0.0126858
-0.0123225
-0.0118799
-0.0113585
-0.0107604
-0.0100892
-0.00935037
-0.00855127
-0.00770112
-0.006811
-0.00589383
-0.00496419
-0.00403808
-0.0031326
-0.00226561
-0.00145519
-0.000719161
-7.44654e-05
0.000463423
0.000881103
0.00116781
0.00131589
0.00132117
0.00118319
0.000905254
0.000494288
-3.94466e-05
-0.000682806
-0.00142042
-0.00223581
-0.00311174
-0.00402538
-0.00495526
-0.00595956
-0.00709169
-0.00347837
-0.00437305
-0.00507001
-0.0056319
-0.00613455
-0.00658493
-0.00698913
-0.00735762
-0.00770012
-0.00802502
-0.00833963
-0.00865016
-0.00896171
-0.0092783
-0.0096029
-0.0099375
-0.0102832
-0.0106401
-0.0110076
-0.0113843
-0.0117682
-0.0121563
-0.0125453
-0.0129312
-0.0133095
-0.013675
-0.0140223
-0.0143456
-0.0146386
-0.0148949
-0.015108
-0.0152711
-0.0153777
-0.0154215
-0.0153964
-0.0152968
-0.0151177
-0.0148552
-0.0145061
-0.0140686
-0.0135423
-0.0129284
-0.0122297
-0.0114513
-0.0105999
-0.00968488
-0.00871731
-0.00771063
-0.00668023
-0.00564334
-0.00461864
-0.00362593
-0.00268564
-0.00181816
-0.00104328
-0.000379426
0.000157018
0.000552422
0.000796507
0.000882845
0.000809198
0.000577661
0.000194586
-0.000329706
-0.0009814
-0.00174391
-0.00259917
-0.00352802
-0.00450507
-0.00550636
-0.00659529
-0.00782981
-0.00455834
-0.00545805
-0.00615961
-0.00672619
-0.00723424
-0.00769108
-0.00810306
-0.008481
-0.0088349
-0.00917342
-0.00950409
-0.0098333
-0.0101663
-0.0105073
-0.0108592
-0.0112242
-0.0116033
-0.0119968
-0.0124038
-0.012823
-0.0132522
-0.0136884
-0.0141281
-0.014567
-0.0150003
-0.0154227
-0.0158282
-0.0162107
-0.0165633
-0.0168792
-0.017151
-0.0173715
-0.0175332
-0.0176288
-0.0176515
-0.0175945
-0.0174519
-0.0172185
-0.0168902
-0.016464
-0.0159384
-0.0153135
-0.0145914
-0.0137762
-0.0128743
-0.0118946
-0.0108481
-0.00974869
-0.00861241
-0.00745759
-0.00630449
-0.00517491
-0.00409168
-0.00307801
-0.00215677
-0.00134971
-0.000676605
-0.000154418
0.000203442
0.000387786
0.000394122
0.000222915
-0.000120405
-0.000625701
-0.00127861
-0.00206137
-0.00295421
-0.00393594
-0.00497829
-0.00605457
-0.00723377
-0.00857867
-0.00573306
-0.00663482
-0.00733883
-0.00790859
-0.00842089
-0.00888332
-0.00930251
-0.00968956
-0.0100548
-0.010407
-0.010754
-0.0111023
-0.0114575
-0.0118236
-0.012204
-0.0126006
-0.0130146
-0.0134462
-0.0138948
-0.0143587
-0.0148358
-0.0153229
-0.0158164
-0.0163118
-0.016804
-0.0172875
-0.0177559
-0.0182026
-0.0186204
-0.0190016
-0.0193384
-0.0196227
-0.0198463
-0.020001
-0.0200787
-0.0200718
-0.0199733
-0.0197766
-0.0194764
-0.0190686
-0.0185502
-0.0179204
-0.01718
-0.0163323
-0.0153828
-0.0143398
-0.0132143
-0.0120201
-0.0107738
-0.00949488
-0.00820492
-0.00692775
-0.00568868
-0.00451388
-0.00342957
-0.00246116
-0.00163225
-0.000963641
-0.000472436
-0.000171159
-6.71189e-05
-0.000161994
-0.00045171
-0.000926635
-0.00157206
-0.0023691
-0.00329625
-0.00433009
-0.00543924
-0.00659393
-0.00786914
-0.0093328
-0.00700202
-0.00790288
-0.00860726
-0.00917872
-0.00969412
-0.0101612
-0.010587
-0.0109828
-0.011359
-0.0117249
-0.0120884
-0.0124561
-0.0128338
-0.0132258
-0.0136353
-0.0140645
-0.0145146
-0.0149859
-0.0154776
-0.0159882
-0.0165155
-0.0170561
-0.0176063
-0.0181615
-0.0187165
-0.0192651
-0.019801
-0.0203169
-0.0208051
-0.0212575
-0.0216655
-0.0220203
-0.0223128
-0.0225338
-0.0226742
-0.0227254
-0.0226789
-0.0225271
-0.0222632
-0.0218815
-0.0213781
-0.0207504
-0.0199981
-0.0191232
-0.0181304
-0.0170271
-0.0158238
-0.0145342
-0.0131753
-0.0117672
-0.0103329
-0.0088982
-0.00749088
-0.00614014
-0.00487581
-0.00372725
-0.00272234
-0.00188627
-0.00124041
-0.00080129
-0.000579684
-0.000580029
-0.00080014
-0.00123131
-0.00185877
-0.00266262
-0.00361962
-0.00470397
-0.00588086
-0.00711714
-0.00849417
-0.0100853
-0.00836416
-0.0092613
-0.00996403
-0.0105358
-0.0110531
-0.011524
-0.0119557
-0.0123597
-0.0127466
-0.0131259
-0.0135057
-0.013893
-0.0142934
-0.0147114
-0.0151506
-0.0156131
-0.0161002
-0.0166122
-0.0171484
-0.0177074
-0.0182867
-0.0188831
-0.0194927
-0.0201107
-0.0207317
-0.0213494
-0.0219569
-0.0225467
-0.0231106
-0.0236398
-0.0241252
-0.024557
-0.0249254
-0.0252202
-0.0254313
-0.0255487
-0.0255627
-0.0254643
-0.0252453
-0.0248986
-0.0244184
-0.0238009
-0.0230443
-0.0221491
-0.0211186
-0.0199594
-0.0186811
-0.0172971
-0.0158243
-0.0142835
-0.0126989
-0.0110978
-0.00951068
-0.00796973
-0.00650852
-0.0051607
-0.00395883
-0.00293303
-0.00210962
-0.00150982
-0.00114862
-0.00103395
-0.00116616
-0.00153801
-0.00213503
-0.00293653
-0.00391755
-0.0050498
-0.00629473
-0.00761543
-0.00910008
-0.0108277
-0.00981792
-0.0107086
-0.0114078
-0.0119784
-0.0124966
-0.0129704
-0.0134072
-0.0138187
-0.0142159
-0.0146082
-0.015004
-0.0154105
-0.0158334
-0.0162776
-0.0167464
-0.0172425
-0.017767
-0.0183204
-0.0189021
-0.0195106
-0.0201434
-0.0207975
-0.0214686
-0.0221521
-0.0228421
-0.0235322
-0.0242153
-0.0248833
-0.0255277
-0.0261392
-0.0267077
-0.027223
-0.0276742
-0.0280502
-0.0283397
-0.0285315
-0.0286147
-0.0285787
-0.0284137
-0.0281111
-0.0276635
-0.0270652
-0.0263128
-0.0254052
-0.0243442
-0.023135
-0.0217862
-0.0203105
-0.0187246
-0.0170493
-0.0153099
-0.0135352
-0.0117579
-0.0100134
-0.00833896
-0.00677283
-0.00535262
-0.00411392
-0.00308866
-0.00230354
-0.00177861
-0.00152611
-0.00154972
-0.00184431
-0.00239624
-0.00318432
-0.00418197
-0.00535831
-0.00667077
-0.0080783
-0.00967626
-0.0115496
-0.0113612
-0.0122431
-0.0129369
-0.0135051
-0.0140229
-0.0144987
-0.0149398
-0.0153582
-0.0157648
-0.0161694
-0.0165806
-0.0170056
-0.0174505
-0.0179203
-0.0184186
-0.0189479
-0.0195098
-0.0201048
-0.0207323
-0.0213909
-0.0220783
-0.0227913
-0.0235256
-0.0242765
-0.025038
-0.0258035
-0.0265655
-0.0273157
-0.028045
-0.0287435
-0.0294007
-0.0300055
-0.030546
-0.0310103
-0.0313859
-0.0316604
-0.0318213
-0.0318567
-0.0317553
-0.0315064
-0.0311011
-0.0305318
-0.0297931
-0.0288822
-0.0277991
-0.0265474
-0.0251343
-0.0235714
-0.0218749
-0.0200654
-0.0181687
-0.016215
-0.0142389
-0.0122788
-0.0103758
-0.00857283
-0.00691292
-0.0054376
-0.00418511
-0.00318844
-0.00247362
-0.00205815
-0.00194998
-0.0021469
-0.00263672
-0.0033982
-0.00440332
-0.0056186
-0.00699712
-0.00849329
-0.0102101
-0.0122386
-0.0129915
-0.0138622
-0.0145492
-0.0151137
-0.0156302
-0.016107
-0.0165514
-0.0169756
-0.0173908
-0.0178067
-0.0182322
-0.0186747
-0.0191406
-0.019635
-0.0201618
-0.0207236
-0.0213223