/*--------------------------------*- C++ -*----------------------------------*\
  =========                 |
  \\      /  F ield         | OpenFOAM: The Open Source CFD Toolbox
   \\    /   O peration     | Website:  https://openfoam.org
    \\  /    A nd           | Version:  dev
     \\/     M anipulation  |
\*---------------------------------------------------------------------------*/
FoamFile
{
    format      ascii;
    class       surfaceScalarField;
    location    "18.9";
    object      phi;
}
// * * * * * * * * * * * * * * * * * * * * * * * * * * * * * * * * * * * * * //

dimensions      [0 3 -1 0 0 0 0];

internalField   nonuniform List<scalar> 
10224
(
3.36644e-08
-3.49356e-08
8.76811e-08
-5.40021e-08
1.2416e-07
-3.64598e-08
1.25039e-07
-8.77843e-10
8.33595e-08
4.16679e-08
-2.13308e-09
8.54808e-08
-1.29609e-07
1.27473e-07
-2.9576e-07
1.66157e-07
-4.96537e-07
2.00784e-07
-7.27647e-07
2.31114e-07
-9.84825e-07
2.57179e-07
-1.26398e-06
2.79155e-07
-1.56128e-06
2.97296e-07
-1.87317e-06
3.11886e-07
-2.19638e-06
3.2321e-07
-2.52791e-06
3.31533e-07
-2.865e-06
3.37093e-07
-3.20509e-06
3.40089e-07
-3.54577e-06
3.40681e-07
-3.88476e-06
3.38992e-07
-4.21987e-06
3.35108e-07
-4.54895e-06
3.29081e-07
-4.86989e-06
3.20938e-07
-5.18057e-06
3.10681e-07
-5.47887e-06
2.98298e-07
-5.76263e-06
2.83767e-07
-6.0297e-06
2.67067e-07
-6.27788e-06
2.48181e-07
-6.50499e-06
2.27105e-07
-6.70884e-06
2.03853e-07
-6.8873e-06
1.78463e-07
-7.0383e-06
1.51003e-07
-7.15988e-06
1.21573e-07
-7.25019e-06
9.0315e-08
-7.3076e-06
5.74073e-08
-7.33067e-06
2.30726e-08
-7.31824e-06
-1.24239e-08
-7.26947e-06
-4.87745e-08
-7.18384e-06
-8.56305e-08
-7.06123e-06
-1.22605e-07
-6.90195e-06
-1.59279e-07
-6.70675e-06
-1.95201e-07
-6.47685e-06
-2.29905e-07
-6.21394e-06
-2.62907e-07
-5.92022e-06
-2.93721e-07
-5.59835e-06
-3.21864e-07
-5.25148e-06
-3.46873e-07
-4.88317e-06
-3.68308e-07
-4.4974e-06
-3.85769e-07
-4.0985e-06
-3.98901e-07
-3.69109e-06
-4.0741e-07
-3.28002e-06
-4.11064e-07
-2.87031e-06
-4.0971e-07
-2.46704e-06
-4.03271e-07
-2.07529e-06
-3.91756e-07
-1.70002e-06
-3.75262e-07
-1.34605e-06
-3.53974e-07
-1.01789e-06
-3.28163e-07
-7.19694e-07
-2.98192e-07
-4.55186e-07
-2.64508e-07
-2.27537e-07
-2.27649e-07
-3.9292e-08
-1.88244e-07
1.07742e-07
-1.47034e-07
2.12627e-07
-1.04884e-07
2.75471e-07
-6.28445e-08
2.97703e-07
-2.22311e-08
2.82493e-07
1.52131e-08
2.35425e-07
4.70711e-08
1.65548e-07
6.98789e-08
8.71338e-08
7.84086e-08
2.25331e-08
6.45872e-08
2.25217e-08
5.37744e-08
-8.86966e-08
1.12155e-07
-1.12329e-07
1.17806e-07
-4.20928e-08
3.8395e-08
7.85293e-08
-1.42444e-07
2.2249e-07
-4.30008e-07
3.73025e-07
-8.22514e-07
5.19972e-07
-1.31382e-06
6.57474e-07
-1.89539e-06
7.82357e-07
-2.55741e-06
8.93137e-07
-3.28961e-06
9.89385e-07
-4.08177e-06
1.07131e-06
-4.92396e-06
1.13948e-06
-5.80675e-06
1.19468e-06
-6.72127e-06
1.23773e-06
-7.65919e-06
1.26946e-06
-8.61273e-06
1.29063e-06
-9.57454e-06
1.3019e-06
-1.05377e-05
1.30382e-06
-1.14955e-05
1.29682e-06
-1.24416e-05
1.2812e-06
-1.33697e-05
1.25718e-06
-1.42737e-05
1.22488e-06
-1.51473e-05
1.18434e-06
-1.59846e-05
1.13556e-06
-1.67793e-05
1.07852e-06
-1.75255e-05
1.0132e-06
-1.82169e-05
9.39591e-07
-1.88475e-05
8.57738e-07
-1.94114e-05
7.67757e-07
-1.99028e-05
6.69851e-07
-2.03161e-05
5.64332e-07
-2.06462e-05
4.5163e-07
-2.08882e-05
3.32315e-07
-2.10379e-05
2.07098e-07
-2.10916e-05
7.68428e-08
-2.10466e-05
-5.74373e-08
-2.09008e-05
-1.94579e-07
-2.06532e-05
-3.33277e-07
-2.03037e-05
-4.72097e-07
-1.98535e-05
-6.09489e-07
-1.93049e-05
-7.43809e-07
-1.86614e-05
-8.73344e-07
-1.7928e-05
-9.96339e-07
-1.71107e-05
-1.11103e-06
-1.62168e-05
-1.21569e-06
-1.52551e-05
-1.30864e-06
-1.42351e-05
-1.38831e-06
-1.31676e-05
-1.45327e-06
-1.20642e-05
-1.50224e-06
-1.09374e-05
-1.5342e-06
-9.80018e-06
-1.54832e-06
-8.66583e-06
-1.54406e-06
-7.54791e-06
-1.52118e-06
-6.45993e-06
-1.47974e-06
-5.4151e-06
-1.4201e-06
-4.42611e-06
-1.34296e-06
-3.50489e-06
-1.24938e-06
-2.66239e-06
-1.14069e-06
-1.90829e-06
-1.01861e-06
-1.25075e-06
-8.85186e-07
-6.96174e-07
-7.42817e-07
-2.48872e-07
-5.94334e-07
8.93069e-08
-4.43061e-07
3.19431e-07
-2.92967e-07
4.4609e-07
-1.4889e-07
4.78253e-07
-1.69527e-08
4.30373e-07
9.49501e-08
3.23863e-07
1.76398e-07
1.88702e-07
2.13593e-07
6.43104e-08
1.89011e-07
8.68232e-08
3.72419e-08
-1.25919e-07
4.30729e-08
-1.18154e-07
-4.36501e-08
4.46117e-08
-2.59133e-07
2.93994e-07
-6.22942e-07
5.86291e-07
-1.14217e-06
8.92253e-07
-1.81507e-06
1.19288e-06
-2.634e-06
1.47641e-06
-3.58759e-06
1.73595e-06
-4.66234e-06
1.96789e-06
-5.84369e-06
2.17073e-06
-7.11676e-06
2.34438e-06
-8.46687e-06
2.48959e-06
-9.87978e-06
2.60759e-06
-1.13419e-05
2.69985e-06
-1.28403e-05
2.76785e-06
-1.43627e-05
2.81303e-06
-1.58974e-05
2.83665e-06
-1.74334e-05
2.83979e-06
-1.89599e-05
2.8233e-06
-2.04665e-05
2.78784e-06
-2.19432e-05
2.73385e-06
-2.33799e-05
2.66161e-06
-2.47668e-05
2.57127e-06
-2.60942e-05
2.4629e-06
-2.73522e-05
2.33652e-06
-2.85311e-05
2.19216e-06
-2.96214e-05
2.0299e-06
-3.06136e-05
1.84994e-06
-3.14985e-05
1.65261e-06
-3.22671e-05
1.43844e-06
-3.29109e-05
1.20818e-06
-3.34221e-05
9.6283e-07
-3.37935e-05
7.03675e-07
-3.40187e-05
4.323e-07
-3.40924e-05
1.50595e-07
-3.40106e-05
-1.3924e-07
-3.37705e-05
-4.34703e-07
-3.33708e-05
-7.33003e-07
-3.28118e-05
-1.03109e-06
-3.20956e-05
-1.32568e-06
-3.12261e-05
-1.61332e-06
-3.0209e-05
-1.8904e-06
-2.90521e-05
-2.15326e-06
-2.77649e-05
-2.39822e-06
-2.6359e-05
-2.62165e-06
-2.48475e-05
-2.8201e-06
-2.32455e-05
-2.99028e-06
-2.15696e-05
-3.12924e-06
-1.98374e-05
-3.23437e-06
-1.80681e-05
-3.3035e-06
-1.62815e-05
-3.33499e-06
-1.44978e-05
-3.32773e-06
-1.27378e-05
-3.28122e-06
-1.10219e-05
-3.19561e-06
-9.37026e-06
-3.07173e-06
-7.80213e-06
-2.91109e-06
-6.3356e-06
-2.7159e-06
-4.9872e-06
-2.4891e-06
-3.7715e-06
-2.23431e-06
-2.70074e-06
-1.95595e-06
-1.78438e-06
-1.65917e-06
-1.02866e-06
-1.35005e-06
-4.3606e-07
-1.03566e-06
-4.67061e-09
-7.24354e-07
2.7255e-07
-4.26107e-07
4.08652e-07
-1.53053e-07
4.23836e-07
7.97599e-08
3.46685e-07
2.53535e-07
2.15358e-07
3.44913e-07
7.85287e-08
3.25858e-07
1.65349e-07
1.83566e-09
-1.27746e-07
-7.9107e-08
-3.72212e-08
-2.97818e-07
2.63295e-07
-6.87953e-07
6.841e-07
-1.26778e-06
1.16611e-06
-2.04354e-06
1.66802e-06
-3.01245e-06
2.1618e-06
-4.16526e-06
2.62922e-06
-5.48838e-06
3.05907e-06
-6.96549e-06
3.445e-06
-8.57877e-06
3.78401e-06
-1.03098e-05
4.07537e-06
-1.214e-05
4.3198e-06
-1.40513e-05
4.51887e-06
-1.6026e-05
4.67463e-06
-1.80474e-05
4.78926e-06
-2.00993e-05
4.86489e-06
-2.21661e-05
4.90348e-06
-2.4233e-05
4.90668e-06
-2.62856e-05
4.87586e-06
-2.83098e-05
4.81207e-06
-3.0292e-05
4.71606e-06
-3.22187e-05
4.58834e-06
-3.40767e-05
4.42922e-06
-3.58527e-05
4.23889e-06
-3.75337e-05
4.0175e-06
-3.91067e-05
3.7652e-06
-4.05591e-05
3.48227e-06
-4.18783e-05
3.16916e-06
-4.30522e-05
2.82657e-06
-4.40693e-05
2.45552e-06
-4.49185e-05
2.0574e-06
-4.55897e-05
1.63403e-06
-4.60738e-05
1.1877e-06
-4.63626e-05
7.21159e-07
-4.64497e-05
2.37693e-07
-4.633e-05
-2.58923e-07
-4.60003e-05
-7.6442e-07
-4.54593e-05
-1.27407e-06
-4.47076e-05
-1.78271e-06
-4.37485e-05
-2.28483e-06
-4.25872e-05
-2.77463e-06
-4.12315e-05
-3.24609e-06
-3.96917e-05
-3.69309e-06
-3.79804e-05
-4.10951e-06
-3.61127e-05
-4.48934e-06
-3.41059e-05
-4.82682e-06
-3.19797e-05
-5.11655e-06
-2.97553e-05
-5.35361e-06
-2.7456e-05
-5.53371e-06
-2.51062e-05
-5.65328e-06
-2.27316e-05
-5.7096e-06
-2.03584e-05
-5.70085e-06
-1.80134e-05
-5.62625e-06
-1.57229e-05
-5.48609e-06
-1.35129e-05
-5.28178e-06
-1.14081e-05
-5.01588e-06
-9.43184e-06
-4.69214e-06
-7.60541e-06
-4.31553e-06
-5.94752e-06
-3.89221e-06
-4.47385e-06
-3.42962e-06
-3.19651e-06
-2.93651e-06
-2.12347e-06
-2.42309e-06
-1.25792e-06
-1.90121e-06
-5.97649e-07
-1.38463e-06
-1.34225e-07
-8.89528e-07
1.47815e-07
-4.35087e-07
2.71896e-07
-4.43129e-08
2.70425e-07
2.55005e-07
1.85843e-07
4.29485e-07
7.2072e-08
4.39636e-07
2.37422e-07
-4.20883e-08
-8.56659e-08
-2.30049e-07
1.50728e-07
-6.06409e-07
6.39642e-07
-1.1977e-06
1.27538e-06
-2.01762e-06
1.98603e-06
-3.06933e-06
2.71974e-06
-4.34763e-06
3.44011e-06
-5.84111e-06
4.12271e-06
-7.53392e-06
4.75188e-06
-9.40726e-06
5.31834e-06
-1.14406e-05
5.81735e-06
-1.36125e-05
6.24732e-06
-1.59015e-05
6.60873e-06
-1.8286e-05
6.90341e-06
-2.07453e-05
7.13389e-06
-2.3259e-05
7.30298e-06
-2.58076e-05
7.41353e-06
-2.83723e-05
7.46815e-06
-3.09348e-05
7.46914e-06
-3.34773e-05
7.41839e-06
-3.59826e-05
7.31739e-06
-3.84338e-05
7.16724e-06
-4.08142e-05
6.96874e-06
-4.31074e-05
6.72241e-06
-4.52971e-05
6.42864e-06
-4.73674e-05
6.08776e-06
-4.93023e-05
5.70015e-06
-5.10865e-05
5.26638e-06
-5.27046e-05
4.78729e-06
-5.41421e-05
4.26409e-06
-5.5385e-05
3.69846e-06
-5.64203e-05
3.09266e-06
-5.72358e-05
2.44953e-06
-5.78207e-05
1.77262e-06
-5.81657e-05
1.06617e-06
-5.82632e-05
3.35149e-07
-5.81074e-05
-4.14734e-07
-5.76947e-05
-1.17708e-06
-5.7024e-05
-1.94481e-06
-5.60964e-05
-2.71026e-06
-5.4916e-05
-3.46526e-06
-5.34894e-05
-4.20121e-06
-5.18263e-05
-4.90924e-06
-4.9939e-05
-5.58034e-06
-4.7843e-05
-6.2055e-06
-4.55564e-05
-6.77591e-06
-4.31001e-05
-7.28312e-06
-4.04975e-05
-7.71921e-06
-3.77741e-05
-8.07698e-06
-3.49577e-05
-8.35015e-06
-3.20775e-05
-8.5335e-06
-2.9164e-05
-8.62305e-06
-2.62487e-05
-8.61615e-06
-2.33633e-05
-8.51169e-06
-2.05393e-05
-8.31009e-06
-1.78076e-05
-8.01347e-06
-1.51978e-05
-7.62564e-06
-1.27378e-05
-7.15217e-06
-1.04529e-05
-6.60044e-06
-8.3655e-06
-5.9796e-06
-6.49441e-06
-5.3007e-06
-4.85421e-06
-4.57671e-06
-3.45463e-06
-3.82268e-06
-2.2999e-06
-3.05594e-06
-1.38807e-06
-2.29645e-06
-7.10335e-07
-1.56727e-06
-2.50245e-07
-8.95176e-07
1.70078e-08
-3.11561e-07
1.25421e-07
1.46598e-07
1.19068e-07
4.35835e-07
5.35171e-08
5.05189e-07
2.90942e-07
-8.94246e-08
3.74235e-09
-3.9518e-07
4.56469e-07
-9.44563e-07
1.18903e-06
-1.75412e-06
2.08494e-06
-2.83063e-06
3.06254e-06
-4.1723e-06
4.06142e-06
-5.7703e-06
5.03812e-06
-7.61026e-06
5.96266e-06
-9.67371e-06
6.81532e-06
-1.19394e-05
7.58401e-06
-1.43842e-05
8.26221e-06
-1.69843e-05
8.8474e-06
-1.97153e-05
9.33976e-06
-2.25532e-05
9.74124e-06
-2.54741e-05
1.00548e-05
-2.84549e-05
1.02838e-05
-3.14732e-05
1.04318e-05
-3.45072e-05
1.05021e-05
-3.75355e-05
1.04975e-05
-4.05377e-05
1.04205e-05
-4.34933e-05
1.02731e-05
-4.63828e-05
1.00567e-05
-4.91864e-05
9.77237e-06
-5.1885e-05
9.42102e-06
-5.44596e-05
9.00323e-06
-5.68914e-05
8.5196e-06
-5.91621e-05
7.97083e-06
-6.12536e-05
7.35789e-06
-6.31484e-05
6.68212e-06
-6.48297e-05
5.9454e-06
-6.62815e-05
5.15025e-06
-6.74888e-05
4.29994e-06
-6.84379e-05
3.3986e-06
-6.91165e-05
2.45125e-06
-6.95142e-05
1.46386e-06
-6.96225e-05
4.43404e-07
-6.9435e-05
-6.02202e-07
-6.8948e-05
-1.66409e-06
-6.81603e-05
-2.73252e-06
-6.70736e-05
-3.79696e-06
-6.56926e-05
-4.8462e-06
-6.40253e-05
-5.86851e-06
-6.20828e-05
-6.85177e-06
-5.98794e-05
-7.7837e-06
-5.74328e-05
-8.65207e-06
-5.47639e-05
-9.44488e-06
-5.18964e-05
-1.01506e-05
-4.8857e-05
-1.07586e-05
-4.5675e-05
-1.1259e-05
-4.23818e-05
-1.16433e-05
-3.90109e-05
-1.19044e-05
-3.55972e-05
-1.20368e-05
-3.21762e-05
-1.20371e-05
-2.87843e-05
-1.19036e-05
-2.54575e-05
-1.16369e-05
-2.22311e-05
-1.12399e-05
-1.91389e-05
-1.07178e-05
-1.62128e-05
-1.00783e-05
-1.34819e-05
-9.33131e-06
-1.0972e-05
-8.48944e-06
-8.705e-06
-7.56775e-06
-6.69781e-06
-6.5839e-06
-4.96216e-06
-5.55832e-06
-3.50372e-06
-4.51437e-06
-2.32147e-06
-3.4787e-06
-1.40707e-06
-2.48167e-06
-7.44248e-07
-1.558e-06
-3.08205e-07
-7.47603e-07
-6.50226e-08
-9.65792e-08
2.89795e-08
3.41835e-07
2.81845e-08
5.05984e-07
3.19128e-07
-1.3757e-07
1.41305e-07
-5.65928e-07
8.8482e-07
-1.29647e-06
1.91958e-06
-2.33427e-06
3.12275e-06
-3.67762e-06
4.40589e-06
-5.31844e-06
5.70224e-06
-7.24313e-06
6.96282e-06
-9.43359e-06
8.15313e-06
-1.18683e-05
9.25003e-06
-1.45233e-05
1.0239e-05
-1.7373e-05
1.11119e-05
-2.03911e-05
1.18655e-05
-2.35509e-05
1.24996e-05
-2.68259e-05
1.30162e-05
-3.01898e-05
1.34187e-05
-3.3617e-05
1.3711e-05
-3.70825e-05
1.38973e-05
-4.05619e-05
1.39815e-05
-4.40315e-05
1.3967e-05
-4.74678e-05
1.38569e-05
-5.08483e-05
1.36535e-05
-5.41504e-05
1.33587e-05
-5.7352e-05
1.29741e-05
-6.04316e-05
1.25005e-05
-6.33674e-05
1.19391e-05
-6.61386e-05
1.12907e-05
-6.87243e-05
1.05565e-05
-7.11043e-05
9.73789e-06
-7.3259e-05
8.83684e-06
-7.51696e-05
7.85603e-06
-7.68184e-05
6.79897e-06
-7.81886e-05
5.67014e-06
-7.92651e-05
4.47511e-06
-8.00344e-05
3.2206e-06
-8.04851e-05
1.91455e-06
-8.06078e-05
5.66136e-07
-8.03958e-05
-8.1423e-07
-7.98449e-05
-2.21496e-06
-7.89541e-05
-3.62334e-06
-7.77254e-05
-5.02569e-06
-7.61642e-05
-6.40746e-06
-7.42792e-05
-7.75345e-06
-7.2083e-05
-9.04801e-06
-6.95914e-05
-1.02753e-05
-6.68241e-05
-1.14194e-05
-6.3804e-05
-1.2465e-05
-6.05575e-05
-1.33971e-05
-5.71141e-05
-1.4202e-05
-5.35062e-05
-1.48669e-05
-4.97686e-05
-1.53809e-05
-4.59382e-05
-1.57347e-05
-4.20537e-05
-1.59214e-05
-3.81546e-05
-1.59362e-05
-3.42812e-05
-1.5777e-05
-3.04734e-05
-1.54446e-05
-2.67707e-05
-1.49427e-05
-2.32107e-05
-1.42778e-05
-1.98292e-05
-1.34598e-05
-1.66588e-05
-1.25017e-05
-1.37288e-05
-1.14195e-05
-1.10637e-05
-1.02328e-05
-8.68337e-06
-8.96424e-06
-6.6017e-06
-7.63999e-06
-4.82623e-06
-6.28984e-06
-3.35747e-06
-4.94746e-06
-2.18835e-06
-3.65079e-06
-1.30369e-06
-2.44266e-06
-6.79819e-07
-1.37148e-06
-2.84139e-07
-4.92256e-07
-7.48708e-08
1.32569e-07
-6.84964e-10
4.31799e-07
3.18444e-07
-1.85279e-07
3.26587e-07
-7.37414e-07
1.43696e-06
-1.65238e-06
2.83455e-06
-2.92316e-06
4.39355e-06
-4.5387e-06
6.02143e-06
-6.48367e-06
7.64721e-06
-8.73887e-06
9.21801e-06
-1.12818e-05
1.0696e-05
-1.40874e-05
1.20556e-05
-1.71286e-05
1.32803e-05
-2.03775e-05
1.43608e-05
-2.38051e-05
1.52932e-05
-2.73826e-05
1.60771e-05
-3.10813e-05
1.67148e-05
-3.48727e-05
1.72101e-05
-3.8729e-05
1.75673e-05
-4.2623e-05
1.77913e-05
-4.6528e-05
1.78866e-05
-5.04181e-05
1.78571e-05
-5.42677e-05
1.77065e-05
-5.80517e-05
1.74375e-05
-6.17455e-05
1.70525e-05
-6.53247e-05
1.65533e-05
-6.87654e-05
1.59412e-05
-7.20439e-05
1.52176e-05
-7.51369e-05
1.43838e-05
-7.80218e-05
1.34414e-05
-8.06763e-05
1.23924e-05
-8.3079e-05
1.12395e-05
-8.52092e-05
9.98628e-06
-8.70476e-05
8.63737e-06
-8.85761e-05
7.1986e-06
-8.97781e-05
5.67715e-06
-9.06391e-05
4.0816e-06
-9.11466e-05
2.42204e-06
-9.12905e-05
7.10071e-07
-9.10636e-05
-1.0412e-06
-9.04613e-05
-2.81722e-06
-8.94826e-05
-4.60209e-06
-8.81295e-05
-6.37872e-06
-8.6408e-05
-8.12898e-06
-8.43275e-05
-9.83392e-06
-8.19015e-05
-1.14741e-05
-7.91471e-05
-1.30297e-05
-7.60854e-05
-1.44811e-05
-7.27412e-05
-1.58091e-05
-6.91431e-05
-1.69952e-05
-6.53229e-05
-1.80222e-05
-6.13156e-05
-1.88742e-05
-5.7159e-05
-1.95375e-05
-5.28931e-05
-2.00006e-05
-4.85599e-05
-2.02546e-05
-4.42025e-05
-2.02935e-05
-3.98648e-05
-2.01147e-05
-3.55906e-05
-1.97189e-05
-3.14229e-05
-1.91104e-05
-2.74033e-05
-1.82974e-05
-2.35711e-05
-1.7292e-05
-1.99626e-05
-1.61101e-05
-1.66103e-05
-1.47718e-05
-1.35421e-05
-1.3301e-05
-1.07805e-05
-1.17258e-05
-8.34222e-06
-1.00783e-05
-6.23702e-06
-8.39505e-06
-4.46756e-06
-6.71692e-06
-3.02869e-06
-5.08965e-06
-1.90715e-06
-3.5642e-06
-1.0812e-06
-2.19743e-06
-5.20527e-07
-1.05292e-06
-1.86258e-07
-2.01699e-07
-3.11389e-08
2.76682e-07
2.87306e-07
-2.31917e-07
5.58512e-07
-9.06893e-07
2.11194e-06
-2.00631e-06
3.93396e-06
-3.51109e-06
5.89834e-06
-5.40039e-06
7.91073e-06
-7.65108e-06
9.8979e-06
-1.02377e-05
1.18047e-05
-1.31329e-05
1.35912e-05
-1.63076e-05
1.52303e-05
-1.97315e-05
1.67042e-05
-2.33738e-05
1.80031e-05
-2.72033e-05
1.91227e-05
-3.11889e-05
2.00627e-05
-3.52997e-05
2.08256e-05
-3.95054e-05
2.14158e-05
-4.37762e-05
2.18382e-05
-4.8083e-05
2.20981e-05
-5.23972e-05
2.22007e-05
-5.66907e-05
2.21507e-05
-6.09361e-05
2.19519e-05
-6.51063e-05
2.16077e-05
-6.91747e-05
2.11209e-05
-7.3115e-05
2.04935e-05
-7.69012e-05
1.97274e-05
-8.05079e-05
1.88243e-05
-8.39099e-05
1.77858e-05
-8.70825e-05
1.66141e-05
-9.00019e-05
1.53118e-05
-9.2645e-05
1.38825e-05
-9.49895e-05
1.23308e-05
-9.70145e-05
1.06624e-05
-9.87006e-05
8.88473e-06
-0.00010003
7.00663e-06
-0.000100987
5.03873e-06
-0.000101559
2.9934e-06
-0.000101733
8.84822e-07
-0.000101504
-1.27103e-06
-0.000100864
-3.45647e-06
-9.98141e-05
-5.65222e-06
-9.83553e-05
-7.83756e-06
-9.64937e-05
-9.99054e-06
-9.42394e-05
-1.20883e-05
-9.16062e-05
-1.41072e-05
-8.86124e-05
-1.60235e-05
-8.52802e-05
-1.78133e-05
-8.16358e-05
-1.94535e-05
-7.77095e-05
-2.09215e-05
-7.35351e-05
-2.21965e-05
-6.91499e-05
-2.32594e-05
-6.45943e-05
-2.40932e-05
-5.9911e-05
-2.46839e-05
-5.51451e-05
-2.50205e-05
-5.0343e-05
-2.50956e-05
-4.5552e-05
-2.49057e-05
-4.08195e-05
-2.44514e-05
-3.61922e-05
-2.37377e-05
-3.17154e-05
-2.27742e-05
-2.74321e-05
-2.15753e-05
-2.33824e-05
-2.01599e-05
-1.96022e-05
-1.8552e-05
-1.61228e-05
-1.67804e-05
-1.29701e-05
-1.48785e-05
-1.01636e-05
-1.28848e-05
-7.71608e-06
-1.08426e-05
-5.63279e-06
-8.80022e-06
-3.91115e-06
-6.81129e-06
-2.5404e-06
-4.93495e-06
-1.50145e-06
-3.23638e-06
-7.66901e-07
-1.78747e-06
-3.01371e-07
-6.67227e-07
-6.20771e-08
3.73905e-08
2.25229e-07
-2.77209e-07
8.35727e-07
-1.07284e-06
2.90757e-06
-2.35462e-06
5.21574e-06
-4.09176e-06
7.63547e-06
-6.25354e-06
1.00725e-05
-8.80873e-06
1.24531e-05
-1.17253e-05
1.47213e-05
-1.49706e-05
1.68365e-05
-1.85111e-05
1.87708e-05
-2.23132e-05
2.05063e-05
-2.63431e-05
2.20329e-05
-3.0567e-05
2.33466e-05
-3.49517e-05
2.44474e-05
-3.94644e-05
2.53383e-05
-4.40729e-05
2.60243e-05
-4.87457e-05
2.65109e-05
-5.34518e-05
2.68042e-05
-5.81611e-05
2.691e-05
-6.28437e-05
2.68333e-05
-6.74705e-05
2.65787e-05
-7.20128e-05
2.615e-05
-7.64422e-05
2.55503e-05
-8.07307e-05
2.4782e-05
-8.48506e-05
2.38474e-05
-8.87748e-05
2.27485e-05
-9.24764e-05
2.14874e-05
-9.59293e-05
2.0067e-05
-9.9108e-05
1.84904e-05
-0.000101988
1.67622e-05
-0.000104545
1.4888e-05
-0.000106757
1.28748e-05
-0.000108604
1.07316e-05
-0.000110067
8.46901e-06
-0.000111128
6.09981e-06
-0.000111773
3.63875e-06
-0.000111991
1.10274e-06
-0.000111773
-1.48929e-06
-0.000111113
-4.11635e-06
-0.000110009
-6.75563e-06
-0.000108464
-9.38263e-06
-0.000106483
-1.19714e-05
-0.000104077
-1.44949e-05
-0.000101259
-1.69253e-05
-9.80477e-05
-1.92344e-05
-9.4467e-05
-2.1394e-05
-9.05438e-05
-2.33766e-05
-8.63098e-05
-2.51555e-05
-8.18005e-05
-2.67059e-05
-7.70549e-05
-2.80049e-05
-7.21159e-05
-2.90323e-05
-6.70286e-05
-2.97711e-05
-6.18411e-05
-3.02081e-05
-5.66027e-05
-3.0334e-05
-5.13642e-05
-3.01442e-05
-4.61764e-05
-2.96392e-05
-4.10898e-05
-2.88243e-05
-3.61534e-05
-2.77105e-05
-3.14143e-05
-2.63144e-05
-2.69163e-05
-2.4658e-05
-2.26991e-05
-2.27692e-05
-1.87979e-05
-2.06816e-05
-1.52421e-05
-1.84343e-05
-1.20547e-05
-1.60722e-05
-9.25184e-06
-1.36455e-05
-6.84195e-06
-1.12101e-05
-4.82554e-06
-8.8277e-06
-3.19491e-06
-6.56557e-06
-1.93409e-06
-4.4972e-06
-1.01903e-06
-2.70252e-06
-4.18104e-07
-1.26816e-06
-9.29471e-08
-2.87765e-07
1.32283e-07
-3.21042e-07
1.15677e-06
-1.2344e-06
3.82093e-06
-2.6951e-06
6.67644e-06
-4.66107e-06
9.60143e-06
-7.09188e-06
1.25033e-05
-9.94813e-06
1.53093e-05
-1.31911e-05
1.79642e-05
-1.67823e-05
2.04277e-05
-2.0684e-05
2.26725e-05
-2.48588e-05
2.4681e-05
-2.92697e-05
2.64438e-05
-3.38805e-05
2.79574e-05
-3.86558e-05
2.92227e-05
-4.35608e-05
3.02434e-05
-4.85617e-05
3.10252e-05
-5.36253e-05
3.15745e-05
-5.87191e-05
3.18981e-05
-6.38115e-05
3.20023e-05
-6.88712e-05
3.1893e-05
-7.38676e-05
3.15751e-05
-7.87705e-05
3.10529e-05
-8.35501e-05
3.03298e-05
-8.81768e-05
2.94088e-05
-9.26217e-05
2.82922e-05
-9.6856e-05
2.69827e-05
-0.000100851
2.54829e-05
-0.00010458
2.3796e-05
-0.000108016
2.19261e-05
-0.000111132
1.98784e-05
-0.000113904
1.76598e-05
-0.000116308
1.52787e-05
-0.000118322
1.27456e-05
-0.000119926
1.00729e-05
-0.000121102
7.27565e-06
-0.000121834
4.37104e-06
-0.00012211
1.37874e-06
-0.00012192
-1.67922e-06
-0.000121258
-4.7785e-06
-0.000120121
-7.89262e-06
-0.00011851
-1.09932e-05
-0.000116432
-1.40501e-05
-0.000113895
-1.70319e-05
-0.000110914
-1.99065e-05
-0.000107507
-2.26408e-05
-0.000103699
-2.52023e-05
-9.9517e-05
-2.75586e-05
-9.49938e-05
-2.96788e-05
-9.01661e-05
-3.15336e-05
-8.50749e-05
-3.30961e-05
-7.97647e-05
-3.43425e-05
-7.42833e-05
-3.52525e-05
-6.86812e-05
-3.58102e-05
-6.30109e-05
-3.60043e-05
-5.73263e-05
-3.58288e-05
-5.1682e-05
-3.52835e-05
-4.61322e-05
-3.43741e-05
-4.073e-05
-3.31127e-05
-3.55264e-05
-3.15179e-05
-3.05695e-05
-2.96149e-05
-2.59033e-05
-2.74354e-05
-2.1567e-05
-2.50179e-05
-1.75941e-05
-2.24072e-05
-1.40116e-05
-1.96546e-05
-1.08396e-05
-1.68175e-05
-8.08999e-06
-1.39597e-05
-5.76706e-06
-1.11506e-05
-3.86655e-06
-8.46608e-06
-2.37599e-06
-5.98775e-06
-1.27494e-06
-3.80357e-06
-5.35531e-07
-2.00756e-06
-1.23547e-07
-6.99747e-07
8.73659e-09
-3.63374e-07
1.52014e-06
-1.3911e-06
4.84866e-06
-3.02634e-06
8.31167e-06
-5.21626e-06
1.17913e-05
-7.91103e-06
1.51981e-05
-1.10631e-05
1.84614e-05
-1.4627e-05
2.1528e-05
-1.85586e-05
2.43594e-05
-2.28154e-05
2.69293e-05
-2.73561e-05
2.92218e-05
-3.21408e-05
3.12285e-05
-3.71306e-05
3.29472e-05
-4.22879e-05
3.43799e-05
-4.7576e-05
3.55315e-05
-5.29595e-05
3.64087e-05
-5.84038e-05
3.70187e-05
-6.38749e-05
3.73693e-05
-6.934e-05
3.74674e-05
-7.47666e-05
3.73196e-05
-8.01227e-05
3.69313e-05
-8.53769e-05
3.63072e-05
-9.04982e-05
3.54511e-05
-9.54558e-05
3.43664e-05
-0.000100219
3.30559e-05
-0.000104759
3.15224e-05
-0.000109045
2.97691e-05
-0.000113049
2.77999e-05
-0.000116743
2.56194e-05
-0.000120098
2.32339e-05
-0.00012309
2.06513e-05
-0.000125692
1.78813e-05
-0.000127882
1.4936e-05
-0.000129639
1.18298e-05
-0.000130944
8.57983e-06
-0.000131778
5.2058e-06
-0.00013213
1.73018e-06
-0.000131987
-1.82187e-06
-0.000131343
-5.42258e-06
-0.000130194
-9.04176e-06
-0.00012854
-1.2647e-05
-0.000126386
-1.62039e-05
-0.000123742
-1.96766e-05
-0.00012062
-2.30282e-05
-0.00011704
-2.6221e-05
-0.000113024
-2.92174e-05
-0.000108603
-3.19804e-05
-0.000103807
-3.4474e-05
-9.86765e-05
-3.66644e-05
-9.32523e-05
-3.85204e-05
-8.75809e-05
-4.00138e-05
-8.17125e-05
-4.1121e-05
-7.57e-05
-4.18227e-05
-6.95989e-05
-4.21054e-05
-6.34665e-05
-4.19612e-05
-5.7361e-05
-4.1389e-05
-5.13406e-05
-4.03945e-05
-4.54627e-05
-3.89906e-05
-3.97827e-05
-3.71979e-05
-3.43533e-05
-3.50444e-05
-2.9223e-05
-3.25657e-05
-2.44358e-05
-2.98051e-05
-2.00297e-05
-2.68133e-05
-1.60363e-05
-2.3648e-05
-1.24799e-05
-2.0374e-05
-9.37676e-06
-1.70628e-05
-6.73508e-06
-1.37923e-05
-4.55457e-06
-1.06466e-05
-2.82655e-06
-7.71577e-06
-1.53426e-06
-5.09586e-06
-6.53549e-07
-2.88827e-06
-1.53903e-07
-1.19939e-06
-1.45165e-07
-4.04193e-07
1.92433e-06
-1.54266e-06
5.98712e-06
-3.3474e-06
1.01164e-05
-5.75542e-06
1.41994e-05
-8.70777e-06
1.81504e-05
-1.21491e-05
2.19027e-05
-1.60269e-05
2.54059e-05
-2.02917e-05
2.86242e-05
-2.48962e-05
3.15338e-05
-2.97952e-05
3.41208e-05
-3.49455e-05
3.63788e-05
-4.03058e-05
3.83075e-05
-4.58361e-05
3.99103e-05
-5.14982e-05
4.11936e-05
-5.72549e-05
4.21654e-05
-6.30703e-05
4.28341e-05
-6.89093e-05
4.32083e-05
-7.47378e-05
4.32959e-05
-8.05222e-05
4.3104e-05
-8.62297e-05
4.26387e-05
-9.18276e-05
4.19051e-05
-9.72841e-05
4.09075e-05
-0.000102567
3.96495e-05
-0.000107646
3.81342e-05
-0.000112488
3.6365e-05
-0.000117065
3.43454e-05
-0.000121344
3.20798e-05
-0.000125299
2.95737e-05
-0.000128899
2.68341e-05
-0.000132117
2.38698e-05
-0.000134928
2.06922e-05
-0.000137307
1.73147e-05
-0.000139231
1.37537e-05
-0.000140679
1.00284e-05
-0.000141635
6.16095e-06
-0.000142081
2.17669e-06
-0.000142007
-1.89613e-06
-0.000141403
-6.02631e-06
-0.000140265
-1.01799e-05
-0.000138592
-1.43203e-05
-0.000136387
-1.84089e-05
-0.000133658
-2.24052e-05
-0.000130419
-2.62674e-05
-0.000126687
-2.99529e-05
-0.000122486
-3.34188e-05
-0.000117843
-3.6623e-05
-0.000112792
-3.95245e-05
-0.000107373
-4.20842e-05
-0.000101627
-4.42661e-05
-9.5603e-05
-4.60377e-05
-8.93529e-05
-4.73711e-05
-8.29321e-05
-4.82435e-05
-7.6399e-05
-4.86384e-05
-6.98145e-05
-4.85457e-05
-6.32404e-05
-4.7963e-05
-5.67393e-05
-4.68956e-05
-5.03731e-05
-4.53569e-05
-4.42019e-05
-4.3369e-05
-3.82835e-05
-4.09628e-05
-3.26716e-05
-3.81776e-05
-2.74152e-05
-3.50615e-05
-2.25577e-05
-3.16708e-05
-1.81355e-05
-2.80701e-05
-1.41779e-05
-2.43316e-05
-1.07059e-05
-2.05348e-05
-7.73225e-06
-1.6766e-05
-5.26082e-06
-1.3118e-05
-3.28699e-06
-9.6896e-06
-1.79781e-06
-6.58505e-06
-7.72628e-07
-3.91345e-06
-1.84192e-07
-1.78783e-06
-3.29356e-07
-4.43486e-07
2.36781e-06
-1.68884e-06
7.23247e-06
-3.65759e-06
1.20852e-05
-6.27706e-06
1.68188e-05
-9.47961e-06
2.1353e-05
-1.32022e-05
2.56253e-05
-1.73859e-05
2.95896e-05
-2.19754e-05
3.32137e-05
-2.69189e-05
3.64772e-05
-3.21673e-05
3.93692e-05
-3.76743e-05
4.18858e-05
-4.33958e-05
4.4029e-05
-4.92899e-05
4.58044e-05
-5.53165e-05
4.72202e-05
-6.1437e-05
4.82859e-05
-6.76142e-05
4.90113e-05
-7.38119e-05
4.94061e-05
-7.99952e-05
4.94791e-05
-8.61294e-05
4.92383e-05
-9.2181e-05
4.86902e-05
-9.81164e-05
4.78406e-05
-0.000103903
4.66939e-05
-0.000109507
4.52542e-05
-0.000114898
4.35251e-05
-0.000120043
4.151e-05
-0.000124911
3.92131e-05
-0.00012947
3.66391e-05
-0.000133691
3.37942e-05
-0.000137543
3.06862e-05
-0.000140998
2.73251e-05
-0.000144029
2.37232e-05
-0.00014661
1.98957e-05
-0.000148717
1.58607e-05
-0.000150328
1.16394e-05
-0.000151424
7.2565e-06
-0.000151987
2.73993e-06
-0.000152004
-1.87893e-06
-0.000151465
-6.56545e-06
-0.000150363
-1.12819e-05
-0.000148696
-1.59877e-05
-0.000146465
-2.06397e-05
-0.000143678
-2.51926e-05
-0.000140345
-2.95998e-05
-0.000136485
-3.38132e-05
-0.000132119
-3.77849e-05
-0.000127275
-4.1467e-05
-0.000121986
-4.48131e-05
-0.000116292
-4.77786e-05
-0.000110236
-5.03222e-05
-0.000103867
-5.24063e-05
-9.72398e-05
-5.39985e-05
-9.04116e-05
-5.50717e-05
-8.34441e-05
-5.56059e-05
-7.64013e-05
-5.55885e-05
-6.93494e-05
-5.5015e-05
-6.23552e-05
-5.38897e-05
-5.54857e-05
-5.22265e-05
-4.88062e-05
-5.00485e-05
-4.23799e-05
-4.73891e-05
-3.62662e-05
-4.42912e-05
-3.05201e-05
-4.08076e-05
-2.51905e-05
-3.70004e-05
-2.03196e-05
-3.2941e-05
-1.5942e-05
-2.87092e-05
-1.20842e-05
-2.43926e-05
-8.76367e-06
-2.00865e-05
-5.98907e-06
-1.58926e-05
-3.75998e-06
-1.19187e-05
-2.06725e-06
-8.27777e-06
-8.93641e-07
-5.08706e-06
-2.14693e-07
-2.46677e-06
-5.44049e-07
-4.81235e-07
2.84904e-06
-1.82945e-06
8.58069e-06
-3.9563e-06
1.4212e-05
-6.77993e-06
1.96425e-05
-1.02244e-05
2.47975e-05
-1.42194e-05
2.96203e-05
-1.86996e-05
3.40697e-05
-2.36042e-05
3.81184e-05
-2.88769e-05
4.17499e-05
-3.44648e-05
4.4957e-05
-4.03184e-05
4.77394e-05
-4.63911e-05
5.01017e-05
-5.2639e-05
5.20523e-05
-5.90202e-05
5.36014e-05
-6.54948e-05
5.47605e-05
-7.20245e-05
5.5541e-05
-7.85722e-05
5.59538e-05
-8.51019e-05
5.60088e-05
-9.15785e-05
5.57149e-05
-9.79674e-05
5.50792e-05
-0.000104235
5.41079e-05
-0.000110347
5.2806e-05
-0.00011627
5.11778e-05
-0.000121973
4.92272e-05
-0.000127421
4.6958e-05
-0.000132582
4.43746e-05
-0.000137425
4.14822e-05
-0.000141919
3.82876e-05
-0.000146032
3.47994e-05
-0.000149735
3.10284e-05
-0.000153
2.6988e-05
-0.000155799
2.26949e-05
-0.000158107
1.81688e-05
-0.000159901
1.3433e-05
-0.000161159
8.51433e-06
-0.000161862
3.44344e-06
-0.000161996
-1.74532e-06
-0.000161547
-7.01397e-06
-0.000160508
-1.23211e-05
-0.000158874
-1.76219e-05
-0.000156645
-2.28689e-05
-0.000153825
-2.8012e-05
-0.000150426
-3.29993e-05
-0.000146462
-3.77775e-05
-0.000141954
-4.22929e-05
-0.000136929
-4.64918e-05
-0.00013142
-5.03218e-05
-0.000125466
-5.37326e-05
-0.000119112
-5.66768e-05
-0.000112407
-5.91114e-05
-0.000105406
-6.09986e-05
-9.81715e-05
-6.23066e-05
-9.07661e-05
-6.30113e-05
-8.32581e-05
-6.30965e-05
-7.57177e-05
-6.25554e-05
-6.82167e-05
-6.13908e-05
-6.0827e-05
-5.96161e-05
-5.362e-05
-5.72555e-05
-4.66648e-05
-5.43443e-05
-4.00272e-05
-5.09288e-05
-3.37683e-05
-4.70664e-05
-2.79436e-05
-4.28251e-05
-2.26017e-05
-3.8283e-05
-1.77832e-05
-3.35276e-05
-1.35205e-05
-2.86554e-05
-9.83636e-06
-2.37706e-05
-6.74457e-06
-1.89844e-05
-4.24916e-06
-1.44141e-05
-2.34489e-06
-1.0182e-05
-1.01774e-06
-6.4142e-06
-2.45753e-07
-3.23876e-06
-7.89802e-07
-5.17404e-07
3.36645e-06
-1.96428e-06
1.00276e-05
-4.24293e-06
1.64907e-05
-7.26285e-06
2.26624e-05
-1.09402e-05
2.84749e-05
-1.51978e-05
3.38778e-05
-1.9964e-05
3.8836e-05
-2.51731e-05
4.33274e-05
-3.0764e-05
4.73408e-05
-3.66803e-05
5.08734e-05
-4.28695e-05
5.39286e-05
-4.92826e-05
5.65148e-05
-5.58735e-05
5.86432e-05
-6.25989e-05
6.03268e-05
-6.94175e-05
6.15791e-05
-7.62901e-05
6.24135e-05
-8.31786e-05
6.28423e-05
-9.00465e-05
6.28768e-05
-9.68581e-05
6.25264e-05
-0.000103578
6.17993e-05
-0.000110172
6.0702e-05
-0.000116606
5.92402e-05
-0.000122847
5.74182e-05
-0.00012886
5.52402e-05
-0.000134612
5.27104e-05
-0.000140071
4.98334e-05
-0.000145204
4.66149e-05
-0.000149978
4.30619e-05
-0.000154362
3.91838e-05
-0.000158326
3.49921e-05
-0.00016184
3.05014e-05
-0.000164874
2.57294e-05
-0.000167403
2.06974e-05
-0.0001694
1.54306e-05
-0.000170844
9.95782e-06
-0.000171713
4.31234e-06
-0.000171989
-1.46872e-06
-0.000171659
-7.34411e-06
-0.000170711
-1.32687e-05
-0.000169139
-1.91939e-05
-0.000166941
-2.50674e-05
-0.000164118
-3.08346e-05
-0.000160679
-3.64381e-05
-0.000156638
-4.18192e-05
-0.000152012
-4.6918e-05
-0.000146829
-5.16749e-05
-0.00014112
-5.6031e-05
-0.000134923
-5.99296e-05
-0.000128283
-6.3317e-05
-0.00012125
-6.61439e-05
-0.000113883
-6.83663e-05
-0.000106242
-6.99473e-05
-9.83957e-05
-7.08576e-05
-9.04152e-05
-7.1077e-05
-8.23752e-05
-7.05954e-05
-7.43525e-05
-6.94135e-05
-6.64248e-05
-6.75438e-05
-5.86696e-05
-6.50107e-05
-5.11626e-05
-6.18513e-05
-4.39767e-05
-5.81148e-05
-3.71799e-05
-5.38632e-05
-3.0835e-05
-4.91701e-05
-2.49974e-05
-4.41206e-05
-1.97146e-05
-3.88103e-05
-1.50254e-05
-3.33446e-05
-1.09588e-05
-2.78373e-05
-7.53366e-06
-2.24095e-05
-4.75895e-06
-1.71888e-05
-2.63343e-06
-1.23076e-05
-1.14628e-06
-7.90135e-06
-2.77765e-07
-4.10728e-06
-1.06757e-06
-5.51939e-07
3.91838e-06
-2.09307e-06
1.15687e-05
-4.51686e-06
1.89145e-05
-7.72463e-06
2.58701e-05
-1.16252e-05
3.23754e-05
-1.61345e-05
3.83871e-05
-2.11754e-05
4.38769e-05
-2.66771e-05
4.88291e-05
-3.25742e-05
5.3238e-05
-3.88069e-05
5.7106e-05
-4.53197e-05
6.04414e-05
-5.20612e-05
6.32563e-05
-5.89835e-05
6.55656e-05
-6.60419e-05
6.73851e-05
-7.31938e-05
6.87311e-05
-8.03991e-05
6.96188e-05
-8.76191e-05
7.00624e-05
-9.48166e-05
7.00743e-05
-0.000101956
6.96652e-05
-0.000109