/*--------------------------------*- C++ -*----------------------------------*\
  =========                 |
  \\      /  F ield         | OpenFOAM: The Open Source CFD Toolbox
   \\    /   O peration     | Website:  https://openfoam.org
    \\  /    A nd           | Version:  dev
     \\/     M anipulation  |
\*---------------------------------------------------------------------------*/
FoamFile
{
    format      ascii;
    class       volVectorField;
    location    "18.9";
    object      U;
}
// * * * * * * * * * * * * * * * * * * * * * * * * * * * * * * * * * * * * * //

dimensions      [0 1 -1 0 0 0 0];

internalField   nonuniform List<vector> 
5184
(
(1.2279e-05 -1.27311e-05 0)
(4.50502e-05 -2.0871e-05 0)
(8.01696e-05 -1.72137e-05 0)
(9.57681e-05 -8.16742e-06 0)
(8.18902e-05 2.68752e-06 0)
(3.61725e-05 1.36242e-05 0)
(-4.08244e-05 2.38426e-05 0)
(-0.000147079 3.3033e-05 0)
(-0.000279808 4.10793e-05 0)
(-0.000435958 4.79879e-05 0)
(-0.000612413 5.38204e-05 0)
(-0.000806143 5.86612e-05 0)
(-0.00101428 6.26027e-05 0)
(-0.00123416 6.57362e-05 0)
(-0.00146334 6.81465e-05 0)
(-0.00169954 6.99089e-05 0)
(-0.00194071 7.10875e-05 0)
(-0.00218493 7.17346e-05 0)
(-0.00243042 7.18907e-05 0)
(-0.0026755 7.15853e-05 0)
(-0.00291856 7.08379e-05 0)
(-0.00315804 6.96591e-05 0)
(-0.00339242 6.80522e-05 0)
(-0.00362018 6.60143e-05 0)
(-0.00383979 6.3538e-05 0)
(-0.0040497 6.06133e-05 0)
(-0.00424838 5.72298e-05 0)
(-0.00443425 5.33779e-05 0)
(-0.00460572 4.90508e-05 0)
(-0.00476124 4.42454e-05 0)
(-0.00489922 3.89642e-05 0)
(-0.00501817 3.32165e-05 0)
(-0.00511661 2.70193e-05 0)
(-0.00519318 2.03987e-05 0)
(-0.00524661 1.33901e-05 0)
(-0.0052758 6.03944e-06 0)
(-0.00527979 -1.59742e-06 0)
(-0.00525786 -9.45429e-06 0)
(-0.00520952 -1.74547e-05 0)
(-0.00513452 -2.55131e-05 0)
(-0.00503295 -3.3535e-05 0)
(-0.00490516 -4.14188e-05 0)
(-0.00475186 -4.90576e-05 0)
(-0.00457411 -5.63409e-05 0)
(-0.00437331 -6.31561e-05 0)
(-0.0041512 -6.93914e-05 0)
(-0.00390988 -7.49381e-05 0)
(-0.00365178 -7.96937e-05 0)
(-0.00337961 -8.35635e-05 0)
(-0.00309637 -8.64639e-05 0)
(-0.0028053 -8.83243e-05 0)
(-0.00250982 -8.90895e-05 0)
(-0.00221349 -8.87213e-05 0)
(-0.00191997 -8.72e-05 0)
(-0.00163291 -8.45251e-05 0)
(-0.00135597 -8.0716e-05 0)
(-0.00109266 -7.58118e-05 0)
(-0.00084637 -6.9871e-05 0)
(-0.000620226 -6.29712e-05 0)
(-0.000417084 -5.52082e-05 0)
(-0.000239439 -4.66957e-05 0)
(-8.93662e-05 -3.75665e-05 0)
(3.15449e-05 -2.79754e-05 0)
(0.00012228 -1.81044e-05 0)
(0.000182504 -8.17828e-06 0)
(0.000212718 1.50823e-06 0)
(0.000214503 1.0533e-05 0)
(0.000190903 1.82586e-05 0)
(0.000146938 2.36735e-05 0)
(9.06887e-05 2.50875e-05 0)
(3.66008e-05 1.98202e-05 0)
(6.22865e-06 6.23937e-06 0)
(2.08018e-05 -4.58816e-05 0)
(6.54787e-05 -6.56053e-05 0)
(9.44619e-05 -4.04236e-05 0)
(7.24573e-05 7.73784e-06 0)
(-1.93269e-05 6.57231e-05 0)
(-0.000187685 0.000125967 0)
(-0.000433185 0.000184205 0)
(-0.000752606 0.000238185 0)
(-0.00114041 0.000286771 0)
(-0.00158983 0.000329523 0)
(-0.00209352 0.000366401 0)
(-0.00264404 0.000397596 0)
(-0.00323409 0.000423419 0)
(-0.00385669 0.000444237 0)
(-0.00450523 0.000460427 0)
(-0.00517354 0.000472347 0)
(-0.0058558 0.00048032 0)
(-0.0065466 0.000484619 0)
(-0.00724079 0.000485468 0)
(-0.00793351 0.000483039 0)
(-0.00862005 0.000477452 0)
(-0.00929587 0.000468785 0)
(-0.0099565 0.000457076 0)
(-0.0105975 0.000442335 0)
(-0.0112145 0.00042455 0)
(-0.0118032 0.000403698 0)
(-0.012359 0.000379754 0)
(-0.0128775 0.000352701 0)
(-0.0133545 0.000322541 0)
(-0.0137856 0.000289299 0)
(-0.0141665 0.000253037 0)
(-0.0144932 0.000213857 0)
(-0.0147616 0.000171908 0)
(-0.0149684 0.000127393 0)
(-0.0151101 8.05718e-05 0)
(-0.0151839 3.17619e-05 0)
(-0.0151874 -1.86582e-05 0)
(-0.015119 -7.0251e-05 0)
(-0.0149774 -0.000122523 0)
(-0.0147624 -0.000174927 0)
(-0.0144742 -0.00022687 0)
(-0.014114 -0.000277721 0)
(-0.0136842 -0.000326819 0)
(-0.0131875 -0.000373487 0)
(-0.0126281 -0.000417042 0)
(-0.0120106 -0.000456809 0)
(-0.011341 -0.000492136 0)
(-0.0106258 -0.00052241 0)
(-0.00987231 -0.000547071 0)
(-0.00908869 -0.000565624 0)
(-0.00828362 -0.000577656 0)
(-0.00746625 -0.000582849 0)
(-0.00664612 -0.000580987 0)
(-0.00583293 -0.000571966 0)
(-0.00503647 -0.000555802 0)
(-0.00426639 -0.000532633 0)
(-0.00353205 -0.000502722 0)
(-0.00284238 -0.000466457 0)
(-0.00220563 -0.000424352 0)
(-0.00162929 -0.000377047 0)
(-0.00111983 -0.000325307 0)
(-0.000682537 -0.000270036 0)
(-0.000321328 -0.000212293 0)
(-3.84889e-05 -0.000153329 0)
(0.000165606 -9.46521e-05 0)
(0.000292872 -3.81383e-05 0)
(0.000348044 1.37598e-05 0)
(0.000339373 5.77392e-05 0)
(0.000279332 8.92114e-05 0)
(0.000185748 0.000101684 0)
(8.62573e-05 8.63961e-05 0)
(1.96647e-05 3.64511e-05 0)
(1.76006e-05 -8.11994e-05 0)
(4.12006e-05 -9.47911e-05 0)
(1.93621e-05 -1.88851e-05 0)
(-8.42994e-05 0.000106089 0)
(-0.00029052 0.000254661 0)
(-0.000608023 0.00041042 0)
(-0.00103806 0.000563077 0)
(-0.00157681 0.000706499 0)
(-0.00221711 0.000837244 0)
(-0.0029498 0.000953608 0)
(-0.00376459 0.001055 0)
(-0.0046508 0.00114151 0)
(-0.00559771 0.00121366 0)
(-0.00659487 0.00127217 0)
(-0.00763223 0.00131787 0)
(-0.00870025 0.00135157 0)
(-0.00978986 0.00137405 0)
(-0.0108925 0.00138597 0)
(-0.0119999 0.0013879 0)
(-0.0131042 0.00138028 0)
(-0.014198 0.00136345 0)
(-0.0152738 0.00133761 0)
(-0.0163244 0.00130292 0)
(-0.0173427 0.00125941 0)
(-0.0183215 0.00120712 0)
(-0.019254 0.00114602 0)
(-0.020133 0.00107611 0)
(-0.0209516 0.000997404 0)
(-0.021703 0.000909962 0)
(-0.0223804 0.000813926 0)
(-0.0229772 0.000709526 0)
(-0.0234871 0.000597107 0)
(-0.0239042 0.000477142 0)
(-0.0242232 0.000350244 0)
(-0.024439 0.000217178 0)
(-0.0245474 7.88644e-05 0)
(-0.0245451 -6.36173e-05 0)
(-0.0244296 -0.000209034 0)
(-0.0241993 -0.000356005 0)
(-0.0238539 -0.000503016 0)
(-0.0233943 -0.000648433 0)
(-0.0228226 -0.000790526 0)
(-0.0221422 -0.000927497 0)
(-0.0213581 -0.0010575 0)
(-0.0204763 -0.0011787 0)
(-0.0195046 -0.00128927 0)
(-0.0184518 -0.00138746 0)
(-0.0173282 -0.00147162 0)
(-0.016145 -0.00154026 0)
(-0.0149149 -0.00159207 0)
(-0.0136509 -0.00162594 0)
(-0.0123672 -0.00164104 0)
(-0.0110782 -0.00163681 0)
(-0.00979885 -0.00161298 0)
(-0.00854392 -0.00156963 0)
(-0.00732813 -0.00150715 0)
(-0.0061657 -0.00142629 0)
(-0.00507015 -0.00132816 0)
(-0.00405401 -0.00121418 0)
(-0.00312855 -0.00108617 0)
(-0.0023035 -0.000946295 0)
(-0.00158674 -0.000797118 0)
(-0.000984009 -0.000641641 0)
(-0.000498546 -0.000483391 0)
(-0.000130672 -0.000326561 0)
(0.000122675 -0.00017623 0)
(0.000268573 -3.87072e-05 0)
(0.000318839 7.80025e-05 0)
(0.000290576 0.000163615 0)
(0.00020698 0.000204975 0)
(0.000102277 0.00018598 0)
(2.49441e-05 9.02796e-05 0)
(8.80998e-06 -9.75513e-05 0)
(-7.10512e-06 -7.28091e-05 0)
(-0.000107721 8.50789e-05 0)
(-0.000322465 0.000318476 0)
(-0.000669531 0.000589934 0)
(-0.0011573 0.000873873 0)
(-0.0017865 0.00115329 0)
(-0.00255239 0.00141742 0)
(-0.0034464 0.0016598 0)
(-0.00445753 0.00187691 0)
(-0.00557332 0.00206719 0)
(-0.00678055 0.00223039 0)
(-0.00806585 0.00236707 0)
(-0.00941597 0.00247828 0)
(-0.010818 0.00256528 0)
(-0.0122596 0.0026294 0)
(-0.0137288 0.00267192 0)
(-0.0152143 0.00269399 0)
(-0.016705 0.00269659 0)
(-0.0181906 0.00268051 0)
(-0.0196607 0.00264635 0)
(-0.0211054 0.00259454 0)
(-0.0225151 0.00252533 0)
(-0.0238799 0.00243891 0)
(-0.0251905 0.00233533 0)
(-0.0264373 0.00221465 0)
(-0.0276111 0.00207693 0)
(-0.0287025 0.00192226 0)
(-0.0297024 0.00175087 0)
(-0.0306021 0.0015631 0)
(-0.0313929 0.00135948 0)
(-0.0320666 0.00114073 0)
(-0.0326157 0.000907831 0)
(-0.0330331 0.00066202 0)
(-0.0333126 0.000404808 0)
(-0.033449 0.000137992 0)
(-0.033438 -0.000136343 0)
(-0.0332766 -0.00041583 0)
(-0.0329632 -0.000697838 0)
(-0.0324975 -0.000979495 0)
(-0.0318808 -0.00125772 0)
(-0.0311163 -0.00152926 0)
(-0.0302085 -0.00179074 0)
(-0.0291641 -0.00203873 0)
(-0.0279912 -0.00226979 0)
(-0.0266999 -0.00248053 0)
(-0.0253018 -0.00266771 0)
(-0.0238103 -0.00282828 0)
(-0.0222401 -0.00295947 0)
(-0.0206073 -0.00305886 0)
(-0.0189291 -0.00312443 0)
(-0.0172237 -0.00315463 0)
(-0.0155098 -0.00314845 0)
(-0.0138066 -0.00310544 0)
(-0.0121331 -0.00302573 0)
(-0.0105084 -0.00291012 0)
(-0.00895076 -0.00276003 0)
(-0.00747761 -0.00257756 0)
(-0.00610508 -0.00236545 0)
(-0.00484764 -0.00212716 0)
(-0.00371779 -0.00186683 0)
(-0.00272562 -0.00158934 0)
(-0.00187847 -0.0013004 0)
(-0.00118047 -0.00100667 0)
(-0.000632097 -0.000715963 0)
(-0.000229663 -0.000437528 0)
(3.52889e-05 -0.000182503 0)
(0.000176623 3.55231e-05 0)
(0.00021403 0.000199853 0)
(0.000173633 0.000290115 0)
(9.28274e-05 0.000282031 0)
(2.39862e-05 0.000147066 0)
(-2.14658e-06 -8.41692e-05 0)
(-6.73326e-05 2.1262e-05 0)
(-0.000264092 0.000295686 0)
(-0.00060956 0.000667949 0)
(-0.00111619 0.00109031 0)
(-0.00179018 0.00152891 0)
(-0.00263052 0.00196034 0)
(-0.00363084 0.00236916 0)
(-0.00478103 0.00274567 0)
(-0.00606837 0.00308423 0)
(-0.00747853 0.00338209 0)
(-0.00899629 0.00363844 0)
(-0.0106061 0.00385372 0)
(-0.0122923 0.00402919 0)
(-0.0140398 0.0041665 0)
(-0.0158336 0.00426746 0)
(-0.0176595 0.00433388 0)
(-0.0195036 0.00436739 0)
(-0.0213526 0.00436942 0)
(-0.0231935 0.00434113 0)
(-0.0250138 0.00428344 0)
(-0.0268012 0.00419701 0)
(-0.0285435 0.0040823 0)
(-0.0302289 0.0039396 0)
(-0.0318457 0.00376911 0)
(-0.0333821 0.00357098 0)
(-0.0348268 0.00334539 0)
(-0.0361684 0.00309263 0)
(-0.0373959 0.00281314 0)
(-0.0384985 0.00250758 0)
(-0.0394659 0.00217689 0)
(-0.0402883 0.00182235 0)
(-0.0409566 0.0014456 0)
(-0.0414625 0.00104869 0)
(-0.0417988 0.000634098 0)
(-0.0419593 0.000204733 0)
(-0.0419391 -0.000236047 0)
(-0.0417349 -0.000684461 0)
(-0.0413449 -0.00113633 0)
(-0.040769 -0.0015871 0)
(-0.0400092 -0.00203191 0)
(-0.0390692 -0.00246566 0)
(-0.0379549 -0.00288306 0)
(-0.0366743 -0.00327874 0)
(-0.0352373 -0.00364731 0)
(-0.0336561 -0.00398351 0)
(-0.0319447 -0.0042823 0)
(-0.0301191 -0.00453894 0)
(-0.028197 -0.00474912 0)
(-0.0261975 -0.00490909 0)
(-0.0241414 -0.00501572 0)
(-0.0220501 -0.00506664 0)
(-0.0199461 -0.00506025 0)
(-0.0178522 -0.00499589 0)
(-0.0157912 -0.00487381 0)
(-0.0137858 -0.00469527 0)
(-0.0118577 -0.00446252 0)
(-0.0100278 -0.00417888 0)
(-0.00831538 -0.00384873 0)
(-0.00673766 -0.00347752 0)
(-0.0053096 -0.00307181 0)
(-0.00404335 -0.00263932 0)
(-0.00294775 -0.00218903 0)
(-0.00202796 -0.00173133 0)
(-0.00128493 -0.00127827 0)
(-0.000714916 -0.000843865 0)
(-0.000308942 -0.000444585 0)
(-5.22707e-05 -9.9969e-05 0)
(7.59386e-05 0.000166673 0)
(0.000103143 0.00032764 0)
(6.7306e-05 0.000350223 0)
(1.96228e-05 0.000193811 0)
(-1.37048e-05 -3.72795e-05 0)
(-0.000132803 0.000197671 0)
(-0.000435605 0.000626946 0)
(-0.000924042 0.0011699 0)
(-0.00160272 0.00177065 0)
(-0.00247418 0.00238842 0)
(-0.00353458 0.00299418 0)
(-0.00477523 0.00356818 0)
(-0.00618405 0.0040976 0)
(-0.00774652 0.00457468 0)
(-0.00944654 0.00499536 0)
(-0.0112671 0.00535815 0)
(-0.0131906 0.00566331 0)
(-0.0151997 0.00591219 0)
(-0.017277 0.00610677 0)
(-0.0194058 0.00624931 0)
(-0.0215694 0.0063421 0)
(-0.0237521 0.00638727 0)
(-0.0259383 0.00638668 0)
(-0.0281129 0.00634189 0)
(-0.0302613 0.00625415 0)
(-0.0323691 0.00612438 0)
(-0.0344221 0.00595326 0)
(-0.0364063 0.00574125 0)
(-0.038308 0.00548871 0)
(-0.0401137 0.00519597 0)
(-0.0418099 0.0048634 0)
(-0.0433834 0.00449153 0)
(-0.0448216 0.00408112 0)
(-0.046112 0.00363327 0)
(-0.0472426 0.00314945 0)
(-0.0482025 0.00263163 0)
(-0.0489811 0.00208228 0)
(-0.0495691 0.00150443 0)
(-0.0499583 0.000901736 0)
(-0.0501417 0.000278435 0)
(-0.0501141 -0.000360615 0)
(-0.0498717 -0.00100997 0)
(-0.0494128 -0.00166363 0)
(-0.0487374 -0.00231511 0)
(-0.0478479 -0.00295749 0)
(-0.0467488 -0.0035835 0)
(-0.045447 -0.00418566 0)
(-0.0439516 -0.00475637 0)
(-0.0422742 -0.00528803 0)
(-0.0404286 -0.00577323 0)
(-0.0384309 -0.00620483 0)
(-0.0362994 -0.00657617 0)
(-0.0340543 -0.0068812 0)
(-0.0317174 -0.00711462 0)
(-0.0293123 -0.00727204 0)
(-0.0268635 -0.00735011 0)
(-0.0243965 -0.0073466 0)
(-0.0219375 -0.00726058 0)
(-0.0195123 -0.0070924 0)
(-0.017147 -0.00684387 0)
(-0.0148664 -0.00651819 0)
(-0.0126943 -0.0061201 0)
(-0.0106528 -0.00565581 0)
(-0.0087619 -0.00513309 0)
(-0.00703873 -0.00456125 0)
(-0.0054974 -0.00395127 0)
(-0.0041484 -0.00331582 0)
(-0.00299808 -0.00266949 0)
(-0.00204823 -0.00202896 0)
(-0.00129561 -0.00141342 0)
(-0.000731449 -0.000844957 0)
(-0.000341059 -0.000349236 0)
(-0.000103518 4.3803e-05 0)
(8.76183e-06 0.000299257 0)
(3.23173e-05 0.000376353 0)
(1.35813e-05 0.000224086 0)
(-2.51804e-05 4.43103e-05 0)
(-0.000199891 0.000461406 0)
(-0.000613615 0.00108675 0)
(-0.00125185 0.00183368 0)
(-0.00211012 0.00264045 0)
(-0.00318627 0.00346089 0)
(-0.00447273 0.00426141 0)
(-0.00595778 0.00501862 0)
(-0.00762696 0.00571692 0)
(-0.00946371 0.00634666 0)
(-0.0114501 0.00690252 0)
(-0.0135673 0.00738236 0)
(-0.0157961 0.00778618 0)
(-0.0181174 0.00811542 0)
(-0.020512 0.00837235 0)
(-0.0229614 0.00855961 0)
(-0.0254472 0.00867996 0)
(-0.0279517 0.00873598 0)
(-0.0304575 0.00872998 0)
(-0.0329478 0.00866391 0)
(-0.0354059 0.00853935 0)
(-0.0378156 0.0083575 0)
(-0.0401609 0.00811927 0)
(-0.042426 0.00782534 0)
(-0.0445954 0.00747627 0)
(-0.0466537 0.00707261 0)
(-0.0485858 0.00661497 0)
(-0.0503771 0.00610423 0)
(-0.052013 0.00554155 0)
(-0.0534798 0.00492855 0)
(-0.0547643 0.00426737 0)
(-0.0558539 0.00356078 0)
(-0.0567373 0.00281223 0)
(-0.0574041 0.00202591 0)
(-0.0578451 0.00120681 0)
(-0.058053 0.000360687 0)
(-0.0580218 -0.000505899 0)
(-0.0577476 -0.00138563 0)
(-0.0572285 -0.00227047 0)
(-0.0564648 -0.00315174 0)
(-0.0554591 -0.00402024 0)
(-0.0542166 -0.00486631 0)
(-0.0527448 -0.00568001 0)
(-0.051054 -0.00645126 0)
(-0.049157 -0.00717002 0)
(-0.0470691 -0.00782646 0)
(-0.0448081 -0.00841114 0)
(-0.0423942 -0.00891527 0)
(-0.0398498 -0.00933082 0)
(-0.0371989 -0.0096508 0)
(-0.0344677 -0.00986937 0)
(-0.0316833 -0.00998208 0)
(-0.0288741 -0.00998599 0)
(-0.0260688 -0.00987981 0)
(-0.0232964 -0.00966404 0)
(-0.0205857 -0.009341 0)
(-0.0179646 -0.00891497 0)
(-0.0154595 -0.00839219 0)
(-0.0130953 -0.00778092 0)
(-0.0108943 -0.00709144 0)
(-0.008876 -0.00633614 0)
(-0.00705662 -0.00552949 0)
(-0.00544834 -0.0046882 0)
(-0.00405901 -0.00383136 0)
(-0.00289164 -0.00298062 0)
(-0.00194396 -0.00216054 0)
(-0.00120805 -0.00139902 0)
(-0.000670003 -0.000727863 0)
(-0.000309635 -0.000183525 0)
(-0.000100163 0.000192232 0)
(-7.86105e-06 0.000351337 0)
(6.82663e-06 0.000234468 0)
(-3.63164e-05 0.000160595 0)
(-0.000266716 0.000814324 0)
(-0.00079301 0.00167885 0)
(-0.00158407 0.0026643 0)
(-0.00262574 0.00370508 0)
(-0.00391047 0.00475123 0)
(-0.00542629 0.00576579 0)
(-0.00715793 0.00672252 0)
(-0.00908808 0.00760365 0)
(-0.0111979 0.00839795 0)
(-0.0134675 0.00909907 0)
(-0.0158762 0.00970432 0)
(-0.0184033 0.0102135 0)
(-0.0210278 0.0106282 0)
(-0.0237293 0.0109509 0)
(-0.0264874 0.0111846 0)
(-0.0292824 0.0113325 0)
(-0.0320948 0.0113977 0)
(-0.0349057 0.0113829 0)
(-0.0376965 0.0112904 0)
(-0.0404491 0.0111221 0)
(-0.0431455 0.0108795 0)
(-0.0457681 0.0105637 0)
(-0.0482995 0.0101758 0)
(-0.0507226 0.00971647 0)
(-0.0530205 0.0091865 0)
(-0.0551766 0.00858687 0)
(-0.0571747 0.00791881 0)
(-0.0589991 0.007184 0)
(-0.0606345 0.00638465 0)
(-0.0620666 0.00552369 0)
(-0.0632818 0.0046048 0)
(-0.0642675 0.00363254 0)
(-0.0650127 0.00261239 0)
(-0.0655073 0.00155081 0)
(-0.0657434 0.000455253 0)
(-0.0657145 -0.000665853 0)
(-0.0654165 -0.00180313 0)
(-0.0648472 -0.00294633 0)
(-0.0640071 -0.0040844 0)
(-0.0628988 -0.00520563 0)
(-0.0615281 -0.00629776 0)
(-0.059903 -0.0073482 0)
(-0.0580345 -0.00834418 0)
(-0.0559366 -0.00927297 0)
(-0.0536257 -0.0101221 0)
(-0.0511211 -0.0108797 0)
(-0.0484445 -0.0115346 0)
(-0.0456201 -0.0120766 0)
(-0.0426741 -0.0124968 0)
(-0.0396347 -0.0127878 0)
(-0.0365314 -0.0129439 0)
(-0.0333949 -0.0129613 0)
(-0.0302569 -0.0128384 0)
(-0.0271488 -0.0125756 0)
(-0.0241021 -0.0121759 0)
(-0.0211474 -0.0116446 0)
(-0.0183139 -0.0109895 0)
(-0.0156291 -0.0102211 0)
(-0.0131178 -0.00935242 0)
(-0.0108018 -0.00839894 0)
(-0.00869959 -0.00737895 0)
(-0.00682523 -0.00631342 0)
(-0.00518841 -0.00522615 0)
(-0.00379372 -0.00414394 0)
(-0.00264034 -0.00309691 0)
(-0.0017217 -0.00211881 0)
(-0.00102528 -0.00124756 0)
(-0.000532286 -0.000525913 0)
(-0.000217399 -2.02239e-06 0)
(-5.0565e-05 0.000269622 0)
(-1.1129e-07 0.000223256 0)
(-4.70184e-05 0.000310936 0)
(-0.000332302 0.00125633 0)
(-0.000970803 0.0024042 0)
(-0.0019151 0.00366358 0)
(-0.00314119 0.00496682 0)
(-0.00463573 0.00626167 0)
(-0.00638193 0.00750894 0)
(-0.00836051 0.00868049 0)
(-0.010551 0.00975701 0)
(-0.012932 0.0107262 0)
(-0.0154814 0.0115809 0)
(-0.0181769 0.0123183 0)
(-0.0209959 0.0129379 0)
(-0.0239161 0.0134416 0)
(-0.0269155 0.013832 0)
(-0.0299723 0.0141128 0)
(-0.0330655 0.0142874 0)
(-0.0361741 0.0143594 0)
(-0.0392779 0.0143318 0)
(-0.0423568 0.0142074 0)
(-0.0453912 0.0139884 0)
(-0.0483619 0.0136766 0)
(-0.0512497 0.0132734 0)
(-0.0540359 0.01278 0)
(-0.0567019 0.0121974 0)
(-0.0592295 0.0115267 0)
(-0.0616007 0.0107693 0)
(-0.0637981 0.00992681 0)
(-0.0658046 0.00900147 0)
(-0.067604 0.0079962 0)
(-0.0691807 0.00691476 0)
(-0.07052 0.00576185 0)
(-0.0716086 0.00454325 0)
(-0.0724344 0.00326584 0)
(-0.0729868 0.00193768 0)
(-0.0732571 0.000568039 0)
(-0.0732384 -0.00083265 0)
(-0.0729261 -0.00225281 0)
(-0.0723179 -0.00367981 0)
(-0.0714139 -0.00510006 0)
(-0.0702171 -0.00649917 0)
(-0.0687332 -0.00786214 0)
(-0.0669708 -0.00917349 0)
(-0.0649415 -0.0104176 0)
(-0.0626598 -0.0115789 0)
(-0.0601431 -0.012642 0)
(-0.0574119 -0.0135924 0)
(-0.0544893 -0.0144164 0)
(-0.0514009 -0.0151013 0)
(-0.0481747 -0.0156364 0)
(-0.0448408 -0.0160123 0)
(-0.0414309 -0.0162219 0)
(-0.0379781 -0.0162606 0)
(-0.0345161 -0.0161262 0)
(-0.0310791 -0.015819 0)
(-0.0277013 -0.0153426 0)
(-0.0244159 -0.0147033 0)
(-0.0212548 -0.0139106 0)
(-0.0182481 -0.0129772 0)
(-0.0154233 -0.0119188 0)
(-0.0128047 -0.0107544 0)
(-0.010413 -0.00950612 0)
(-0.00826476 -0.00819937 0)
(-0.00637165 -0.00686284 0)
(-0.00474028 -0.00552862 0)
(-0.00337166 -0.00423246 0)
(-0.00226106 -0.00301399 0)
(-0.00139778 -0.00191717 0)
(-0.000764909 -0.000990805 0)
(-0.00033905 -0.000289015 0)
(-9.42381e-05 0.000128107 0)
(-6.9628e-06 0.000189802 0)
(-5.72753e-05 0.000494421 0)
(-0.00039617 0.00178616 0)
(-0.00114527 0.00326191 0)
(-0.00224142 0.00483113 0)
(-0.00365091 0.00642564 0)
(-0.00535444 0.00799222 0)
(-0.00733009 0.0094906 0)
(-0.00955434 0.0108916 0)
(-0.0120033 0.0121752 0)
(-0.0146527 0.0133285 0)
(-0.0174783 0.0143441 0)
(-0.0204557 0.0152189 0)
(-0.0235608 0.0159528 0)
(-0.0267697 0.0165478 0)
(-0.0300591 0.0170071 0)
(-0.0334059 0.0173346 0)
(-0.0367879 0.0175343 0)
(-0.0401828 0.0176101 0)
(-0.0435692 0.0175656 0)
(-0.0469258 0.0174038 0)
(-0.0502318 0.0171272 0)
(-0.0534667 0.016738 0)
(-0.0566101 0.0162378 0)
(-0.0596421 0.0156281 0)
(-0.0625428 0.0149101 0)
(-0.0652929 0.0140854 0)
(-0.0678732 0.0131556 0)
(-0.0702651 0.0121228 0)
(-0.0724504 0.01099 0)
(-0.0744118 0.00976079 0)
(-0.0761327 0.00843982 0)
(-0.0775976 0.0070329 0)
(-0.0787922 0.00554708 0)
(-0.0797034 0.00399075 0)
(-0.0803201 0.00237366 0)
(-0.0806327 0.000706979 0)
(-0.0806338 -0.000996731 0)
(-0.0803183 -0.00272358 0)
(-0.0796835 -0.00445844 0)
(-0.0787294 -0.00618504 0)
(-0.0774586 -0.0078862 0)
(-0.0758769 -0.00954396 0)
(-0.073993 -0.0111399 0)
(-0.0718188 -0.0126552 0)
(-0.0693693 -0.0140713 0)
(-0.0666626 -0.01537 0)
(-0.06372 -0.0165336 0)
(-0.0605657 -0.0175457 0)
(-0.0572266 -0.0183912 0)
(-0.0537322 -0.0190569 0)
(-0.0501144 -0.0195317 0)
(-0.0464067 -0.0198068 0)
(-0.0426444 -0.0198763 0)
(-0.0388636 -0.0197374 0)
(-0.035101 -0.0193904 0)
(-0.0313933 -0.0188392 0)
(-0.0277764 -0.0180912 0)
(-0.0242851 -0.0171574 0)
(-0.0209522 -0.0160528 0)
(-0.017808 -0.0147959 0)
(-0.0148795 -0.0134092 0)
(-0.0121902 -0.0119189 0)
(-0.00975915 -0.0103547 0)
(-0.00760042 -0.00875057 0)
(-0.00572298 -0.00714386 0)
(-0.00413012 -0.00557603 0)
(-0.00281929 -0.00409263 0)
(-0.00178204 -0.00274358 0)
(-0.00100364 -0.00158357 0)
(-0.000462906 -0.000672278 0)
(-0.000138065 -7.48163e-05 0)
(-1.36124e-05 0.000134029 0)
(-6.71046e-05 0.000710014 0)
(-0.000458095 0.00240193 0)
(-0.0013154 0.00424989 0)
(-0.00256083 0.006165 0)
(-0.00415121 0.00807974 0)
(-0.00606126 0.00994112 0)
(-0.00826388 0.0117088 0)
(-0.0107311 0.0133537 0)
(-0.0134353 0.0148554 0)
(-0.0163495 0.0162012 0)
(-0.019447 0.017384 0)
(-0.0227012 0.0184008 0)
(-0.0260866 0.019252 0)
(-0.0295777 0.0199399 0)
(-0.0331499 0.0204683 0)
(-0.036779 0.0208416 0)
(-0.0404414 0.0210643 0)
(-0.0441141 0.0211407 0)
(-0.0477745 0.0210749 0)
(-0.0514002 0.0208701 0)
(-0.0549693 0.0205294 0)
(-0.0584603 0.020055 0)
(-0.0618519 0.0194489 0)
(-0.0651229 0.0187128 0)
(-0.0682525 0.0178483 0)
(-0.0712202 0.0168572 0)
(-0.0740059 0.0157416 0)
(-0.0765899 0.0145041 0)
(-0.0789532 0.0131483 0)
(-0.0810772 0.0116787 0)
(-0.0829446 0.0101007 0)
(-0.0845388 0.00842141 0)
(-0.0858447 0.00664916 0)
(-0.0868484 0.00479387 0)
(-0.0875378 0.00286708 0)
(-0.0879028 0.00088192 0)
(-0.0879352 -0.00114685 0)
(-0.0876293 -0.00320295 0)
(-0.0869817 -0.00526863 0)
(-0.0859919 -0.00732488 0)
(-0.0846625 -0.00935155 0)
(-0.0829987 -0.0113276 0)
(-0.0810091 -0.0132315 0)
(-0.0787058 -0.0150413 0)
(-0.076104 -0.016735 0)
(-0.073222 -0.0182913 0)
(-0.0700819 -0.0196894 0)
(-0.0667086 -0.0209098 0)
(-0.0631302 -0.0219348 0)
(-0.0593774 -0.0227486 0)
(-0.0554836 -0.0233379 0)
(-0.0514843 -0.023692 0)
(-0.0474166 -0.0238039 0)
(-0.0433192 -0.0236696 0)
(-0.039231 -0.0232894 0)
(-0.0351915 -0.0226673 0)
(-0.0312394 -0.0218115 0)
(-0.0274124 -0.0207349 0)
(-0.0237463 -0.0194544 0)
(-0.0202745 -0.0179915 0)
(-0.017027 -0.0163721 0)
(-0.0140302 -0.0146265 0)
(-0.011306 -0.0127892 0)
(-0.00887149 -0.010899 0)
(-0.0067382 -0.00899884 0)
(-0.00491207 -0.00713605 0)
(-0.00339311 -0.00536204 0)
(-0.0021754 -0.00373267 0)
(-0.00124664 -0.0023084 0)
(-0.000587959 -0.00115425 0)
(-0.000181721 -0.000339982 0)
(-2.00339e-05 5.61046e-05 0)
(-7.65301e-05 0.000956638 0)
(-0.000517976 0.00310132 0)
(-0.0014806 0.00536524 0)
(-0.00287189 0.00766207 0)
(-0.00463954 0.00992598 0)
(-0.00675242 0.0121052 0)
(-0.00917819 0.0141604 0)
(-0.0118844 0.0160631 0)
(-0.0148397 0.0177937 0)
(-0.0180142 0.0193401 0)
(-0.0213784 0.0206958 0)
(-0.0249041 0.0218585 0)
(-0.0285638 0.0228293 0)
(-0.0323306 0.0236111 0)
(-0.0361787 0.0242085 0)
(-0.0400829 0.0246262 0)
(-0.0440185 0.0248695 0)
(-0.0479614 0.0249432 0)
(-0.0518882 0.0248517 0)
(-0.0557757 0.0245987 0)
(-0.0596011 0.0241875 0)
(-0.0633418 0.0236206 0)
(-0.0669757 0.0229004 0)
(-0.0704808 0.0220287 0)
(-0.0738353 0.0210075 0)
(-0.0770179 0.0198389 0)
(-0.0800075 0.0185254 0)
(-0.0827835 0.0170702 0)
(-0.0853259 0.0154774 0)
(-0.0876153 0.0137524 0)
(-0.0896335 0.0119016 0)
(-0.091363 0.00993311 0)
(-0.0927876 0.00785678 0)
(-0.0938928 0.00568405 0)
(-0.0946656 0.00342824 0)
(-0.0950948 0.00110451 0)
(-0.0951716 -0.00127014 0)
(-0.0948894 -0.00367698 0)
(-0.0942441 -0.00609561 0)
(-0.0932345 -0.00850413 0)
(-0.0918625 -0.0108794 0)
(-0.090133 -0.0131972 0)
(-0.0880542 -0.0154326 0)
(-0.0856377 -0.0175603 0)
(-0.0828987 -0.0195551 0)
(-0.0798558 -0.021392 0)
(-0.0765313 -0.023047 0)
(-0.0729508 -0.0244975 0)
(-0.069143 -0.0257225 0)
(-0.0651399 -0.0267036 0)
(-0.0609764 -0.0274249 0)
(-0.0566895 -0.0278738 0)
(-0.0523184 -0.0280415 0)
(-0.047904 -0.0279231 0)
(-0.0434879 -0.0275182 0)
(-0.0391122 -0.0268309 0)
(-0.0348187 -0.0258703 0)
(-0.0306481 -0.0246505 0)
(-0.0266396 -0.0231908 0)
(-0.0228298 -0.0215153 0)
(-0.0192521 -0.0196535 0)
(-0.0159362 -0.0176398 0)
(-0.0129074 -0.0155134 0)
(-0.0101857 -0.0133184 0)
(-0.00778605 -0.0111032 0)
(-0.00571717 -0.00892102 0)
(-0.00398197 -0.00682932 0)
(-0.00257733 -0.00488991 0)
(-0.00149354 -0.00316901 0)
(-0.000714054 -0.00173693 0)
(-0.000225207 -0.00066795 0)
(-2.62536e-05 -4.37534e-05 0)
(-8.55731e-05 0.0012332 0)
(-0.000575759 0.00388179 0)
(-0.00164051 0.00660456 0)
(-0.00317363 0.00931843 0)
(-0.0051141 0.0119602 0)
(-0.0074251 0.0144801 0)
(-0.0100691 0.0168408 0)
(-0.0130092 0.0190152 0)
(-0.0162105 0.0209852 0)
(-0.0196397 0.0227399 0)
(-0.0232651 0.0242739 0)
(-0.0270562 0.0255861 0)
(-0.0309839 0.0266785 0)
(-0.03502 0.0275549 0)
(-0.0391373 0.0282206 0)
(-0.0433097 0.0286814 0)
(-0.0475115 0.0289429 0)
(-0.0517179 0.0290105 0)
(-0.0559045 0.0288891 0)
(-0.0600475 0.028583 0)
(-0.0641233 0.0280955 0)
(-0.0681086 0.0274297 0)
(-0.0719805 0.0265879 0)
(-0.0757163 0.0255724 0)
(-0.0792934 0.0243854 0)
(-0.0826897 0.0230294 0)
(-0.0858833 0.0215072 0)
(-0.0888528 0.0198226 0)
(-0.0915774 0.0179803 0)
(-0.094037 0.0159864 0)
(-0.0962121 0.0138485 0)
(-0.0980846 0.0115757 0)
(-0.0996374 0.00917916 0)
(-0.100855 0.00667197 0)
(-0.101723 0.00406922 0)
(-0.10223 0.0013881 0)
(-0.102366 -0.00135217 0)
(-0.102123 -0.00413033 0)
(-0.101497 -0.0069233 0)
(-0.100484 -0.00970627 0)
(-0.0990871 -0.012453 0)
(-0.097309 -0.0151359 0)
(-0.0951578 -0.0177268 0)
(-0.0926445 -0.0201967 0)
(-0.0897839 -0.0225168 0)
(-0.0865946 -0.0246586 0)
(-0.0830986 -0.0265944 0)
(-0.079322 -0.0282982 0)
(-0.0752942 -0.0297457 0)
(-0.0710482 -0.0309153 0)
(-0.0666198 -0.0317884 0)
(-0.0620481 -0.03235 0)
(-0.057374 -0.0325894 0)
(-0.0526406 -0.0325003 0)
(-0.0478924 -0.0320813 0)
(-0.0431741 -0.0313366 0)
(-0.0385309 -0.0302757 0)
(-0.0340068 -0.028914 0)
(-0.0296446 -0.0272728 0)
(-0.0254844 -0.0253791 0)
(-0.0215635 -0.0232657 0)
(-0.0179153 -0.0209712 0)
(-0.0145686 -0.0185396 0)
(-0.0115473 -0.0160202 0)
(-0.00886961 -0.0134673 0)
(-0.00654764 -0.01094 0)
(-0.00458744 -0.00850193 0)
(-0.00298891 -0.00622097 0)
(-0.00174505 -0.00416922 0)
(-0.000841643 -0.00242238 0)
(-0.000268746 -0.00105937 0)
(-3.23304e-05 -0.000165411 0)
(-9.42491e-05 0.00153862 0)
(-0.000631411 0.00474064 0)
(-0.00179483 0.00796403 0)
(-0.00346532 0.0111296 0)
(-0.0055735 0.0141773 0)
(-0.00807708 0.0170606 0)
(-0.0109336 0.0197445 0)
(-0.0141016 0.0222044 0)
(-0.0175426 0.0244242 0)
(-0.0212203 0.0263947 0)
(-0.0251003 0.0281123 0)
(-0.0291503 0.0295773 0)
(-0.0333394 0.030793 0)
(-0.0376379 0.0317646 0)
(-0.0420177 0.0324981 0)
(-0.0464515 0.0330004 0)
(-0.0509129 0.0332777 0)
(-0.0553763 0.0333362 0)
(-0.0598168 0.0331813 0)
(-0.0642097 0.0328175 0)
(-0.068531 0.0322486 0)
(-0.0727567 0.0314779 0)
(-0.0768634 0.0305081 0)
(-0.0808276 0.0293417 0)
(-0.0846262 0.027981 0)
(-0.0882363 0.0264289 0)
(-0.0916355 0.0246886 0)
(-0.0948016 0.0227644 0)
(-0.097713 0.0206617 0)
(-0.100349 0.0183871 0)
(-0.102688 0.0159493 0)
(-0.104713 0.0133585 0)
(-0.106405 0.0106272 0)
(-0.107747 0.00777002 0)
(-0.108725 0.00480374 0)
(-0.109325 0.00174757 0)
(-0.109536 -0.00137699 0)
(-0.10935 -0.00454624 0)
(-0.10876 -0.00773436 0)
(-0.107763 -0.0109136 0)
(-0.106358 -0.0140545 0)
(-0.10455 -0.0171263 0)
(-0.102345 -0.020097 0)
(-0.0997517 -0.0229341 0)
(-0.0967857 -0.025605 0)
(-0.0934646 -0.0280773 0)
(-0.0898104 -0.0303195 0)
(-0.0858491 -0.0323018 0)
(-0.0816105 -0.0339963 0)
(-0.0771284 -0.035378 0)
(-0.0724399 -0.036425 0)
(-0.0675852 -0.0371197 0)
(-0.0626074 -0.037449 0)
(-0.057552 -0.0374048 0)
(-0.052466 -0.0369848 0)
(-0.0473974 -0.0361925 0)
(-0.0423945 -0.0350377 0)
(-0.0375053 -0.033537 0)
(-0.0327762 -0.0317133 0)
(-0.0282515 -0.0295964 0)
(-0.0239726 -0.0272226 0)
(-0.0199771 -0.0246347 0)
(-0.016298 -0.0218813 0)
(-0.012963 -0.0190173 0)
(-0.00999428 -0.0161028 0)
(-0.00740767 -0.0132031 0)
(-0.00521269 -0.0103881 0)
(-0.00341242 -0.00773217 0)
(-0.00200271 -0.00531338 0)
(-0.000971603 -0.00321311 0)
(-0.000312708 -0.00151521 0)
(-3.83422e-05 -0.000308906 0)
(-0.000102566 0.00187178 0)
(-0.000684888 0.00567504 0)
(-0.00194333 0.00943952 0)
(-0.00374632 0.0130904 0)
(-0.00601655 0.0165718 0)
(-0.00870648 0.0198406 0)
(-0.0117688 0.0228653 0)
(-0.0151579 0.0256241 0)
(-0.0188316 0.0281038 0)
(-0.0227506 0.0302976 0)
(-0.0268782 0.032204 0)
(-0.0311799 0.0338251 0)
(-0.035623 0.035166 0)
(-0.0401769 0.0362332 0)
(-0.044812 0.0370342 0)
(-0.0495004 0.0375765 0)
(-0.0542148 0.0378677 0)
(-0.0589291 0.0379144 0)
(-0.0636177 0.0377225 0)
(-0.0682554 0.0372972 0)
(-0.0728178 0.0366425 0)
(-0.0772804 0.0357621 0)
(-0.0816193 0.0346588 0)
(-0.0858104 0.0333353 0)
(-0.0898303 0.0317943 0)
(-0.0936555 0.0300388 0)
(-0.0972629 0.0280725 0)
(-0.10063 0.0259001 0)
(-0.103733 0.0235275 0)
(-0.106553 0.0209621 0)
(-0.109066 0.0182133 0)
(-0.111254 0.0152925 0)
(-0.113097 0.0122134 0)
(-0.114577 0.00899199 0)
(-0.11568 0.00564691 0)
(-0.116389 0.00219926 0)
(-0.116693 -0.00132729 0)
(-0.116581 -0.0049066 0)
(-0.116047 -0.00851013 0)
(-0.115085 -0.0121072 0)
(-0.113693 -0.0156651 0)
(-0.111874 -0.0191496 0)
(-0.109633 -0.0225252 0)
(-0.106979 -0.0257555 0)
(-0.103925 -0.0288038 0)
(-0.100488 -0.0316338 0)
(-0.0966892 -0.0342099 0)
(-0.0925552 -0.036498 0)
(-0.0881156 -0.0384663 0)
(-0.0834046 -0.040086 0)
(-0.0784603 -0.0413317 0)
(-0.0733245 -0.0421825 0)
(-0.0680422 -0.0426226 0)
(-0.062661 -0.0426418 0)
(-0.0572308 -0.042236 0)
(-0.051803 -0.0414081 0)
(-0.0464294 -0.0401679 0)
(-0.041162 -0.0385325 0)
(-0.0360514 -0.0365267 0)
(-0.0311466 -0.0341826 0)
(-0.0264933 -0.0315401 0)
(-0.0221339 -0.0286459 0)
(-0.0181058 -0.0255537 0)
(-0.0144415 -0.0223239 0)
(-0.0111672 -0.0190226 0)
(-0.00830301 -0.0157215 0)
(-0.00586209 -0.0124973 0)
(-0.00385103 -0.00943083 0)
(-0.0022686 -0.00660669 0)
(-0.00110512 -0.00411233 0)
(-0.000357567 -0.00203698 0)
(-4.43795e-05 -0.000474505 0)
(-0.000110525 0.00223156 0)
(-0.00073613 0.00668203 0)
(-0.00208575 0.0110266 0)
(-0.00401604 0.0151956 0)
(-0.00644216 0.0191374 0)
(-0.0093116 0.0228134 0)
(-0.0125725 0.0261959 0)
(-0.016175 0.0292671 0)
(-0.0200736 0.0320168 0)
(-0.024226 0.0344412 0)
(-0.0285931 0.0365415 0)
(-0.0331385 0.0383221 0)
(-0.037828 0.03979 0)
(-0.0426295 0.0409535 0)
(-0.0475126 0.0418216 0)
(-0.0524484 0.0424031 0)
(-0.0574092 0.0427064 0)
(-0.062368 0.042739 0)
(-0.067299 0.0425076 0)
(-0.0721767 0.0420176 0)
(-0.076976 0.0412736 0)
(-0.0816723 0.0402794 0)
(-0.0862412 0.0390382 0)
(-0.0906584 0.0375528 0)
(-0.0949 0.0358261 0)