/*--------------------------------*- C++ -*----------------------------------*\
  =========                 |
  \\      /  F ield         | OpenFOAM: The Open Source CFD Toolbox
   \\    /   O peration     | Website:  https://openfoam.org
    \\  /    A nd           | Version:  dev
     \\/     M anipulation  |
\*---------------------------------------------------------------------------*/
FoamFile
{
    format      ascii;
    class       volScalarField;
    location    "18.9";
    object      Ux;
}
// * * * * * * * * * * * * * * * * * * * * * * * * * * * * * * * * * * * * * //

dimensions      [0 1 -1 0 0 0 0];

internalField   nonuniform List<scalar> 
5184
(
1.2279e-05
4.50502e-05
8.01696e-05
9.57681e-05
8.18902e-05
3.61725e-05
-4.08244e-05
-0.000147079
-0.000279808
-0.000435958
-0.000612413
-0.000806143
-0.00101428
-0.00123416
-0.00146334
-0.00169954
-0.00194071
-0.00218493
-0.00243042
-0.0026755
-0.00291856
-0.00315804
-0.00339242
-0.00362018
-0.00383979
-0.0040497
-0.00424838
-0.00443425
-0.00460572
-0.00476124
-0.00489922
-0.00501817
-0.00511661
-0.00519318
-0.00524661
-0.0052758
-0.00527979
-0.00525786
-0.00520952
-0.00513452
-0.00503295
-0.00490516
-0.00475186
-0.00457411
-0.00437331
-0.0041512
-0.00390988
-0.00365178
-0.00337961
-0.00309637
-0.0028053
-0.00250982
-0.00221349
-0.00191997
-0.00163291
-0.00135597
-0.00109266
-0.00084637
-0.000620226
-0.000417084
-0.000239439
-8.93662e-05
3.15449e-05
0.00012228
0.000182504
0.000212718
0.000214503
0.000190903
0.000146938
9.06887e-05
3.66008e-05
6.22865e-06
2.08018e-05
6.54787e-05
9.44619e-05
7.24573e-05
-1.93269e-05
-0.000187685
-0.000433185
-0.000752606
-0.00114041
-0.00158983
-0.00209352
-0.00264404
-0.00323409
-0.00385669
-0.00450523
-0.00517354
-0.0058558
-0.0065466
-0.00724079
-0.00793351
-0.00862005
-0.00929587
-0.0099565
-0.0105975
-0.0112145
-0.0118032
-0.012359
-0.0128775
-0.0133545
-0.0137856
-0.0141665
-0.0144932
-0.0147616
-0.0149684
-0.0151101
-0.0151839
-0.0151874
-0.015119
-0.0149774
-0.0147624
-0.0144742
-0.014114
-0.0136842
-0.0131875
-0.0126281
-0.0120106
-0.011341
-0.0106258
-0.00987231
-0.00908869
-0.00828362
-0.00746625
-0.00664612
-0.00583293
-0.00503647
-0.00426639
-0.00353205
-0.00284238
-0.00220563
-0.00162929
-0.00111983
-0.000682537
-0.000321328
-3.84889e-05
0.000165606
0.000292872
0.000348044
0.000339373
0.000279332
0.000185748
8.62573e-05
1.96647e-05
1.76006e-05
4.12006e-05
1.93621e-05
-8.42994e-05
-0.00029052
-0.000608023
-0.00103806
-0.00157681
-0.00221711
-0.0029498
-0.00376459
-0.0046508
-0.00559771
-0.00659487
-0.00763223
-0.00870025
-0.00978986
-0.0108925
-0.0119999
-0.0131042
-0.014198
-0.0152738
-0.0163244
-0.0173427
-0.0183215
-0.019254
-0.020133
-0.0209516
-0.021703
-0.0223804
-0.0229772
-0.0234871
-0.0239042
-0.0242232
-0.024439
-0.0245474
-0.0245451
-0.0244296
-0.0241993
-0.0238539
-0.0233943
-0.0228226
-0.0221422
-0.0213581
-0.0204763
-0.0195046
-0.0184518
-0.0173282
-0.016145
-0.0149149
-0.0136509
-0.0123672
-0.0110782
-0.00979885
-0.00854392
-0.00732813
-0.0061657
-0.00507015
-0.00405401
-0.00312855
-0.0023035
-0.00158674
-0.000984009
-0.000498546
-0.000130672
0.000122675
0.000268573
0.000318839
0.000290576
0.00020698
0.000102277
2.49441e-05
8.80998e-06
-7.10512e-06
-0.000107721
-0.000322465
-0.000669531
-0.0011573
-0.0017865
-0.00255239
-0.0034464
-0.00445753
-0.00557332
-0.00678055
-0.00806585
-0.00941597
-0.010818
-0.0122596
-0.0137288
-0.0152143
-0.016705
-0.0181906
-0.0196607
-0.0211054
-0.0225151
-0.0238799
-0.0251905
-0.0264373
-0.0276111
-0.0287025
-0.0297024
-0.0306021
-0.0313929
-0.0320666
-0.0326157
-0.0330331
-0.0333126
-0.033449
-0.033438
-0.0332766
-0.0329632
-0.0324975
-0.0318808
-0.0311163
-0.0302085
-0.0291641
-0.0279912
-0.0266999
-0.0253018
-0.0238103
-0.0222401
-0.0206073
-0.0189291
-0.0172237
-0.0155098
-0.0138066
-0.0121331
-0.0105084
-0.00895076
-0.00747761
-0.00610508
-0.00484764
-0.00371779
-0.00272562
-0.00187847
-0.00118047
-0.000632097
-0.000229663
3.52889e-05
0.000176623
0.00021403
0.000173633
9.28274e-05
2.39862e-05
-2.14658e-06
-6.73326e-05
-0.000264092
-0.00060956
-0.00111619
-0.00179018
-0.00263052
-0.00363084
-0.00478103
-0.00606837
-0.00747853
-0.00899629
-0.0106061
-0.0122923
-0.0140398
-0.0158336
-0.0176595
-0.0195036
-0.0213526
-0.0231935
-0.0250138
-0.0268012
-0.0285435
-0.0302289
-0.0318457
-0.0333821
-0.0348268
-0.0361684
-0.0373959
-0.0384985
-0.0394659
-0.0402883
-0.0409566
-0.0414625
-0.0417988
-0.0419593
-0.0419391
-0.0417349
-0.0413449
-0.040769
-0.0400092
-0.0390692
-0.0379549
-0.0366743
-0.0352373
-0.0336561
-0.0319447
-0.0301191
-0.028197
-0.0261975
-0.0241414
-0.0220501
-0.0199461
-0.0178522
-0.0157912
-0.0137858
-0.0118577
-0.0100278
-0.00831538
-0.00673766
-0.0053096
-0.00404335
-0.00294775
-0.00202796
-0.00128493
-0.000714916
-0.000308942
-5.22707e-05
7.59386e-05
0.000103143
6.7306e-05
1.96228e-05
-1.37048e-05
-0.000132803
-0.000435605
-0.000924042
-0.00160272
-0.00247418
-0.00353458
-0.00477523
-0.00618405
-0.00774652
-0.00944654
-0.0112671
-0.0131906
-0.0151997
-0.017277
-0.0194058
-0.0215694
-0.0237521
-0.0259383
-0.0281129
-0.0302613
-0.0323691
-0.0344221
-0.0364063
-0.038308
-0.0401137
-0.0418099
-0.0433834
-0.0448216
-0.046112
-0.0472426
-0.0482025
-0.0489811
-0.0495691
-0.0499583
-0.0501417
-0.0501141
-0.0498717
-0.0494128
-0.0487374
-0.0478479
-0.0467488
-0.045447
-0.0439516
-0.0422742
-0.0404286
-0.0384309
-0.0362994
-0.0340543
-0.0317174
-0.0293123
-0.0268635
-0.0243965
-0.0219375
-0.0195123
-0.017147
-0.0148664
-0.0126943
-0.0106528
-0.0087619
-0.00703873
-0.0054974
-0.0041484
-0.00299808
-0.00204823
-0.00129561
-0.000731449
-0.000341059
-0.000103518
8.76183e-06
3.23173e-05
1.35813e-05
-2.51804e-05
-0.000199891
-0.000613615
-0.00125185
-0.00211012
-0.00318627
-0.00447273
-0.00595778
-0.00762696
-0.00946371
-0.0114501
-0.0135673
-0.0157961
-0.0181174
-0.020512
-0.0229614
-0.0254472
-0.0279517
-0.0304575
-0.0329478
-0.0354059
-0.0378156
-0.0401609
-0.042426
-0.0445954
-0.0466537
-0.0485858
-0.0503771
-0.052013
-0.0534798
-0.0547643
-0.0558539
-0.0567373
-0.0574041
-0.0578451
-0.058053
-0.0580218
-0.0577476
-0.0572285
-0.0564648
-0.0554591
-0.0542166
-0.0527448
-0.051054
-0.049157
-0.0470691
-0.0448081
-0.0423942
-0.0398498
-0.0371989
-0.0344677
-0.0316833
-0.0288741
-0.0260688
-0.0232964
-0.0205857
-0.0179646
-0.0154595
-0.0130953
-0.0108943
-0.008876
-0.00705662
-0.00544834
-0.00405901
-0.00289164
-0.00194396
-0.00120805
-0.000670003
-0.000309635
-0.000100163
-7.86105e-06
6.82663e-06
-3.63164e-05
-0.000266716
-0.00079301
-0.00158407
-0.00262574
-0.00391047
-0.00542629
-0.00715793
-0.00908808
-0.0111979
-0.0134675
-0.0158762
-0.0184033
-0.0210278
-0.0237293
-0.0264874
-0.0292824
-0.0320948
-0.0349057
-0.0376965
-0.0404491
-0.0431455
-0.0457681
-0.0482995
-0.0507226
-0.0530205
-0.0551766
-0.0571747
-0.0589991
-0.0606345
-0.0620666
-0.0632818
-0.0642675
-0.0650127
-0.0655073
-0.0657434
-0.0657145
-0.0654165
-0.0648472
-0.0640071
-0.0628988
-0.0615281
-0.059903
-0.0580345
-0.0559366
-0.0536257
-0.0511211
-0.0484445
-0.0456201
-0.0426741
-0.0396347
-0.0365314
-0.0333949
-0.0302569
-0.0271488
-0.0241021
-0.0211474
-0.0183139
-0.0156291
-0.0131178
-0.0108018
-0.00869959
-0.00682523
-0.00518841
-0.00379372
-0.00264034
-0.0017217
-0.00102528
-0.000532286
-0.000217399
-5.0565e-05
-1.1129e-07
-4.70184e-05
-0.000332302
-0.000970803
-0.0019151
-0.00314119
-0.00463573
-0.00638193
-0.00836051
-0.010551
-0.012932
-0.0154814
-0.0181769
-0.0209959
-0.0239161
-0.0269155
-0.0299723
-0.0330655
-0.0361741
-0.0392779
-0.0423568
-0.0453912
-0.0483619
-0.0512497
-0.0540359
-0.0567019
-0.0592295
-0.0616007
-0.0637981
-0.0658046
-0.067604
-0.0691807
-0.07052
-0.0716086
-0.0724344
-0.0729868
-0.0732571
-0.0732384
-0.0729261
-0.0723179
-0.0714139
-0.0702171
-0.0687332
-0.0669708
-0.0649415
-0.0626598
-0.0601431
-0.0574119
-0.0544893
-0.0514009
-0.0481747
-0.0448408
-0.0414309
-0.0379781
-0.0345161
-0.0310791
-0.0277013
-0.0244159
-0.0212548
-0.0182481
-0.0154233
-0.0128047
-0.010413
-0.00826476
-0.00637165
-0.00474028
-0.00337166
-0.00226106
-0.00139778
-0.000764909
-0.00033905
-9.42381e-05
-6.9628e-06
-5.72753e-05
-0.00039617
-0.00114527
-0.00224142
-0.00365091
-0.00535444
-0.00733009
-0.00955434
-0.0120033
-0.0146527
-0.0174783
-0.0204557
-0.0235608
-0.0267697
-0.0300591
-0.0334059
-0.0367879
-0.0401828
-0.0435692
-0.0469258
-0.0502318
-0.0534667
-0.0566101
-0.0596421
-0.0625428
-0.0652929
-0.0678732
-0.0702651
-0.0724504
-0.0744118
-0.0761327
-0.0775976
-0.0787922
-0.0797034
-0.0803201
-0.0806327
-0.0806338
-0.0803183
-0.0796835
-0.0787294
-0.0774586
-0.0758769
-0.073993
-0.0718188
-0.0693693
-0.0666626
-0.06372
-0.0605657
-0.0572266
-0.0537322
-0.0501144
-0.0464067
-0.0426444
-0.0388636
-0.035101
-0.0313933
-0.0277764
-0.0242851
-0.0209522
-0.017808
-0.0148795
-0.0121902
-0.00975915
-0.00760042
-0.00572298
-0.00413012
-0.00281929
-0.00178204
-0.00100364
-0.000462906
-0.000138065
-1.36124e-05
-6.71046e-05
-0.000458095
-0.0013154
-0.00256083
-0.00415121
-0.00606126
-0.00826388
-0.0107311
-0.0134353
-0.0163495
-0.019447
-0.0227012
-0.0260866
-0.0295777
-0.0331499
-0.036779
-0.0404414
-0.0441141
-0.0477745
-0.0514002
-0.0549693
-0.0584603
-0.0618519
-0.0651229
-0.0682525
-0.0712202
-0.0740059
-0.0765899
-0.0789532
-0.0810772
-0.0829446
-0.0845388
-0.0858447
-0.0868484
-0.0875378
-0.0879028
-0.0879352
-0.0876293
-0.0869817
-0.0859919
-0.0846625
-0.0829987
-0.0810091
-0.0787058
-0.076104
-0.073222
-0.0700819
-0.0667086
-0.0631302
-0.0593774
-0.0554836
-0.0514843
-0.0474166
-0.0433192
-0.039231
-0.0351915
-0.0312394
-0.0274124
-0.0237463
-0.0202745
-0.017027
-0.0140302
-0.011306
-0.00887149
-0.0067382
-0.00491207
-0.00339311
-0.0021754
-0.00124664
-0.000587959
-0.000181721
-2.00339e-05
-7.65301e-05
-0.000517976
-0.0014806
-0.00287189
-0.00463954
-0.00675242
-0.00917819
-0.0118844
-0.0148397
-0.0180142
-0.0213784
-0.0249041
-0.0285638
-0.0323306
-0.0361787
-0.0400829
-0.0440185
-0.0479614
-0.0518882
-0.0557757
-0.0596011
-0.0633418
-0.0669757
-0.0704808
-0.0738353
-0.0770179
-0.0800075
-0.0827835
-0.0853259
-0.0876153
-0.0896335
-0.091363
-0.0927876
-0.0938928
-0.0946656
-0.0950948
-0.0951716
-0.0948894
-0.0942441
-0.0932345
-0.0918625
-0.090133
-0.0880542
-0.0856377
-0.0828987
-0.0798558
-0.0765313
-0.0729508
-0.069143
-0.0651399
-0.0609764
-0.0566895
-0.0523184
-0.047904
-0.0434879
-0.0391122
-0.0348187
-0.0306481
-0.0266396
-0.0228298
-0.0192521
-0.0159362
-0.0129074
-0.0101857
-0.00778605
-0.00571717
-0.00398197
-0.00257733
-0.00149354
-0.000714054
-0.000225207
-2.62536e-05
-8.55731e-05
-0.000575759
-0.00164051
-0.00317363
-0.0051141
-0.0074251
-0.0100691
-0.0130092
-0.0162105
-0.0196397
-0.0232651
-0.0270562
-0.0309839
-0.03502
-0.0391373
-0.0433097
-0.0475115
-0.0517179
-0.0559045
-0.0600475
-0.0641233
-0.0681086
-0.0719805
-0.0757163
-0.0792934
-0.0826897
-0.0858833
-0.0888528
-0.0915774
-0.094037
-0.0962121
-0.0980846
-0.0996374
-0.100855
-0.101723
-0.10223
-0.102366
-0.102123
-0.101497
-0.100484
-0.0990871
-0.097309
-0.0951578
-0.0926445
-0.0897839
-0.0865946
-0.0830986
-0.079322
-0.0752942
-0.0710482
-0.0666198
-0.0620481
-0.057374
-0.0526406
-0.0478924
-0.0431741
-0.0385309
-0.0340068
-0.0296446
-0.0254844
-0.0215635
-0.0179153
-0.0145686
-0.0115473
-0.00886961
-0.00654764
-0.00458744
-0.00298891
-0.00174505
-0.000841643
-0.000268746
-3.23304e-05
-9.42491e-05
-0.000631411
-0.00179483
-0.00346532
-0.0055735
-0.00807708
-0.0109336
-0.0141016
-0.0175426
-0.0212203
-0.0251003
-0.0291503
-0.0333394
-0.0376379
-0.0420177
-0.0464515
-0.0509129
-0.0553763
-0.0598168
-0.0642097
-0.068531
-0.0727567
-0.0768634
-0.0808276
-0.0846262
-0.0882363
-0.0916355
-0.0948016
-0.097713
-0.100349
-0.102688
-0.104713
-0.106405
-0.107747
-0.108725
-0.109325
-0.109536
-0.10935
-0.10876
-0.107763
-0.106358
-0.10455
-0.102345
-0.0997517
-0.0967857
-0.0934646
-0.0898104
-0.0858491
-0.0816105
-0.0771284
-0.0724399
-0.0675852
-0.0626074
-0.057552
-0.052466
-0.0473974
-0.0423945
-0.0375053
-0.0327762
-0.0282515
-0.0239726
-0.0199771
-0.016298
-0.012963
-0.00999428
-0.00740767
-0.00521269
-0.00341242
-0.00200271
-0.000971603
-0.000312708
-3.83422e-05
-0.000102566
-0.000684888
-0.00194333
-0.00374632
-0.00601655
-0.00870648
-0.0117688
-0.0151579
-0.0188316
-0.0227506
-0.0268782
-0.0311799
-0.035623
-0.0401769
-0.044812
-0.0495004
-0.0542148
-0.0589291
-0.0636177
-0.0682554
-0.0728178
-0.0772804
-0.0816193
-0.0858104
-0.0898303
-0.0936555
-0.0972629
-0.10063
-0.103733
-0.106553
-0.109066
-0.111254
-0.113097
-0.114577
-0.11568
-0.116389
-0.116693
-0.116581
-0.116047
-0.115085
-0.113693
-0.111874
-0.109633
-0.106979
-0.103925
-0.100488
-0.0966892
-0.0925552
-0.0881156
-0.0834046
-0.0784603
-0.0733245
-0.0680422
-0.062661
-0.0572308
-0.051803
-0.0464294
-0.041162
-0.0360514
-0.0311466
-0.0264933
-0.0221339
-0.0181058
-0.0144415
-0.0111672
-0.00830301
-0.00586209
-0.00385103
-0.0022686
-0.00110512
-0.000357567
-4.43795e-05
-0.000110525
-0.00073613
-0.00208575
-0.00401604
-0.00644216
-0.0093116
-0.0125725
-0.016175
-0.0200736
-0.024226
-0.0285931
-0.0331385
-0.037828
-0.0426295
-0.0475126
-0.0524484
-0.0574092
-0.062368
-0.067299
-0.0721767
-0.076976
-0.0816723
-0.0862412
-0.0906584
-0.0949
-0.0989419
-0.102761
-0.106333
-0.109636
-0.112646
-0.115343
-0.117706
-0.119713
-0.121347
-0.122589
-0.123425
-0.12384
-0.123823
-0.123365
-0.122459
-0.121101
-0.119293
-0.117037
-0.114341
-0.111217
-0.10768
-0.103753
-0.0994592
-0.0948292
-0.0898973
-0.0847026
-0.0792879
-0.0737002
-0.0679895
-0.0622085
-0.056412
-0.0506559
-0.0449963
-0.0394885
-0.0341864
-0.0291408
-0.0243991
-0.0200041
-0.015993
-0.012397
-0.00924049
-0.00654094
-0.00430857
-0.00254526
-0.00124358
-0.000403865
-5.05397e-05
-0.00011812
-0.000785058
-0.00222181
-0.00427386
-0.00684924
-0.00989074
-0.0133421
-0.0171497
-0.0212646
-0.0256417
-0.0302397
-0.0350202
-0.0399475
-0.0449885
-0.0501116
-0.0552873
-0.0604873
-0.0656842
-0.0708518
-0.0759643
-0.0809964
-0.0859232
-0.0907201
-0.0953626
-0.0998264
-0.104087
-0.108121
-0.111904
-0.115412
-0.118623
-0.121514
-0.124063
-0.126248
-0.128051
-0.129451
-0.130432
-0.130978
-0.131076
-0.130715
-0.129887
-0.128586
-0.12681
-0.12456
-0.121844
-0.11867
-0.115054
-0.111014
-0.106575
-0.101767
-0.0966235
-0.0911847
-0.0854944
-0.0796013
-0.0735579
-0.0674197
-0.0612452
-0.0550944
-0.0490279
-0.0431063
-0.0373886
-0.0319314
-0.0267877
-0.0220059
-0.0176289
-0.0136931
-0.0102278
-0.00725518
-0.00478933
-0.00283548
-0.00138854
-0.00045219
-5.69252e-05
-0.000125337
-0.000831568
-0.00235119
-0.00451911
-0.00723667
-0.0104422
-0.0140755
-0.018079
-0.0224007
-0.0269931
-0.0318124
-0.0368187
-0.0419747
-0.0472461
-0.0526008
-0.0580083
-0.0634398
-0.0688679
-0.0742658
-0.0796077
-0.0848682
-0.0900221
-0.0950449
-0.0999117
-0.104598
-0.10908
-0.113332
-0.117331
-0.121052
-0.124472
-0.127567
-0.130315
-0.132692
-0.134679
-0.136254
-0.137399
-0.138097
-0.138332
-0.138091
-0.137363
-0.136142
-0.134422
-0.132203
-0.129489
-0.126288
-0.122611
-0.118478
-0.113911
-0.108939
-0.103595
-0.0979205
-0.0919596
-0.0857626
-0.0793843
-0.0728835
-0.066322
-0.0597644
-0.0532764
-0.0469237
-0.0407713
-0.034882
-0.029315
-0.0241251
-0.0193612
-0.0150656
-0.0112733
-0.00801122
-0.00529797
-0.0031423
-0.00154165
-0.000503163
-6.36408e-05
-0.00013216
-0.000875534
-0.00247351
-0.00475106
-0.00760326
-0.0109643
-0.0147701
-0.0189598
-0.0234783
-0.0282756
-0.033306
-0.0385278
-0.0439026
-0.0493948
-0.0549716
-0.0606021
-0.066257
-0.0719086
-0.0775301
-0.0830954
-0.0885792
-0.0939563
-0.0992021
-0.104292
-0.109201
-0.113905
-0.118379
-0.122598
-0.126539
-0.130176
-0.133486
-0.136444
-0.139028
-0.141215
-0.142983
-0.144311
-0.145181
-0.145575
-0.145477
-0.144875
-0.143758
-0.14212
-0.139957
-0.13727
-0.134065
-0.130351
-0.126145
-0.121469
-0.116349
-0.110819
-0.104919
-0.0986948
-0.0921973
-0.0854839
-0.0786162
-0.07166
-0.0646844
-0.0577601
-0.050959
-0.0443523
-0.0380096
-0.0319969
-0.0263759
-0.0212024
-0.0165253
-0.0123856
-0.00881579
-0.00583933
-0.00346889
-0.00170462
-0.000557426
-7.07933e-05
-0.000138566
-0.000916815
-0.00258838
-0.00496895
-0.00794776
-0.0114552
-0.0154236
-0.0197889
-0.0244933
-0.0294845
-0.0347149
-0.0401413
-0.0457239
-0.0514264
-0.0572153
-0.0630591
-0.0689283
-0.0747951
-0.0806324
-0.0864144
-0.0921156
-0.0977113
-0.103177
-0.108487
-0.113618
-0.118545
-0.123242
-0.127687
-0.131852
-0.135715
-0.139249
-0.14243
-0.145233
-0.147636
-0.149613
-0.151144
-0.152207
-0.152782
-0.152852
-0.1524
-0.151414
-0.149884
-0.147803
-0.14517
-0.141987
-0.138262
-0.134007
-0.129243
-0.123995
-0.118296
-0.112184
-0.105706
-0.0989142
-0.0918676
-0.0846311
-0.0772741
-0.0698702
-0.0624961
-0.0552296
-0.0481489
-0.0413307
-0.0348489
-0.0287726
-0.0231652
-0.018083
-0.0135737
-0.00967582
-0.00641843
-0.00381849
-0.00187922
-0.000615635
-7.84904e-05
-0.000144531
-0.000955253
-0.00269535
-0.00517195
-0.00826887
-0.011913
-0.0160334
-0.0205631
-0.0254418
-0.0306151
-0.0360335
-0.0416525
-0.0474313
-0.0533328
-0.0593226
-0.0653692
-0.0714427
-0.0775151
-0.0835596
-0.0895505
-0.0954624
-0.101271
-0.106951
-0.112478
-0.117829
-0.122978
-0.127901
-0.132573
-0.136969
-0.141062
-0.144829
-0.148243
-0.151279
-0.153912
-0.156116
-0.157868
-0.159145
-0.159924
-0.160184
-0.159908
-0.15908
-0.157685
-0.155716
-0.153165
-0.150033
-0.146323
-0.142047
-0.137221
-0.131867
-0.126018
-0.119712
-0.112993
-0.105916
-0.098542
-0.0909372
-0.0831755
-0.0753354
-0.067499
-0.059751
-0.0521769
-0.0448612
-0.037886
-0.0313291
-0.0252622
-0.0197495
-0.0148464
-0.0105983
-0.00704034
-0.00419443
-0.00206725
-0.000678452
-8.68402e-05
-0.000150026
-0.000990677
-0.00279399
-0.00535921
-0.00856526
-0.0123359
-0.0165971
-0.0212793
-0.0263199
-0.0316625
-0.0372562
-0.0430551
-0.0490174
-0.0551054
-0.0612842
-0.0675218
-0.0737884
-0.080056
-0.086298
-0.0924886
-0.098603
-0.104617
-0.110506
-0.116246
-0.121813
-0.127183
-0.13233
-0.137231
-0.141859
-0.14619
-0.150196
-0.153852
-0.157132
-0.160008
-0.162454
-0.164446
-0.165956
-0.16696
-0.167436
-0.167362
-0.166718
-0.165488
-0.163659
-0.161221
-0.158171
-0.154508
-0.150239
-0.145378
-0.139946
-0.133972
-0.127491
-0.120549
-0.113201
-0.105507
-0.0975386
-0.0893716
-0.0810897
-0.0727808
-0.0645367
-0.0564505
-0.0486155
-0.0411227
-0.0340591
-0.0275056
-0.0215355
-0.0162126
-0.0115902
-0.00771018
-0.00460002
-0.0022705
-0.000746547
-9.59516e-05
-0.000155021
-0.00102292
-0.00288381
-0.00552987
-0.00883558
-0.0127218
-0.017112
-0.0219341
-0.0271234
-0.0326219
-0.0383773
-0.0443424
-0.0504747
-0.0567356
-0.0630902
-0.0695061
-0.0759535
-0.0824045
-0.0888326
-0.0952125
-0.10152
-0.10773
-0.113821
-0.119767
-0.125545
-0.131131
-0.136501
-0.14163
-0.146492
-0.151062
-0.155313
-0.159218
-0.162751
-0.165882
-0.168585
-0.170831
-0.172594
-0.173845
-0.17456
-0.174713
-0.174281
-0.173245
-0.171588
-0.169295
-0.166359
-0.162775
-0.158547
-0.153684
-0.148204
-0.142131
-0.135502
-0.12836
-0.120757
-0.112758
-0.104434
-0.0958644
-0.0871384
-0.0783496
-0.0695969
-0.0609817
-0.0526064
-0.0445718
-0.0369749
-0.029907
-0.0234514
-0.0176812
-0.0126585
-0.00843301
-0.00503861
-0.0024908
-0.00082059
-0.000105934
-0.000159487
-0.00105179
-0.00296437
-0.00568306
-0.00907849
-0.0130691
-0.0175757
-0.0225244
-0.0278487
-0.0334888
-0.0393912
-0.0455079
-0.0517955
-0.058215
-0.064731
-0.0713111
-0.0779256
-0.0845467
-0.0911483
-0.0977055
-0.104194
-0.110591
-0.116873
-0.123016
-0.128998
-0.134795
-0.140383
-0.145737
-0.150832
-0.155642
-0.16014
-0.164299
-0.168091
-0.171487
-0.174458
-0.176974
-0.179006
-0.180524
-0.181499
-0.181904
-0.181713
-0.180901
-0.179446
-0.177332
-0.174545
-0.171076
-0.166924
-0.162095
-0.156601
-0.150464
-0.143716
-0.1364
-0.128567
-0.12028
-0.111613
-0.10265
-0.0934818
-0.0842093
-0.0749385
-0.0657796
-0.0568445
-0.0482446
-0.0400881
-0.0324774
-0.0255069
-0.0192604
-0.0138099
-0.00921381
-0.00551348
-0.00272994
-0.000901254
-0.000116899
-0.000163395
-0.00107714
-0.00303521
-0.00581799
-0.00929274
-0.0133757
-0.0179859
-0.0230473
-0.0284918
-0.0342584
-0.0402926
-0.0465452
-0.0529725
-0.0595349
-0.0661968
-0.0729258
-0.0796923
-0.0864688
-0.0932296
-0.0999502
-0.106607
-0.113178
-0.119639
-0.125969
-0.132145
-0.138144
-0.143942
-0.149516
-0.154839
-0.159887
-0.164632
-0.169047
-0.173103
-0.17677
-0.180018
-0.182816
-0.185131
-0.186934
-0.188191
-0.188872
-0.188947
-0.188388
-0.187169
-0.185268
-0.182666
-0.17935
-0.175314
-0.170557
-0.165088
-0.158924
-0.152094
-0.144636
-0.136601
-0.128052
-0.119062
-0.109717
-0.100114
-0.0903586
-0.0805641
-0.0708496
-0.0613375
-0.0521504
-0.0434085
-0.0352265
-0.0277112
-0.0209583
-0.0150509
-0.0100575
-0.00602789
-0.00298971
-0.000989212
-0.000128958
-0.000166718
-0.00109881
-0.00309592
-0.00593389
-0.00947716
-0.0136402
-0.0183403
-0.0234998
-0.0290493
-0.0349267
-0.0410763
-0.0474484
-0.0539987
-0.0606872
-0.0674783
-0.0743395
-0.0812414
-0.0881569
-0.0950607
-0.101929
-0.108739
-0.115468
-0.122096
-0.128599
-0.134957
-0.141146
-0.147145
-0.152929
-0.158473
-0.163753
-0.168742
-0.173411
-0.177731
-0.181673
-0.185204
-0.188292
-0.190904
-0.193006
-0.194564
-0.195543
-0.19591
-0.195633
-0.194681
-0.193028
-0.190649
-0.187526
-0.183647
-0.179005
-0.173604
-0.167456
-0.160584
-0.153024
-0.144823
-0.136041
-0.126754
-0.117047
-0.107023
-0.0967902
-0.0864711
-0.0761934
-0.0660901
-0.0562959
-0.046944
-0.0381628
-0.0300725
-0.0227823
-0.0163876
-0.0109687
-0.00658501
-0.00327189
-0.00108514
-0.000142223
-0.000169431
-0.00111665
-0.00314614
-0.0060301
-0.00963074
-0.0138611
-0.018637
-0.0238795
-0.0295181
-0.0354897
-0.0417377
-0.048212
-0.0548675
-0.0616642
-0.0685663
-0.0755416
-0.0825608
-0.0895972
-0.096626
-0.103624
-0.11057
-0.117441
-0.124217
-0.130878
-0.137402
-0.143768
-0.149953
-0.155936
-0.161691
-0.167194
-0.172419
-0.177337
-0.181919
-0.186134
-0.189951
-0.193335
-0.196252
-0.198666
-0.200539
-0.201836
-0.202518
-0.20255
-0.201897
-0.200526
-0.198409
-0.195521
-0.191843
-0.187363
-0.182077
-0.175992
-0.169126
-0.161508
-0.153182
-0.144206
-0.134654
-0.124614
-0.114187
-0.10349
-0.0926512
-0.0818075
-0.0711029
-0.0606849
-0.0507006
-0.0412932
-0.032598
-0.024739
-0.0178259
-0.011952
-0.00718793
-0.00357821
-0.00118969
-0.000156811
-0.000171514
-0.00113055
-0.00318559
-0.0061061
-0.00975264
-0.0140371
-0.0188744
-0.0241844
-0.0298956
-0.0359441
-0.0422728
-0.0488309
-0.0555729
-0.0624589
-0.0694527
-0.0765225
-0.0836392
-0.0907767
-0.0979107
-0.105019
-0.11208
-0.119074
-0.12598
-0.132779
-0.139451
-0.145976
-0.152331
-0.158497
-0.164448
-0.170161
-0.17561
-0.180768
-0.185605
-0.19009
-0.19419
-0.197872
-0.201098
-0.203831
-0.206033
-0.207663
-0.208681
-0.209048
-0.208723
-0.20767
-0.205853
-0.203241
-0.19981
-0.19554
-0.190421
-0.184452
-0.177643
-0.170019
-0.161619
-0.152495
-0.142719
-0.132379
-0.121578
-0.110437
-0.0990899
-0.0876833
-0.0763723
-0.0653176
-0.0546813
-0.0446226
-0.0352934
-0.0268343
-0.019371
-0.0130115
-0.00783961
-0.00391037
-0.00130355
-0.000172838
-0.000172953
-0.00114045
-0.00321407
-0.00616152
-0.00984229
-0.0141676
-0.0190513
-0.0244128
-0.0301798
-0.0362875
-0.0426783
-0.049301
-0.05611
-0.063065
-0.07013
-0.0772733
-0.0844662
-0.0916831
-0.0989006
-0.106097
-0.113252
-0.120345
-0.12736
-0.134275
-0.141074
-0.147736
-0.154242
-0.16057
-0.166699
-0.172605
-0.178264
-0.183647
-0.188727
-0.193472
-0.19785
-0.201825
-0.205361
-0.208418
-0.210956
-0.212933
-0.214305
-0.215028
-0.215059
-0.214355
-0.212876
-0.210584
-0.207447
-0.203439
-0.198541
-0.192744
-0.186051
-0.178479
-0.17006
-0.160842
-0.150891
-0.140295
-0.129157
-0.1176
-0.105765
-0.0938056
-0.0818893
-0.0701902
-0.0588861
-0.0481537
-0.0381631
-0.0290732
-0.0210275
-0.0141511
-0.00854285
-0.00427003
-0.00142736
-0.000190424
-0.000173738
-0.00114629
-0.00323147
-0.00619618
-0.0098994
-0.014252
-0.0191672
-0.024564
-0.0303692
-0.0365179
-0.0429518
-0.0496193
-0.0564747
-0.0634775
-0.0705919
-0.0777863
-0.0850326
-0.0923057
-0.0995826
-0.106843
-0.114067
-0.121236
-0.128333
-0.135341
-0.142241
-0.149016
-0.155648
-0.162116
-0.168401
-0.174478
-0.180325
-0.185916
-0.191222
-0.196214
-0.200857
-0.205118
-0.208959
-0.212339
-0.215217
-0.217548
-0.219286
-0.220385
-0.220796
-0.220472
-0.219367
-0.217437
-0.214642
-0.210948
-0.206328
-0.200764
-0.19425
-0.186794
-0.17842
-0.16917
-0.159104
-0.148305
-0.136875
-0.124941
-0.112646
-0.100153
-0.0876394
-0.0752943
-0.0633116
-0.0518867
-0.0412094
-0.031459
-0.0227994
-0.0153744
-0.00930028
-0.00465877
-0.00156177
-0.000209691
-0.00017387
-0.00114808
-0.00323782
-0.00621014
-0.00992407
-0.0142903
-0.0192221
-0.0246376
-0.0304637
-0.0366347
-0.0430921
-0.0497839
-0.0566643
-0.0636928
-0.0708336
-0.0780555
-0.0853308
-0.0926348
-0.0999455
-0.107243
-0.114509
-0.121727
-0.128879
-0.135951
-0.142925
-0.149785
-0.156515
-0.163096
-0.169509
-0.175732
-0.181744
-0.187518
-0.193029
-0.198247
-0.20314
-0.207673
-0.211808
-0.215505
-0.21872
-0.221409
-0.223523
-0.225011
-0.225823
-0.225906
-0.225208
-0.22368
-0.221274
-0.217947
-0.213664
-0.208396
-0.202129
-0.19486
-0.186603
-0.17739
-0.167276
-0.156337
-0.144674
-0.13241
-0.119694
-0.106695
-0.0936017
-0.0806162
-0.0679502
-0.0558185
-0.0444326
-0.0339942
-0.0246895
-0.0166843
-0.0101143
-0.00507809
-0.00170743
-0.000230762
-0.000173356
-0.00114589
-0.00323332
-0.00620373
-0.00991676
-0.0142833
-0.0192165
-0.0246345
-0.0304637
-0.0366382
-0.0430991
-0.0497943
-0.0566777
-0.0637088
-0.0708521
-0.0780765
-0.0853548
-0.092663
-0.0999799
-0.107287
-0.114566
-0.121802
-0.128979
-0.136084
-0.1431
-0.150015
-0.156811
-0.163473
-0.169983
-0.176322
-0.182468
-0.188399
-0.194088
-0.199508
-0.204628
-0.209413
-0.213827
-0.217828
-0.221374
-0.224418
-0.226909
-0.228797
-0.230024
-0.230537
-0.230277
-0.229188
-0.227216
-0.224309
-0.220422
-0.215518
-0.209568
-0.202561
-0.194498
-0.185402
-0.175317
-0.164311
-0.152481
-0.139947
-0.12686
-0.113395
-0.0997481
-0.0861367
-0.0727898
-0.0599428
-0.0478305
-0.0366791
-0.0267
-0.0180832
-0.010987
-0.0055294
-0.00186495
-0.000253765
-0.000172217
-0.00113985
-0.0032183
-0.0061776
-0.00987843
-0.0142322
-0.0191521
-0.0245563
-0.0303711
-0.0365301
-0.0429744
-0.0496516
-0.0565154
-0.0635254
-0.0706461
-0.0778469
-0.0851009
-0.092385
-0.0996786
-0.106964
-0.114225
-0.121447
-0.128616
-0.13572
-0.142745
-0.149678
-0.156506
-0.163214
-0.169787
-0.176206
-0.182453
-0.188507
-0.194343
-0.199935
-0.205253
-0.210266
-0.214936
-0.219224
-0.223086
-0.226476
-0.229343
-0.231632
-0.233286
-0.234245
-0.234449
-0.233833
-0.232337
-0.229901
-0.226469
-0.221994
-0.216436
-0.20977
-0.201985
-0.193091
-0.183121
-0.172133
-0.160214
-0.147482
-0.134087
-0.120205
-0.106043
-0.09183
-0.0778131
-0.0642493
-0.0513981
-0.0395125
-0.0288316
-0.0195729
-0.0119202
-0.00601397
-0.00203493
-0.000278827
-0.000170483
-0.00113015
-0.0031933
-0.00613272
-0.00981059
-0.0141389
-0.0190313
-0.024406
-0.0301889
-0.0363138
-0.0427213
-0.0493588
-0.05618
-0.0631444
-0.0702168
-0.0773667
-0.084568
-0.0917981
-0.0990374
-0.106269
-0.113478
-0.120652
-0.127777
-0.134843
-0.141839
-0.148753
-0.155574
-0.16229
-0.168886
-0.175347
-0.181656
-0.187795
-0.193741
-0.19947
-0.204955
-0.210163
-0.215062
-0.219612
-0.223771
-0.227492
-0.230723
-0.233411
-0.235494
-0.236912
-0.237598
-0.237484
-0.236502
-0.234584
-0.231665
-0.227685
-0.222594
-0.216351
-0.208933
-0.200334
-0.190572
-0.179695
-0.167779
-0.154933
-0.141303
-0.127069
-0.112442
-0.0976631
-0.0829973
-0.0687234
-0.0551272
-0.0424908
-0.0310837
-0.0211543
-0.0129152
-0.00653294
-0.00221793
-0.000306079
-0.000168197
-0.00111706
-0.00315907
-0.00607047
-0.0097153
-0.0140063
-0.0188576
-0.0241875
-0.0299218
-0.0359941
-0.0423448
-0.0489209
-0.0556762
-0.0625702
-0.0695677
-0.0766388
-0.0837577
-0.0909025
-0.0980548
-0.105199
-0.11232
-0.119409
-0.126452
-0.133442
-0.140369
-0.147223
-0.153995
-0.160676
-0.167252
-0.173712
-0.180042
-0.186223
-0.192238
-0.198064
-0.203675
-0.209044
-0.214138
-0.218919
-0.223347
-0.227377
-0.230957
-0.234032
-0.236542
-0.238422
-0.239604
-0.240014
-0.239578
-0.238221
-0.235868
-0.232449
-0.227898
-0.222162
-0.215202
-0.206996
-0.197546
-0.186883
-0.17507
-0.162206
-0.148431
-0.13392
-0.118892
-0.103596
-0.0883134
-0.0733458
-0.0590062
-0.045608
-0.0334543
-0.0228274
-0.0139731
-0.00708727
-0.00241447
-0.000335651
-0.000165418
-0.00110096
-0.00311661
-0.00599267
-0.00959531
-0.0138382
-0.0186357
-0.0239064
-0.0295761
-0.0355778
-0.0418519
-0.0483453
-0.0550113
-0.0618095
-0.0687052
-0.0756685
-0.0826743
-0.0897017
-0.0967328
-0.103753
-0.110751
-0.117715
-0.124637
-0.131509
-0.138323
-0.145074
-0.151753
-0.158353
-0.164864
-0.171277
-0.17758
-0.183758
-0.189796
-0.195673
-0.201368
-0.206855
-0.212104
-0.21708
-0.221744
-0.226053
-0.229958
-0.233403
-0.236328
-0.238668
-0.24035
-0.2413
-0.241436
-0.240677
-0.238938
-0.236139
-0.232201
-0.227056
-0.220647
-0.212935
-0.203904
-0.193567
-0.181969
-0.169197
-0.155377
-0.140683
-0.125331
-0.10958
-0.0937257
-0.0780918
-0.0630195
-0.0488555
-0.0359393
-0.0245913
-0.0150942
-0.00767769
-0.00262503
-0.000367674
-0.000162219
-0.0010823
-0.00306716
-0.00590161
-0.0094541
-0.0136391
-0.0183716
-0.0235698
-0.0291597
-0.0350738
-0.0412522
-0.0476415
-0.054195
-0.0608722
-0.0676385
-0.0744646
-0.0813259
-0.0882023
-0.0950771
-0.101937
-0.108771
-0.115571
-0.122329
-0.129039
-0.135698
-0.142299
-0.148837
-0.155309
-0.161706
-0.168023
-0.174249
-0.180374
-0.186385
-0.192265
-0.197995
-0.203553
-0.208912
-0.21404
-0.218901
-0.223454
-0.227652
-0.231442
-0.234763
-0.23755
-0.239731
-0.241226
-0.241952
-0.24182
-0.240737
-0.238613
-0.235356
-0.230882
-0.225117
-0.218003
-0.209504
-0.199612
-0.188351
-0.17579
-0.162042
-0.14727
-0.131688
-0.115559
-0.0991918
-0.0829312
-0.0671473
-0.0522215
-0.0385329
-0.0264439
-0.0162784
-0.00830471
-0.00285005
-0.000402278
-0.000158693
-0.00106165
-0.00301226
-0.00580012
-0.00929597
-0.013415
-0.0180725
-0.0231865
-0.0286826
-0.0344931
-0.0405575
-0.0468221
-0.05324
-0.0597708
-0.0663801
-0.073039
-0.0797238
-0.0864149
-0.0930971
-0.0997581
-0.106389
-0.112982
-0.119533
-0.126037
-0.132492
-0.138895
-0.145245
-0.151537
-0.15777
-0.163937
-0.170035
-0.176054
-0.181985
-0.187815
-0.193528
-0.199106
-0.204524