/*--------------------------------*- C++ -*----------------------------------*\
  =========                 |
  \\      /  F ield         | OpenFOAM: The Open Source CFD Toolbox
   \\    /   O peration     | Website:  https://openfoam.org
    \\  /    A nd           | Version:  dev
     \\/     M anipulation  |
\*---------------------------------------------------------------------------*/
FoamFile
{
    format      ascii;
    class       volScalarField;
    location    "45.9";
    object      p;
}
// * * * * * * * * * * * * * * * * * * * * * * * * * * * * * * * * * * * * * //

dimensions      [0 2 -2 0 0 0 0];

internalField   nonuniform List<scalar> 
5184
(
8.6766e-07
-1.10759e-05
-9.70543e-05
-0.000250007
-0.000449508
-0.000678275
-0.000922075
-0.00116893
-0.00140969
-0.00163722
-0.00184609
-0.00203229
-0.00219286
-0.00232572
-0.00242939
-0.00250286
-0.00254546
-0.00255674
-0.00253644
-0.00248439
-0.00240049
-0.00228474
-0.00213718
-0.00195795
-0.00174728
-0.00150555
-0.00123331
-0.000931301
-0.000600517
-0.000242231
0.000141973
0.000550166
0.000980056
0.00142897
0.00189385
0.00237124
0.00285732
0.00334793
0.00383859
0.00432456
0.00480089
0.00526251
0.00570429
0.00612115
0.00650812
0.00686051
0.00717395
0.00744449
0.00766878
0.00784407
0.00796835
0.00804042
0.00805993
0.00802745
0.00794448
0.00781346
0.0076378
0.0074218
0.00717068
0.0068905
0.00658812
0.00627117
0.00594796
0.00562743
0.00531916
0.00503323
0.00478014
0.00457053
0.00441436
0.00432009
0.00429318
0.00432048
1.39977e-05
1.48022e-06
-7.31597e-05
-0.00020099
-0.000366327
-0.000556691
-0.000761149
-0.000970097
-0.00117561
-0.00137129
-0.00155209
-0.00171411
-0.00185436
-0.00197063
-0.00206127
-0.00212508
-0.0021612
-0.00216903
-0.00214813
-0.00209822
-0.00201913
-0.00191077
-0.00177314
-0.00160636
-0.00141063
-0.00118634
-0.000933996
-0.000654345
-0.00034834
-1.72005e-05
0.000337567
0.000714143
0.00111038
0.00152378
0.00195151
0.00239039
0.00283688
0.00328718
0.00373718
0.00418256
0.00461882
0.00504136
0.00544553
0.00582675
0.00618055
0.00650272
0.00678935
0.00703695
0.00724254
0.00740374
0.00751881
0.00758678
0.00760744
0.00758141
0.00751018
0.00739607
0.00724227
0.00705278
0.00683242
0.00658675
0.006322
0.00604506
0.00576337
0.00548486
0.00521784
0.00497088
0.00475266
0.00457157
0.00443492
0.00434863
0.00432009
0.00434769
0.000100622
7.59117e-05
5.41128e-07
-0.000117059
-0.000264843
-0.00043317
-0.000613328
-0.000797483
-0.000978931
-0.00115211
-0.00131252
-0.00145656
-0.00158143
-0.00168495
-0.00176549
-0.00182178
-0.00185292
-0.0018582
-0.00183713
-0.00178935
-0.00171462
-0.00161279
-0.00148383
-0.00132779
-0.00114487
-0.000935389
-0.000699835
-0.000438892
-0.000153456
0.000155328
0.000486048
0.000837002
0.00120618
0.00159125
0.00198957
0.00239816
0.00281375
0.00323279
0.00365146
0.00406575
0.00447149
0.00486441
0.00524021
0.00559466
0.00592363
0.00622323
0.00648988
0.00672037
0.006912
0.00706259
0.00717061
0.00723522
0.00725628
0.00723446
0.00717119
0.00706872
0.00693005
0.00675896
0.00655994
0.00633815
0.00609936
0.00584987
0.00559643
0.00534618
0.00510648
0.00488477
0.00468857
0.00452493
0.00439988
0.00431865
0.00429089
0.00432153
0.000255695
0.000204294
0.000116461
-2.54414e-06
-0.000145046
-0.000303264
-0.000470071
-0.000639094
-0.000804792
-0.000962476
-0.00110827
-0.00123904
-0.00135229
-0.00144604
-0.00151876
-0.00156928
-0.00159669
-0.0016003
-0.00157958
-0.00153413
-0.00146368
-0.00136804
-0.00124711
-0.00110091
-0.00092957
-0.000733355
-0.00051269
-0.00026818
-6.4043e-07
0.000288883
0.000599089
0.000928399
0.00127494
0.00163654
0.00201073
0.00239471
0.00278541
0.0031795
0.00357338
0.00396328
0.00434525
0.00471528
0.0050693
0.0054033
0.00571341
0.00599594
0.0062475
0.0064651
0.00664616
0.00678866
0.00689117
0.00695291
0.0069738
0.00695451
0.00689641
0.00680167
0.00667315
0.00651444
0.00632978
0.00612401
0.00590253
0.00567117
0.00543616
0.00520397
0.00498127
0.00477473
0.00459098
0.00443629
0.00431609
0.00423544
0.00420441
0.00422968
0.00046051
0.000371904
0.000263279
0.000135533
-8.88113e-06
-0.000163796
-0.000323438
-0.000482804
-0.000637482
-0.000783673
-0.000918194
-0.00103843
-0.00114228
-0.00122805
-0.00129441
-0.0013403
-0.0013649
-0.00136756
-0.00134775
-0.00130509
-0.00123924
-0.00115
-0.0010372
-0.000900818
-0.000740904
-0.00055765
-0.000351395
-0.000122651
0.000127871
0.000399241
0.000690282
0.000999551
0.00132532
0.00166559
0.00201803
0.00238003
0.00274872
0.00312092
0.00349325
0.00386211
0.00422376
0.00457436
0.00491003
0.00522694
0.00552136
0.00578977
0.00602892
0.0062359
0.00640827
0.00654408
0.00664194
0.00670112
0.00672155
0.00670385
0.00664937
0.00656018
0.00643901
0.00628928
0.00611502
0.0059208
0.00571168
0.0054931
0.00527082
0.0050508
0.00483909
0.00464172
0.00446459
0.00431335
0.00419293
0.00410812
0.00406773
0.0040776
0.000698902
0.000566863
0.000431665
0.00028958
0.000137599
-1.95049e-05
-0.000177123
-0.000331512
-0.000479334
-0.000617666
-0.000744034
-0.00085639
-0.000953061
-0.0010327
-0.00109422
-0.00113674
-0.00115956
-0.00116211
-0.0011439
-0.00110455
-0.00104371
-0.000961122
-0.000856599
-0.000730026
-0.000581387
-0.00041078
-0.000218445
-4.78292e-06
0.000229617
0.000483952
0.000757183
0.00104801
0.00135487
0.00167589
0.00200893
0.00235155
0.002701
0.0030543
0.00340821
0.0037593
0.00410396
0.0044385
0.00475916
0.00506221
0.00534405
0.00560123
0.00583057
0.00602924
0.00619482
0.00632539
0.00641959
0.00647666
0.00649652
0.00647973
0.0064276
0.00634208
0.00622582
0.00608207
0.00591467
0.00572796
0.00552673
0.00531609
0.00510142
0.00488823
0.00468208
0.00448844
0.00431265
0.00415976
0.00403433
0.00394078
0.00388559
0.00387255
0.000957081
0.000778289
0.000612712
0.000452123
0.000288153
0.000124408
-3.54862e-05
-0.000188929
-0.000333586
-0.00046737
-0.000588507
-0.000695527
-0.000787222
-0.00086261
-0.000920887
-0.000961395
-0.000983576
-0.000986956
-0.000971113
-0.000935673
-0.000880298
-0.000804694
-0.000708613
-0.00059187
-0.000454361
-0.000296085
-0.000117166
8.2119e-05
0.000301314
0.000539757
0.000796557
0.00107057
0.00136037
0.00166427
0.00198026
0.00230604
0.00263904
0.00297641
0.00331502
0.00365157
0.00398255
0.00430436
0.00461333
0.00490578
0.00517815
0.00542702
0.00564924
0.00584196
0.00600276
0.00612969
0.00622136
0.00627697
0.00629637
0.00628007
0.00622929
0.00614589
0.00603241
0.00589196
0.00572824
0.0055454
0.00534799
0.00514086
0.00492909
0.00471782
0.0045122
0.0043173
0.00413796
0.00397874
0.00384391
0.00373749
0.00366317
0.00362219
0.00122291
0.000996037
0.00079782
0.00061587
0.000436703
0.00026296
9.7431e-05
-5.83122e-05
-0.000202861
-0.000334918
-0.000453387
-0.000557367
-0.000646125
-0.000719058
-0.000775666
-0.00081552
-0.000838234
-0.000843448
-0.000830813
-0.000799986
-0.000750628
-0.00068241
-0.000595031
-0.000488227
-0.000361799
-0.000215633
-4.97292e-05
0.000135772
0.000340561
0.000564125
0.000805731
0.00106439
0.00133884
0.00162753
0.00192862
0.00223995
0.00255906
0.00288322
0.00320943
0.00353445
0.00385486
0.00416709
0.0044675
0.00475244
0.00501834
0.00526174
0.00547946
0.00566861
0.00582669
0.00595169
0.00604213
0.00609714
0.00611646
0.00610054
0.00605048
0.00596805
0.00585568
0.00571637
0.00555367
0.00537159
0.0051745
0.00496704
0.00475405
0.00454039
0.00433091
0.00413034
0.00394314
0.00377348
0.00362539
0.00350258
0.00340581
0.00333364
0.00148613
0.00121095
0.000978925
0.00077378
0.000577194
0.000390999
0.00021728
5.66783e-05
-9.02502e-05
-0.000222947
-0.000340962
-0.000443947
-0.000531634
-0.000603802
-0.000660258
-0.000700812
-0.000725257
-0.000733356
-0.000724839
-0.000699396
-0.000656687
-0.000596354
-0.000518032
-0.000421377
-0.000306083
-0.000171917
-1.87414e-05
0.000153448
0.000344497
0.000554055
0.00078155
0.00102616
0.00128677
0.00156201
0.00185015
0.00214918
0.00245677
0.00277028
0.00308677
0.00340309
0.00371584
0.00402148
0.00431634
0.00459676
0.0048591
0.00509984
0.0053157
0.0055037
0.00566122
0.00578614
0.00587686
0.00593236
0.00595229
0.00593697
0.00588738
0.00580519
0.0056927
0.00555283
0.005389
0.00520509
0.00500535
0.00479427
0.00457649
0.00435669
0.0041395
0.00392939
0.00373055
0.00354685
0.00338218
0.00324004
0.00311829
0.00301295
0.00173775
0.00141477
0.00114853
0.000919122
0.000703651
0.00050327
0.000319456
0.000152007
6.93276e-07
-0.000134616
-0.00025408
-0.00035788
-0.000446196
-0.000519181
-0.000576945
-0.000619534
-0.000646921
-0.000658995
-0.00065556
-0.000636343
-0.000601001
-0.000549138
-0.000480327
-0.00039413
-0.000290131
-0.000167966
-2.73536e-05
0.000131869
0.000309711
0.000505992
0.000720309
0.000952008
0.00120015
0.00146349
0.00174048
0.0020292
0.00232745
0.00263266
0.00294198
0.00325227
0.00356015
0.00386207
0.00415431
0.00443314
0.00469481
0.00493572
0.00515243
0.00534181
0.00550109
0.00562797
0.00572069
0.00577808
0.00579962
0.00578547
0.00573649
0.00565422
0.00554084
0.00539916
0.00523251
0.00504468
0.0048398
0.00462227
0.00439662
0.0041674
0.00393911
0.00371604
0.00350222
0.00330133
0.0031172
0.00295328
0.00280462
0.00266489
0.00196983
0.00159998
0.00129965
0.00104548
0.00081025
0.000594518
0.000399236
0.000223425
6.61328e-05
-7.34166e-05
-0.000195954
-0.000302162
-0.000392648
-0.000467926
-0.000528394
-0.00057433
-0.000605877
-0.000623043
-0.000625708
-0.000613626
-0.000586448
-0.000543735
-0.000484987
-0.000409669
-0.000317244
-0.000207208
-7.91241e-05
6.73357e-05
0.000232355
0.000415931
0.000617842
0.000837606
0.00107445
0.0013273
0.00159473
0.00187496
0.00216587
0.002465
0.00276952
0.00307632
0.00338202
0.003683
0.0039755
0.00425565
0.00451959
0.00476354
0.00498391
0.00517734
0.00534089
0.00547202
0.00556876
0.00562973
0.00565423
0.00564221
0.00559439
0.00551213
0.00539752
0.00525324
0.00508254
0.00488913
0.00467708
0.00445074
0.00421456
0.00397307
0.00373068
0.00349165
0.00325989
0.003039
0.0028329
0.00264509
0.00246799
0.00229306
0.00217522
0.0017597
0.00142576
0.00114677
0.000891341
0.000659542
0.000451842
0.000266549
0.000102031
-4.30887e-05
-0.000170079
-0.000280095
-0.000374149
-0.000453092
-0.000517599
-0.000568164
-0.00060509
-0.000628497
-0.000638328
-0.000634359
-0.000616226
-0.000583438
-0.000535415
-0.000471516
-0.000391073
-0.000293432
-0.000177992
-4.4248e-05
0.000108167
0.000279439
0.000469532
0.00067815
0.000904696
0.00114825
0.00140753
0.0016809
0.00196633
0.00226141
0.00256337
0.00286911
0.00317521
0.00347799
0.00377357
0.00405797
0.00432716
0.00457715
0.00480411
0.00500447
0.00517501
0.00531295
0.00541603
0.00548265
0.00551182
0.00550331
0.0054576
0.00537591
0.00526017
0.00511296
0.00493742
0.00473722
0.0045164
0.00427929
0.00403034
0.0037741
0.003515
0.00325731
0.00300497
0.00276157
0.00253126
0.00231768
0.00211082
0.0019
0.00234736
0.00188755
0.00152074
0.00121716
0.000941452
0.000693219
0.000472494
0.000276912
0.000104207
-4.75651e-05
-0.000180179
-0.000295235
-0.000394125
-0.000478016
-0.000547841
-0.000604292
-0.000647821
-0.000678645
-0.00069676
-0.000701953
-0.000693833
-0.00067185
-0.000635333
-0.000583522
-0.000515611
-0.000430786
-0.000328269
-0.00020737
-6.75245e-05
9.16511e-05
0.000270319
0.000468376
0.000685409
0.000920667
0.00117302
0.00144096
0.00172256
0.00201548
0.00231699
0.00262397
0.00293297
0.00324022
0.00354173
0.00383334
0.00411082
0.00436995
0.00460664
0.00481702
0.00499756
0.00514516
0.00525728
0.00533196
0.00536795
0.00536475
0.00532258
0.00524247
0.00512617
0.00497614
0.00479544
0.00458769
0.00435692
0.00410748
0.00384389
0.00357076
0.00329264
0.00301389
0.00273858
0.0024704
0.00221379
0.00197272
0.0017348
0.00148738
0.00248016
0.00197757
0.00157881
0.0012511
0.000955294
0.000690529
0.000456437
0.000250015
6.83916e-05
-9.0912e-05
-0.000230149
-0.000351336
-0.00045622
-0.000546265
-0.00062264
-0.000686219
-0.000737584
-0.000777035
-0.000804607
-0.000820086
-0.000823043
-0.000812856
-0.000788752
-0.000749845
-0.000695175
-0.000623756
-0.000534626
-0.000426893
-0.000299788
-0.000152715
1.46994e-05
0.000202556
0.000410639
0.000638378
0.000884808
0.00114855
0.00142778
0.00172025
0.00202325
0.00233367
0.00264798
0.00296235
0.00327262
0.00357445
0.00386338
0.00413491
0.00438465
0.00460839
0.00480224
0.00496273
0.00508694
0.00517255
0.00521796
0.00522233
0.00518562
0.00510859
0.00499279
0.00484054
0.00465482
0.00443919
0.00419771
0.00393478
0.00365503
0.00336321
0.00306403
0.00276207
0.00246158
0.00216647
0.00188161
0.00161134
0.00134104
0.0010561
0.00256791
0.00202412
0.00159449
0.0012433
0.000927759
0.000646575
0.000398981
0.000181363
-9.72616e-06
-0.000177277
-0.000323995
-0.00045229
-0.000564243
-0.000661588
-0.000745712
-0.000817651
-0.000878101
-0.00092743
-0.000965695
-0.00099267
-0.00100787
-0.00101059
-0.000999953
-0.000974919
-0.000934372
-0.000877141
-0.000802064
-0.000708038
-0.000594072
-0.000459345
-0.000303258
-0.00012549
7.39554e-05
0.000294702
0.000535962
0.000796505
0.00107463
0.00136817
0.00167445
0.00199036
0.00231232
0.00263639
0.00295826
0.00327338
0.00357702
0.00386439
0.00413073
0.00437145
0.00458225
0.00475924
0.00489904
0.00499891
0.00505683
0.00507158
0.00504275
0.00497084
0.00485714
0.00470379
0.00451366
0.0042903
0.00403777
0.00376057
0.00346349
0.00315147
0.00282947
0.00250234
0.00217462
0.00185055
0.00153549
0.0012343
0.000930139
0.000606506
0.0026052
0.00202189
0.00156257
0.00118868
0.000853927
0.000556593
0.000295522
6.65082e-05
-0.000134454
-0.000310842
-0.000465792
-0.000602085
-0.000722112
-0.00082786
-0.000920912
-0.00100245
-0.00107326
-0.00113377
-0.00118404
-0.00122381
-0.00125253
-0.00126942
-0.00127344
-0.00126342
-0.00123807
-0.00119602
-0.00113589
-0.00105635
-0.000956175
-0.000834302
-0.00068989
-0.000522377
-0.000331538
-0.000117534
0.000119045
0.000377133
0.000655171
0.000951077
0.00126225
0.00158556
0.0019174
0.0022537
0.00259001
0.00292154
0.00324328
0.00355009
0.00383683
0.00409847
0.00433024
0.00452774
0.0046871
0.00480507
0.00487914
0.00490762
0.00488971
0.00482552
0.00471608
0.0045633
0.00436993
0.00413945
0.00387599
0.00358415
0.00326891
0.00293547
0.0025891
0.00223503
0.00187817
0.00152314
0.00117594
0.000842
0.000502315
0.000138435
0.00258686
0.00196582
0.00147808
0.00108239
0.000729065
0.000415975
0.000141574
-9.89219e-05
-0.000310055
-0.000495775
-0.000659627
-0.000804744
-0.000933808
-0.00104904
-0.00115219
-0.00124458
-0.00132707
-0.00140012
-0.00146378
-0.00151775
-0.00156141
-0.00159384
-0.0016139
-0.00162024
-0.00161137
-0.00158572
-0.00154167
-0.00147766
-0.00139221
-0.001284
-0.00115191
-0.000995128
-0.000813176
-0.000605974
-0.000373895
-0.000117809
0.000160881
0.000460214
0.000777659
0.00111011
0.00145393
0.00180493
0.00215849
0.0025096
0.00285293
0.00318297
0.00349416
0.00378098
0.00403812
0.00426062
0.00444402
0.00458448
0.00467893
0.00472513
0.00472178
0.00466858
0.00456618
0.00441625
0.00422136
0.00398493
0.00371113
0.00340469
0.00307083
0.00271506
0.00234303
0.0019604
0.00157255
0.0011846
0.000803242
0.000434617
5.74813e-05
-0.000348596
0.002508
0.00185109
0.00133631
0.000919799
0.000548643
0.000220284
-6.72099e-05
-0.000319187
-0.000540713
-0.00073619
-0.000909559
-0.00106428
-0.00120332
-0.0013291
-0.00144355
-0.00154807
-0.0016436
-0.00173061
-0.00180915
-0.00187884
-0.00193898
-0.00198853
-0.00202618
-0.00205041
-0.00205953
-0.00205174
-0.00202519
-0.00197805
-0.00190856
-0.00181513
-0.00169635
-0.00155112
-0.00137869
-0.0011787
-0.000951282
-0.00069708
-0.000417307
-0.000113777
0.000211078
0.000554199
0.000911913
0.00127996
0.00165355
0.00202743
0.00239594
0.0027532
0.00309314
0.00340972
0.00369704
0.0039495
0.00416196
0.00432992
0.00444963
0.00451822
0.0045338
0.00449553
0.00440366
0.00425952
0.00406547
0.00382484
0.0035418
0.00322128
0.00286873
0.00249002
0.00209125
0.00167861
0.00125801
0.000835164
0.000417572
1.21495e-05
-0.000404645
-0.000855305
0.00236395
0.00167314
0.00113279
0.000696517
0.000308341
-3.47261e-05
-0.000335007
-0.000598404
-0.000830489
-0.00103611
-0.00121957
-0.00138467
-0.0015346
-0.00167201
-0.00179895
-0.00191693
-0.00202693
-0.00212942
-0.00222441
-0.00231147
-0.00238978
-0.00245816
-0.00251516
-0.00255904
-0.00258791
-0.00259972
-0.00259237
-0.00256375
-0.00251181
-0.00243463
-0.00233051
-0.00219804
-0.00203615
-0.00184417
-0.00162196
-0.0013699
-0.00108898
-0.000780816
-0.000447719
-9.267e-05
0.000280666
0.00066796
0.00106427
0.00146409
0.00186145
0.00225004
0.00262328
0.00297455
0.00329728
0.00358516
0.0038323
0.00403341
0.00418396
0.00428034
0.00431996
0.00430137
0.00422428
0.00408962
0.00389947
0.00365703
0.00336648
0.00303288
0.00266199
0.00226007
0.00183376
0.00138981
0.000934782
0.000475051
1.90324e-05
-0.000425481
-0.000884449
-0.00138254
0.0021503
0.00142768
0.000863286
0.000408392
4.0727e-06
-0.000353086
-0.0006658
-0.000940511
-0.00118329
-0.0013994
-0.00159352
-0.00176974
-0.00193151
-0.00208164
-0.00222231
-0.00235513
-0.00248109
-0.00260066
-0.0027138
-0.00282001
-0.00291833
-0.00300746
-0.00308575
-0.00315128
-0.00320192
-0.00323536
-0.00324922
-0.0032411
-0.00320863
-0.00314958
-0.00306188
-0.00294378
-0.00279387
-0.00261114
-0.00239512
-0.00214588
-0.00186415
-0.00155132
-0.00120951
-0.000841587
-0.000451178
-4.26483e-05
0.000378925
0.000807814
0.00123772
0.00166188
0.0020732
0.00246439
0.00282819
0.00315747
0.00344549
0.00368607
0.0038738
0.00400419
0.00407382
0.0040805
0.0040233
0.00390264
0.00372025
0.00347912
0.00318341
0.00283833
0.00244993
0.00202494
0.00157054
0.00109417
0.000603109
0.000104488
-0.000392255
-0.000878353
-0.00138233
-0.00193118
0.00186289
0.00111065
0.00052386
5.15355e-05
-0.000367998
-0.000738588
-0.00106334
-0.00134924
-0.00160282
-0.00182976
-0.0020351
-0.00222321
-0.00239776
-0.00256173
-0.00271742
-0.0028665
-0.00300999
-0.00314834
-0.00328144
-0.0034087
-0.00352906
-0.00364103
-0.00374279
-0.0038322
-0.00390689
-0.00396428
-0.00400171
-0.00401643
-0.00400576
-0.00396709
-0.003898
-0.00379634
-0.00366032
-0.00348855
-0.00328018
-0.00303493
-0.00275321
-0.00243611
-0.00208554
-0.00170418
-0.00129558
-0.000864099
-0.000414912
4.6046e-05
0.000512153
0.000976204
0.00143054
0.0018672
0.00227811
0.00265528
0.00299101
0.00327812
0.00351017
0.00368164
0.00378817
0.00382664
0.00379539
0.00369418
0.00352428
0.00328841
0.00299066
0.00263634
0.00223182
0.0017843
0.00130161
0.000791917
0.000263316
-0.000276209
-0.000816085
-0.00134646
-0.00189862
-0.00250204
0.00149784
0.000718318
0.00011084
-0.000377661
-0.000811435
-0.00119476
-0.00153114
-0.00182807
-0.00209255
-0.00233068
-0.0025478
-0.00274856
-0.00293686
-0.00311582
-0.00328787
-0.0034547
-0.00361737
-0.00377628
-0.00393128
-0.00408165
-0.00422621
-0.00436331
-0.00449093
-0.00460671
-0.00470801
-0.00479199
-0.00485566
-0.00489594
-0.00490979
-0.0048942
-0.00484635
-0.00476369
-0.00464397
-0.00448538
-0.00428666
-0.0040471
-0.00376672
-0.00344628
-0.00308738
-0.00269249
-0.00226499
-0.0018092
-0.00133033
-0.000834504
-0.000328635
0.000179627
0.000682044
0.00116994
0.00163439
0.00206644
0.00245734
0.00279875
0.00308308
0.00330364
0.00345492
0.00353276
0.00353454
0.00345925
0.00330758
0.00308186
0.00278602
0.00242546
0.00200684
0.00153786
0.00102704
0.000483381
-8.41383e-05
-0.000666573
-0.00125209
-0.00182964
-0.00243348
-0.00309577
0.0010516
0.000247233
-0.00037913
-0.0008825
-0.0013295
-0.00172484
-0.00207241
-0.00238021
-0.0026557
-0.00290534
-0.00313482
-0.00334903
-0.00355207
-0.00374723
-0.003937
-0.00412314
-0.0043067
-0.00448806
-0.00466699
-0.00484266
-0.00501376
-0.00517846
-0.00533455
-0.00547942
-0.00561019
-0.0057237
-0.00581663
-0.00588557
-0.00592706
-0.0059377
-0.00591422
-0.0058536
-0.00575313
-0.00561052
-0.00542399
-0.0051924
-0.0049153
-0.00459302
-0.00422681
-0.00381881
-0.00337221
-0.00289118
-0.00238094
-0.00184773
-0.00129874
-0.000742024
-0.000186417
0.000358664
0.000883396
0.00137777
0.00183187
0.00223611
0.00258155
0.00286015
0.00306509
0.00319097
0.00323402
0.00319228
0.00306568
0.00285604
0.00256704
0.00220408
0.00177411
0.00128534
0.000747021
0.000169045
-0.000438602
-0.00106591
-0.00169966
-0.00232747
-0.00298683
-0.00371279
0.000520947
-0.000305704
-0.000949074
-0.00146595
-0.00192513
-0.00233173
-0.00269006
-0.00300857
-0.00329516
-0.00355667
-0.00379908
-0.00402755
-0.00424636
-0.00445892
-0.00466783
-0.00487489
-0.00508113
-0.00528691
-0.00549191
-0.0056952
-0.00589532
-0.00609028
-0.00627764
-0.00645458
-0.00661792
-0.00676421
-0.00688978
-0.00699084
-0.00706352
-0.00710398
-0.00710848
-0.00707349
-0.00699577
-0.00687249
-0.00670135
-0.00648063
-0.00620937
-0.00588741
-0.00551552
-0.00509548
-0.00463015
-0.0041235
-0.00358068
-0.00300797
-0.00241279
-0.00180357
-0.00118973
-0.000581429
1.05532e-05
0.000575099
0.00110101
0.00157729
0.00199352
0.00234013
0.00260874
0.0027925
0.00288629
0.00288697
0.00279352
0.00260707
0.00233093
0.00197041
0.00153269
0.00102649
0.000461832
-0.000150416
-0.000799176
-0.00147326
-0.00215789
-0.00283922
-0.00355825
-0.00435317
-9.69822e-05
-0.00094323
-0.00160165
-0.00213064
-0.00260091
-0.00301802
-0.00338663
-0.00371568
-0.00401348
-0.0042872
-0.00454314
-0.00478669
-0.00502229
-0.00525351
-0.00548301
-0.00571262
-0.0059434
-0.00617563
-0.00640893
-0.00664227
-0.00687403
-0.00710205
-0.0073237
-0.00753588
-0.00773516
-0.00791776
-0.00807967
-0.00821669
-0.00832452
-0.00839884
-0.00843541
-0.00843016
-0.00837926
-0.0082793
-0.00812735
-0.00792109
-0.00765893
-0.00734014
-0.00696493
-0.0065346
-0.0060516
-0.0055196
-0.00494357
-0.00432977
-0.00368574
-0.00302029
-0.00234334
-0.00166583
-0.000999497
-0.000356642
0.000250157
0.00080838
0.00130592
0.00173148
0.00207492
0.00232766
0.00248298
0.00253631
0.00248544
0.00233063
0.0020746
0.00172247
0.00128157
0.000761124
0.000171932
-0.000474085
-0.00116465
-0.00188728
-0.00262545
-0.00336373
-0.00414689
-0.00501653
-0.000804631
-0.00166769
-0.00233914
-0.00287879
-0.00335906
-0.00378588
-0.00416432
-0.00450373
-0.00481283
-0.00509912
-0.00536917
-0.00562861
-0.00588205
-0.00613317
-0.00638472
-0.00663856
-0.00689574
-0.00715651
-0.0074204
-0.0076863
-0.00795242
-0.00821646
-0.00847554
-0.00872635
-0.00896516
-0.00918787
-0.00939011
-0.00956727
-0.00971459
-0.00982725
-0.00990047
-0.00992959
-0.00991016
-0.00983811
-0.00970982
-0.00952229
-0.00927323
-0.00896121
-0.00858581
-0.00814773
-0.00764889
-0.00709255
-0.0064834
-0.00582755
-0.00513261
-0.00440763
-0.00366304
-0.0029105
-0.00216272
-0.00143323
-0.000736081
-8.54505e-05
0.000504713
0.00102115
0.0014517
0.0017858
0.00201483
0.00213251
0.00213514
0.00202184
0.00179457
0.00145806
0.00101969
0.000489119
-0.000122037
-0.000800751
-0.00153345
-0.00230619
-0.00310056
-0.00389932
-0.00475137
-0.00570199
-0.00160401
-0.002481
-0.00316341
-0.00371225
-0.00420137
-0.00463712
-0.0050249
-0.00537449
-0.00569497
-0.00599416
-0.0062789
-0.00655502
-0.00682732
-0.00709958
-0.00737463
-0.00765436
-0.00793982
-0.00823123
-0.00852806
-0.00882906
-0.00913235
-0.00943542
-0.00973523
-0.0100282
-0.0103103
-0.0105772
-0.010824
-0.0110458
-0.0112373
-0.0113932
-0.0115081
-0.0115767
-0.0115939
-0.011555
-0.0114555
-0.0112917
-0.0110604
-0.0107596
-0.010388
-0.00994552
-0.00943353
-0.00885472
-0.00821334
-0.00751527
-0.00676805
-0.00598089
-0.00516461
-0.00433156
-0.00349541
-0.00267095
-0.00187375
-0.00111978
-0.000425
0.00019514
0.000726223
0.00115537
0.00147174
0.001667
0.00173565
0.00167535
0.00148701
0.00117478
0.000745915
0.000210456
-0.000419197
-0.00112885
-0.00190353
-0.0027277
-0.00358085
-0.00444371
-0.00536968
-0.00640798
-0.00249668
-0.00338464
-0.00407589
-0.00463241
-0.00512926
-0.00557311
-0.00596974
-0.0063293
-0.00666121
-0.00697361
-0.00727358
-0.00756715
-0.00785928
-0.00815387
-0.00845382
-0.00876108
-0.00907667
-0.0094008
-0.00973286
-0.0100715
-0.0104148
-0.01076
-0.0111039
-0.0114427
-0.011772
-0.0120872
-0.0123831
-0.0126542
-0.0128949
-0.0130992
-0.0132612
-0.0133749
-0.0134346
-0.0134345
-0.0133696
-0.0132352
-0.0130273
-0.0127429
-0.0123798
-0.0119373
-0.0114157
-0.0108173
-0.0101455
-0.00940597
-0.00860597
-0.00775473
-0.0068634
-0.00594491
-0.00501384
-0.00408623
-0.00317922
-0.00231068
-0.00149874
-0.00076125
-0.000115177
0.000423978
0.000842789
0.00113047
0.00127935
0.00128525
0.0011477
0.000870003
0.000459094
-7.4757e-05
-0.000718392
-0.00145642
-0.00227235
-0.00314891
-0.00406325
-0.00499389
-0.00599904
-0.00713218
-0.00348368
-0.00437962
-0.00507756
-0.00564025
-0.00614365
-0.00659479
-0.00699974
-0.00736903
-0.0077124
-0.00803826
-0.00835394
-0.00866565
-0.00897852
-0.00929656
-0.00962275
-0.00995906
-0.0103066
-0.0106654
-0.011035
-0.0114139
-0.0117999
-0.0121903
-0.0125816
-0.0129699
-0.0133504
-0.0137182
-0.0140678
-0.0143932
-0.0146883
-0.0149466
-0.0151615
-0.0153263
-0.0154345
-0.0154796
-0.0154556
-0.015357
-0.0151787
-0.0149167
-0.0145679
-0.0141305
-0.013604
-0.0129897
-0.0122905
-0.0115113
-0.010659
-0.00974275
-0.00877386
-0.00776573
-0.00673378
-0.00569523
-0.00466883
-0.0036744
-0.00273239
-0.00186325
-0.00108678
-0.000421452
0.000116334
0.000512917
0.000758
0.000845141
0.000772092
0.000540946
0.000158058
-0.000366244
-0.00101813
-0.00178099
-0.00263674
-0.0035662
-0.00454394
-0.00554599
-0.0066358
-0.00787136
-0.00456556
-0.00546646
-0.00616894
-0.00673628
-0.00724507
-0.00770263
-0.00811537
-0.00849412
-0.00884891
-0.00918841
-0.00952019
-0.00985064
-0.010185
-0.0105275
-0.0108811
-0.0112479
-0.011629
-0.0120245
-0.0124337
-0.0128551
-0.0132867
-0.0137253
-0.0141673
-0.0146087
-0.0150444
-0.0154692
-0.0158771
-0.0162619
-0.0166168
-0.0169347
-0.0172085
-0.0174307
-0.017594
-0.0176911
-0.017715
-0.017659
-0.0175173
-0.0172845
-0.0169565
-0.0165304
-0.0160046
-0.0153794
-0.0146567
-0.0138407
-0.0129378
-0.0119568
-0.0109089
-0.00980795
-0.00866998
-0.00751337
-0.0063584
-0.00522693
-0.00414179
-0.00312625
-0.00220321
-0.00139446
-0.000719792
-0.000196209
0.000162859
0.000348204
0.000355321
0.00018467
-0.000158318
-0.0006635
-0.0013165
-0.00209953
-0.00299281
-0.00397511
-0.00501814
-0.00609518
-0.00727527
-0.00862125
-0.00574234
-0.0066452
-0.00735007
-0.00792055
-0.00843355
-0.00889669
-0.00931662
-0.00970448
-0.0100706
-0.0104238
-0.010772
-0.0111216
-0.0114782
-0.0118459
-0.012228
-0.0126265
-0.0130426
-0.0134763
-0.0139271
-0.0143935
-0.014873
-0.0153626
-0.0158586
-0.0163566
-0.0168514
-0.0173374
-0.0178083
-0.0182575
-0.0186775
-0.019061
-0.0193999
-0.019686
-0.0199113
-0.0200675
-0.0201466
-0.0201408
-0.0200431
-0.0198471
-0.0195473
-0.0191395
-0.0186211
-0.0179909
-0.0172499
-0.0164013
-0.0154507
-0.0144064
-0.0132794
-0.0120836
-0.0108355
-0.00955462
-0.00826264
-0.00698341
-0.00574225
-0.00456538
-0.00347907
-0.00250875
-0.00167805
-0.00100782
-0.000515192
-0.000212704
-0.000107685
-0.000201824
-0.000491049
-0.000965722
-0.00161113
-0.00240835
-0.00333587
-0.00437024
-0.00548003
-0.00663547
-0.00791158
-0.00937636
-0.0070135
-0.00791536
-0.00862053
-0.00919266
-0.00970871
-0.0101765
-0.010603
-0.0109996
-0.0113768
-0.0117437
-0.0121083
-0.0124774
-0.0128566
-0.0132502
-0.0136615
-0.0140927
-0.014545
-0.0150185
-0.0155126
-0.0160257
-0.0165555
-0.0170987
-0.0176516
-0.0182095
-0.0187671
-0.0193184
-0.0198569
-0.0203753
-0.020866
-0.0213207
-0.0217309
-0.0220876
-0.0223819
-0.0226045
-0.0227464
-0.0227987
-0.0227532
-0.022602
-0.0223385
-0.021957
-0.0214534
-0.0208254
-0.0200725
-0.0191967
-0.0182028
-0.0170981
-0.0158932
-0.0146019
-0.0132411
-0.0118309
-0.0103945
-0.00895756
-0.00754797
-0.00619499
-0.00492844
-0.00377775
-0.00277084
-0.00193292
-0.00128541
-0.000844865
-0.000622074
-0.00062149
-0.000840935
-0.0012717
-0.00189901
-0.00270294
-0.00366023
-0.00474505
-0.00592256
-0.00715957
-0.0085375
-0.0101298
-0.00837796
-0.00927598
-0.00997942
-0.0105517
-0.0110697
-0.0115413
-0.0119737
-0.0123784
-0.0127663
-0.0131467
-0.0135277
-0.0139163
-0.0143183
-0.0147381
-0.0151791
-0.0156436
-0.016133
-0.0166473
-0.017186
-0.0177475
-0.0183295
-0.0189287
-0.019541
-0.0201619
-0.0207856
-0.0214061
-0.0220163
-0.0226087
-0.0231751
-0.0237068
-0.0241944
-0.0246283
-0.0249986
-0.0252951
-0.0255076
-0.0256262
-0.0256412
-0.0255435
-0.025325
-0.0249784
-0.0244982
-0.0238803
-0.023123
-0.0222269
-0.0211953
-0.0200346
-0.0187547
-0.0173689
-0.0158942
-0.0143512
-0.0127643
-0.0111609
-0.00957131
-0.00802793
-0.00656431
-0.00521416
-0.00401007
-0.00298221
-0.00215692
-0.00155547
-0.00119287
-0.00107707
-0.00120843
-0.00157971
-0.00217644
-0.0029779
-0.00395911
-0.00509176
-0.00633726
-0.00765867
-0.00914422
-0.010873
-0.00983413
-0.0107256
-0.0114254
-0.0119966
-0.0125153
-0.0129897
-0.0134272
-0.0138395
-0.0142376
-0.014631
-0.0150281
-0.0154359
-0.0158605
-0.0163064
-0.0167772
-0.0172754
-0.0178022
-0.018358
-0.0189423
-0.0195534
-0.020189
-0.0208459
-0.02152
-0.0222063
-0.0228992
-0.0235922
-0.0242781
-0.0249489
-0.0255959
-0.0262098
-0.0267807
-0.0272981
-0.0277513
-0.028129
-0.02842
-0.0286131
-0.0286973
-0.028662
-0.0284976
-0.0281952
-0.0277474
-0.0271488
-0.0263957
-0.0254872
-0.024425
-0.0232144
-0.0218639
-0.0203863
-0.0187983
-0.0171208
-0.015379
-0.0136018
-0.011822
-0.0100749
-0.00839788
-0.00682923
-0.00540661
-0.00416563
-0.00313827
-0.00235128
-0.00182474
-0.0015709
-0.00159346
-0.00188731
-0.00243879
-0.0032267
-0.00422444
-0.00540111
-0.00671408
-0.00812228
-0.00972112
-0.0115956
-0.0113799
-0.0122624
-0.0129567
-0.0135254
-0.0140438
-0.0145201
-0.0149619
-0.015381
-0.0157886
-0.0161943
-0.0166067
-0.0170332
-0.0174797
-0.0179513
-0.0184516
-0.0189831
-0.0195474
-0.0201449
-0.020775
-0.0214364
-0.0221267
-0.0228425
-0.0235799
-0.0243337
-0.0250982
-0.0258667
-0.0266316
-0.0273846
-0.0281166
-0.0288177
-0.0294773
-0.0300843
-0.0306269
-0.0310929
-0.0314701
-0.0317458
-0.0319078
-0.031944
-0.031843
-0.0315944
-0.031189
-0.0306193
-0.0298799
-0.0289681
-0.0278838
-0.0266306
-0.0252158
-0.023651
-0.0219523
-0.0201405
-0.0182413
-0.016285
-0.0143063
-0.0123434
-0.0104378
-0.00863211
-0.0069696
-0.00549181
-0.00423701
-0.00323825
-0.0025216
-0.00210459
-0.00199517
-0.00219116
-0.00268038
-0.00344154
-0.00444664
-0.00566215
-0.00704111
-0.0085379
-0.0102556
-0.0122853
-0.0130127
-0.013884
-0.0145713
-0.0151363
-0.0156533
-0.0161305
-0.0165756
-0.0170006
-0.0174166
-0.0178337
-0.0182604
-0.0187044
-0.019172
-0.0196683
-0.0201971
-0.0207612
-0.0213622
-0.0220008
-0.0226766
-0.0233883
-0.0241335
-0.0249089
-0.0257106
-0.0265334