/*--------------------------------*- C++ -*----------------------------------*\
  =========                 |
  \\      /  F ield         | OpenFOAM: The Open Source CFD Toolbox
   \\    /   O peration     | Website:  https://openfoam.org
    \\  /    A nd           | Version:  dev
     \\/     M anipulation  |
\*---------------------------------------------------------------------------*/
FoamFile
{
    format      ascii;
    class       surfaceScalarField;
    location    "45.9";
    object      phi;
}
// * * * * * * * * * * * * * * * * * * * * * * * * * * * * * * * * * * * * * //

dimensions      [0 3 -1 0 0 0 0];

internalField   nonuniform List<scalar> 
10224
(
3.40683e-08
-3.46369e-08
8.80275e-08
-5.39533e-08
1.24561e-07
-3.65268e-08
1.25513e-07
-9.49653e-10
8.38725e-08
4.16404e-08
-1.64012e-09
8.55118e-08
-1.29199e-07
1.27558e-07
-2.95505e-07
1.66306e-07
-4.96495e-07
2.00991e-07
-7.27868e-07
2.31373e-07
-9.85351e-07
2.57484e-07
-1.26485e-06
2.79501e-07
-1.56253e-06
2.97678e-07
-1.87483e-06
3.12298e-07
-2.19847e-06
3.23646e-07
-2.53046e-06
3.31989e-07
-2.86802e-06
3.37563e-07
-3.20859e-06
3.40569e-07
-3.54976e-06
3.41169e-07
-3.88925e-06
3.39485e-07
-4.22485e-06
3.35603e-07
-4.55442e-06
3.29575e-07
-4.87585e-06
3.21425e-07
-5.187e-06
3.11157e-07
-5.48576e-06
2.98759e-07
-5.76997e-06
2.84209e-07
-6.03746e-06
2.67485e-07
-6.28603e-06
2.48572e-07
-6.51349e-06
2.27463e-07
-6.71767e-06
2.04174e-07
-6.89641e-06
1.78743e-07
-7.04765e-06
1.51237e-07
-7.16941e-06
1.21759e-07
-7.25986e-06
9.04471e-08
-7.31734e-06
5.74832e-08
-7.34043e-06
2.30895e-08
-7.32796e-06
-1.24681e-08
-7.27908e-06
-4.88808e-08
-7.19328e-06
-8.57992e-08
-7.07044e-06
-1.22836e-07
-6.91087e-06
-1.5957e-07
-6.71532e-06
-1.95552e-07
-6.48501e-06
-2.30311e-07
-6.22165e-06
-2.63364e-07
-5.92742e-06
-2.94223e-07
-5.60502e-06
-3.22407e-07
-5.25757e-06
-3.47449e-07
-4.88866e-06
-3.68909e-07
-4.50227e-06
-3.86387e-07
-4.10274e-06
-3.99529e-07
-3.6947e-06
-4.08037e-07
-3.28302e-06
-4.11683e-07
-2.87271e-06
-4.1031e-07
-2.46886e-06
-4.03844e-07
-2.07657e-06
-3.92294e-07
-1.70081e-06
-3.75758e-07
-1.34639e-06
-3.54419e-07
-1.01784e-06
-3.28553e-07
-7.19317e-07
-2.9852e-07
-4.54544e-07
-2.64771e-07
-2.26699e-07
-2.27845e-07
-3.83264e-08
-1.88373e-07
1.08768e-07
-1.47095e-07
2.13648e-07
-1.0488e-07
2.76429e-07
-6.2779e-08
2.98544e-07
-2.21103e-08
2.83172e-07
1.53756e-08
2.35915e-07
4.72583e-08
1.65843e-07
7.00698e-08
8.72583e-08
7.85769e-08
2.25493e-08
6.46979e-08
2.25439e-08
5.40728e-08
-8.87047e-08
1.12648e-07
-1.12517e-07
1.18464e-07
-4.2339e-08
3.9145e-08
7.83696e-08
-1.4172e-07
2.22505e-07
-4.29459e-07
3.7325e-07
-8.22312e-07
5.20412e-07
-1.31413e-06
6.58128e-07
-1.89636e-06
7.83216e-07
-2.55917e-06
8.94187e-07
-3.2923e-06
9.90607e-07
-4.08548e-06
1.07268e-06
-4.92878e-06
1.14099e-06
-5.81278e-06
1.19629e-06
-6.72857e-06
1.23943e-06
-7.66782e-06
1.27124e-06
-8.62272e-06
1.29247e-06
-9.58593e-06
1.30378e-06
-1.05505e-05
1.30573e-06
-1.15097e-05
1.29873e-06
-1.24573e-05
1.28312e-06
-1.33868e-05
1.25908e-06
-1.42921e-05
1.22675e-06
-1.51671e-05
1.18616e-06
-1.60057e-05
1.13732e-06
-1.68016e-05
1.0802e-06
-1.75489e-05
1.01478e-06
-1.82414e-05
9.41061e-07
-1.88731e-05
8.5908e-07
-1.94378e-05
7.68954e-07
-1.993e-05
6.70888e-07
-2.03439e-05
5.65191e-07
-2.06745e-05
4.52298e-07
-2.09168e-05
3.32779e-07
-2.10667e-05
2.07347e-07
-2.11204e-05
7.6868e-08
-2.10753e-05
-5.76427e-08
-2.09291e-05
-1.95019e-07
-2.0681e-05
-3.33953e-07
-2.03308e-05
-4.73006e-07
-1.98798e-05
-6.10625e-07
-1.93301e-05
-7.45162e-07
-1.86856e-05
-8.74901e-07
-1.79508e-05
-9.98086e-07
-1.71321e-05
-1.11295e-06
-1.62368e-05
-1.21776e-06
-1.52734e-05
-1.31083e-06
-1.42517e-05
-1.39059e-06
-1.31825e-05
-1.45561e-06
-1.20774e-05
-1.50462e-06
-1.09488e-05
-1.53657e-06
-9.80987e-06
-1.55066e-06
-8.67384e-06
-1.54634e-06
-7.55432e-06
-1.52336e-06
-6.46483e-06
-1.48179e-06
-5.4186e-06
-1.42199e-06
-4.42833e-06
-1.34468e-06
-3.506e-06
-1.25089e-06
-2.66253e-06
-1.14198e-06
-1.90763e-06
-1.01967e-06
-1.24948e-06
-8.86e-07
-6.94462e-07
-7.43385e-07
-2.46895e-07
-5.94658e-07
9.1381e-08
-4.43153e-07
3.21449e-07
-2.92846e-07
4.4791e-07
-1.48574e-07
4.79767e-07
-1.64901e-08
4.31511e-07
9.55077e-08
3.24602e-07
1.76984e-07
1.89078e-07
2.14126e-07
6.4419e-08
1.89391e-07
8.69558e-08
3.74403e-08
-1.26139e-07
4.34974e-08
-1.18569e-07
-4.30791e-08
4.42379e-08
-2.58569e-07
2.93858e-07
-6.2259e-07
5.86525e-07
-1.14226e-06
8.92922e-07
-1.81585e-06
1.194e-06
-2.63571e-06
1.47798e-06
-3.59045e-06
1.73796e-06
-4.66655e-06
1.97029e-06
-5.84944e-06
2.1735e-06
-7.12423e-06
2.34747e-06
-8.47619e-06
2.49295e-06
-9.89109e-06
2.61119e-06
-1.13553e-05
2.70363e-06
-1.28558e-05
2.77179e-06
-1.43804e-05
2.81708e-06
-1.59175e-05
2.84079e-06
-1.74557e-05
2.84398e-06
-1.89845e-05
2.82752e-06
-2.04934e-05
2.79204e-06
-2.19724e-05
2.73801e-06
-2.34113e-05
2.66569e-06
-2.48004e-05
2.57524e-06
-2.61298e-05
2.46672e-06
-2.73897e-05
2.34016e-06
-2.85705e-05
2.19558e-06
-2.96625e-05
2.03307e-06
-3.06563e-05
1.85282e-06
-3.15425e-05
1.65517e-06
-3.23122e-05
1.44064e-06
-3.2957e-05
1.20999e-06
-3.34689e-05
9.64215e-07
-3.38408e-05
7.04615e-07
-3.40662e-05
4.32772e-07
-3.41399e-05
1.50582e-07
-3.40578e-05
-1.39751e-07
-3.38171e-05
-4.35718e-07
-3.34165e-05
-7.34522e-07
-3.28564e-05
-1.03311e-06
-3.21389e-05
-1.32818e-06
-3.12677e-05
-1.61628e-06
-3.02488e-05
-1.8938e-06
-2.90899e-05
-2.15706e-06
-2.78004e-05
-2.40237e-06
-2.63921e-05
-2.62612e-06
-2.48781e-05
-2.82482e-06
-2.32735e-05
-2.9952e-06
-2.15948e-05
-3.13429e-06
-1.98599e-05
-3.23949e-06
-1.80878e-05
-3.30863e-06
-1.62985e-05
-3.34005e-06
-1.45121e-05
-3.33265e-06
-1.27496e-05
-3.28594e-06
-1.10313e-05
-3.20007e-06
-9.3774e-06
-3.07587e-06
-7.80723e-06
-2.91485e-06
-6.33888e-06
-2.71924e-06
-4.98889e-06
-2.49197e-06
-3.77185e-06
-2.2367e-06
-2.70003e-06
-1.95783e-06
-1.78287e-06
-1.66054e-06
-1.02661e-06
-1.35091e-06
-4.33721e-07
-1.03604e-06
-2.28445e-09
-7.24279e-07
2.74789e-07
-4.25648e-07
4.10572e-07
-1.52278e-07
4.25321e-07
8.07507e-08
3.47686e-07
2.54611e-07
2.15894e-07
3.45916e-07
7.86992e-08
3.26607e-07
1.65651e-07
1.96595e-09
-1.28102e-07
-7.88425e-08
-3.77601e-08
-2.9755e-07
2.62945e-07
-6.87901e-07
6.84207e-07
-1.26822e-06
1.16684e-06
-2.04478e-06
1.66949e-06
-3.0148e-06
2.16402e-06
-4.16902e-06
2.6322e-06
-5.49382e-06
3.06276e-06
-6.97289e-06
3.44936e-06
-8.58837e-06
3.78897e-06
-1.03218e-05
4.08087e-06
-1.21546e-05
4.32575e-06
-1.40686e-05
4.52521e-06
-1.60463e-05
4.68129e-06
-1.80706e-05
4.79618e-06
-2.01256e-05
4.87201e-06
-2.21955e-05
4.91073e-06
-2.42655e-05
4.914e-06
-2.63212e-05
4.8832e-06
-2.83485e-05
4.81938e-06
-3.03338e-05
4.72327e-06
-3.22635e-05
4.5954e-06
-3.41243e-05
4.43606e-06
-3.59031e-05
4.24547e-06
-3.75867e-05
4.02374e-06
-3.91622e-05
3.77105e-06
-4.06168e-05
3.48767e-06
-4.1938e-05
3.17405e-06
-4.31137e-05
2.83089e-06
-4.41323e-05
2.45921e-06
-4.49827e-05
2.06041e-06
-4.56548e-05
1.63632e-06
-4.61394e-05
1.18921e-06
-4.64285e-05
7.21866e-07
-4.65155e-05
2.37568e-07
-4.63953e-05
-2.599e-07
-4.60648e-05
-7.66257e-07
-4.55226e-05
-1.27676e-06
-4.47694e-05
-1.78625e-06
-4.38084e-05
-2.28919e-06
-4.26449e-05
-2.77977e-06
-4.12868e-05
-3.25197e-06
-3.97442e-05
-3.69964e-06
-3.80299e-05
-4.11667e-06
-3.6159e-05
-4.49702e-06
-3.41489e-05
-4.83493e-06
-3.20191e-05
-5.12499e-06
-2.97911e-05
-5.36228e-06
-2.74881e-05
-5.54251e-06
-2.51346e-05
-5.66208e-06
-2.27564e-05
-5.71829e-06
-2.03797e-05
-5.70932e-06
-1.80312e-05
-5.63439e-06
-1.57375e-05
-5.4938e-06
-1.35244e-05
-5.28895e-06
-1.14169e-05
-5.02242e-06
-9.43812e-06
-4.69799e-06
-7.60948e-06
-4.32061e-06
-5.94971e-06
-3.89648e-06
-4.4745e-06
-3.43304e-06
-3.19595e-06
-2.93908e-06
-2.12204e-06
-2.42482e-06
-1.25595e-06
-1.90213e-06
-5.95419e-07
-1.3848e-06
-1.32014e-07
-8.89052e-07
1.49789e-07
-4.34079e-07
2.73472e-07
-4.29291e-08
2.71515e-07
2.56568e-07
1.86443e-07
4.30983e-07
7.22664e-08
4.40788e-07
2.37915e-07
-4.2027e-08
-8.60741e-08
-2.30005e-07
1.50217e-07
-6.06594e-07
6.39533e-07
-1.1984e-06
1.27601e-06
-2.01919e-06
1.98762e-06
-3.07212e-06
2.72242e-06
-4.35201e-06
3.44391e-06
-5.84744e-06
4.12762e-06
-7.54252e-06
4.75785e-06
-9.41845e-06
5.32529e-06
-1.14547e-05
5.82519e-06
-1.36297e-05
6.25593e-06
-1.5922e-05
6.61803e-06
-1.83101e-05
6.91328e-06
-2.0773e-05
7.14422e-06
-2.32905e-05
7.31368e-06
-2.5843e-05
7.4245e-06
-2.84116e-05
7.47931e-06
-3.09779e-05
7.48039e-06
-3.35244e-05
7.42964e-06
-3.60336e-05
7.32856e-06
-3.84886e-05
7.17825e-06
-4.08727e-05
6.97949e-06
-4.31694e-05
6.73282e-06
-4.53626e-05
6.43861e-06
-4.7436e-05
6.0972e-06
-4.93739e-05
5.70898e-06
-5.11608e-05
5.2745e-06
-5.27813e-05
4.79461e-06
-5.4221e-05
4.27053e-06
-5.54657e-05
3.70394e-06
-5.65024e-05
3.09709e-06
-5.73189e-05
2.45285e-06
-5.79045e-05
1.77477e-06
-5.82497e-05
1.06709e-06
-5.83469e-05
3.34817e-07
-5.81905e-05
-4.1635e-07
-5.77768e-05
-1.17999e-06
-5.71045e-05
-1.949e-06
-5.6175e-05
-2.71572e-06
-5.49923e-05
-3.47194e-06
-5.3563e-05
-4.20906e-06
-5.18968e-05
-4.91819e-06
-5.00061e-05
-5.59029e-06
-4.79064e-05
-6.21635e-06
-4.56159e-05
-6.78754e-06
-4.31555e-05
-7.2954e-06
-4.05485e-05
-7.73198e-06
-3.78207e-05
-8.0901e-06
-3.49997e-05
-8.36345e-06
-3.2115e-05
-8.54682e-06
-2.91971e-05
-8.63621e-06
-2.62774e-05
-8.629e-06
-2.33877e-05
-8.52405e-06
-2.05597e-05
-8.32182e-06
-1.78242e-05
-8.02441e-06
-1.5211e-05
-7.63567e-06
-1.27478e-05
-7.16119e-06
-1.04601e-05
-6.60833e-06
-8.37022e-06
-5.98631e-06
-6.49709e-06
-5.30617e-06
-4.85524e-06
-4.58093e-06
-3.4544e-06
-3.82566e-06
-2.29879e-06
-3.05773e-06
-1.38645e-06
-2.29715e-06
-7.08521e-07
-1.56699e-06
-2.48506e-07
-8.94093e-07
1.84648e-08
-3.09895e-07
1.26462e-07
1.48573e-07
1.19654e-07
4.37787e-07
5.37081e-08
5.06728e-07
2.91623e-07
-8.94405e-08
3.36575e-09
-3.95404e-07
4.56181e-07
-9.45307e-07
1.18944e-06
-1.75575e-06
2.08646e-06
-2.83355e-06
3.06542e-06
-4.17694e-06
4.0658e-06
-5.77707e-06
5.04405e-06
-7.61956e-06
5.97011e-06
-9.68592e-06
6.8242e-06
-1.19548e-05
7.59422e-06
-1.44033e-05
8.27362e-06
-1.70072e-05
8.85986e-06
-1.97423e-05
9.35314e-06
-2.25844e-05
9.75539e-06
-2.55098e-05
1.00696e-05
-2.84952e-05
1.02991e-05
-3.15181e-05
1.04474e-05
-3.45567e-05
1.05179e-05
-3.75898e-05
1.05134e-05
-4.05966e-05
1.04364e-05
-4.35569e-05
1.02888e-05
-4.64508e-05
1.00722e-05
-4.92588e-05
9.78749e-06
-5.19616e-05
9.43562e-06
-5.45401e-05
9.01718e-06
-5.69757e-05
8.53278e-06
-5.92499e-05
7.98312e-06
-6.13445e-05
7.36916e-06
-6.32422e-05
6.69225e-06
-6.49259e-05
5.95427e-06
-6.63797e-05
5.15775e-06
-6.75886e-05
4.30597e-06
-6.85388e-05
3.40306e-06
-6.92181e-05
2.45406e-06
-6.9616e-05
1.46497e-06
-6.97239e-05
4.42757e-07
-6.95356e-05
-6.04635e-07
-6.90473e-05
-1.66832e-06
-6.82578e-05
-2.73853e-06
-6.71688e-05
-3.80472e-06
-6.5785e-05
-4.85565e-06
-6.41145e-05
-5.87957e-06
-6.21684e-05
-6.86434e-06
-5.9961e-05
-7.79766e-06
-5.75101e-05
-8.66726e-06
-5.48365e-05
-9.46114e-06
-5.19641e-05
-1.01678e-05
-4.89197e-05
-1.07764e-05
-4.57324e-05
-1.12773e-05
-4.2434e-05
-1.16619e-05
-3.90579e-05
-1.1923e-05
-3.56388e-05
-1.20552e-05
-3.22128e-05
-1.20551e-05
-2.88159e-05
-1.19209e-05
-2.54843e-05
-1.16534e-05
-2.22534e-05
-1.12554e-05
-1.9157e-05
-1.07321e-05
-1.6227e-05
-1.00911e-05
-1.34927e-05
-9.34264e-06
-1.09799e-05
-8.49916e-06
-8.71023e-06
-7.57579e-06
-6.70091e-06
-6.59025e-06
-4.96359e-06
-5.56299e-06
-3.50391e-06
-4.51742e-06
-2.32082e-06
-3.48023e-06
-1.40595e-06
-2.48185e-06
-7.42974e-07
-1.55706e-06
-3.07038e-07
-7.4583e-07
-6.4142e-08
-9.43241e-08
2.94921e-08
3.44149e-07
2.83545e-08
5.07857e-07
3.1998e-07
-1.37673e-07
1.41038e-07
-5.66463e-07
8.84971e-07
-1.29786e-06
1.92083e-06
-2.33696e-06
3.12556e-06
-3.68208e-06
4.41054e-06
-5.32515e-06
5.70888e-06
-7.25256e-06
6.97146e-06
-9.44619e-06
8.16374e-06
-1.18845e-05
9.26249e-06
-1.45434e-05
1.02532e-05
-1.73975e-05
1.11276e-05
-2.04202e-05
1.18826e-05
-2.35848e-05
1.25178e-05
-2.68648e-05
1.30354e-05
-3.02339e-05
1.34387e-05
-3.36664e-05
1.37316e-05
-3.71373e-05
1.39183e-05
-4.06222e-05
1.40028e-05
-4.40971e-05
1.39884e-05
-4.75389e-05
1.38782e-05
-5.09246e-05
1.36746e-05
-5.42319e-05
1.33794e-05
-5.74385e-05
1.29941e-05
-6.05228e-05
1.25199e-05
-6.34632e-05
1.19576e-05
-6.62386e-05
1.13082e-05
-6.88282e-05
1.05727e-05
-7.12117e-05
9.7527e-06
-7.33695e-05
8.8501e-06
-7.52829e-05
7.86759e-06
-7.69338e-05
6.8087e-06
-7.83058e-05
5.67791e-06
-7.93835e-05
4.48079e-06
-8.01535e-05
3.2241e-06
-8.06043e-05
1.91579e-06
-8.07266e-05
5.65058e-07
-8.05136e-05
-8.17659e-07
-7.99612e-05
-2.22074e-06
-7.90683e-05
-3.63146e-06
-7.78369e-05
-5.0361e-06
-7.62725e-05
-6.42008e-06
-7.43838e-05
-7.76818e-06
-7.21835e-05
-9.06471e-06
-6.96874e-05
-1.02938e-05
-6.69151e-05
-1.14395e-05
-6.38897e-05
-1.24865e-05
-6.06377e-05
-1.34198e-05
-5.71886e-05
-1.42256e-05
-5.35748e-05
-1.48911e-05
-4.98312e-05
-1.54055e-05
-4.59948e-05
-1.57594e-05
-4.21043e-05
-1.59458e-05
-3.81993e-05
-1.596e-05
-3.43202e-05
-1.58001e-05
-3.05069e-05
-1.54666e-05
-2.6799e-05
-1.49633e-05
-2.32342e-05
-1.42969e-05
-1.98482e-05
-1.34771e-05
-1.66738e-05
-1.2517e-05
-1.37401e-05
-1.14328e-05
-1.10719e-05
-1.0244e-05
-8.68897e-06
-8.97321e-06
-6.60516e-06
-7.6468e-06
-4.82803e-06
-6.29455e-06
-3.35806e-06
-4.9502e-06
-2.18815e-06
-3.65177e-06
-1.30307e-06
-2.44214e-06
-6.79073e-07
-1.36983e-06
-2.83501e-07
-4.89897e-07
-7.44722e-08
1.35117e-07
-5.46618e-10
4.33926e-07
3.19435e-07
-1.85479e-07
3.26516e-07
-7.38289e-07
1.43778e-06
-1.65445e-06
2.83699e-06
-2.92699e-06
4.3981e-06
-4.54482e-06
6.02837e-06
-6.49263e-06
7.65668e-06
-8.75117e-06
9.23e-06
-1.12979e-05
1.07105e-05
-1.41078e-05
1.20723e-05
-1.71537e-05
1.32991e-05
-2.04076e-05
1.43815e-05
-2.38405e-05
1.53155e-05
-2.74237e-05
1.61009e-05
-3.11281e-05
1.67398e-05
-3.49254e-05
1.7236e-05
-3.87878e-05
1.7594e-05
-4.2688e-05
1.78185e-05
-4.65992e-05
1.7914e-05
-5.04954e-05
1.78846e-05
-5.4351e-05
1.77338e-05
-5.8141e-05
1.74645e-05
-6.18405e-05
1.70789e-05
-6.54253e-05
1.65789e-05
-6.88712e-05
1.59659e-05
-7.21547e-05
1.52411e-05
-7.52525e-05
1.44059e-05
-7.81417e-05
1.34619e-05
-8.08e-05
1.24111e-05
-8.32061e-05
1.12562e-05
-8.53393e-05
1.00008e-05
-8.71801e-05
8.6495e-06
-8.87104e-05
7.20822e-06
-8.99137e-05
5.6841e-06
-9.07754e-05
4.08577e-06
-9.12829e-05
2.42335e-06
-9.14263e-05
7.08445e-07
-9.11982e-05
-1.04579e-06
-9.05942e-05
-2.82479e-06
-8.9613e-05
-4.61261e-06
-8.8257e-05
-6.39212e-06
-8.65319e-05
-8.14515e-06
-8.44474e-05
-9.85274e-06
-8.20167e-05
-1.14954e-05
-7.92572e-05
-1.30532e-05
-7.61901e-05
-1.45067e-05
-7.28401e-05
-1.58365e-05
-6.92358e-05
-1.7024e-05
-6.54093e-05
-1.80521e-05
-6.13954e-05
-1.8905e-05
-5.72321e-05
-1.95688e-05
-5.29596e-05
-2.00319e-05
-4.86197e-05
-2.02857e-05
-4.42557e-05
-2.0324e-05
-3.99116e-05
-2.01442e-05
-3.56312e-05
-1.9747e-05
-3.14576e-05
-1.91369e-05
-2.74325e-05
-1.8322e-05
-2.35952e-05
-1.73144e-05
-1.9982e-05
-1.61302e-05
-1.66255e-05
-1.47893e-05
-1.35536e-05
-1.33159e-05
-1.07889e-05
-1.17379e-05
-8.348e-06
-1.00877e-05
-6.24068e-06
-8.40187e-06
-4.4696e-06
-6.72128e-06
-3.02959e-06
-5.09178e-06
-1.9073e-06
-3.56443e-06
-1.08097e-06
-2.19616e-06
-5.20192e-07
-1.05067e-06
-1.86002e-07
-1.99074e-07
-3.10385e-08
2.78962e-07
2.88398e-07
-2.32217e-07
5.58733e-07
-9.08123e-07
2.11369e-06
-2.00911e-06
3.93798e-06
-3.51611e-06
5.9051e-06
-5.40826e-06
7.92052e-06
-7.66239e-06
9.91081e-06
-1.0253e-05
1.18207e-05
-1.31528e-05
1.36102e-05
-1.63324e-05
1.5252e-05
-1.97617e-05
1.67284e-05
-2.34098e-05
1.80296e-05
-2.72454e-05
1.91511e-05
-3.12373e-05
2.00928e-05
-3.53547e-05
2.08572e-05
-3.95671e-05
2.14484e-05
-4.38447e-05
2.18716e-05
-4.81583e-05
2.21321e-05
-5.24793e-05
2.2235e-05
-5.67796e-05
2.21849e-05
-6.10317e-05
2.19859e-05
-6.52084e-05
2.16413e-05
-6.92832e-05
2.11537e-05
-7.32295e-05
2.05253e-05
-7.70216e-05
1.97579e-05
-8.06337e-05
1.88532e-05
-8.40408e-05
1.7813e-05
-8.72181e-05
1.66392e-05
-9.01417e-05
1.53347e-05
-9.27884e-05
1.39029e-05
-9.5136e-05
1.23484e-05
-9.71636e-05
1.06771e-05
-9.88516e-05
8.89629e-06
-0.000100182
7.01491e-06
-0.00010114
5.04358e-06
-0.000101712
2.99472e-06
-0.000101886
8.82536e-07
-0.000101655
-1.27696e-06
-0.000101013
-3.46604e-06
-9.99605e-05
-5.66539e-06
-9.84984e-05
-7.85424e-06
-9.66329e-05
-1.00106e-05
-9.43741e-05
-1.21116e-05
-9.1736e-05
-1.41335e-05
-8.87366e-05
-1.60526e-05
-8.53984e-05
-1.78449e-05
-8.17477e-05
-1.94872e-05
-7.78147e-05
-2.0957e-05
-7.36334e-05
-2.22335e-05
-6.9241e-05
-2.32973e-05
-6.46781e-05
-2.41317e-05
-5.99875e-05
-2.47226e-05
-5.52143e-05
-2.50589e-05
-5.0405e-05
-2.51333e-05
-4.56069e-05
-2.49422e-05
-4.08675e-05
-2.44864e-05
-3.62337e-05
-2.37708e-05
-3.17507e-05
-2.2805e-05
-2.74617e-05
-2.16034e-05
-2.34066e-05
-2.01852e-05
-1.96216e-05
-1.85743e-05
-1.6138e-05
-1.67995e-05
-1.29816e-05
-1.48943e-05
-1.01719e-05
-1.28974e-05
-7.72181e-06
-1.0852e-05
-5.63645e-06
-8.80663e-06
-3.91327e-06
-6.81497e-06
-2.54143e-06
-4.93626e-06
-1.5018e-06
-3.23579e-06
-7.66911e-07
-1.78556e-06
-3.01278e-07
-6.64708e-07
-6.20194e-08
3.97047e-08
2.26377e-07
-2.77608e-07
8.36341e-07
-1.07443e-06
2.9105e-06
-2.35817e-06
5.22172e-06
-4.09801e-06
7.64494e-06
-6.2632e-06
1.00857e-05
-8.82245e-06
1.24701e-05
-1.17437e-05
1.47419e-05
-1.49942e-05
1.68607e-05
-1.85404e-05
1.87982e-05
-2.23487e-05
2.05367e-05
-2.63851e-05
2.2066e-05
-3.06158e-05
2.33819e-05
-3.50076e-05
2.44846e-05
-3.95276e-05
2.53771e-05
-4.41435e-05
2.60643e-05
-4.88238e-05
2.65519e-05
-5.35374e-05
2.68458e-05
-5.82542e-05
2.69517e-05
-6.29442e-05
2.6875e-05
-6.75783e-05
2.662e-05
-7.21277e-05
2.61907e-05
-7.6564e-05
2.55899e-05
-8.0859e-05
2.48203e-05
-8.49852e-05
2.38841e-05
-8.89153e-05
2.27833e-05
-9.26224e-05
2.152e-05
-9.60802e-05
2.00971e-05
-9.92633e-05
1.85178e-05
-0.000102147
1.67865e-05
-0.000104707
1.49089e-05
-0.000106923
1.28922e-05
-0.000108771
1.07452e-05
-0.000110235
8.47864e-06
-0.000111297
6.10532e-06
-0.000111942
3.64002e-06
-0.000112159
1.09969e-06
-0.00011194
-1.49669e-06
-0.000111278
-4.1281e-06
-0.000110171
-6.77168e-06
-0.000108623
-9.40286e-06
-0.000106638
-1.19957e-05
-0.000104226
-1.4523e-05
-0.000101403
-1.6957e-05
-9.81857e-05
-1.92694e-05
-9.45986e-05
-2.1432e-05
-9.06687e-05
-2.34171e-05
-8.64275e-05
-2.51982e-05
-8.19106e-05
-2.67503e-05
-7.71574e-05
-2.80505e-05
-7.22104e-05
-2.90787e-05
-6.71152e-05
-2.98177e-05
-6.19197e-05
-3.02544e-05
-5.66735e-05
-3.03795e-05
-5.14273e-05
-3.01885e-05
-4.6232e-05
-2.96817e-05
-4.11382e-05
-2.88646e-05
-3.61951e-05
-2.77481e-05
-3.14495e-05
-2.6349e-05
-2.69456e-05
-2.46892e-05
-2.2723e-05
-2.27969e-05
-1.88169e-05
-2.07055e-05
-1.52568e-05
-1.84544e-05
-1.20658e-05
-1.60884e-05
-9.25978e-06
-1.3658e-05
-6.84736e-06
-1.12191e-05
-4.82898e-06
-8.83335e-06
-3.1969e-06
-6.56835e-06
-1.93508e-06
-4.49761e-06
-1.01942e-06
-2.70123e-06
-4.18186e-07
-1.26594e-06
-9.29355e-08
-2.85543e-07
1.3344e-07
-3.2154e-07
1.15788e-06
-1.23635e-06
3.82532e-06
-2.6994e-06
6.68477e-06
-4.66856e-06
9.6141e-06
-7.10335e-06
1.25205e-05
-9.9643e-06
1.5331e-05
-1.32126e-05
1.79902e-05
-1.68098e-05
2.04579e-05
-2.07179e-05
2.27064e-05
-2.48995e-05
2.47183e-05
-2.93177e-05
2.64841e-05
-3.39361e-05
2.80003e-05
-3.87192e-05
2.92677e-05
-4.36322e-05
3.02902e-05
-4.86412e-05
3.10733e-05
-5.37129e-05
3.16236e-05
-5.88149e-05
3.19478e-05
-6.39154e-05
3.20522e-05
-6.89832e-05
3.19427e-05
-7.39874e-05
3.16243e-05
-7.88979e-05
3.11012e-05
-8.36849e-05
3.03768e-05
-8.83187e-05
2.94541e-05
-9.27702e-05
2.83356e-05
-9.70107e-05
2.70238e-05
-0.000101012
2.55213e-05
-0.000104746
2.38313e-05
-0.000108187
2.19581e-05
-0.000111307
1.99068e-05
-0.000114082
1.76842e-05
-0.000116489
1.52989e-05
-0.000118505
1.27613e-05
-0.00012011
1.00839e-05
-0.000121287
7.28181e-06
-0.000122019
4.37221e-06
-0.000122294
1.37484e-06
-0.000122103
-1.68823e-06
-0.000121438
-4.7926e-06
-0.000120298
-7.91174e-06
-0.000118684
-1.10172e-05
-0.000116601
-1.40788e-05
-0.000114058
-1.70652e-05
-0.000111072
-1.99439e-05
-0.000107659
-2.26821e-05
-0.000103844
-2.5247e-05
-9.96546e-05
-2.76064e-05
-9.51237e-05
-2.97291e-05
-9.02881e-05
-3.1586e-05
-8.51886e-05
-3.315e-05
-7.987e-05
-3.43973e-05
-7.43801e-05
-3.53076e-05
-6.87695e-05
-3.5865e-05
-6.30907e-05
-3.60583e-05
-5.73978e-05
-3.58814e-05
-5.17454e-05
-3.53341e-05
-4.61878e-05
-3.44222e-05
-4.07781e-05
-3.31578e-05
-3.55675e-05
-3.15596e-05
-3.0604e-05
-2.96527e-05
-2.59317e-05
-2.74692e-05
-2.15899e-05
-2.50473e-05
-1.76122e-05
-2.24322e-05
-1.40255e-05
-1.96751e-05
-1.08498e-05
-1.68337e-05
-8.09724e-06
-1.39716e-05
-5.7719e-06
-1.11587e-05
-3.86954e-06
-8.4707e-06
-2.37766e-06
-5.9895e-06
-1.27572e-06
-3.80317e-06
-5.35796e-07
-2.00586e-06
-1.23584e-07
-6.97751e-07
9.85379e-09
-3.6397e-07
1.52185e-06
-1.39341e-06
4.85476e-06
-3.03139e-06
8.32275e-06
-5.225e-06
1.18077e-05
-7.92431e-06
1.52198e-05
-1.10817e-05
1.84884e-05
-1.46516e-05
2.15601e-05
-1.85898e-05
2.43961e-05
-2.28538e-05
2.69703e-05
-2.74021e-05
2.92666e-05
-3.21947e-05
3.12767e-05
-3.71928e-05
3.29984e-05
-4.23586e-05
3.44335e-05
-4.76554e-05
3.5587e-05
-5.30477e-05
3.64656e-05
-5.85007e-05
3.70767e-05
-6.39807e-05
3.74277e-05
-6.94545e-05
3.7526e-05
-7.48896e-05
3.73778e-05
-8.02541e-05
3.69888e-05
-8.55165e-05
3.63635e-05
-9.06455e-05
3.55059e-05
-9.56106e-05
3.44192e-05
-0.000100381
3.31063e-05
-0.000104928
3.157e-05
-0.00010922
2.98136e-05
-0.000113229
2.78407e-05
-0.000116928
2.56564e-05
-0.000120287
2.32666e-05
-0.000123282
2.06793e-05
-0.000125888
1.79044e-05
-0.00012808
1.49538e-05
-0.000129839
1.18422e-05
-0.000131144
8.58663e-06
-0.000131978
5.20684e-06
-0.000132329
1.72537e-06
-0.000132184
-1.83257e-06
-0.000131538
-5.43916e-06
-0.000130385
-9.06412e-06
-0.000128728
-1.2675e-05
-0.000126569
-1.62373e-05
-0.000123919
-1.97152e-05
-0.000120791
-2.30717e-05
-0.000117204
-2.62689e-05
-0.000113182
-2.92693e-05
-0.000108753
-3.20358e-05
-0.000103949
-3.45324e-05
-9.88101e-05
-3.67252e-05
-9.33772e-05
-3.85829e-05
-8.76969e-05
-4.00775e-05
-8.18195e-05
-4.11851e-05
-7.57979e-05
-4.18867e-05
-6.96877e-05
-4.21684e-05
-6.35464e-05
-4.20227e-05
-5.74322e-05
-4.14483e-05
-5.14034e-05
-4.0451e-05
-4.55174e-05
-3.90438e-05
-3.98297e-05
-3.72472e-05
-3.43931e-05
-3.50894e-05
-2.92561e-05
-3.26061e-05
-2.44628e-05
-2.98406e-05
-2.00513e-05
-2.68437e-05
-1.60532e-05
-2.36733e-05
-1.24926e-05
-2.03943e-05
-9.38591e-06
-1.70783e-05
-6.74137e-06
-1.38032e-05
-4.55861e-06
-1.06535e-05
-2.82889e-06
-7.71921e-06
-1.53544e-06
-5.09663e-06
-6.54001e-07
-2.88729e-06
-1.5399e-07
-1.19776e-06
-1.44137e-07
-4.04884e-07
1.92673e-06
-1.54531e-06
5.99519e-06
-3.35318e-06
1.01306e-05
-5.76537e-06
1.42199e-05
-8.72283e-06
1.81773e-05
-1.217e-05
2.19357e-05
-1.60546e-05
2.54446e-05
-2.03267e-05
2.86682e-05
-2.4939e-05
3.15826e-05
-2.98463e-05
3.41739e-05
-3.50053e-05
3.64358e-05
-4.03745e-05
3.83676e-05
-4.5914e-05
3.9973e-05
-5.15854e-05
4.12584e-05
-5.73515e-05
4.22317e-05
-6.31763e-05
4.29014e-05
-6.90247e-05
4.32761e-05
-7.48624e-05
4.33637e-05
-8.06559e-05
4.31713e-05
-8.63722e-05
4.27051e-05
-9.19788e-05
4.19701e-05
-9.74434e-05
4.09706e-05
-0.000102734
3.97102e-05
-0.00010782
3.81921e-05
-0.00011267
3.64196e-05
-0.000117252
3.43963e-05
-0.000121538
3.21265e-05
-0.000125497
2.96158e-05
-0.000129102
2.68711e-05
-0.000132324
2.39016e-05
-0.000135138
2.07183e-05
-0.000137519
1.73348e-05
-0.000139444
1.37676e-05
-0.000140894
1.00358e-05
-0.000141849
6.16183e-06
-0.000142294
2.1709e-06
-0.000142218
-1.90862e-06
-0.000141612
-6.04546e-06
-0.00014047
-1.02056e-05
-0.000138793
-1.43524e-05
-0.000136583
-1.84472e-05
-0.000133849
-2.24494e-05
-0.000130603
-2.63171e-05
-0.000126865
-3.00077e-05
-0.000122656
-3.34782e-05
-0.000118005
-3.66864e-05
-0.000112946
-3.95913e-05
-0.000107518
-4.21538e-05
-0.000101763
-4.43378e-05
-9.57296e-05
-4.61108e-05
-8.94699e-05
-4.74448e-05
-8.30395e-05
-4.83171e-05
-7.64969e-05
-4.8711e-05
-6.99029e-05
-4.86167e-05
-6.33195e-05
-4.80317e-05
-5.68094e-05
-4.69611e-05
-5.04344e-05
-4.54188e-05
-4.42549e-05
-4.34267e-05
-3.83287e-05
-4.10157e-05
-3.27095e-05
-3.82253e-05
-2.74465e-05
-3.51036e-05
-2.25829e-05
-3.17073e-05
-1.81553e-05
-2.81008e-05
-1.4193e-05
-2.43566e-05
-1.0717e-05
-2.05542e-05
-7.74e-06
-1.67803e-05
-5.26591e-06
-1.31276e-05
-3.29004e-06
-9.69507e-06
-1.79939e-06
-6.58728e-06
-7.73269e-07
-3.91342e-06
-1.8433e-07
-1.7867e-06
-3.28466e-07
-4.44271e-07
2.371e-06
-1.69183e-06
7.24275e-06
-3.66408e-06
1.21029e-05
-6.28818e-06
1.6844e-05
-9.49638e-06
2.13855e-05
-1.32255e-05
2.56648e-05
-1.74165e-05
2.96356e-05
-2.2014e-05
3.32657e-05
-2.6966e-05
3.65346e-05
-3.22233e-05
3.94313e-05
-3.77396e-05
4.1952e-05
-4.34707e-05
4.40987e-05
-4.93747e-05
4.58769e-05
-5.54112e-05
4.72949e-05
-6.15416e-05
4.83622e-05
-6.77288e-05
4.90886e-05
-7.39364e-05
4.94838e-05
-8.01294e-05
4.95567e-05
-8.62733e-05
4.93152e-05
-9.23341e-05
4.87659e-05
-9.82784e-05
4.79145e-05
-0.000104073
4.67656e-05
-0.000109686
4.53231e-05
-0.000115085
4.35906e-05
-0.000120237
4.15717e-05
-0.000125111
3.92705e-05
-0.000129676
3.66917e-05
-0.000133902
3.38415e-05
-0.000137759
3.07279e-05
-0.000141218
2.73607e-05
-0.000144252
2.37524e-05
-0.000146836
1.99182e-05
-0.000148944
1.58761e-05
-0.000150556
1.16476e-05
-0.000151651
7.25722e-06
-0.000152213
2.73315e-06
-0.000152229
-1.89325e-06
-0.000151687
-6.58726e-06
-0.000150582
-1.13111e-05
-0.00014891
-1.60241e-05
-0.000146674
-2.0683e-05
-0.000143881
-2.52426e-05
-0.000140542
-2.96559e-05
-0.000136675
-3.38751e-05
-0.000132301
-3.7852e-05
-0.000127449
-4.15386e-05
-0.000122151
-4.48886e-05
-0.000116448
-4.78573e-05
-0.000110382
-5.04033e-05
-0.000104004
-5.24891e-05
-9.73668e-05
-5.40821e-05
-9.05286e-05
-5.51553e-05
-8.35509e-05
-5.56886e-05
-7.64981e-05
-5.56695e-05
-6.94363e-05
-5.50935e-05
-6.24325e-05
-5.39649e-05
-5.55536e-05
-5.22977e-05
-4.88652e-05
-5.01151e-05
-4.24305e-05
-4.74504e-05
-3.6309e-05
-4.43468e-05
-3.05556e-05
-4.08571e-05
-2.52193e-05
-3.70436e-05
-2.03424e-05
-3.29777e-05
-1.59596e-05
-2.87394e-05
-1.20972e-05
-2.44166e-05
-8.77291e-06
-2.01046e-05
-5.99523e-06
-1.59052e-05
-3.76373e-06
-1.19266e-05
-2.06925e-06
-8.28176e-06
-8.94471e-07
-5.0882e-06
-2.14882e-07
-2.46629e-06
-5.43346e-07
-4.82109e-07
2.85311e-06
-1.83277e-06
8.59341e-06
-3.96346e-06
1.42336e-05
-6.79217e-06
1.96727e-05
-1.02428e-05
2.48361e-05
-1.42449e-05
2.96668e-05
-1.8733e-05
3.41236e-05
-2.36462e-05
3.81789e-05
-2.8928e-05
4.18164e-05
-3.45255e-05
4.50288e-05
-4.0389e-05
4.78156e-05
-4.64719e-05
5.01816e-05
-5.27302e-05
5.21352e-05
-5.91219e-05
5.36866e-05
-6.5607e-05
5.48473e-05
-7.21472e-05
5.56287e-05
-7.87053e-05
5.60419e-05
-8.52452e-05
5.60966e-05
-9.17317e-05
5.58017e-05
-9.81304e-05
5.51645e-05
-0.000104407
5.41911e-05
-0.000110528
5.28866e-05
-0.00011646
5.12552e-05
-0.00012217
4.93007e-05
-0.000127626
4.70271e-05
-0.000132794
4.44387e-05
-0.000137643
4.15409e-05
-0.000142142
3.83404e-05
-0.00014626
3.48458e-05
-0.000149967
3.10679e-05
-0.000153235
2.70204e-05
-0.000156037
2.27197e-05
-0.000158346
1.81858e-05
-0.000160141
1.34418e-05
-0.000161398
8.51491e-06
-0.000162101
3.43566e-06
-0.000162233
-1.76148e-06
-0.000161781
-7.03847e-06
-0.000160739
-1.23538e-05
-0.0001591
-1.76626e-05
-0.000156866
-2.29173e-05
-0.000154041
-2.80678e-05
-0.000150635
-3.3062e-05
-0.000146663
-3.78466e-05
-0.000142147
-4.23678e-05
-0.000137114
-4.65718e-05
-0.000131597
-5.04063e-05
-0.000125633
-5.38207e-05
-0.000119269
-5.67678e-05
-0.000112553
-5.92043e-05
-0.000105543
-6.10925e-05
-9.82976e-05
-6.24007e-05
-9.08817e-05
-6.31045e-05
-8.33632e-05
-6.3188e-05
-7.58124e-05
-6.26443e-05
-6.83012e-05
-6.14762e-05
-6.09016e-05
-5.96972e-05
-5.36851e-05
-5.73316e-05
-4.67209e-05
-5.44147e-05
-4.00747e-05
-5.09929e-05
-3.3808e-05
-4.71238e-05
-2.7976e-05
-4.28755e-05
-2.26276e-05
-3.83262e-05
-1.78033e-05
-3.35637e-05
-1.35355e-05
-2.86844e-05
-9.8471e-06
-2.37929e-05
-6.75181e-06
-1.90005e-05
-4.25362e-06
-1.44248e-05
-2.3473e-06
-1.01881e-05
-1.01876e-06
-6.41674e-06
-2.45991e-07
-3.23905e-06
-7.89336e-07
-5.18362e-07
3.37148e-06
-1.9679e-06
1.0043e-05
-4.25073e-06
1.65164e-05
-7.27614e-06
2.26981e-05
-1.09602e-05
2.85202e-05
-1.52253e-05
3.3932e-05
-2e-05
3.88983e-05
-2.52182e-05
4.33971e-05
-3.08188e-05
4.74171e-05
-3.67453e-05
5.09552e-05
-4.2945e-05
5.40153e-05
-4.93689e-05
5.66055e-05
-5.59707e-05
5.8737e-05
-6.27071e-05
6.0423e-05
-6.95367e-05
6.16769e-05
-7.64202e-05
6.25122e-05
-8.33196e-05
6.29412e-05
-9.01981e-05
6.29751e-05
-9.702e-05
6.26236e-05
-0.00010375
6.18946e-05
-0.000110354
6.07949e-05
-0.000116797
5.933e-05
-0.000123046
5.75042e-05
-0.000129068
5.53219e-05
-0.000134828
5.27871e-05
-0.000140293
4.99046e-05
-0.000145432
4.66799e-05
-0.000150212
4.31203e-05
-0.000154601
3.9235e-05
-0.000158569
3.50357e-05
-0.000162086
3.0537e-05
-0.000165123
2.57566e-05
-0.000167653
2.07159e-05
-0.000169651
1.54401e-05
-0.000171095
9.95828e-06
-0.000171962
4.30357e-06
-0.000172237
-1.48672e-06
-0.000171904
-7.37129e-06
-0.000170953
-1.3305e-05
-0.000169377
-1.92389e-05
-0.000167173
-2.5121e-05
-0.000164345
-3.08963e-05
-0.000160899
-3.65075e-05
-0.00015685
-4.18956e-05
-0.000152217
-4.70009e-05
-0.000147025
-5.17636e-05
-0.000141307
-5.61247e-05
-0.0001351
-6.00274e-05
-0.00012845
-6.3418e-05
-0.000121407
-6.62472e-05
-0.000114029
-6.84709e-05
-0.000106377
-7.00522e-05
-9.85198e-05
-7.09618e-05
-9.05284e-05
-7.11794e-05
-8.24775e-05
-7.06951e-05
-7.44441e-05
-6.95096e-05
-6.6506e-05
-6.76353e-05
-5.87407e-05
-6.50969e-05
-5.12241e-05
-6.19312e-05
-4.4029e-05
-5.8188e-05
-3.72238e-05
-5.39291e-05
-3.0871e-05
-4.92283e-05
-2.50262e-05
-4.41709e-05
-1.97372e-05
-3.88527e-05
-1.50424e-05
-3.33792e-05
-1.0971e-05
-2.78643e-05
-7.54196e-06
-2.24296e-05
-4.76412e-06
-1.72026e-05
-2.63625e-06
-1.2316e-05
-1.14749e-06
-7.9055e-06
-2.7805e-07
-4.10849e-06
-1.06739e-06
-5.52975e-07
3.92445e-06
-2.09697e-06
1.1587e-05
-4.52524e-06
1.89446e-05
-7.73889e-06
2.59118e-05
-1.16465e-05
3.24278e-05
-1.61639e-05
3.84494e-05
-2.12138e-05
4.39482e-05
-2.67251e-05
4.89084e-05
-3.26325e-05
5.33244e-05
-3.88759e-05
5.71986e-05
-4.53997e-05
6.05391e-05
-5.21524e-05
6.33582e-05
-5.90862e-05
6.56708e-05
-6.6156e-05
6.74928e-05
-7.33194e-05
6.88403e-05
-8.0536e-05
6.97288e-05
-8.77672e-05
7.01724e-05
-9.49756e-05
7.01836e-05
-0.000102125
6.97731e-05
-0.00010918