/*--------------------------------*- C++ -*----------------------------------*\
  =========                 |
  \\      /  F ield         | OpenFOAM: The Open Source CFD Toolbox
   \\    /   O peration     | Website:  https://openfoam.org
    \\  /    A nd           | Version:  dev
     \\/     M anipulation  |
\*---------------------------------------------------------------------------*/
FoamFile
{
    format      ascii;
    class       volVectorField;
    location    "45.9";
    object      U;
}
// * * * * * * * * * * * * * * * * * * * * * * * * * * * * * * * * * * * * * //

dimensions      [0 1 -1 0 0 0 0];

internalField   nonuniform List<vector> 
5184
(
(1.24264e-05 -1.26165e-05 0)
(4.5333e-05 -2.08385e-05 0)
(8.0447e-05 -1.72306e-05 0)
(9.60874e-05 -8.19093e-06 0)
(8.22537e-05 2.67141e-06 0)
(3.65489e-05 1.36207e-05 0)
(-4.04849e-05 2.38504e-05 0)
(-0.00014683 3.30558e-05 0)
(-0.000279691 4.11162e-05 0)
(-0.000436014 4.80371e-05 0)
(-0.000612674 5.38801e-05 0)
(-0.000806639 5.87299e-05 0)
(-0.00101504 6.26793e-05 0)
(-0.00123521 6.58193e-05 0)
(-0.00146468 6.82349e-05 0)
(-0.00170121 7.00014e-05 0)
(-0.00194271 7.11832e-05 0)
(-0.00218728 7.18326e-05 0)
(-0.00243312 7.19906e-05 0)
(-0.00267855 7.16867e-05 0)
(-0.00292197 7.09403e-05 0)
(-0.00316181 6.97619e-05 0)
(-0.00339654 6.81544e-05 0)
(-0.00362464 6.61147e-05 0)
(-0.00384459 6.36356e-05 0)
(-0.00405483 6.07074e-05 0)
(-0.00425382 5.73196e-05 0)
(-0.00443998 5.34625e-05 0)
(-0.00461173 4.91292e-05 0)
(-0.00476748 4.43165e-05 0)
(-0.00490569 3.9027e-05 0)
(-0.00502482 3.327e-05 0)
(-0.00512342 2.70625e-05 0)
(-0.0052001 2.04308e-05 0)
(-0.00525361 1.34104e-05 0)
(-0.00528283 6.04709e-06 0)
(-0.00528681 -1.60297e-06 0)
(-0.00526483 -9.47329e-06 0)
(-0.00521639 -1.74873e-05 0)
(-0.00514125 -2.55592e-05 0)
(-0.00503948 -3.35944e-05 0)
(-0.00491146 -4.14913e-05 0)
(-0.00475789 -4.91427e-05 0)
(-0.00457983 -5.64374e-05 0)
(-0.00437868 -6.32628e-05 0)
(-0.0041562 -6.9507e-05 0)
(-0.00391448 -7.50613e-05 0)
(-0.00365595 -7.98226e-05 0)
(-0.00338334 -8.36964e-05 0)
(-0.00309965 -8.65988e-05 0)
(-0.00280813 -8.84592e-05 0)
(-0.0025122 -8.92223e-05 0)
(-0.00221543 -8.88499e-05 0)
(-0.00192148 -8.73224e-05 0)
(-0.00163402 -8.46394e-05 0)
(-0.00135671 -8.08204e-05 0)
(-0.00109306 -7.59046e-05 0)
(-0.000846465 -6.99509e-05 0)
(-0.000620063 -6.3037e-05 0)
(-0.000416707 -5.5259e-05 0)
(-0.000238895 -4.67311e-05 0)
(-8.87056e-05 -3.75863e-05 0)
(3.22729e-05 -2.79795e-05 0)
(0.000123027 -1.80931e-05 0)
(0.000183226 -8.1524e-06 0)
(0.000213373 1.54771e-06 0)
(0.000215055 1.05821e-05 0)
(0.000191327 1.83132e-05 0)
(0.00014722 2.3728e-05 0)
(9.08341e-05 2.51347e-05 0)
(3.66415e-05 1.98495e-05 0)
(6.22898e-06 6.24216e-06 0)
(2.0916e-05 -4.57576e-05 0)
(6.57763e-05 -6.56353e-05 0)
(9.48873e-05 -4.05304e-05 0)
(7.2983e-05 7.64794e-06 0)
(-1.87722e-05 6.56964e-05 0)
(-0.0001872 0.000126022 0)
(-0.000432887 0.00018434 0)
(-0.000752618 0.000238405 0)
(-0.00114085 0.000287071 0)
(-0.00159079 0.000329896 0)
(-0.0020951 0.00036684 0)
(-0.00264632 0.000398093 0)
(-0.00323715 0.000423966 0)
(-0.00386059 0.000444826 0)
(-0.00451002 0.000461051 0)
(-0.00517926 0.000472999 0)
(-0.0058625 0.000480993 0)
(-0.00655429 0.000485308 0)
(-0.0072495 0.000486168 0)
(-0.00794324 0.000483745 0)
(-0.0086308 0.000478159 0)
(-0.00930764 0.000469488 0)
(-0.00996928 0.00045777 0)
(-0.0106113 0.000443013 0)
(-0.0112293 0.000425206 0)
(-0.0118188 0.000404326 0)
(-0.0123755 0.000380348 0)
(-0.0128949 0.000353256 0)
(-0.0133726 0.000323049 0)
(-0.0138043 0.000289754 0)
(-0.0141858 0.000253433 0)
(-0.014513 0.000214188 0)
(-0.0147819 0.000172169 0)
(-0.0149889 0.000127578 0)
(-0.0151308 8.06766e-05 0)
(-0.0152046 3.17829e-05 0)
(-0.0152081 -1.87238e-05 0)
(-0.0151395 -7.0405e-05 0)
(-0.0149977 -0.000122765 0)
(-0.0147822 -0.000175257 0)
(-0.0144934 -0.000227287 0)
(-0.0141326 -0.00027822 0)
(-0.013702 -0.000327397 0)
(-0.0132044 -0.000374137 0)
(-0.012644 -0.000417757 0)
(-0.0120255 -0.00045758 0)
(-0.0113548 -0.000492954 0)
(-0.0106384 -0.000523264 0)
(-0.00988366 -0.000547949 0)
(-0.0090988 -0.000566514 0)
(-0.00829246 -0.000578547 0)
(-0.00747385 -0.000583727 0)
(-0.00665248 -0.000581839 0)
(-0.00583811 -0.000572781 0)
(-0.00504052 -0.000556567 0)
(-0.00426939 -0.000533338 0)
(-0.00353409 -0.000503357 0)
(-0.00284355 -0.000467013 0)
(-0.00220605 -0.000424823 0)
(-0.00162908 -0.000377426 0)
(-0.0011191 -0.000325592 0)
(-0.000681432 -0.000270225 0)
(-0.000319969 -0.000212389 0)
(-3.70023e-05 -0.000153334 0)
(0.000167105 -9.45724e-05 0)
(0.000294275 -3.79823e-05 0)
(0.00034926 1.39729e-05 0)
(0.000340337 5.79873e-05 0)
(0.000280008 8.94668e-05 0)
(0.000186138 0.000101912 0)
(8.64109e-05 8.65525e-05 0)
(1.96918e-05 3.64974e-05 0)
(1.76744e-05 -8.12765e-05 0)
(4.1435e-05 -9.5014e-05 0)
(1.97413e-05 -1.91235e-05 0)
(-8.38591e-05 0.000105955 0)
(-0.000290153 0.000254709 0)
(-0.000607888 0.000410687 0)
(-0.00103833 0.000563571 0)
(-0.00157766 0.000707219 0)
(-0.00221872 0.00083818 0)
(-0.00295231 0.000954744 0)
(-0.00376815 0.00105632 0)
(-0.00465554 0.00114299 0)
(-0.00560373 0.00121528 0)
(-0.00660227 0.0012739 0)
(-0.00764111 0.0013197 0)
(-0.00871066 0.00135348 0)
(-0.00980186 0.00137601 0)
(-0.0109061 0.00138797 0)
(-0.0120151 0.00138993 0)
(-0.0131211 0.00138233 0)
(-0.0142166 0.00136549 0)
(-0.015294 0.00133964 0)
(-0.0163462 0.00130491 0)
(-0.017366 0.00126135 0)
(-0.0183464 0.00120899 0)
(-0.0192803 0.00114781 0)
(-0.0201607 0.00107779 0)
(-0.0209806 0.000998964 0)
(-0.0217332 0.000911384 0)
(-0.0224116 0.000815191 0)
(-0.0230093 0.000710619 0)
(-0.02352 0.000598011 0)
(-0.0239377 0.000477842 0)
(-0.0242571 0.000350726 0)
(-0.0244731 0.000217431 0)
(-0.0245816 7.888e-05 0)
(-0.0245792 -6.38463e-05 0)
(-0.0244634 -0.000209511 0)
(-0.0242326 -0.000356732 0)
(-0.0238865 -0.000503988 0)
(-0.023426 -0.000649645 0)
(-0.0228532 -0.000791968 0)
(-0.0221716 -0.000929155 0)
(-0.021386 -0.00105936 0)
(-0.0205027 -0.00118074 0)
(-0.0195293 -0.00129146 0)
(-0.0184747 -0.00138977 0)
(-0.0173492 -0.00147404 0)
(-0.0161642 -0.00154275 0)
(-0.014932 -0.00159459 0)
(-0.0136661 -0.00162846 0)
(-0.0123804 -0.00164353 0)
(-0.0110895 -0.00163922 0)
(-0.00980824 -0.00161529 0)
(-0.00855152 -0.00157181 0)
(-0.00733405 -0.00150917 0)
(-0.00617007 -0.00142812 0)
(-0.00507312 -0.00132977 0)
(-0.00405575 -0.00121557 0)
(-0.00312924 -0.00108731 0)
(-0.00230332 -0.000947179 0)
(-0.00158589 -0.000797744 0)
(-0.000982678 -0.000642012 0)
(-0.000496921 -0.000483518 0)
(-0.000128926 -0.000326463 0)
(0.00012438 -0.000175936 0)
(0.000270096 -3.8257e-05 0)
(0.00032008 7.85559e-05 0)
(0.000291475 0.000164203 0)
(0.000207521 0.000205515 0)
(0.000102507 0.000186374 0)
(2.4991e-05 9.04296e-05 0)
(8.86112e-06 -9.77675e-05 0)
(-6.94737e-06 -7.3174e-05 0)
(-0.000107498 8.47849e-05 0)
(-0.000322306 0.000318419 0)
(-0.000669621 0.000590225 0)
(-0.00115785 0.000874569 0)
(-0.00178774 0.00115441 0)
(-0.00255453 0.00141897 0)
(-0.00344966 0.00166175 0)
(-0.00446211 0.00187923 0)
(-0.00557939 0.00206985 0)
(-0.00678829 0.00223335 0)
(-0.0080754 0.00237029 0)
(-0.00942745 0.00248172 0)
(-0.0108315 0.0025689 0)
(-0.0122752 0.00263316 0)
(-0.0137466 0.0026758 0)
(-0.0152343 0.00269795 0)
(-0.0167273 0.00270059 0)
(-0.0182151 0.00268453 0)
(-0.0196875 0.00265035 0)
(-0.0211344 0.00259849 0)
(-0.0225462 0.00252921 0)
(-0.0239132 0.00244267 0)
(-0.0252258 0.00233895 0)
(-0.0264746 0.0022181 0)
(-0.0276501 0.00208016 0)
(-0.0287432 0.00192526 0)
(-0.0297447 0.00175359 0)
(-0.0306458 0.00156551 0)
(-0.0314377 0.00136154 0)
(-0.0321124 0.00114242 0)
(-0.0326623 0.000909124 0)
(-0.0330802 0.00066289 0)
(-0.03336 0.000405234 0)
(-0.0334965 0.000137958 0)
(-0.0334853 -0.000136847 0)
(-0.0333234 -0.00041681 0)
(-0.0330092 -0.000699294 0)
(-0.0325426 -0.000981421 0)
(-0.0319247 -0.0012601 0)
(-0.0311587 -0.00153208 0)
(-0.0302493 -0.00179397 0)
(-0.029203 -0.00204234 0)
(-0.028028 -0.00227373 0)
(-0.0267344 -0.00248476 0)
(-0.025334 -0.00267218 0)
(-0.0238399 -0.00283294 0)
(-0.0222672 -0.00296426 0)
(-0.0206317 -0.00306371 0)
(-0.0189509 -0.00312928 0)
(-0.0172429 -0.00315943 0)
(-0.0155264 -0.00315312 0)
(-0.0138206 -0.00310992 0)
(-0.0121448 -0.00302996 0)
(-0.0105178 -0.00291405 0)
(-0.00895804 -0.00276361 0)
(-0.00748298 -0.00258074 0)
(-0.00610875 -0.00236821 0)
(-0.00484984 -0.00212946 0)
(-0.00371875 -0.00186865 0)
(-0.0027256 -0.00159068 0)
(-0.0018777 -0.00130127 0)
(-0.00117919 -0.00100709 0)
(-0.000630532 -0.000715958 0)
(-0.00022802 -0.00043716 0)
(3.683e-05 -0.000181839 0)
(0.000177924 3.63918e-05 0)
(0.000214999 0.000200809 0)
(0.000174232 0.000291017 0)
(9.30885e-05 0.000282713 0)
(2.40411e-05 0.000147351 0)
(-2.11374e-06 -8.44562e-05 0)
(-6.72651e-05 2.08538e-05 0)
(-0.000264098 0.000295475 0)
(-0.000609823 0.000668157 0)
(-0.00111695 0.00109108 0)
(-0.00179168 0.00153031 0)
(-0.00263303 0.00196241 0)
(-0.00363463 0.0023719 0)
(-0.00478634 0.00274903 0)
(-0.00607544 0.00308819 0)
(-0.00748758 0.00338658 0)
(-0.0090075 0.00364339 0)
(-0.0106196 0.00385908 0)
(-0.0123083 0.00403488 0)
(-0.0140584 0.00417247 0)
(-0.0158549 0.00427366 0)
(-0.0176835 0.00434025 0)
(-0.0195304 0.00437387 0)
(-0.0213823 0.00437596 0)
(-0.023226 0.00434769 0)
(-0.0250491 0.00428996 0)
(-0.0268392 0.00420345 0)
(-0.0285843 0.00408859 0)
(-0.0302723 0.0039457 0)
(-0.0318916 0.00377496 0)
(-0.0334304 0.00357653 0)
(-0.0348773 0.00335059 0)
(-0.036221 0.00309742 0)
(-0.0374503 0.00281747 0)
(-0.0385546 0.0025114 0)
(-0.0395234 0.00218015 0)
(-0.0403469 0.001825 0)
(-0.0410161 0.0014476 0)
(-0.0415227 0.00105 0)
(-0.0418593 0.000634693 0)
(-0.0420198 0.000204588 0)
(-0.0419993 -0.000236947 0)
(-0.0417944 -0.000686124 0)
(-0.0414035 -0.00113875 0)
(-0.0408264 -0.00159027 0)
(-0.040065 -0.00203581 0)
(-0.0391232 -0.00247025 0)
(-0.0380068 -0.0028883 0)
(-0.0367239 -0.00328456 0)
(-0.0352843 -0.00365367 0)
(-0.0337004 -0.00399034 0)
(-0.0319861 -0.00428951 0)
(-0.0301574 -0.00454644 0)
(-0.0282321 -0.00475682 0)
(-0.0262294 -0.0049169 0)
(-0.02417 -0.00502354 0)
(-0.0220755 -0.00507436 0)
(-0.0199683 -0.00506778 0)
(-0.0178713 -0.00500313 0)
(-0.0158074 -0.00488067 0)
(-0.0137991 -0.00470165 0)
(-0.0118684 -0.00446836 0)
(-0.0100361 -0.00418411 0)
(-0.00832149 -0.0038533 0)
(-0.00674187 -0.00348137 0)
(-0.0053122 -0.00307492 0)
(-0.00404461 -0.00264168 0)
(-0.00294797 -0.00219065 0)
(-0.00202742 -0.00173225 0)
(-0.00128389 -0.00127853 0)
(-0.000713628 -0.000843549 0)
(-0.00030762 -0.000443798 0)
(-5.10891e-05 -9.88448e-05 0)
(7.68532e-05 0.000167965 0)
(0.000103723 0.000328893 0)
(6.75637e-05 0.000351197 0)
(1.96776e-05 0.000194235 0)
(-1.36917e-05 -3.75776e-05 0)
(-0.000132842 0.000197347 0)
(-0.000435893 0.000626998 0)
(-0.000924827 0.0011706 0)
(-0.00160429 0.00177218 0)
(-0.00247683 0.00239087 0)
(-0.00353862 0.00299758 0)
(-0.00478095 0.00357252 0)
(-0.00619173 0.00410283 0)
(-0.00775643 0.00458073 0)
(-0.00945891 0.00500216 0)
(-0.0112821 0.00536561 0)
(-0.0132085 0.00567133 0)
(-0.0152206 0.00592069 0)
(-0.0173011 0.00611566 0)
(-0.0194331 0.00625852 0)
(-0.0216001 0.00635154 0)
(-0.0237861 0.00639685 0)
(-0.0259757 0.00639633 0)
(-0.0281537 0.00635155 0)
(-0.0303054 0.00626373 0)
(-0.0324165 0.00613381 0)
(-0.0344727 0.00596246 0)
(-0.03646 0.00575014 0)
(-0.0383647 0.00549723 0)
(-0.0401731 0.00520403 0)
(-0.0418719 0.00487092 0)
(-0.0434478 0.00449844 0)
(-0.0448881 0.00408734 0)
(-0.0461804 0.00363873 0)
(-0.0473127 0.00315408 0)
(-0.0482738 0.00263537 0)
(-0.0490534 0.00208506 0)
(-0.0496421 0.00150622 0)
(-0.0500316 0.000902478 0)
(-0.050215 0.000278104 0)
(-0.0501869 -0.000362039 0)
(-0.0499438 -0.00101249 0)
(-0.0494837 -0.00166725 0)
(-0.0488068 -0.0023198 0)
(-0.0479155 -0.00296322 0)
(-0.0468143 -0.00359022 0)
(-0.04551 -0.00419331 0)
(-0.0440119 -0.00476487 0)
(-0.0423314 -0.0052973 0)
(-0.0404826 -0.00578315 0)
(-0.0384815 -0.0062153 0)
(-0.0363464 -0.00658706 0)
(-0.0340976 -0.00689239 0)
(-0.0317569 -0.00712596 0)
(-0.029348 -0.0072834 0)
(-0.0268954 -0.00736134 0)
(-0.0244247 -0.00735757 0)
(-0.0219619 -0.00727114 0)
(-0.0195333 -0.00710243 0)
(-0.0171646 -0.00685324 0)
(-0.0148808 -0.0065268 0)
(-0.0127059 -0.00612785 0)
(-0.0106618 -0.00566262 0)
(-0.00876853 -0.00513889 0)
(-0.00704334 -0.00456602 0)
(-0.00550032 -0.00395498 0)
(-0.00414995 -0.0033185 0)
(-0.00299858 -0.00267116 0)
(-0.00204799 -0.0020297 0)
(-0.00129491 -0.00141333 0)
(-0.000730534 -0.000844185 0)
(-0.000340141 -0.000347962 0)
(-0.000102757 4.53535e-05 0)
(9.26631e-06 0.000300812 0)
(3.25473e-05 0.000377593 0)
(1.36313e-05 0.000224642 0)
(-2.51888e-05 4.40619e-05 0)
(-0.000200053 0.000461315 0)
(-0.000614226 0.00108728 0)
(-0.00125323 0.00183516 0)
(-0.00211261 0.00264308 0)
(-0.00319021 0.00346476 0)
(-0.00447846 0.00426655 0)
(-0.00596564 0.005025 0)
(-0.00763724 0.00572448 0)
(-0.00947672 0.00635531 0)
(-0.0114661 0.00691215 0)
(-0.0135865 0.00739285 0)
(-0.0158187 0.00779742 0)
(-0.0181435 0.00812729 0)
(-0.0205419 0.00838472 0)
(-0.022995 0.00857238 0)
(-0.0254847 0.00869301 0)
(-0.0279931 0.0087492 0)
(-0.0305029 0.00874328 0)
(-0.032997 0.00867718 0)
(-0.035459 0.00855249 0)
(-0.0378725 0.0083704 0)
(-0.0402214 0.00813184 0)
(-0.04249 0.00783747 0)
(-0.0446628 0.00748786 0)
(-0.0467242 0.00708354 0)
(-0.0486593 0.00662515 0)
(-0.0504532 0.00611355 0)
(-0.0520915 0.00554992 0)
(-0.0535605 0.00493586 0)
(-0.0548467 0.00427354 0)
(-0.0559378 0.00356572 0)
(-0.0568222 0.00281587 0)
(-0.0574897 0.00202819 0)
(-0.057931 0.00120767 0)
(-0.0581388 0.000360088 0)
(-0.0581071 -0.000507976 0)
(-0.057832 -0.00138919 0)
(-0.0573116 -0.0022755 0)
(-0.0565461 -0.00315822 0)
(-0.0555384 -0.00402812 0)
(-0.0542933 -0.00487551 0)
(-0.0528188 -0.00569046 0)
(-0.0511248 -0.00646285 0)
(-0.0492244 -0.00718263 0)
(-0.0471328 -0.00783995 0)
(-0.0448679 -0.00842537 0)
(-0.04245 -0.00893007 0)
(-0.0399013 -0.00934602 0)
(-0.0372462 -0.0096662 0)
(-0.0345106 -0.00988481 0)
(-0.0317219 -0.00999736 0)
(-0.0289084 -0.0100009 0)
(-0.0260989 -0.00989423 0)
(-0.0233225 -0.00967776 0)
(-0.0206079 -0.00935387 0)
(-0.0179831 -0.00892683 0)
(-0.0154747 -0.00840293 0)
(-0.0131074 -0.00779042 0)
(-0.0109036 -0.00709963 0)
(-0.00888296 -0.00634295 0)
(-0.00706151 -0.00553491 0)
(-0.00545151 -0.00469225 0)
(-0.00406082 -0.00383407 0)
(-0.00289242 -0.00298209 0)
(-0.00194403 -0.0021609 0)
(-0.00120769 -0.00139844 0)
(-0.000669461 -0.000726586 0)
(-0.000309105 -0.000181829 0)
(-9.97777e-05 0.000194009 0)
(-7.67494e-06 0.000352794 0)
(6.86922e-06 0.000235137 0)
(-3.63483e-05 0.000160458 0)
(-0.000267012 0.000814632 0)
(-0.000793973 0.00168011 0)
(-0.0015861 0.00266686 0)
(-0.00262923 0.00370915 0)
(-0.0039158 0.00475692 0)
(-0.00543385 0.00577311 0)
(-0.00716808 0.00673142 0)
(-0.00910116 0.00761404 0)
(-0.0112142 0.0084097 0)
(-0.0134873 0.00911206 0)
(-0.0158997 0.00971839 0)
(-0.0184307 0.0102285 0)
(-0.0210594 0.010644 0)
(-0.0237651 0.0109673 0)
(-0.0265276 0.0112014 0)
(-0.0293269 0.0113497 0)
(-0.0321438 0.0114151 0)
(-0.0349591 0.0114003 0)
(-0.0377543 0.0113077 0)
(-0.0405112 0.0111392 0)
(-0.0432118 0.0108963 0)
(-0.0458385 0.0105801 0)
(-0.0483739 0.0101916 0)
(-0.0508007 0.00973149 0)
(-0.0531021 0.00920065 0)
(-0.0552615 0.0086 0)
(-0.0572625 0.00793081 0)
(-0.0590895 0.00719473 0)
(-0.0607272 0.006394 0)
(-0.0621612 0.00553154 0)
(-0.0633779 0.00461104 0)
(-0.0643648 0.00363708 0)
(-0.0651106 0.00261515 0)
(-0.0656056 0.00155174 0)
(-0.0658415 0.000454301 0)
(-0.065812 -0.000668711 0)
(-0.0655129 -0.0018079 0)
(-0.0649421 -0.00295299 0)
(-0.0641 -0.00409292 0)
(-0.0629894 -0.00521593 0)
(-0.0616159 -0.00630976 0)
(-0.0599877 -0.00736179 0)
(-0.0581158 -0.00835923 0)
(-0.056014 -0.00928933 0)
(-0.0536991 -0.0101396 0)
(-0.0511901 -0.0108982 0)
(-0.048509 -0.0115538 0)
(-0.04568 -0.0120963 0)
(-0.0427292 -0.0125168 0)
(-0.0396849 -0.0128078 0)
(-0.0365768 -0.0129637 0)
(-0.0334356 -0.0129807 0)
(-0.0302928 -0.0128571 0)
(-0.0271802 -0.0125935 0)
(-0.0241292 -0.0121927 0)
(-0.0211703 -0.0116602 0)
(-0.0183331 -0.0110037 0)
(-0.0156447 -0.0102338 0)
(-0.0131302 -0.0093634 0)
(-0.0108114 -0.0084082 0)
(-0.00870668 -0.00738646 0)
(-0.00683024 -0.00631918 0)
(-0.00519172 -0.00523021 0)
(-0.00379569 -0.00414642 0)
(-0.00264132 -0.00309796 0)
(-0.00172201 -0.00211865 0)
(-0.0010252 -0.00124646 0)
(-0.000532041 -0.000524212 0)
(-0.000217164 -1.29287e-07 0)
(-5.04334e-05 0.000271228 0)
(-7.7401e-08 0.000224012 0)
(-4.70737e-05 0.000310973 0)
(-0.000332737 0.00125721 0)
(-0.000972135 0.00240646 0)
(-0.0019178 0.00366756 0)
(-0.00314572 0.00497274 0)
(-0.00464253 0.00626961 0)
(-0.00639141 0.0075189 0)
(-0.00837307 0.00869239 0)
(-0.010567 0.00977073 0)
(-0.0129518 0.0107416 0)
(-0.0155052 0.0115978 0)
(-0.018205 0.0123364 0)
(-0.0210285 0.0129572 0)
(-0.0239533 0.0134618 0)
(-0.0269575 0.013853 0)
(-0.0300192 0.0141343 0)
(-0.0331172 0.0143093 0)
(-0.0362308 0.0143815 0)
(-0.0393395 0.0143539 0)
(-0.0424232 0.0142294 0)
(-0.0454624 0.0140101 0)
(-0.0484378 0.0136978 0)
(-0.0513301 0.013294 0)
(-0.0541205 0.0127998 0)
(-0.0567906 0.0122162 0)
(-0.059322 0.0115444 0)
(-0.0616967 0.0107857 0)
(-0.0638973 0.00994171 0)
(-0.0659067 0.00901476 0)
(-0.0677085 0.00800773 0)
(-0.0692872 0.00692439 0)
(-0.0706282 0.00576946 0)
(-0.071718 0.00454873 0)
(-0.0725445 0.00326909 0)
(-0.0730971 0.00193864 0)
(-0.0733672 0.000566651 0)
(-0.0733478 -0.00083641 0)
(-0.0730343 -0.00225894 0)
(-0.0724243 -0.00368829 0)
(-0.0715182 -0.00511083 0)
(-0.0703189 -0.00651216 0)
(-0.0688319 -0.00787723 0)
(-0.0670661 -0.00919056 0)
(-0.065033 -0.0104365 0)
(-0.0627471 -0.0115993 0)
(-0.060226 -0.0126639 0)
(-0.0574902 -0.0136155 0)
(-0.0545626 -0.0144403 0)
(-0.0514691 -0.015126 0)
(-0.0482377 -0.0156614 0)
(-0.0448986 -0.0160374 0)
(-0.0414834 -0.0162468 0)
(-0.0380252 -0.0162851 0)
(-0.0345581 -0.0161498 0)
(-0.0311161 -0.0158416 0)
(-0.0277335 -0.0153639 0)
(-0.0244435 -0.0147231 0)
(-0.0212781 -0.0139287 0)
(-0.0182674 -0.0129934 0)
(-0.0154389 -0.011933 0)
(-0.012817 -0.0107665 0)
(-0.0104225 -0.00951609 0)
(-0.00827178 -0.00820721 0)
(-0.00637661 -0.0068686 0)
(-0.00474356 -0.00553242 0)
(-0.00337366 -0.00423448 0)
(-0.00226212 -0.00301448 0)
(-0.00139822 -0.00191644 0)
(-0.00076499 -0.000989265 0)
(-0.000338986 -0.000287129 0)
(-9.4168e-05 0.000129782 0)
(-6.93841e-06 0.000190617 0)
(-5.73534e-05 0.000494705 0)
(-0.000396745 0.0017878 0)
(-0.00114697 0.00326544 0)
(-0.00224482 0.00483689 0)
(-0.00365652 0.00643381 0)
(-0.00536274 0.00800286 0)
(-0.00734155 0.00950368 0)
(-0.00956937 0.010907 0)
(-0.0120222 0.0121928 0)
(-0.014676 0.013348 0)
(-0.0175061 0.0143654 0)
(-0.0204883 0.0152417 0)
(-0.0235984 0.0159769 0)
(-0.0268125 0.016573 0)
(-0.0301072 0.0170332 0)
(-0.0334595 0.0173613 0)
(-0.0368468 0.0175614 0)
(-0.0402471 0.0176374 0)
(-0.0436389 0.0175928 0)
(-0.0470008 0.0174308 0)
(-0.050312 0.0171538 0)
(-0.053552 0.016764 0)
(-0.0567002 0.016263 0)
(-0.0597368 0.0156522 0)
(-0.0626419 0.014933 0)
(-0.0653961 0.0141069 0)
(-0.0679801 0.0131754 0)
(-0.0703754 0.0121409 0)
(-0.0725638 0.011006 0)
(-0.0745278 0.00977464 0)
(-0.0762509 0.00845134 0)
(-0.0777175 0.00704194 0)
(-0.0789132 0.00555352 0)
(-0.0798252 0.00399448 0)
(-0.0804421 0.0023746 0)
(-0.0807544 0.000705077 0)
(-0.0807547 -0.0010015 0)
(-0.0804379 -0.00273122 0)
(-0.0798013 -0.00446891 0)
(-0.0788448 -0.00619829 0)
(-0.0775712 -0.00790211 0)
(-0.0759863 -0.00956241 0)
(-0.0740987 -0.0111607 0)
(-0.0719204 -0.0126782 0)
(-0.0694664 -0.0140963 0)
(-0.066755 -0.0153966 0)
(-0.0638073 -0.0165617 0)
(-0.0606477 -0.0175749 0)
(-0.0573031 -0.0184212 0)
(-0.0538032 -0.0190874 0)
(-0.0501796 -0.0195623 0)
(-0.0464662 -0.0198372 0)
(-0.0426982 -0.0199062 0)
(-0.0389118 -0.0197664 0)
(-0.0351437 -0.0194182 0)
(-0.0314307 -0.0188655 0)
(-0.0278088 -0.0181157 0)
(-0.0243127 -0.0171799 0)
(-0.0209753 -0.0160731 0)
(-0.017827 -0.0148138 0)
(-0.0148949 -0.0134246 0)
(-0.0122023 -0.0119317 0)
(-0.00976832 -0.010365 0)
(-0.00760715 -0.00875838 0)
(-0.00572769 -0.0071493 0)
(-0.00413321 -0.00557931 0)
(-0.00282116 -0.00409403 0)
(-0.00178304 -0.00274346 0)
(-0.00100408 -0.00158237 0)
(-0.000463027 -0.000670537 0)
(-0.000138061 -7.31602e-05 0)
(-1.35982e-05 0.000134867 0)
(-6.7205e-05 0.00071062 0)
(-0.00045881 0.00240452 0)
(-0.00131748 0.00425497 0)
(-0.00256493 0.00617288 0)
(-0.0041579 0.00809058 0)
(-0.00607109 0.00995493 0)
(-0.00827733 0.0117255 0)
(-0.0107486 0.0133731 0)
(-0.0134573 0.0148774 0)
(-0.0163763 0.0162255 0)
(-0.0194789 0.0174102 0)
(-0.0227385 0.0184288 0)
(-0.0261294 0.0192815 0)
(-0.0296262 0.0199706 0)
(-0.0332041 0.0205 0)
(-0.0368391 0.0208739 0)
(-0.0405075 0.021097 0)
(-0.044186 0.0211736 0)
(-0.0478522 0.0211077 0)
(-0.0514836 0.0209026 0)
(-0.0550584 0.0205613 0)
(-0.0585548 0.0200861 0)
(-0.0619515 0.0194789 0)
(-0.0652274 0.0187415 0)
(-0.0683617 0.0178755 0)
(-0.0713338 0.0168827 0)
(-0.0741235 0.0157651 0)
(-0.0767111 0.0145254 0)
(-0.0790775 0.0131672 0)
(-0.0812043 0.011695 0)
(-0.0830739 0.0101142 0)
(-0.0846699 0.00843194 0)
(-0.085977 0.00665659 0)
(-0.0869815 0.00479808 0)
(-0.0876711 0.00286797 0)
(-0.0880358 0.000879435 0)
(-0.0880673 -0.00115274 0)
(-0.0877599 -0.00321222 0)
(-0.0871104 -0.00528126 0)
(-0.0861182 -0.00734077 0)
(-0.0847857 -0.0093706 0)
(-0.0831184 -0.0113497 0)
(-0.081125 -0.0132564 0)
(-0.0788174 -0.0150687 0)
(-0.0762108 -0.0167647 0)
(-0.0733238 -0.018323 0)
(-0.0701783 -0.0197228 0)
(-0.0667993 -0.0209446 0)
(-0.063215 -0.0219706 0)
(-0.0594563 -0.022785 0)
(-0.0555564 -0.0233744 0)
(-0.0515509 -0.0237283 0)
(-0.0474771 -0.0238396 0)
(-0.0433736 -0.0237044 0)
(-0.0392795 -0.0233228 0)
(-0.0352342 -0.0226989 0)
(-0.0312766 -0.0218412 0)
(-0.0274444 -0.0207622 0)
(-0.0237734 -0.0194792 0)
(-0.020297 -0.0180135 0)
(-0.0170454 -0.0163912 0)
(-0.0140449 -0.0146426 0)
(-0.0113174 -0.0128023 0)
(-0.00888007 -0.0109092 0)
(-0.00674439 -0.00900627 0)
(-0.00491632 -0.0071409 0)
(-0.00339584 -0.00536463 0)
(-0.00217699 -0.00373339 0)
(-0.00124744 -0.00230774 0)
(-0.000588273 -0.0011528 0)
(-0.000181786 -0.000338439 0)
(-2.00303e-05 5.69318e-05 0)
(-7.66526e-05 0.000957639 0)
(-0.000518828 0.00310504 0)
(-0.00148306 0.00537216 0)
(-0.00287669 0.00767243 0)
(-0.00464732 0.00993988 0)
(-0.00676377 0.0121226 0)
(-0.00919363 0.0141812 0)
(-0.0119044 0.016087 0)
(-0.0148647 0.0178206 0)
(-0.0180445 0.0193696 0)
(-0.0214143 0.0207275 0)
(-0.0249459 0.0218922 0)
(-0.0286116 0.0228646 0)
(-0.0323846 0.0236478 0)
(-0.0362391 0.0242462 0)
(-0.0401496 0.0246646 0)
(-0.0440915 0.0249083 0)
(-0.0480407 0.0249821 0)
(-0.0519738 0.0248904 0)
(-0.0558673 0.024637 0)
(-0.0596986 0.024225 0)
(-0.0634451 0.0236572 0)
(-0.0670846 0.0229357 0)
(-0.0705949 0.0220624 0)
(-0.0739543 0.0210394 0)
(-0.0771415 0.0198687 0)
(-0.0801352 0.0185528 0)
(-0.082915 0.017095 0)
(-0.0854607 0.0154994 0)
(-0.087753 0.0137712 0)
(-0.0897735 0.0119171 0)
(-0.0915048 0.00994518 0)
(-0.0929308 0.00786521 0)
(-0.0940367 0.00568871 0)
(-0.0948097 0.00342904 0)
(-0.0952385 0.00110139 0)
(-0.0953144 -0.00127722 0)
(-0.0950306 -0.003688 0)
(-0.0943833 -0.00611051 0)
(-0.0933711 -0.00852282 0)
(-0.091996 -0.0109017 0)
(-0.0902628 -0.013223 0)
(-0.0881799 -0.0154617 0)
(-0.0857588 -0.0175924 0)
(-0.0830149 -0.0195898 0)
(-0.0799667 -0.0214291 0)
(-0.0766365 -0.0230861 0)
(-0.07305 -0.0245381 0)
(-0.0692361 -0.0257643 0)
(-0.0652267 -0.0267461 0)
(-0.0610566 -0.0274677 0)
(-0.0567632 -0.0279165 0)
(-0.0523856 -0.0280836 0)
(-0.0479647 -0.0279641 0)
(-0.0435423 -0.0275577 0)
(-0.0391604 -0.0268685 0)
(-0.0348609 -0.0259056 0)
(-0.0306847 -0.0246832 0)
(-0.0266708 -0.0232205 0)
(-0.0228559 -0.0215419 0)
(-0.0192737 -0.0196768 0)
(-0.0159536 -0.0176597 0)
(-0.0129211 -0.0155298 0)
(-0.0101962 -0.0133314 0)
(-0.00779378 -0.011113 0)
(-0.00572261 -0.00892777 0)
(-0.00398558 -0.00683338 0)
(-0.00257953 -0.00489172 0)
(-0.00149472 -0.00316909 0)
(-0.000714567 -0.00173592 0)
(-0.000225343 -0.000666619 0)
(-2.62611e-05 -4.29724e-05 0)
(-8.57177e-05 0.00123467 0)
(-0.000576747 0.00388684 0)
(-0.00164333 0.00661359 0)
(-0.00317911 0.00933163 0)
(-0.00512294 0.0119776 0)
(-0.00743793 0.0145016 0)
(-0.0100865 0.0168661 0)
(-0.0130317 0.0190441 0)
(-0.0162384 0.0210175 0)
(-0.0196734 0.0227751 0)
(-0.0233049 0.0243117 0)
(-0.0271024 0.0256261 0)
(-0.0310366 0.0267202 0)
(-0.0350794 0.0275981 0)
(-0.0392035 0.0282649 0)
(-0.0433826 0.0287264 0)
(-0.0475912 0.0289882 0)
(-0.0518043 0.0290559 0)
(-0.0559976 0.0289343 0)
(-0.060147 0.0286275 0)
(-0.0642291 0.0281391 0)
(-0.0682205 0.027472 0)
(-0.0720982 0.0266287 0)
(-0.0758394 0.0256113 0)
(-0.0794217 0.0244222 0)
(-0.0828228 0.0230636 0)
(-0.0860207 0.0215387 0)
(-0.0889942 0.019851 0)
(-0.0917222 0.0180054 0)
(-0.0941847 0.0160079 0)
(-0.0963623 0.0138662 0)
(-0.0982367 0.0115893 0)
(-0.0997908 0.00918863 0)
(-0.101009 0.00667711 0)
(-0.101878 0.00406992 0)
(-0.102384 0.00138429 0)
(-0.102519 -0.0013605 0)
(-0.102275 -0.00414318 0)
(-0.101646 -0.00694059 0)
(-0.100631 -0.00972789 0)
(-0.0992303 -0.0124788 0)
(-0.0974485 -0.0151657 0)
(-0.095293 -0.0177602 0)
(-0.092775 -0.0202336 0)
(-0.0899093 -0.0225568 0)
(-0.0867143 -0.0247013 0)
(-0.0832124 -0.0266394 0)
(-0.0794296 -0.0283451 0)
(-0.0753954 -0.0297939 0)
(-0.0711427 -0.0309644 0)
(-0.0667076 -0.0318379 0)
(-0.0621289 -0.0323994 0)
(-0.0574479 -0.0326381 0)
(-0.0527077 -0.0325478 0)
(-0.0479526 -0.0321272 0)
(-0.0432278 -0.0313804 0)
(-0.0385781 -0.030317 0)
(-0.0340479 -0.0289524 0)
(-0.0296798 -0.0273079 0)
(-0.0255142 -0.0254107 0)
(-0.0215883 -0.0232935 0)
(-0.0179354 -0.0209952 0)
(-0.0145847 -0.0185597 0)
(-0.0115598 -0.0160364 0)
(-0.00887892 -0.0134798 0)
(-0.0065543 -0.010949 0)
(-0.00459195 -0.00850776 0)
(-0.00299173 -0.00622412 0)
(-0.00174662 -0.00417025 0)
(-0.000842357 -0.00242198 0)
(-0.000268953 -0.00105835 0)
(-3.23489e-05 -0.000164712 0)
(-9.44152e-05 0.00154062 0)
(-0.000632529 0.0047472 0)
(-0.00179802 0.00797544 0)
(-0.00347146 0.0111459 0)
(-0.00558337 0.0141986 0)
(-0.00809135 0.0170866 0)
(-0.0109528 0.0197749 0)
(-0.0141264 0.0222388 0)
(-0.0175733 0.0244623 0)
(-0.0212573 0.0264361 0)
(-0.025144 0.0281565 0)
(-0.0292008 0.0296239 0)
(-0.0333968 0.0308416 0)
(-0.0377025 0.0318147 0)
(-0.0420894 0.0325494 0)
(-0.0465304 0.0330523 0)
(-0.050999 0.03333 0)
(-0.0554695 0.0333885 0)
(-0.0599169 0.0332331 0)
(-0.0643166 0.0328685 0)
(-0.0686445 0.0322985 0)
(-0.0728766 0.0315263 0)
(-0.0769893 0.0305547 0)
(-0.0809592 0.029386 0)
(-0.0847632 0.0280228 0)
(-0.0883783 0.0264678 0)
(-0.091782 0.0247243 0)
(-0.0949521 0.0227966 0)
(-0.0978671 0.02069 0)
(-0.100506 0.0184114 0)
(-0.102848 0.0159692 0)
(-0.104875 0.0133738 0)
(-0.106568 0.0106378 0)
(-0.107911 0.00777563 0)
(-0.108889 0.00480432 0)
(-0.109488 0.00174305 0)
(-0.109699 -0.00138663 0)
(-0.10951 -0.00456098 0)
(-0.108918 -0.00775412 0)
(-0.107919 -0.0109383 0)
(-0.106511 -0.0140839 0)
(-0.104699 -0.0171601 0)
(-0.102489 -0.020135 0)
(-0.0998911 -0.0229761 0)
(-0.0969198 -0.0256504 0)
(-0.0935929 -0.0281258 0)
(-0.0899326 -0.0303707 0)
(-0.0859648 -0.0323552 0)
(-0.0817196 -0.0340513 0)
(-0.0772306 -0.035434 0)
(-0.0725349 -0.0364815 0)
(-0.067673 -0.0371762 0)
(-0.062688 -0.0375048 0)
(-0.0576253 -0.0374595 0)
(-0.0525321 -0.0370377 0)
(-0.0474565 -0.036243 0)
(-0.0424468 -0.0350855 0)
(-0.037551 -0.0335816 0)
(-0.0328156 -0.0317543 0)
(-0.028285 -0.0296335 0)
(-0.0240007 -0.0272555 0)
(-0.0200001 -0.0246632 0)
(-0.0163164 -0.0219055 0)
(-0.0129774 -0.0190371 0)
(-0.0100052 -0.0161184 0)
(-0.00741557 -0.0132146 0)
(-0.00521811 -0.010396 0)
(-0.00341587 -0.00773692 0)
(-0.00200467 -0.00531557 0)
(-0.000972518 -0.00321347 0)
(-0.000312986 -0.0015146 0)
(-3.83714e-05 -0.000308324 0)
(-0.000102753 0.00187438 0)
(-0.000686132 0.00568328 0)
(-0.00194686 0.00945358 0)
(-0.0037531 0.0131103 0)
(-0.0060274 0.0165973 0)
(-0.00872213 0.0198715 0)
(-0.0117899 0.0229011 0)
(-0.015185 0.0256645 0)
(-0.018865 0.0281483 0)
(-0.0227908 0.0303457 0)
(-0.0269254 0.0322551 0)
(-0.0312343 0.0338789 0)
(-0.0356849 0.0352218 0)
(-0.0402463 0.0362907 0)
(-0.0448891 0.0370928 0)
(-0.049585 0.0376359 0)
(-0.0543069 0.0379273 0)
(-0.0590286 0.0379738 0)
(-0.0637245 0.0377814 0)
(-0.0683693 0.0373551 0)
(-0.0729385 0.0366991 0)
(-0.0774077 0.0358168 0)
(-0.0817528 0.0347113 0)
(-0.08595 0.0333853 0)
(-0.0899754 0.0318413 0)
(-0.0938057 0.0300826 0)
(-0.0974177 0.0281126 0)
(-0.100789 0.0259362 0)
(-0.103896 0.0235592 0)
(-0.106718 0.0209891 0)
(-0.109234 0.0182354 0)
(-0.111424 0.0153095 0)
(-0.113269 0.012225 0)
(-0.11475 0.00899809 0)
(-0.115852 0.00564738 0)
(-0.116561 0.00219402 0)
(-0.116864 -0.00133826 0)
(-0.116751 -0.00492326 0)
(-0.116214 -0.00853241 0)
(-0.115249 -0.0121349 0)
(-0.113855 -0.0156981 0)
(-0.112032 -0.0191877 0)
(-0.109786 -0.022568 0)
(-0.107127 -0.0258026 0)
(-0.104067 -0.0288549 0)
(-0.100624 -0.0316884 0)
(-0.0968195 -0.0342674 0)
(-0.0926788 -0.036558 0)
(-0.0882323 -0.0385282 0)
(-0.0835141 -0.0401492 0)
(-0.0785625 -0.0413955 0)
(-0.0734192 -0.0422464 0)
(-0.0681292 -0.0426859 0)
(-0.0627404 -0.0427038 0)
(-0.0573027 -0.0422962 0)
(-0.0518674 -0.0414658 0)
(-0.0464866 -0.0402226 0)
(-0.0412122 -0.0385837 0)
(-0.036095 -0.0365739 0)
(-0.0311838 -0.0342256 0)
(-0.0265246 -0.0315785 0)
(-0.0221597 -0.0286794 0)
(-0.0181267 -0.0255824 0)
(-0.0144579 -0.0223476 0)
(-0.0111797 -0.0190416 0)
(-0.00831214 -0.015736 0)
(-0.00586843 -0.0125076 0)
(-0.00385511 -0.00943743 0)
(-0.00227095 -0.00661026 0)
(-0.00110623 -0.00411361 0)
(-0.000357915 -0.00203689 0)
(-4.44189e-05 -0.000474075 0)
(-0.000110731 0.00223482 0)
(-0.000737493 0.00669211 0)
(-0.0020896 0.0110436 0)
(-0.00402341 0.0152192 0)
(-0.00645393 0.0191675 0)
(-0.00932853 0.0228495 0)
(-0.0125952 0.0262377 0)
(-0.0162041 0.0293139 0)
(-0.0201095 0.0320681 0)
(-0.0242691 0.0344964 0)
(-0.0286437 0.0366 0)
(-0.0331967 0.0383834 0)
(-0.0378941 0.0398535 0)
(-0.0427035 0.0410187 0)
(-0.0475945 0.041888 0)
(-0.0525382 0.0424702 0)
(-0.0575068 0.0427737 0)
(-0.0624734 0.042806 0)
(-0.0674119 0.0425738 0)
(-0.0722969 0.0420826 0)
(-0.0771033 0.0413369 0)
(-0.0818064 0.0403407 0)
(-0.0863818 0.0390969 0)
(-0.0908051 0.0376086 0)
(-0.0950523 0.0358786 0)
(-0.0990996 0.0339102 0)