/*--------------------------------*- C++ -*----------------------------------*\
  =========                 |
  \\      /  F ield         | OpenFOAM: The Open Source CFD Toolbox
   \\    /   O peration     | Website:  https://openfoam.org
    \\  /    A nd           | Version:  dev
     \\/     M anipulation  |
\*---------------------------------------------------------------------------*/
FoamFile
{
    format      ascii;
    class       surfaceScalarField;
    location    "28.8";
    object      phi;
}
// * * * * * * * * * * * * * * * * * * * * * * * * * * * * * * * * * * * * * //

dimensions      [0 3 -1 0 0 0 0];

internalField   nonuniform List<scalar> 
10224
(
3.35929e-08
-3.50737e-08
8.77435e-08
-5.41463e-08
1.24335e-07
-3.65921e-08
1.25304e-07
-9.78718e-10
8.36826e-08
4.16206e-08
-1.79441e-09
8.54832e-08
-1.29303e-07
1.27513e-07
-2.95543e-07
1.66239e-07
-4.96449e-07
2.00905e-07
-7.27719e-07
2.31271e-07
-9.85084e-07
2.57366e-07
-1.26445e-06
2.79369e-07
-1.56199e-06
2.97535e-07
-1.87414e-06
3.12146e-07
-2.19762e-06
3.23487e-07
-2.52944e-06
3.31823e-07
-2.86684e-06
3.37392e-07
-3.20723e-06
3.40395e-07
-3.54823e-06
3.40994e-07
-3.88754e-06
3.3931e-07
-4.22296e-06
3.35429e-07
-4.55237e-06
3.29402e-07
-4.87362e-06
3.21256e-07
-5.18462e-06
3.10993e-07
-5.48322e-06
2.98601e-07
-5.76728e-06
2.84059e-07
-6.03462e-06
2.67345e-07
-6.28306e-06
2.48443e-07
-6.51041e-06
2.27347e-07
-6.71448e-06
2.04072e-07
-6.89314e-06
1.78656e-07
-7.0443e-06
1.51167e-07
-7.16601e-06
1.21706e-07
-7.25642e-06
9.04133e-08
-7.31389e-06
5.7469e-08
-7.33699e-06
2.30962e-08
-7.32455e-06
-1.24398e-08
-7.27572e-06
-4.88307e-08
-7.18999e-06
-8.57276e-08
-7.06724e-06
-1.22743e-07
-6.90779e-06
-1.59457e-07
-6.71237e-06
-1.95419e-07
-6.48221e-06
-2.3016e-07
-6.21901e-06
-2.63196e-07
-5.92497e-06
-2.94041e-07
-5.60276e-06
-3.22212e-07
-5.25551e-06
-3.47244e-07
-4.88682e-06
-3.68698e-07
-4.50064e-06
-3.86172e-07
-4.10133e-06
-3.99311e-07
-3.69351e-06
-4.0782e-07
-3.28204e-06
-4.11469e-07
-2.87194e-06
-4.10104e-07
-2.46829e-06
-4.03649e-07
-2.07617e-06
-3.92114e-07
-1.70058e-06
-3.75594e-07
-1.34631e-06
-3.54273e-07
-1.01789e-06
-3.28425e-07
-7.19473e-07
-2.98413e-07
-4.54785e-07
-2.64686e-07
-2.27001e-07
-2.27783e-07
-3.86664e-08
-1.88334e-07
1.08412e-07
-1.47078e-07
2.13296e-07
-1.04884e-07
2.76102e-07
-6.28039e-08
2.98258e-07
-2.21555e-08
2.82944e-07
1.5315e-08
2.35753e-07
4.71902e-08
1.65746e-07
7.00062e-08
8.72154e-08
7.85312e-08
2.25396e-08
6.46788e-08
2.25431e-08
5.37947e-08
-8.8866e-08
1.12294e-07
-1.12644e-07
1.18114e-07
-4.24028e-08
3.88213e-08
7.83094e-08
-1.41982e-07
2.22413e-07
-4.29611e-07
3.73108e-07
-8.22297e-07
5.20205e-07
-1.3139e-06
6.57848e-07
-1.89587e-06
7.82867e-07
-2.55837e-06
8.93776e-07
-3.29114e-06
9.90139e-07
-4.08394e-06
1.07216e-06
-4.92683e-06
1.14043e-06
-5.81038e-06
1.1957e-06
-6.7257e-06
1.23881e-06
-7.66447e-06
1.27059e-06
-8.61888e-06
1.29181e-06
-9.58159e-06
1.30311e-06
-1.05456e-05
1.30505e-06
-1.15044e-05
1.29806e-06
-1.24514e-05
1.28244e-06
-1.33804e-05
1.25842e-06
-1.42853e-05
1.2261e-06
-1.51598e-05
1.18553e-06
-1.59979e-05
1.13672e-06
-1.67935e-05
1.07964e-06
-1.75404e-05
1.01426e-06
-1.82325e-05
9.40577e-07
-1.88638e-05
8.58644e-07
-1.94283e-05
7.68572e-07
-1.99203e-05
6.70565e-07
-2.0334e-05
5.64933e-07
-2.06644e-05
4.5211e-07
-2.09067e-05
3.32663e-07
-2.10565e-05
2.07308e-07
-2.11103e-05
7.69069e-08
-2.10652e-05
-5.75232e-08
-2.09192e-05
-1.94818e-07
-2.06713e-05
-3.33671e-07
-2.03214e-05
-4.72645e-07
-1.98707e-05
-6.10187e-07
-1.93214e-05
-7.44652e-07
-1.86773e-05
-8.74324e-07
-1.7943e-05
-9.97447e-07
-1.71248e-05
-1.11226e-06
-1.623e-05
-1.21702e-06
-1.52672e-05
-1.31005e-06
-1.42461e-05
-1.38979e-06
-1.31775e-05
-1.45479e-06
-1.2073e-05
-1.50379e-06
-1.09451e-05
-1.53575e-06
-9.8067e-06
-1.54986e-06
-8.67124e-06
-1.54556e-06
-7.55227e-06
-1.52262e-06
-6.46328e-06
-1.4811e-06
-5.41752e-06
-1.42136e-06
-4.42768e-06
-1.34411e-06
-3.50572e-06
-1.25039e-06
-2.66257e-06
-1.14156e-06
-1.90792e-06
-1.01933e-06
-1.24996e-06
-8.85741e-07
-6.95087e-07
-7.43211e-07
-2.47599e-07
-5.94567e-07
9.06528e-08
-4.43139e-07
3.20747e-07
-2.929e-07
4.47282e-07
-1.48691e-07
4.79253e-07
-1.66521e-08
4.31133e-07
9.53142e-08
3.24364e-07
1.76778e-07
1.88956e-07
2.13937e-07
6.43677e-08
1.89259e-07
8.69133e-08
3.72953e-08
-1.26162e-07
4.3228e-08
-1.1859e-07
-4.33714e-08
4.42025e-08
-2.58806e-07
2.93752e-07
-6.22697e-07
5.86306e-07
-1.14216e-06
8.92568e-07
-1.81546e-06
1.1935e-06
-2.63493e-06
1.47733e-06
-3.58922e-06
1.73716e-06
-4.66481e-06
1.96936e-06
-5.84712e-06
2.17244e-06
-7.12126e-06
2.34631e-06
-8.47254e-06
2.4917e-06
-9.8867e-06
2.60986e-06
-1.13501e-05
2.70225e-06
-1.28499e-05
2.77036e-06
-1.43737e-05
2.81562e-06
-1.59099e-05
2.83931e-06
-1.74474e-05
2.84249e-06
-1.89753e-05
2.82603e-06
-2.04835e-05
2.79057e-06
-2.19616e-05
2.73656e-06
-2.33998e-05
2.66428e-06
-2.47881e-05
2.57387e-06
-2.61168e-05
2.46542e-06
-2.73761e-05
2.33893e-06
-2.85563e-05
2.19443e-06
-2.96477e-05
2.03202e-06
-3.0641e-05
1.85188e-06
-3.15267e-05
1.65435e-06
-3.22961e-05
1.43996e-06
-3.29406e-05
1.20944e-06
-3.34524e-05
9.63826e-07
-3.38241e-05
7.04385e-07
-3.40495e-05
4.32709e-07
-3.41233e-05
1.50689e-07
-3.40413e-05
-1.3947e-07
-3.38009e-05
-4.35262e-07
-3.34006e-05
-7.33893e-07
-3.2841e-05
-1.03231e-06
-3.21239e-05
-1.32722e-06
-3.12534e-05
-1.61517e-06
-3.02352e-05
-1.89254e-06
-2.9077e-05
-2.15567e-06
-2.77884e-05
-2.40087e-06
-2.63809e-05
-2.62452e-06
-2.48678e-05
-2.82314e-06
-2.32641e-05
-2.99346e-06
-2.15864e-05
-3.13252e-06
-1.98524e-05
-3.23771e-06
-1.80813e-05
-3.30686e-06
-1.62929e-05
-3.33831e-06
-1.45075e-05
-3.33097e-06
-1.27458e-05
-3.28434e-06
-1.10283e-05
-3.19857e-06
-9.37516e-06
-3.07448e-06
-7.80567e-06
-2.9136e-06
-6.33792e-06
-2.71814e-06
-4.98845e-06
-2.49103e-06
-3.77185e-06
-2.23593e-06
-2.70037e-06
-1.95723e-06
-1.78346e-06
-1.66011e-06
-1.02737e-06
-1.35066e-06
-4.3456e-07
-1.03595e-06
-3.12541e-09
-7.24335e-07
2.74008e-07
-4.25826e-07
4.09909e-07
-1.52554e-07
4.24815e-07
8.04098e-08
3.47353e-07
2.54244e-07
2.15722e-07
3.4557e-07
7.86338e-08
3.26346e-07
1.65548e-07
1.88811e-09
-1.28046e-07
-7.89993e-08
-3.77181e-08
-2.97694e-07
2.62893e-07
-6.87924e-07
6.83988e-07
-1.26801e-06
1.1664e-06
-2.04424e-06
1.6688e-06
-3.01382e-06
2.16307e-06
-4.16748e-06
2.63099e-06
-5.49164e-06
3.06132e-06
-6.96996e-06
3.44769e-06
-8.58462e-06
3.7871e-06
-1.03171e-05
4.07882e-06
-1.2149e-05
4.32355e-06
-1.4062e-05
4.52289e-06
-1.60386e-05
4.67887e-06
-1.80619e-05
4.79367e-06
-2.01158e-05
4.86945e-06
-2.21846e-05
4.90814e-06
-2.42535e-05
4.9114e-06
-2.63081e-05
4.88061e-06
-2.83343e-05
4.81681e-06
-3.03185e-05
4.72076e-06
-3.22472e-05
4.59295e-06
-3.4107e-05
4.43371e-06
-3.58848e-05
4.24323e-06
-3.75675e-05
4.02163e-06
-3.91422e-05
3.7691e-06
-4.05961e-05
3.48589e-06
-4.19167e-05
3.17246e-06
-4.30918e-05
2.82951e-06
-4.41099e-05
2.45807e-06
-4.496e-05
2.05952e-06
-4.56318e-05
1.63568e-06
-4.61163e-05
1.18885e-06
-4.64054e-05
7.21792e-07
-4.64925e-05
2.37786e-07
-4.63726e-05
-2.59384e-07
-4.60424e-05
-7.65444e-07
-4.55006e-05
-1.27565e-06
-4.47481e-05
-1.78485e-06
-4.37878e-05
-2.28752e-06
-4.26251e-05
-2.77784e-06
-4.12679e-05
-3.2498e-06
-3.97263e-05
-3.69725e-06
-3.80131e-05
-4.11408e-06
-3.61433e-05
-4.49427e-06
-3.41344e-05
-4.83205e-06
-3.20059e-05
-5.12202e-06
-2.97791e-05
-5.35925e-06
-2.74774e-05
-5.53945e-06
-2.51252e-05
-5.65904e-06
-2.27482e-05
-5.7153e-06
-2.03728e-05
-5.70643e-06
-1.80255e-05
-5.63163e-06
-1.57328e-05
-5.4912e-06
-1.35208e-05
-5.28654e-06
-1.14141e-05
-5.02024e-06
-9.43621e-06
-4.69606e-06
-7.6083e-06
-4.31894e-06
-5.94914e-06
-3.89509e-06
-4.47442e-06
-3.43194e-06
-3.19626e-06
-2.93827e-06
-2.12262e-06
-2.4243e-06
-1.25669e-06
-1.90187e-06
-5.96228e-07
-1.38479e-06
-1.32798e-07
-8.89256e-07
1.49099e-07
-4.34453e-07
2.72925e-07
-4.34187e-08
2.7114e-07
2.56028e-07
1.86243e-07
4.3047e-07
7.21992e-08
4.40392e-07
2.37748e-07
-4.20576e-08
-8.59809e-08
-2.30039e-07
1.5026e-07
-6.06536e-07
6.39384e-07
-1.19813e-06
1.27558e-06
-2.01856e-06
1.98684e-06
-3.071e-06
2.72125e-06
-4.35029e-06
3.44235e-06
-5.84497e-06
4.12567e-06
-7.53919e-06
4.75554e-06
-9.41415e-06
5.32265e-06
-1.14493e-05
5.82225e-06
-1.36232e-05
6.25274e-06
-1.59143e-05
6.61461e-06
-1.83011e-05
6.90968e-06
-2.07627e-05
7.14047e-06
-2.32788e-05
7.30982e-06
-2.58299e-05
7.42057e-06
-2.83971e-05
7.47533e-06
-3.09621e-05
7.4764e-06
-3.35072e-05
7.42567e-06
-3.6015e-05
7.32465e-06
-3.84687e-05
7.17442e-06
-4.08515e-05
6.97578e-06
-4.3147e-05
6.72925e-06
-4.5339e-05
6.43522e-06
-4.74114e-05
6.09402e-06
-4.93483e-05
5.70603e-06
-5.11343e-05
5.27182e-06
-5.2754e-05
4.79223e-06
-5.4193e-05
4.26848e-06
-5.54372e-05
3.70224e-06
-5.64734e-05
3.09577e-06
-5.72897e-05
2.45194e-06
-5.78751e-05
1.77427e-06
-5.82203e-05
1.06703e-06
-5.83178e-05
3.35194e-07
-5.81616e-05
-4.15526e-07
-5.77483e-05
-1.17871e-06
-5.70767e-05
-1.94729e-06
-5.6148e-05
-2.71358e-06
-5.49661e-05
-3.46939e-06
-5.35378e-05
-4.20612e-06
-5.18727e-05
-4.91489e-06
-4.99833e-05
-5.58666e-06
-4.7885e-05
-6.21244e-06
-4.55959e-05
-6.78339e-06
-4.31369e-05
-7.29104e-06
-4.05314e-05
-7.72748e-06
-3.78051e-05
-8.08551e-06
-3.49858e-05
-8.35883e-06
-3.21026e-05
-8.54222e-06
-2.91862e-05
-8.63169e-06
-2.6268e-05
-8.62461e-06
-2.33798e-05
-8.51986e-06
-2.05531e-05
-8.31786e-06
-1.78189e-05
-8.02074e-06
-1.52068e-05
-7.63233e-06
-1.27447e-05
-7.1582e-06
-1.04579e-05
-6.60574e-06
-8.36885e-06
-5.98413e-06
-6.49638e-06
-5.30442e-06
-4.85506e-06
-4.5796e-06
-3.45461e-06
-3.82474e-06
-2.29927e-06
-3.05721e-06
-1.38708e-06
-2.29699e-06
-7.09189e-07
-1.56715e-06
-2.49128e-07
-8.94512e-07
1.79502e-08
-3.10498e-07
1.26095e-07
1.4788e-07
1.19452e-07
4.37115e-07
5.36443e-08
5.06203e-07
2.91393e-07
-8.94351e-08
3.45658e-09
-3.95316e-07
4.5615e-07
-9.45021e-07
1.18909e-06
-1.75512e-06
2.08568e-06
-2.83242e-06
3.06414e-06
-4.17516e-06
4.06398e-06
-5.77449e-06
5.04168e-06
-7.61603e-06
5.96721e-06
-9.68131e-06
6.82082e-06
-1.1949e-05
7.59038e-06
-1.43962e-05
8.26937e-06
-1.69987e-05
8.85526e-06
-1.97323e-05
9.34824e-06
-2.25729e-05
9.75024e-06
-2.54966e-05
1.00642e-05
-2.84804e-05
1.02936e-05
-3.15017e-05
1.04419e-05
-3.45387e-05
1.05123e-05
-3.75701e-05
1.05078e-05
-4.05752e-05
1.04308e-05
-4.35339e-05
1.02833e-05
-4.64263e-05
1.00668e-05
-4.92328e-05
9.78227e-06
-5.19341e-05
9.43061e-06
-5.45113e-05
9.01243e-06
-5.69457e-05
8.52834e-06
-5.92187e-05
7.97902e-06
-6.13123e-05
7.36545e-06
-6.3209e-05
6.68897e-06
-6.4892e-05
5.95145e-06
-6.63452e-05
5.15543e-06
-6.75536e-05
4.30419e-06
-6.85035e-05
3.40184e-06
-6.91826e-05
2.45343e-06
-6.95806e-05
1.46494e-06
-6.96887e-05
4.43344e-07
-6.95008e-05
-6.03427e-07
-6.9013e-05
-1.66649e-06
-6.82242e-05
-2.7361e-06
-6.71361e-05
-3.80169e-06
-6.57534e-05
-4.85206e-06
-6.40841e-05
-5.87544e-06
-6.21393e-05
-6.85971e-06
-5.99334e-05
-7.79258e-06
-5.7484e-05
-8.66179e-06
-5.48121e-05
-9.45533e-06
-5.19414e-05
-1.01617e-05
-4.88987e-05
-1.07702e-05
-4.57133e-05
-1.12709e-05
-4.24167e-05
-1.16554e-05
-3.90424e-05
-1.19166e-05
-3.56252e-05
-1.20489e-05
-3.22008e-05
-1.20489e-05
-2.88057e-05
-1.1915e-05
-2.54757e-05
-1.16478e-05
-2.22462e-05
-1.12502e-05
-1.91512e-05
-1.07273e-05
-1.62226e-05
-1.00869e-05
-1.34894e-05
-9.33892e-06
-1.09775e-05
-8.496e-06
-8.70872e-06
-7.5732e-06
-6.70008e-06
-6.58824e-06
-4.96328e-06
-5.56154e-06
-3.50398e-06
-4.51651e-06
-2.32114e-06
-3.47982e-06
-1.4064e-06
-2.48188e-06
-7.43455e-07
-1.55746e-06
-3.07463e-07
-7.46489e-07
-6.44589e-08
-9.51265e-08
2.93104e-08
3.43346e-07
2.82976e-08
5.07217e-07
3.19691e-07
-1.37634e-07
1.41086e-07
-5.66254e-07
8.84777e-07
-1.29733e-06
1.92017e-06
-2.33594e-06
3.1243e-06
-3.6804e-06
4.4086e-06
-5.32264e-06
5.70622e-06
-7.24904e-06
6.96809e-06
-9.44151e-06
8.15968e-06
-1.18785e-05
9.2578e-06
-1.4536e-05
1.02479e-05
-1.73885e-05
1.11218e-05
-2.04095e-05
1.18763e-05
-2.35724e-05
1.25112e-05
-2.68506e-05
1.30284e-05
-3.02179e-05
1.34315e-05
-3.36485e-05
1.37242e-05
-3.71175e-05
1.39109e-05
-4.06004e-05
1.39952e-05
-4.40735e-05
1.39809e-05
-4.75134e-05
1.38707e-05
-5.08973e-05
1.36672e-05
-5.42027e-05
1.33722e-05
-5.74077e-05
1.29872e-05
-6.04903e-05
1.25133e-05
-6.34292e-05
1.19513e-05
-6.62032e-05
1.13023e-05
-6.87915e-05
1.05673e-05
-7.11738e-05
9.74783e-06
-7.33307e-05
8.84581e-06
-7.52432e-05
7.86393e-06
-7.68934e-05
6.8057e-06
-7.82649e-05
5.67562e-06
-7.93423e-05
4.47926e-06
-8.01122e-05
3.22334e-06
-8.05631e-05
1.91582e-06
-8.06856e-05
5.65905e-07
-8.04731e-05
-8.15996e-07
-7.99213e-05
-2.21827e-06
-7.90292e-05
-3.62819e-06
-7.77988e-05
-5.03205e-06
-7.62356e-05
-6.41529e-06
-7.43483e-05
-7.76269e-06
-7.21495e-05
-9.05857e-06
-6.9655e-05
-1.02871e-05
-6.68845e-05
-1.14323e-05
-6.3861e-05
-1.24788e-05
-6.06109e-05
-1.34118e-05
-5.71638e-05
-1.42173e-05
-5.35521e-05
-1.48827e-05
-4.98105e-05
-1.5397e-05
-4.59762e-05
-1.57509e-05
-4.20877e-05
-1.59374e-05
-3.81848e-05
-1.59519e-05
-3.43075e-05
-1.57923e-05
-3.04961e-05
-1.54592e-05
-2.67899e-05
-1.49564e-05
-2.32267e-05
-1.42905e-05
-1.98422e-05
-1.34714e-05
-1.66691e-05
-1.2512e-05
-1.37366e-05
-1.14285e-05
-1.10695e-05
-1.02404e-05
-8.68735e-06
-8.97036e-06
-6.60421e-06
-7.64467e-06
-4.8276e-06
-6.29313e-06
-3.358e-06
-4.94942e-06
-2.18832e-06
-3.65157e-06
-1.30335e-06
-2.44242e-06
-6.79367e-07
-1.37047e-06
-2.8374e-07
-4.90753e-07
-7.46171e-08
1.34222e-07
-5.93936e-10
4.33193e-07
3.19098e-07
-1.85402e-07
3.26486e-07
-7.37958e-07
1.43733e-06
-1.65368e-06
2.83589e-06
-2.92557e-06
4.39619e-06
-4.54256e-06
6.02559e-06
-6.48933e-06
7.65299e-06
-8.74666e-06
9.22542e-06
-1.1292e-05
1.0705e-05
-1.41003e-05
1.20661e-05
-1.71446e-05
1.32921e-05
-2.03966e-05
1.43739e-05
-2.38277e-05
1.53074e-05
-2.74088e-05
1.60923e-05
-3.11112e-05
1.67308e-05
-3.49065e-05
1.72267e-05
-3.87667e-05
1.75845e-05
-4.26647e-05
1.78088e-05
-4.65737e-05
1.79043e-05
-5.04678e-05
1.78749e-05
-5.43214e-05
1.77243e-05
-5.81093e-05
1.74551e-05
-6.18068e-05
1.70698e-05
-6.53897e-05
1.65701e-05
-6.88338e-05
1.59574e-05
-7.21156e-05
1.52331e-05
-7.52118e-05
1.43985e-05
-7.80996e-05
1.34551e-05
-8.07567e-05
1.24049e-05
-8.31617e-05
1.12508e-05
-8.5294e-05
9.99618e-06
-8.7134e-05
8.64578e-06
-8.86638e-05
7.2054e-06
-8.98668e-05
5.68224e-06
-9.07283e-05
4.0849e-06
-9.1236e-05
2.42348e-06
-9.13797e-05
7.09603e-07
-9.11521e-05
-1.04361e-06
-9.05488e-05
-2.82158e-06
-8.95686e-05
-4.6084e-06
-8.82137e-05
-6.38694e-06
-8.64899e-05
-8.13904e-06
-8.44069e-05
-9.84575e-06
-8.19779e-05
-1.14876e-05
-7.92202e-05
-1.30447e-05
-7.6155e-05
-1.44975e-05
-7.28071e-05
-1.58267e-05
-6.9205e-05
-1.70139e-05
-6.53806e-05
-1.80416e-05
-6.13691e-05
-1.88943e-05
-5.72081e-05
-1.95579e-05
-5.29378e-05
-2.00212e-05
-4.86002e-05
-2.0275e-05
-4.42384e-05
-2.03136e-05
-3.98965e-05
-2.01342e-05
-3.56181e-05
-1.97376e-05
-3.14465e-05
-1.9128e-05
-2.74232e-05
-1.83138e-05
-2.35876e-05
-1.7307e-05
-1.99759e-05
-1.61236e-05
-1.66208e-05
-1.47836e-05
-1.35501e-05
-1.33111e-05
-1.07864e-05
-1.1734e-05
-8.34632e-06
-1.00848e-05
-6.23966e-06
-8.39978e-06
-4.46908e-06
-6.72001e-06
-3.02941e-06
-5.09124e-06
-1.90734e-06
-3.5645e-06
-1.0811e-06
-2.1967e-06
-5.20334e-07
-1.05151e-06
-1.861e-07
-2.00011e-07
-3.10744e-08
2.78167e-07
2.88023e-07
-2.32104e-07
5.58591e-07
-9.07668e-07
2.1129e-06
-2.00808e-06
3.9363e-06
-3.51428e-06
5.90239e-06
-5.4054e-06
7.91671e-06
-7.65829e-06
9.90588e-06
-1.02475e-05
1.18146e-05
-1.31456e-05
1.36031e-05
-1.63235e-05
1.5244e-05
-1.97509e-05
1.67196e-05
-2.33969e-05
1.80199e-05
-2.72303e-05
1.91408e-05
-3.122e-05
2.00819e-05
-3.53351e-05
2.08459e-05
-3.95451e-05
2.14368e-05
-4.38204e-05
2.18597e-05
-4.81316e-05
2.21201e-05
-5.24502e-05
2.22229e-05
-5.67481e-05
2.21729e-05
-6.09979e-05
2.1974e-05
-6.51724e-05
2.16296e-05
-6.9245e-05
2.11424e-05
-7.31893e-05
2.05144e-05
-7.69794e-05
1.97475e-05
-8.05897e-05
1.88434e-05
-8.3995e-05
1.78038e-05
-8.71708e-05
1.66309e-05
-9.00931e-05
1.53272e-05
-9.27386e-05
1.38963e-05
-9.50852e-05
1.23428e-05
-9.7112e-05
1.06726e-05
-9.87995e-05
8.89292e-06
-0.00010013
7.01271e-06
-0.000101088
5.0426e-06
-0.000101659
2.99498e-06
-0.000101834
8.8405e-07
-0.000101603
-1.27418e-06
-0.000100963
-3.46202e-06
-9.99109e-05
-5.66014e-06
-9.845e-05
-7.84781e-06
-9.6586e-05
-1.0003e-05
-9.43288e-05
-1.21029e-05
-9.16925e-05
-1.41239e-05
-8.86951e-05
-1.60421e-05
-8.5359e-05
-1.78336e-05
-8.17106e-05
-1.94752e-05
-7.77799e-05
-2.09445e-05
-7.3601e-05
-2.22206e-05
-6.92111e-05
-2.32841e-05
-6.46506e-05
-2.41184e-05
-5.99625e-05
-2.47093e-05
-5.51918e-05
-2.50458e-05
-5.03849e-05
-2.51205e-05
-4.55892e-05
-2.49299e-05
-4.08521e-05
-2.44746e-05
-3.62204e-05
-2.37597e-05
-3.17395e-05
-2.27948e-05
-2.74524e-05
-2.15942e-05
-2.3399e-05
-2.01769e-05
-1.96156e-05
-1.85671e-05
-1.61333e-05
-1.67933e-05
-1.29781e-05
-1.48893e-05
-1.01695e-05
-1.28934e-05
-7.72013e-06
-1.08491e-05
-5.63542e-06
-8.80473e-06
-3.9127e-06
-6.81395e-06
-2.54119e-06
-4.93601e-06
-1.50175e-06
-3.23614e-06
-7.66944e-07
-1.78632e-06
-3.01324e-07
-6.65629e-07
-6.20424e-08
3.88864e-08
2.25979e-07
-2.77462e-07
8.36054e-07
-1.07385e-06
2.90929e-06
-2.35689e-06
5.21934e-06
-4.09576e-06
7.64127e-06
-6.25974e-06
1.00807e-05
-8.81755e-06
1.24637e-05
-1.17372e-05
1.47343e-05
-1.49858e-05
1.68518e-05
-1.853e-05
1.87882e-05
-2.23361e-05
2.05256e-05
-2.63702e-05
2.2054e-05
-3.05985e-05
2.33692e-05
-3.49879e-05
2.44713e-05
-3.95053e-05
2.53633e-05
-4.41186e-05
2.60501e-05
-4.87963e-05
2.65374e-05
-5.35073e-05
2.68311e-05
-5.82214e-05
2.6937e-05
-6.29089e-05
2.68604e-05
-6.75406e-05
2.66056e-05
-7.20875e-05
2.61766e-05
-7.65214e-05
2.55763e-05
-8.08143e-05
2.48072e-05
-8.49383e-05
2.38716e-05
-8.88664e-05
2.27715e-05
-9.25717e-05
2.15091e-05
-9.6028e-05
2.00871e-05
-9.92096e-05
1.85088e-05
-0.000102092
1.67787e-05
-0.000104651
1.49023e-05
-0.000106866
1.28869e-05
-0.000108714
1.07412e-05
-0.000110177
8.47611e-06
-0.000111239
6.10424e-06
-0.000111885
3.64043e-06
-0.000112102
1.1016e-06
-0.000111883
-1.49328e-06
-0.000111222
-4.1232e-06
-0.000110117
-6.76532e-06
-0.000108569
-9.3951e-06
-0.000106586
-1.19866e-05
-0.000104176
-1.45127e-05
-0.000101355
-1.69455e-05
-9.81398e-05
-1.92568e-05
-9.4555e-05
-2.14185e-05
-9.06274e-05
-2.34028e-05
-8.63887e-05
-2.51832e-05
-8.18744e-05
-2.67348e-05
-7.71238e-05
-2.80347e-05
-7.21795e-05
-2.90627e-05
-6.70871e-05
-2.98018e-05
-6.18942e-05
-3.02386e-05
-5.66507e-05
-3.03641e-05
-5.1407e-05
-3.01736e-05
-4.62142e-05
-2.96674e-05
-4.11228e-05
-2.88511e-05
-3.61819e-05
-2.77357e-05
-3.14384e-05
-2.63376e-05
-2.69364e-05
-2.4679e-05
-2.27155e-05
-2.27879e-05
-1.8811e-05
-2.06978e-05
-1.52523e-05
-1.8448e-05
-1.20624e-05
-1.60833e-05
-9.25741e-06
-1.36541e-05
-6.84577e-06
-1.12164e-05
-4.828e-06
-8.83173e-06
-3.19635e-06
-6.56765e-06
-1.93482e-06
-4.49767e-06
-1.01933e-06
-2.70181e-06
-4.18176e-07
-1.26678e-06
-9.29447e-08
-2.86345e-07
1.33034e-07
-3.2136e-07
1.15741e-06
-1.23565e-06
3.82358e-06
-2.69787e-06
6.68156e-06
-4.6659e-06
9.6093e-06
-7.09929e-06
1.25141e-05
-9.95859e-06
1.5323e-05
-1.3205e-05
1.79806e-05
-1.68001e-05
2.04469e-05
-2.0706e-05
2.26941e-05
-2.48852e-05
2.47048e-05
-2.93008e-05
2.64696e-05
-3.39166e-05
2.79849e-05
-3.8697e-05
2.92516e-05
-4.36072e-05
3.02735e-05
-4.86134e-05
3.10563e-05
-5.36823e-05
3.16063e-05
-5.87815e-05
3.19303e-05
-6.38792e-05
3.20347e-05
-6.89442e-05
3.19254e-05
-7.39458e-05
3.16072e-05
-7.88537e-05
3.10845e-05
-8.36381e-05
3.03607e-05
-8.82695e-05
2.94386e-05
-9.27188e-05
2.83209e-05
-9.69573e-05
2.70099e-05
-0.000100957
2.55085e-05
-0.000104689
2.38197e-05
-0.000108128
2.19476e-05
-0.000111247
1.98977e-05
-0.000114021
1.76766e-05
-0.000116427
1.52928e-05
-0.000118443
1.27567e-05
-0.000120048
1.00811e-05
-0.000121224
7.28065e-06
-0.000121956
4.3728e-06
-0.000122232
1.37718e-06
-0.000122041
-1.68413e-06
-0.000121378
-4.78676e-06
-0.000120239
-7.9042e-06
-0.000118626
-1.1008e-05
-0.000116544
-1.40681e-05
-0.000114004
-1.70529e-05
-0.000111019
-1.99303e-05
-0.000107609
-2.26673e-05
-0.000103796
-2.52311e-05
-9.96093e-05
-2.75895e-05
-9.50811e-05
-2.97115e-05
-9.02482e-05
-3.15677e-05
-8.51516e-05
-3.31313e-05
-7.98358e-05
-3.43784e-05
-7.43488e-05
-3.52888e-05
-6.8741e-05
-3.58464e-05
-6.3065e-05
-3.604e-05
-5.73749e-05
-3.58637e-05
-5.17251e-05
-3.53172e-05
-4.61701e-05
-3.44062e-05
-4.07629e-05
-3.31429e-05
-3.55545e-05
-3.15459e-05
-3.05932e-05
-2.96404e-05
-2.59228e-05
-2.74582e-05
-2.15828e-05
-2.50379e-05
-1.76066e-05
-2.24242e-05
-1.40213e-05
-1.96686e-05
-1.08467e-05
-1.68287e-05
-8.09507e-06
-1.3968e-05
-5.77047e-06
-1.11563e-05
-3.86867e-06
-8.46945e-06
-2.37719e-06
-5.98915e-06
-1.2755e-06
-3.80349e-06
-5.35729e-07
-2.00656e-06
-1.23578e-07
-6.98495e-07
9.45548e-09
-3.63757e-07
1.52117e-06
-1.3926e-06
4.85242e-06
-3.02961e-06
8.31857e-06
-5.22193e-06
1.18016e-05
-7.91966e-06
1.52118e-05
-1.10752e-05
1.84786e-05
-1.4643e-05
2.15484e-05
-1.85789e-05
2.43828e-05
-2.28404e-05
2.69556e-05
-2.73861e-05
2.92506e-05
-3.2176e-05
3.12595e-05
-3.71712e-05
3.29802e-05
-4.2334e-05
3.44145e-05
-4.76279e-05
3.55674e-05
-5.30171e-05
3.64455e-05
-5.84672e-05
3.70563e-05
-6.39441e-05
3.74073e-05
-6.94149e-05
3.75056e-05
-7.48471e-05
3.73576e-05
-8.02088e-05
3.69689e-05
-8.54684e-05
3.63441e-05
-9.05948e-05
3.54871e-05
-9.55574e-05
3.44012e-05
-0.000100326
3.30892e-05
-0.00010487
3.1554e-05
-0.00010916
2.97988e-05
-0.000113168
2.78273e-05
-0.000116864
2.56443e-05
-0.000120223
2.32561e-05
-0.000123217
2.06705e-05
-0.000125821
1.78974e-05
-0.000128013
1.49487e-05
-0.000129771
1.1839e-05
-0.000131076
8.5854e-06
-0.000131911
5.20761e-06
-0.000132262
1.72817e-06
-0.000132118
-1.82775e-06
-0.000131473
-5.43234e-06
-0.000130322
-9.05535e-06
-0.000128665
-1.26643e-05
-0.000126508
-1.62249e-05
-0.00012386
-1.97011e-05
-0.000120735
-2.30559e-05
-0.00011715
-2.62518e-05
-0.00011313
-2.92509e-05
-0.000108704
-3.20163e-05
-0.000103903
-3.4512e-05
-9.87666e-05
-3.67041e-05
-9.33366e-05
-3.85613e-05
-8.76594e-05
-4.00557e-05
-8.17849e-05
-4.11633e-05
-7.57663e-05
-4.1865e-05
-6.96592e-05
-4.21472e-05
-6.35208e-05
-4.20021e-05
-5.74095e-05
-4.14285e-05
-5.13834e-05
-4.04323e-05
-4.55001e-05
-3.90263e-05
-3.98149e-05
-3.72311e-05
-3.43806e-05
-3.50747e-05
-2.92458e-05
-3.2593e-05
-2.44544e-05
-2.98292e-05
-2.00447e-05
-2.6834e-05
-1.6048e-05
-2.36653e-05
-1.24887e-05
-2.0388e-05
-9.38314e-06
-1.70735e-05
-6.73948e-06
-1.38e-05
-4.55741e-06
-1.06515e-05
-2.82821e-06
-7.71836e-06
-1.5351e-06
-5.0966e-06
-6.53874e-07
-2.88778e-06
-1.53968e-07
-1.1984e-06
-1.44512e-07
-4.0464e-07
1.92581e-06
-1.54439e-06
5.99216e-06
-3.35117e-06
1.01254e-05
-5.76192e-06
1.42124e-05
-8.71762e-06
1.81675e-05
-1.21628e-05
2.19237e-05
-1.6045e-05
2.54307e-05
-2.03146e-05
2.86524e-05
-2.49242e-05
3.15652e-05
-2.98287e-05
3.4155e-05
-3.49847e-05
3.64155e-05
-4.03509e-05
3.83463e-05
-4.58872e-05
3.99509e-05
-5.15554e-05
4.12356e-05
-5.73183e-05
4.22084e-05
-6.31399e-05
4.28779e-05
-6.89851e-05
4.32524e-05
-7.48196e-05
4.33401e-05
-8.06101e-05
4.3148e-05
-8.63234e-05
4.26822e-05
-9.19271e-05
4.19478e-05
-9.73889e-05
4.0949e-05
-0.000102677
3.96895e-05
-0.000107761
3.81726e-05
-0.000112608
3.64013e-05
-0.000117188
3.43794e-05
-0.000121472
3.21111e-05
-0.00012543
2.96021e-05
-0.000129033
2.68593e-05
-0.000132254
2.38917e-05
-0.000135067
2.07104e-05
-0.000137448
1.7329e-05
-0.000139373
1.3764e-05
-0.000140822
1.00345e-05
-0.000141777
6.1628e-06
-0.000142223
2.17418e-06
-0.000142148
-1.90305e-06
-0.000141542
-6.03763e-06
-0.000140402
-1.01955e-05
-0.000138726
-1.43403e-05
-0.000136518
-1.8433e-05
-0.000133786
-2.24333e-05
-0.000130543
-2.62992e-05
-0.000126806
-2.99881e-05
-0.0001226
-3.34572e-05
-0.000117952
-3.66642e-05
-0.000112896
-3.9568e-05
-0.000107471
-4.21297e-05
-0.000101719
-4.43132e-05
-9.56887e-05
-4.60858e-05
-8.94322e-05
-4.74197e-05
-8.3005e-05
-4.82922e-05
-7.64656e-05
-4.86866e-05
-6.98747e-05
-4.8593e-05
-6.32943e-05
-4.80088e-05
-5.67871e-05
-4.69395e-05
-5.0415e-05
-4.53984e-05
-4.42382e-05
-4.34078e-05
-3.83145e-05
-4.09985e-05
-3.26976e-05
-3.82099e-05
-2.74367e-05
-3.50901e-05
-2.25751e-05
-3.16957e-05
-1.81492e-05
-2.80912e-05
-1.41884e-05
-2.43488e-05
-1.07136e-05
-2.05483e-05
-7.73765e-06
-1.6776e-05
-5.26438e-06
-1.31248e-05
-3.28913e-06
-9.6936e-06
-1.79892e-06
-6.58681e-06
-7.73082e-07
-3.91363e-06
-1.84291e-07
-1.78719e-06
-3.28803e-07
-4.43998e-07
2.36981e-06
-1.6908e-06
7.23897e-06
-3.66185e-06
1.20964e-05
-6.28437e-06
1.68349e-05
-9.49063e-06
2.13738e-05
-1.32175e-05
2.56506e-05
-1.7406e-05
2.96192e-05
-2.20008e-05
3.32472e-05
-2.69499e-05
3.65143e-05
-3.22042e-05
3.94093e-05
-3.77173e-05
4.19287e-05
-4.34452e-05
4.40741e-05
-4.93457e-05
4.58514e-05
-5.53789e-05
4.72687e-05
-6.15059e-05
4.83355e-05
-6.76897e-05
4.90616e-05
-7.3894e-05
4.94568e-05
-8.00837e-05
4.95298e-05
-8.62243e-05
4.92886e-05
-9.2282e-05
4.87399e-05
-9.82234e-05
4.78892e-05
-0.000104015
4.67411e-05
-0.000109626
4.52997e-05
-0.000115022
4.35685e-05
-0.000120171
4.15511e-05
-0.000125044
3.92514e-05
-0.000129607
3.66744e-05
-0.000133831
3.38262e-05
-0.000137686
3.07146e-05
-0.000141144
2.73496e-05
-0.000144177
2.37436e-05
-0.00014676
1.99118e-05
-0.000148868
1.58722e-05
-0.00015048
1.16462e-05
-0.000151576
7.2584e-06
-0.000152138
2.73691e-06
-0.000152154
-1.88692e-06
-0.000151614
-6.5784e-06
-0.000150509
-1.12997e-05
-0.000148839
-1.60103e-05
-0.000146605
-2.0667e-05
-0.000143814
-2.52244e-05
-0.000140478
-2.96357e-05
-0.000136613
-3.38531e-05
-0.000132242
-3.78283e-05
-0.000127392
-4.15136e-05
-0.000122098
-4.48624e-05
-0.000116397
-4.78302e-05
-0.000110335
-5.03755e-05
-0.00010396
-5.24609e-05
-9.7326e-05
-5.40537e-05
-9.04911e-05
-5.51271e-05
-8.35168e-05
-5.56609e-05
-7.64673e-05
-5.56425e-05
-6.94087e-05
-5.50674e-05
-6.24081e-05
-5.39401e-05
-5.55322e-05
-5.22743e-05
-4.88466e-05
-5.00934e-05
-4.24146e-05
-4.74305e-05
-3.62956e-05
-4.43289e-05
-3.05445e-05
-4.08412e-05
-2.52103e-05
-3.70299e-05
-2.03353e-05
-3.29662e-05
-1.59542e-05
-2.873e-05
-1.20932e-05
-2.44092e-05
-8.77009e-06
-2.00991e-05
-5.99336e-06
-1.59015e-05
-3.7626e-06
-1.19244e-05
-2.06865e-06
-8.28076e-06
-8.94224e-07
-5.08806e-06
-2.14826e-07
-2.46659e-06
-5.43629e-07
-4.81809e-07
2.85162e-06
-1.83164e-06
8.5888e-06
-3.96102e-06
1.42258e-05
-6.78801e-06
1.96619e-05
-1.02366e-05
2.48223e-05
-1.42362e-05
2.96503e-05
-1.87216e-05
3.41045e-05
-2.3632e-05
3.81575e-05
-2.89107e-05
4.1793e-05
-3.45049e-05
4.50035e-05
-4.03651e-05
4.77888e-05
-4.64446e-05
5.01536e-05
-5.26993e-05
5.21062e-05
-5.90875e-05
5.36569e-05
-6.55691e-05
5.48171e-05
-7.21057e-05
5.55982e-05
-7.86603e-05
5.60113e-05
-8.51967e-05
5.60663e-05
-9.168e-05
5.57718e-05
-9.80753e-05
5.51353e-05
-0.000104349
5.41627e-05
-0.000110467
5.28592e-05
-0.000116396
5.1229e-05
-0.000122104
4.9276e-05
-0.000127557
4.70041e-05
-0.000132723
4.44175e-05
-0.00013757
4.15217e-05
-0.000142067
3.83234e-05
-0.000146184
3.4831e-05
-0.00014989
3.10556e-05
-0.000153157
2.70107e-05
-0.000155958
2.27127e-05
-0.000158267
1.81815e-05
-0.000160061
1.34404e-05
-0.000161319
8.51628e-06
-0.000162022
3.4399e-06
-0.000162155
-1.75439e-06
-0.000161704
-7.02857e-06
-0.000160663
-1.23411e-05
-0.000159026
-1.76473e-05
-0.000156794
-2.28994e-05
-0.00015397
-2.80475e-05
-0.000150567
-3.30395e-05
-0.000146598
-3.78221e-05
-0.000142085
-4.23414e-05
-0.000137054
-4.65439e-05
-0.00013154
-5.0377e-05
-0.000125579
-5.37904e-05
-0.000119218
-5.67367e-05
-0.000112506
-5.91728e-05
-0.000105499
-6.10608e-05
-9.82573e-05
-6.23691e-05
-9.08449e-05
-6.30734e-05
-8.33298e-05
-6.31576e-05
-7.57824e-05
-6.26149e-05
-6.82744e-05
-6.14481e-05
-6.08781e-05
-5.96707e-05
-5.36646e-05
-5.73068e-05
-4.67033e-05
-5.43919e-05
-4.00598e-05
-5.09723e-05
-3.37956e-05
-4.71055e-05
-2.7966e-05
-4.28595e-05
-2.26195e-05
-3.83126e-05
-1.77971e-05
-3.35524e-05
-1.35308e-05
-2.86755e-05
-9.8438e-06
-2.37861e-05
-6.74959e-06
-1.89957e-05
-4.25226e-06
-1.44217e-05
-2.34657e-06
-1.01865e-05
-1.01845e-06
-6.41617e-06
-2.45919e-07
-3.23912e-06
-7.89549e-07
-5.18037e-07
3.36966e-06
-1.96668e-06
1.00374e-05
-4.2481e-06
1.65072e-05
-7.27166e-06
2.26854e-05
-1.09535e-05
2.85041e-05
-1.5216e-05
3.39129e-05
-1.99879e-05
3.88764e-05
-2.5203e-05
4.33727e-05
-3.08004e-05
4.73903e-05
-3.67235e-05
5.09266e-05
-4.29196e-05
5.3985e-05
-4.93399e-05
5.65738e-05
-5.5938e-05
5.87044e-05
-6.26707e-05
6.03896e-05
-6.94967e-05
6.1643e-05
-7.63765e-05
6.24781e-05
-8.32723e-05
6.29071e-05
-9.01472e-05
6.29413e-05
-9.69656e-05
6.25902e-05
-0.000103692
6.1862e-05
-0.000110293
6.07633e-05
-0.000116733
5.92995e-05
-0.00012298
5.74752e-05
-0.000128998
5.52946e-05
-0.000134756
5.27616e-05
-0.000140219
4.98811e-05
-0.000145356
4.66587e-05
-0.000150134
4.31015e-05
-0.000154522
3.92188e-05
-0.000158489
3.50222e-05
-0.000162004
3.05263e-05
-0.00016504
2.57489e-05
-0.00016757
2.07113e-05
-0.000169568
1.54385e-05
-0.000171012
9.95984e-06
-0.00017188
4.30828e-06
-0.000172156
-1.47887e-06
-0.000171824
-7.36036e-06
-0.000170874
-1.3291e-05
-0.000169299
-1.9222e-05
-0.000167097
-2.51014e-05
-0.000164271
-3.0874e-05
-0.000160828
-3.64827e-05
-0.000156781
-4.18686e-05
-0.000152151
-4.69719e-05
-0.000146962
-5.17328e-05
-0.000141247
-5.60924e-05
-0.000135043
-5.99939e-05
-0.000128396
-6.33836e-05
-0.000121357
-6.62122e-05
-0.000113982
-6.84357e-05
-0.000106334
-7.0017e-05
-9.84803e-05
-7.0927e-05
-9.04925e-05
-7.11455e-05
-8.24451e-05
-7.06622e-05
-7.44151e-05
-6.94781e-05
-6.64803e-05
-6.76054e-05
-5.87183e-05
-6.50689e-05
-5.12048e-05
-6.19054e-05
-4.40126e-05
-5.81645e-05
-3.721e-05
-5.3908e-05
-3.08597e-05
-4.92098e-05
-2.50172e-05
-4.41551e-05
-1.97302e-05
-3.88395e-05
-1.50372e-05
-3.33685e-05
-1.09672e-05
-2.78561e-05
-7.5394e-06
-2.24236e-05
-4.76253e-06
-1.71986e-05
-2.63538e-06
-1.23136e-05
-1.14712e-06
-7.90444e-06
-2.77963e-07
-4.10828e-06
-1.06751e-06
-5.52627e-07
3.92228e-06
-2.09567e-06
1.15805e-05
-4.52244e-06
1.8934e-05
-7.73412e-06
2.58971e-05
-1.16394e-05
3.24094e-05
-1.61541e-05
3.84276e-05
-2.1201e-05
4.39233e-05
-2.67091e-05
4.88807e-05
-3.2613e-05
5.32943e-05
-3.88528e-05
5.71664e-05
-4.5373e-05
6.05051e-05
-5.2122e-05
6.33229e-05
-5.90519e-05
6.56343e-05
-6.61179e-05
6.74555e-05
-7.32775e-05
6.88026e-05
-8.04903e-05
6.96909e-05
-8.77178e-05
7.01346e-05
-9.49226e-05
7.01461e-05
-0.000102069
6.97362e-05