/*--------------------------------*- C++ -*----------------------------------*\
  =========                 |
  \\      /  F ield         | OpenFOAM: The Open Source CFD Toolbox
   \\    /   O peration     | Website:  https://openfoam.org
    \\  /    A nd           | Version:  dev
     \\/     M anipulation  |
\*---------------------------------------------------------------------------*/
FoamFile
{
    format      ascii;
    class       volVectorField;
    location    "28.8";
    object      U;
}
// * * * * * * * * * * * * * * * * * * * * * * * * * * * * * * * * * * * * * //

dimensions      [0 1 -1 0 0 0 0];

internalField   nonuniform List<vector> 
5184
(
(1.22429e-05 -1.27874e-05 0)
(4.50359e-05 -2.09308e-05 0)
(8.02531e-05 -1.72635e-05 0)
(9.59336e-05 -8.20189e-06 0)
(8.21097e-05 2.6681e-06 0)
(3.64204e-05 1.36175e-05 0)
(-4.05829e-05 2.38439e-05 0)
(-0.000146884 3.30439e-05 0)
(-0.000279692 4.11002e-05 0)
(-0.000435946 4.80174e-05 0)
(-0.000612527 5.38567e-05 0)
(-0.000806402 5.87034e-05 0)
(-0.0010147 6.26505e-05 0)
(-0.00123477 6.57888e-05 0)
(-0.00146413 6.82028e-05 0)
(-0.00170054 6.99678e-05 0)
(-0.00194192 7.11482e-05 0)
(-0.00218636 7.17969e-05 0)
(-0.00243208 7.19545e-05 0)
(-0.00267738 7.16506e-05 0)
(-0.00292067 7.09043e-05 0)
(-0.00316039 6.97261e-05 0)
(-0.003395 6.8119e-05 0)
(-0.00362298 6.60801e-05 0)
(-0.00384281 6.36022e-05 0)
(-0.00405294 6.06755e-05 0)
(-0.00425183 5.72895e-05 0)
(-0.00443789 5.34346e-05 0)
(-0.00460955 4.91037e-05 0)
(-0.00476522 4.4294e-05 0)
(-0.00490336 3.90077e-05 0)
(-0.00502244 3.3254e-05 0)
(-0.00512099 2.70502e-05 0)
(-0.00519764 2.04222e-05 0)
(-0.00525113 1.3406e-05 0)
(-0.00528034 6.04714e-06 0)
(-0.00528434 -1.59823e-06 0)
(-0.00526239 -9.4638e-06 0)
(-0.00521399 -1.74731e-05 0)
(-0.00513891 -2.55404e-05 0)
(-0.00503722 -3.35711e-05 0)
(-0.00490928 -4.14637e-05 0)
(-0.00475582 -4.91109e-05 0)
(-0.00457787 -5.64018e-05 0)
(-0.00437685 -6.32239e-05 0)
(-0.0041545 -6.94654e-05 0)
(-0.00391293 -7.50176e-05 0)
(-0.00365455 -7.97775e-05 0)
(-0.00338209 -8.36503e-05 0)
(-0.00309856 -8.65521e-05 0)
(-0.00280719 -8.84124e-05 0)
(-0.00251142 -8.91762e-05 0)
(-0.0022148 -8.88055e-05 0)
(-0.001921 -8.72807e-05 0)
(-0.00163368 -8.46013e-05 0)
(-0.00135648 -8.07862e-05 0)
(-0.00109295 -7.58745e-05 0)
(-0.000846458 -6.9925e-05 0)
(-0.00062014 -6.30156e-05 0)
(-0.000416853 -5.52427e-05 0)
(-0.000239094 -4.67201e-05 0)
(-8.89404e-05 -3.75805e-05 0)
(3.20185e-05 -2.79788e-05 0)
(0.000122769 -1.80973e-05 0)
(0.000182978 -8.1615e-06 0)
(0.00021315 1.53338e-06 0)
(0.000214869 1.05639e-05 0)
(0.000191185 1.82933e-05 0)
(0.000147127 2.37099e-05 0)
(9.07857e-05 2.51227e-05 0)
(3.66255e-05 1.98463e-05 0)
(6.2269e-06 6.24411e-06 0)
(2.07948e-05 -4.59981e-05 0)
(6.55216e-05 -6.57781e-05 0)
(9.46255e-05 -4.05878e-05 0)
(7.27364e-05 7.61738e-06 0)
(-1.89902e-05 6.56659e-05 0)
(-0.000187358 0.000125976 0)
(-0.000432946 0.000184272 0)
(-0.000752538 0.000238307 0)
(-0.00114059 0.000286947 0)
(-0.00159033 0.000329749 0)
(-0.0020944 0.000366671 0)
(-0.00264536 0.000397905 0)
(-0.0032359 0.000423761 0)
(-0.00385902 0.000444609 0)
(-0.00450813 0.000460823 0)
(-0.00517703 0.000472762 0)
(-0.00585992 0.000480749 0)
(-0.00655135 0.00048506 0)
(-0.0072462 0.000485918 0)
(-0.00793957 0.000483495 0)
(-0.00862677 0.000477911 0)
(-0.00930325 0.000469243 0)
(-0.00996454 0.000457529 0)
(-0.0106062 0.00044278 0)
(-0.0112239 0.000424983 0)
(-0.0118131 0.000404114 0)
(-0.0123694 0.00038015 0)
(-0.0128886 0.000353073 0)
(-0.0133661 0.000322884 0)
(-0.0137976 0.000289609 0)
(-0.0141789 0.00025331 0)
(-0.0145059 0.000214089 0)
(-0.0147747 0.000172095 0)
(-0.0149816 0.000127531 0)
(-0.0151234 8.06577e-05 0)
(-0.0151973 3.17935e-05 0)
(-0.0152009 -1.86828e-05 0)
(-0.0151324 -7.03333e-05 0)
(-0.0149906 -0.000122663 0)
(-0.0147753 -0.000175125 0)
(-0.0144867 -0.000227125 0)
(-0.0141262 -0.000278031 0)
(-0.0136959 -0.000327182 0)
(-0.0131987 -0.000373899 0)
(-0.0126386 -0.000417498 0)
(-0.0120205 -0.000457303 0)
(-0.0113501 -0.000492663 0)
(-0.0106341 -0.000522963 0)
(-0.00987986 -0.000547642 0)
(-0.00909543 -0.000566205 0)
(-0.00828953 -0.000578239 0)
(-0.00747135 -0.000583426 0)
(-0.0066504 -0.000581548 0)
(-0.00583644 -0.000572504 0)
(-0.00503923 -0.00055631 0)
(-0.00426845 -0.000533103 0)
(-0.00353347 -0.000503147 0)
(-0.00284322 -0.000466831 0)
(-0.00220597 -0.000424669 0)
(-0.00162921 -0.000377304 0)
(-0.0011194 -0.000325502 0)
(-0.000681843 -0.000270168 0)
(-0.000320458 -0.000212363 0)
(-3.75273e-05 -0.000153338 0)
(0.000166581 -9.4604e-05 0)
(0.000293789 -3.80392e-05 0)
(0.000348844 1.38973e-05 0)
(0.000340013 5.79002e-05 0)
(0.000279787 8.93781e-05 0)
(0.000186013 0.000101836 0)
(8.63549e-05 8.6506e-05 0)
(1.96774e-05 3.64855e-05 0)
(1.76131e-05 -8.13513e-05 0)
(4.12706e-05 -9.50679e-05 0)
(1.95267e-05 -1.9156e-05 0)
(-8.40623e-05 0.000105904 0)
(-0.000290291 0.000254612 0)
(-0.000607905 0.000410529 0)
(-0.00103816 0.000563341 0)
(-0.00157725 0.000706914 0)
(-0.00221801 0.000837802 0)
(-0.00295125 0.0009543 0)
(-0.0037667 0.00105581 0)
(-0.00465364 0.00114243 0)
(-0.00560135 0.00121467 0)
(-0.00659938 0.00127327 0)
(-0.00763768 0.00131903 0)
(-0.00870668 0.00135278 0)
(-0.0097973 0.0013753 0)
(-0.0109009 0.00138725 0)
(-0.0120094 0.00138921 0)
(-0.0131148 0.0013816 0)
(-0.0142097 0.00136477 0)
(-0.0152865 0.00133893 0)
(-0.0163382 0.00130422 0)
(-0.0173575 0.00126069 0)
(-0.0183374 0.00120835 0)
(-0.0192708 0.00114721 0)
(-0.0201507 0.00107723 0)
(-0.0209702 0.00099845 0)
(-0.0217223 0.000910922 0)
(-0.0224004 0.000814788 0)
(-0.0229978 0.000710279 0)
(-0.0235083 0.00059774 0)
(-0.0239258 0.000477644 0)
(-0.0242451 0.000350607 0)
(-0.0244611 0.000217393 0)
(-0.0245696 7.89253e-05 0)
(-0.0245673 -6.37155e-05 0)
(-0.0244516 -0.000209294 0)
(-0.024221 -0.000356429 0)
(-0.0238752 -0.000503602 0)
(-0.0234151 -0.000649178 0)
(-0.0228427 -0.000791425 0)
(-0.0221615 -0.000928541 0)
(-0.0213765 -0.00105868 0)
(-0.0204937 -0.00118 0)
(-0.0195209 -0.00129067 0)
(-0.018467 -0.00138895 0)
(-0.0173421 -0.00147318 0)
(-0.0161578 -0.00154188 0)
(-0.0149263 -0.00159371 0)
(-0.0136611 -0.00162759 0)
(-0.012376 -0.00164267 0)
(-0.0110858 -0.0016384 0)
(-0.00980519 -0.00161451 0)
(-0.00854908 -0.00157107 0)
(-0.00733217 -0.00150849 0)
(-0.00616871 -0.00142751 0)
(-0.00507223 -0.00132924 0)
(-0.00405527 -0.00121511 0)
(-0.0031291 -0.00108694 0)
(-0.00230346 -0.000946898 0)
(-0.00158624 -0.00079755 0)
(-0.000983181 -0.000641905 0)
(-0.000497512 -0.000483493 0)
(-0.000129547 -0.000326511 0)
(0.000123782 -0.000176046 0)
(0.000269568 -3.84155e-05 0)
(0.000319654 7.83655e-05 0)
(0.000291172 0.000164001 0)
(0.000207344 0.000205327 0)
(0.000102429 0.000186237 0)
(2.49725e-05 9.03796e-05 0)
(8.82953e-06 -9.77478e-05 0)
(-7.04219e-06 -7.31551e-05 0)
(-0.000107622 8.47658e-05 0)
(-0.000322385 0.000318318 0)
(-0.000669575 0.000590008 0)
(-0.0011576 0.000874218 0)
(-0.00178721 0.00115392 0)
(-0.00255364 0.00141833 0)
(-0.00344834 0.00166098 0)
(-0.00446029 0.00187833 0)
(-0.005577 0.00206884 0)
(-0.00678528 0.00223224 0)
(-0.00807172 0.0023691 0)
(-0.00942307 0.00248046 0)
(-0.0108264 0.00256758 0)
(-0.0122693 0.0026318 0)
(-0.01374 0.0026744 0)
(-0.0152268 0.00269653 0)
(-0.016719 0.00269917 0)
(-0.018206 0.00268311 0)
(-0.0196776 0.00264895 0)
(-0.0211238 0.00259711 0)
(-0.0225348 0.00252787 0)
(-0.0239011 0.00244138 0)
(-0.025213 0.00233772 0)
(-0.0264611 0.00221693 0)
(-0.0276361 0.00207908 0)
(-0.0287286 0.00192427 0)
(-0.0297296 0.00175271 0)
(-0.0306302 0.00156474 0)
(-0.0314218 0.0013609 0)
(-0.0320962 0.00114191 0)
(-0.0326458 0.000908762 0)
(-0.0330636 0.00066268 0)
(-0.0333434 0.000405181 0)
(-0.0334798 0.000138067 0)
(-0.0334688 -0.000136574 0)
(-0.0333071 -0.000416372 0)
(-0.0329933 -0.000698693 0)
(-0.032527 -0.00098066 0)
(-0.0319096 -0.00125919 0)
(-0.0311441 -0.00153102 0)
(-0.0302353 -0.00179278 0)
(-0.0291897 -0.00204102 0)
(-0.0280155 -0.00227231 0)
(-0.0267227 -0.00248325 0)
(-0.0253231 -0.00267059 0)
(-0.02383 -0.0028313 0)
(-0.0222581 -0.00296258 0)
(-0.0206236 -0.00306202 0)
(-0.0189437 -0.0031276 0)
(-0.0172366 -0.00315778 0)
(-0.015521 -0.00315153 0)
(-0.013816 -0.0031084 0)
(-0.012141 -0.00302854 0)
(-0.0105148 -0.00291273 0)
(-0.00895575 -0.00276242 0)
(-0.00748133 -0.00257969 0)
(-0.00610766 -0.0023673 0)
(-0.00484923 -0.00212871 0)
(-0.00371854 -0.00186807 0)
(-0.0027257 -0.00159026 0)
(-0.00187804 -0.00130101 0)
(-0.00117969 -0.00100698 0)
(-0.000631108 -0.000715988 0)
(-0.000228608 -0.000437307 0)
(3.62883e-05 -0.000182079 0)
(0.000177472 3.60891e-05 0)
(0.000214664 0.000200482 0)
(0.000174029 0.000290708 0)
(9.30013e-05 0.000282477 0)
(2.40222e-05 0.000147254 0)
(-2.12904e-06 -8.43955e-05 0)
(-6.7301e-05 2.08977e-05 0)
(-0.000264108 0.00029542 0)
(-0.000609727 0.000667942 0)
(-0.00111665 0.00109066 0)
(-0.00179108 0.00152967 0)
(-0.00263203 0.00196154 0)
(-0.00363314 0.0023708 0)
(-0.00478427 0.00274772 0)
(-0.00607271 0.00308667 0)
(-0.00748412 0.00338489 0)
(-0.00900324 0.00364154 0)
(-0.0106145 0.0038571 0)
(-0.0123023 0.0040328 0)
(-0.0140514 0.0041703 0)
(-0.015847 0.00427142 0)
(-0.0176746 0.00433796 0)
(-0.0195205 0.00437156 0)
(-0.0213714 0.00437364 0)
(-0.0232141 0.00434537 0)
(-0.0250362 0.00428768 0)
(-0.0268254 0.0042012 0)
(-0.0285695 0.00408641 0)
(-0.0302566 0.0039436 0)
(-0.031875 0.00377297 0)
(-0.0334131 0.00357465 0)
(-0.0348592 0.00334885 0)
(-0.0362022 0.00309584 0)
(-0.037431 0.00281606 0)
(-0.0385347 0.00251018 0)
(-0.039503 0.00217914 0)
(-0.0403262 0.00182421 0)
(-0.0409952 0.00144705 0)
(-0.0415016 0.0010497 0)
(-0.0418381 0.000634638 0)
(-0.0419987 0.000204793 0)
(-0.0419783 -0.000236479 0)
(-0.0417738 -0.000685392 0)
(-0.0413832 -0.00113776 0)
(-0.0408066 -0.00158902 0)
(-0.0400458 -0.00203432 0)
(-0.0391047 -0.00246853 0)
(-0.0379891 -0.00288636 0)
(-0.036707 -0.00328244 0)
(-0.0352684 -0.00365137 0)
(-0.0336854 -0.0039879 0)
(-0.0319721 -0.00428695 0)
(-0.0301445 -0.0045438 0)
(-0.0282203 -0.00475413 0)
(-0.0262188 -0.00491418 0)
(-0.0241605 -0.00502084 0)
(-0.0220672 -0.00507171 0)
(-0.0199611 -0.00506521 0)
(-0.0178651 -0.00500067 0)
(-0.0158022 -0.00487836 0)
(-0.0137948 -0.00469951 0)
(-0.011865 -0.00446641 0)
(-0.0100335 -0.00418238 0)
(-0.00831962 -0.0038518 0)
(-0.00674062 -0.00348012 0)
(-0.00531147 -0.00307392 0)
(-0.00404431 -0.00264094 0)
(-0.002948 -0.00219016 0)
(-0.00202769 -0.00173199 0)
(-0.00128431 -0.00127849 0)
(-0.000714111 -0.000843693 0)
(-0.000308098 -0.000444094 0)
(-5.15081e-05 -9.92462e-05 0)
(7.65313e-05 0.000167516 0)
(0.000103521 0.000328464 0)
(6.74761e-05 0.000350864 0)
(1.96595e-05 0.000194092 0)
(-1.36967e-05 -3.7505e-05 0)
(-0.000132827 0.000197365 0)
(-0.000435782 0.00062684 0)
(-0.000924525 0.00117019 0)
(-0.00160368 0.00177147 0)
(-0.00247581 0.00238982 0)
(-0.00353707 0.0029962 0)
(-0.00477877 0.00357082 0)
(-0.00618882 0.00410082 0)
(-0.00775269 0.00457844 0)
(-0.00945427 0.00499962 0)
(-0.0112765 0.00536285 0)
(-0.0132019 0.00566839 0)
(-0.0152129 0.00591759 0)
(-0.0172922 0.00611244 0)
(-0.019423 0.0062552 0)
(-0.0215889 0.00634816 0)
(-0.0237737 0.00639344 0)
(-0.0259621 0.00639291 0)
(-0.0281389 0.00634815 0)
(-0.0302895 0.00626037 0)
(-0.0323994 0.00613053 0)
(-0.0344545 0.00595928 0)
(-0.0364407 0.00574709 0)
(-0.0383444 0.00549433 0)
(-0.0401519 0.00520131 0)
(-0.0418498 0.00486841 0)
(-0.043425 0.00449616 0)
(-0.0448646 0.00408532 0)
(-0.0461562 0.00363699 0)
(-0.047288 0.00315265 0)
(-0.0482488 0.00263426 0)
(-0.0490281 0.0020843 0)
(-0.0496166 0.00150581 0)
(-0.050006 0.000902439 0)
(-0.0501895 0.000278441 0)
(-0.0501617 -0.000361321 0)
(-0.0499189 -0.0010114 0)
(-0.0494593 -0.00166578 0)
(-0.048783 -0.00231797 0)
(-0.0478924 -0.00296103 0)
(-0.0467919 -0.00358771 0)
(-0.0454886 -0.00419049 0)
(-0.0439914 -0.00476177 0)
(-0.0423121 -0.00529396 0)
(-0.0404644 -0.00577961 0)
(-0.0384645 -0.00621159 0)
(-0.0363307 -0.00658323 0)
(-0.0340831 -0.00688848 0)
(-0.0317438 -0.00712203 0)
(-0.0293362 -0.00727948 0)
(-0.0268849 -0.00735749 0)
(-0.0244155 -0.00735383 0)
(-0.021954 -0.00726756 0)
(-0.0195265 -0.00709905 0)
(-0.0171589 -0.0068501 0)
(-0.0148762 -0.00652394 0)
(-0.0127022 -0.00612529 0)
(-0.010659 -0.00566039 0)
(-0.00876652 -0.00513701 0)
(-0.00704198 -0.00456449 0)
(-0.0054995 -0.00395381 0)
(-0.00414956 -0.00331767 0)
(-0.00299852 -0.00267066 0)
(-0.00204816 -0.00202951 0)
(-0.00129521 -0.00141341 0)
(-0.000730888 -0.000844491 0)
(-0.00034048 -0.000348428 0)
(-0.000103031 4.48067e-05 0)
(9.0868e-06 0.000300275 0)
(3.24675e-05 0.00037717 0)
(1.36148e-05 0.000224454 0)
(-2.51854e-05 4.4118e-05 0)
(-0.000199989 0.000461249 0)
(-0.000613991 0.00108694 0)
(-0.00125271 0.00183446 0)
(-0.00211167 0.00264195 0)
(-0.00318873 0.00346318 0)
(-0.00447632 0.00426452 0)
(-0.00596271 0.00502254 0)
(-0.00763342 0.00572161 0)
(-0.0094719 0.00635207 0)
(-0.0114602 0.00690858 0)
(-0.0135794 0.00738899 0)
(-0.0158104 0.00779332 0)
(-0.018134 0.00812298 0)
(-0.020531 0.00838025 0)
(-0.0229828 0.00856779 0)
(-0.0254711 0.00868835 0)
(-0.0279781 0.0087445 0)
(-0.0304865 0.00873858 0)
(-0.0329793 0.00867252 0)
(-0.03544 0.00854789 0)
(-0.0378521 0.00836592 0)
(-0.0401998 0.0081275 0)
(-0.0424672 0.00783331 0)
(-0.0446388 0.00748392 0)
(-0.0466992 0.00707986 0)
(-0.0486333 0.00662176 0)
(-0.0504263 0.00611048 0)
(-0.0520639 0.0055472 0)
(-0.0535321 0.00493354 0)
(-0.0548178 0.00427163 0)
(-0.0559085 0.00356426 0)
(-0.0567926 0.00281488 0)
(-0.0574599 0.00202768 0)
(-0.0579012 0.00120766 0)
(-0.0581091 0.000360595 0)
(-0.0580777 -0.000506956 0)
(-0.057803 -0.00138766 0)
(-0.0572831 -0.00227347 0)
(-0.0565183 -0.0031557 0)
(-0.0555114 -0.00402512 0)
(-0.0542673 -0.00487208 0)
(-0.0527937 -0.00568661 0)
(-0.0511009 -0.00645864 0)
(-0.0492017 -0.00717809 0)
(-0.0471114 -0.00783514 0)
(-0.0448479 -0.00842034 0)
(-0.0424314 -0.00892487 0)
(-0.0398842 -0.00934071 0)
(-0.0372306 -0.00966086 0)
(-0.0344965 -0.00987948 0)
(-0.0317093 -0.00999212 0)
(-0.0288972 -0.00999584 0)
(-0.0260891 -0.00988935 0)
(-0.0233141 -0.00967314 0)
(-0.0206008 -0.00934956 0)
(-0.0179772 -0.00892288 0)
(-0.0154699 -0.00839938 0)
(-0.0131036 -0.0077873 0)
(-0.0109007 -0.00709697 0)
(-0.00888085 -0.00634076 0)
(-0.00706006 -0.00553319 0)
(-0.00545061 -0.00469099 0)
(-0.00406035 -0.00383326 0)
(-0.00289227 -0.00298168 0)
(-0.00194409 -0.00216086 0)
(-0.00120788 -0.0013987 0)
(-0.000669682 -0.000727068 0)
(-0.000309306 -0.000182437 0)
(-9.99188e-05 0.000193389 0)
(-7.74076e-06 0.000352294 0)
(6.85485e-06 0.00023491 0)
(-3.63356e-05 0.00016047 0)
(-0.000266899 0.000814416 0)
(-0.000793611 0.0016795 0)
(-0.00158534 0.00266575 0)
(-0.00262794 0.00370748 0)
(-0.00391384 0.00475467 0)
(-0.00543107 0.00577028 0)
(-0.00716436 0.00672804 0)
(-0.00909638 0.00761015 0)
(-0.0112083 0.00840534 0)
(-0.0134801 0.00910728 0)
(-0.0158912 0.00971324 0)
(-0.0184208 0.0102231 0)
(-0.021048 0.0106383 0)
(-0.0237522 0.0109614 0)
(-0.0265131 0.0111954 0)
(-0.029311 0.0113436 0)
(-0.0321262 0.0114089 0)
(-0.03494 0.0113942 0)
(-0.0377337 0.0113016 0)
(-0.0404891 0.0111332 0)
(-0.0431883 0.0108905 0)
(-0.0458136 0.0105745 0)
(-0.0483476 0.0101862 0)
(-0.0507732 0.00972639 0)
(-0.0530734 0.00919589 0)
(-0.0552316 0.00859563 0)
(-0.0572317 0.00792686 0)
(-0.0590579 0.00719126 0)
(-0.0606949 0.00639104 0)
(-0.0621283 0.00552912 0)
(-0.0633445 0.00460921 0)
(-0.0643311 0.00363586 0)
(-0.0650768 0.00261456 0)
(-0.0655717 0.00155179 0)
(-0.0658077 0.000455014 0)
(-0.0657786 -0.000667337 0)
(-0.0654799 -0.00180587 0)
(-0.0649097 -0.00295032 0)
(-0.0640684 -0.00408961 0)
(-0.0629587 -0.00521203 0)
(-0.0615862 -0.0063053 0)
(-0.0599591 -0.00735681 0)
(-0.0580885 -0.00835377 0)
(-0.0559881 -0.00928345 0)
(-0.0536746 -0.0101334 0)
(-0.0511671 -0.0108917 0)
(-0.0484876 -0.0115471 0)
(-0.0456602 -0.0120894 0)
(-0.042711 -0.0125098 0)
(-0.0396684 -0.0128009 0)
(-0.0365619 -0.0129569 0)
(-0.0334224 -0.0129741 0)
(-0.0302812 -0.0128508 0)
(-0.0271701 -0.0125875 0)
(-0.0241205 -0.0121871 0)
(-0.021163 -0.011655 0)
(-0.018327 -0.010999 0)
(-0.0156398 -0.0102296 0)
(-0.0131263 -0.00935983 0)
(-0.0108085 -0.00840522 0)
(-0.00870454 -0.00738407 0)
(-0.00682877 -0.00631738 0)
(-0.00519077 -0.00522898 0)
(-0.00379516 -0.00414571 0)
(-0.00264109 -0.00309772 0)
(-0.00172198 -0.0021188 0)
(-0.00102528 -0.0012469 0)
(-0.000532152 -0.000524836 0)
(-0.000217257 -7.98654e-07 0)
(-5.04816e-05 0.000270672 0)
(-8.91304e-08 0.000223754 0)
(-4.70521e-05 0.000310917 0)
(-0.000332574 0.00125678 0)
(-0.000971644 0.00240548 0)
(-0.00191681 0.00366593 0)
(-0.00314407 0.0049704 0)
(-0.00464007 0.00626654 0)
(-0.00638798 0.00751512 0)
(-0.00836853 0.00868793 0)
(-0.0105612 0.00976564 0)
(-0.0129447 0.0107359 0)
(-0.0154967 0.0115916 0)
(-0.0181949 0.0123298 0)
(-0.0210168 0.0129502 0)
(-0.02394 0.0134545 0)
(-0.0269425 0.0138455 0)
(-0.0300025 0.0141266 0)
(-0.0330988 0.0143015 0)
(-0.0362107 0.0143737 0)
(-0.0393176 0.0143461 0)
(-0.0423997 0.0142217 0)
(-0.0454373 0.0140026 0)
(-0.048411 0.0136905 0)
(-0.0513018 0.0132869 0)
(-0.0540908 0.012793 0)
(-0.0567595 0.0122098 0)
(-0.0592896 0.0115385 0)
(-0.0616632 0.0107802 0)
(-0.0638627 0.00993683 0)
(-0.0658712 0.00901047 0)
(-0.0676722 0.00800408 0)
(-0.0692503 0.00692144 0)
(-0.0705908 0.00576724 0)
(-0.0716803 0.00454727 0)
(-0.0725066 0.00326842 0)
(-0.0730593 0.00193877 0)
(-0.0733295 0.000567604 0)
(-0.0733105 -0.000834635 0)
(-0.0729975 -0.00225635 0)
(-0.0723882 -0.0036849 0)
(-0.0714829 -0.00510667 0)
(-0.0702845 -0.00650726 0)
(-0.0687987 -0.00787163 0)
(-0.0670341 -0.00918431 0)
(-0.0650024 -0.0104296 0)
(-0.062718 -0.011592 0)
(-0.0601985 -0.0126561 0)
(-0.0574642 -0.0136074 0)
(-0.0545384 -0.014432 0)
(-0.0514466 -0.0151174 0)
(-0.048217 -0.0156527 0)
(-0.0448797 -0.0160287 0)
(-0.0414663 -0.0162383 0)
(-0.0380099 -0.0162768 0)
(-0.0345445 -0.0161418 0)
(-0.0311042 -0.015834 0)
(-0.0277232 -0.0153568 0)
(-0.0244347 -0.0147165 0)
(-0.0212707 -0.0139227 0)
(-0.0182613 -0.0129881 0)
(-0.015434 -0.0119284 0)
(-0.0128132 -0.0107626 0)
(-0.0104196 -0.00951291 0)
(-0.00826966 -0.00820475 0)
(-0.00637515 -0.00686683 0)
(-0.00474262 -0.0055313 0)
(-0.00337311 -0.00423394 0)
(-0.00226185 -0.00301443 0)
(-0.00139813 -0.00191678 0)
(-0.000764997 -0.000989853 0)
(-0.000339024 -0.000287809 0)
(-9.41967e-05 0.000129195 0)
(-6.94725e-06 0.000190336 0)
(-5.73239e-05 0.000494556 0)
(-0.000396535 0.0017871 0)
(-0.00114635 0.003264 0)
(-0.00224359 0.00483462 0)
(-0.00365451 0.00643067 0)
(-0.00535977 0.00799883 0)
(-0.00733746 0.00949878 0)
(-0.00956401 0.0109013 0)
(-0.0120155 0.0121863 0)
(-0.0146677 0.0133409 0)
(-0.0174962 0.0143576 0)
(-0.0204768 0.0152334 0)
(-0.0235851 0.0159683 0)
(-0.0267974 0.016564 0)
(-0.0300902 0.0170239 0)
(-0.0334406 0.0173518 0)
(-0.036826 0.0175518 0)
(-0.0402245 0.0176278 0)
(-0.0436144 0.0175833 0)
(-0.0469745 0.0174214 0)
(-0.050284 0.0171446 0)
(-0.0535221 0.016755 0)
(-0.0566688 0.0162543 0)
(-0.0597038 0.015644 0)
(-0.0626075 0.0149253 0)
(-0.0653602 0.0140997 0)
(-0.0679431 0.0131688 0)
(-0.0703372 0.012135 0)
(-0.0725246 0.0110009 0)
(-0.0744878 0.00977028 0)
(-0.0762102 0.00844782 0)
(-0.0776763 0.00703931 0)
(-0.0788718 0.00555182 0)
(-0.0797836 0.00399374 0)
(-0.0804005 0.00237483 0)
(-0.080713 0.000706303 0)
(-0.0807137 -0.000999286 0)
(-0.0803974 -0.00272802 0)
(-0.0797615 -0.00446475 0)
(-0.0788059 -0.00619319 0)
(-0.0775334 -0.00789613 0)
(-0.0759496 -0.00955559 0)
(-0.0740634 -0.0111531 0)
(-0.0718865 -0.0126699 0)
(-0.0694342 -0.0140874 0)
(-0.0667244 -0.0153872 0)
(-0.0637785 -0.0165518 0)
(-0.0606207 -0.0175647 0)
(-0.057278 -0.0184108 0)
(-0.05378 -0.0190769 0)
(-0.0501584 -0.0195518 0)
(-0.0464469 -0.0198268 0)
(-0.0426808 -0.019896 0)
(-0.0388963 -0.0197566 0)
(-0.03513 -0.0194089 0)
(-0.0314188 -0.0188567 0)
(-0.0277985 -0.0181075 0)
(-0.024304 -0.0171725 0)
(-0.020968 -0.0160664 0)
(-0.017821 -0.014808 0)
(-0.0148901 -0.0134197 0)
(-0.0121986 -0.0119276 0)
(-0.00976552 -0.0103618 0)
(-0.00760512 -0.00875597 0)
(-0.00572629 -0.00714767 0)
(-0.00413232 -0.00557839 0)
(-0.00282064 -0.00409372 0)
(-0.00178277 -0.00274363 0)
(-0.00100397 -0.00158287 0)
(-0.000463006 -0.000671184 0)
(-0.000138069 -7.3751e-05 0)
(-1.3604e-05 0.000134575 0)
(-6.7168e-05 0.000710354 0)
(-0.000458553 0.00240347 0)
(-0.00131674 0.00425298 0)
(-0.00256347 0.00616986 0)
(-0.00415553 0.00808649 0)
(-0.00606762 0.00994978 0)
(-0.00827259 0.0117194 0)
(-0.0107424 0.013366 0)
(-0.0134496 0.0148694 0)
(-0.0163669 0.0162167 0)
(-0.0194677 0.0174008 0)
(-0.0227254 0.0184187 0)
(-0.0261144 0.0192709 0)
(-0.0296092 0.0199597 0)
(-0.0331852 0.0204887 0)
(-0.0368181 0.0208625 0)
(-0.0404844 0.0210855 0)
(-0.044161 0.0211621 0)
(-0.0478251 0.0210962 0)
(-0.0514546 0.0208913 0)
(-0.0550274 0.0205502 0)
(-0.058522 0.0200754 0)
(-0.061917 0.0194686 0)
(-0.0651913 0.0187318 0)
(-0.068324 0.0178663 0)
(-0.0712946 0.0168741 0)
(-0.074083 0.0157573 0)
(-0.0766694 0.0145185 0)
(-0.0790348 0.0131612 0)
(-0.0811608 0.0116898 0)
(-0.0830297 0.0101101 0)
(-0.0846252 0.0084289 0)
(-0.085932 0.00665464 0)
(-0.0869363 0.00479727 0)
(-0.087626 0.00286832 0)
(-0.0879908 0.00088096 0)
(-0.0880227 -0.00115004 0)
(-0.0877159 -0.00320837 0)
(-0.0870672 -0.00527627 0)
(-0.0860759 -0.00733468 0)
(-0.0847445 -0.00936346 0)
(-0.0830785 -0.0113416 0)
(-0.0810865 -0.0132473 0)
(-0.0787804 -0.0150588 0)
(-0.0761755 -0.0167541 0)
(-0.0732902 -0.0183118 0)
(-0.0701466 -0.019711 0)
(-0.0667696 -0.0209325 0)
(-0.0631873 -0.0219582 0)
(-0.0594306 -0.0227725 0)
(-0.0555327 -0.0233619 0)
(-0.0515293 -0.023716 0)
(-0.0474576 -0.0238275 0)
(-0.0433561 -0.0236927 0)
(-0.039264 -0.0233116 0)
(-0.0352206 -0.0226884 0)
(-0.0312648 -0.0218314 0)
(-0.0274343 -0.0207532 0)
(-0.0237649 -0.0194711 0)
(-0.02029 -0.0180064 0)
(-0.0170397 -0.0163851 0)
(-0.0140403 -0.0146375 0)
(-0.0113139 -0.0127982 0)
(-0.00887746 -0.010906 0)
(-0.00674253 -0.00900402 0)
(-0.00491506 -0.00713949 0)
(-0.00339504 -0.00536395 0)
(-0.00217653 -0.00373331 0)
(-0.00124722 -0.00230808 0)
(-0.000588191 -0.00115337 0)
(-0.000181773 -0.000339003 0)
(-2.00329e-05 5.66396e-05 0)
(-7.66081e-05 0.000957231 0)
(-0.000518526 0.00310359 0)
(-0.0014822 0.00536953 0)
(-0.002875 0.00766854 0)
(-0.00464459 0.00993472 0)
(-0.0067598 0.0121162 0)
(-0.00918824 0.0141736 0)
(-0.0118974 0.0160783 0)
(-0.014856 0.0178109 0)
(-0.0180339 0.019359 0)
(-0.0214019 0.0207161 0)
(-0.0249314 0.0218802 0)
(-0.028595 0.0228521 0)
(-0.0323659 0.0236348 0)
(-0.0362182 0.0242328 0)
(-0.0401265 0.0246511 0)
(-0.0440662 0.0248947 0)
(-0.0480133 0.0249685 0)
(-0.0519442 0.0248769 0)
(-0.0558357 0.0246237 0)
(-0.059665 0.0242121 0)
(-0.0634096 0.0236446 0)
(-0.0670471 0.0229236 0)
(-0.0705557 0.022051 0)
(-0.0739135 0.0210287 0)
(-0.0770991 0.0198588 0)
(-0.0800915 0.0185438 0)
(-0.0828701 0.0170869 0)
(-0.0854147 0.0154923 0)
(-0.0877062 0.0137653 0)
(-0.089726 0.0119124 0)
(-0.0914567 0.0099417 0)
(-0.0928824 0.00786302 0)
(-0.0939882 0.00568785 0)
(-0.0947611 0.00342953 0)
(-0.0951902 0.00110323 0)
(-0.0952665 -0.00127402 0)
(-0.0949833 -0.00368345 0)
(-0.0943368 -0.00610465 0)
(-0.0933256 -0.00851569 0)
(-0.0919517 -0.0108934 0)
(-0.0902198 -0.0132135 0)
(-0.0881383 -0.0154511 0)
(-0.0857189 -0.0175809 0)
(-0.0829767 -0.0195775 0)
(-0.0799303 -0.021416 0)
(-0.0766021 -0.0230724 0)
(-0.0730176 -0.024524 0)
(-0.0692058 -0.0257499 0)
(-0.0651985 -0.0267315 0)
(-0.0610307 -0.0274531 0)
(-0.0567394 -0.027902 0)
(-0.052364 -0.0280694 0)
(-0.0479453 -0.0279504 0)
(-0.0435249 -0.0275445 0)
(-0.0391451 -0.026856 0)
(-0.0348475 -0.0258939 0)
(-0.0306731 -0.0246725 0)
(-0.026661 -0.0232108 0)
(-0.0228477 -0.0215333 0)
(-0.0192669 -0.0196693 0)
(-0.0159482 -0.0176533 0)
(-0.0129169 -0.0155247 0)
(-0.010193 -0.0133273 0)
(-0.00779143 -0.01111 0)
(-0.00572097 -0.00892578 0)
(-0.00398451 -0.00683225 0)
(-0.00257888 -0.00489131 0)
(-0.00149438 -0.00316921 0)
(-0.000714422 -0.00173637 0)
(-0.000225307 -0.000667126 0)
(-2.62602e-05 -4.32536e-05 0)
(-8.56659e-05 0.0012341 0)
(-0.000576401 0.00388493 0)
(-0.00164235 0.00661022 0)
(-0.00317721 0.00932676 0)
(-0.00511988 0.0119712 0)
(-0.00743349 0.0144938 0)
(-0.0100805 0.016857 0)
(-0.0130239 0.0190337 0)
(-0.0162288 0.0210059 0)
(-0.0196618 0.0227625 0)
(-0.0232912 0.0242982 0)
(-0.0270865 0.0256119 0)
(-0.0310185 0.0267054 0)
(-0.035059 0.0275828 0)
(-0.0391808 0.0282493 0)
(-0.0433576 0.0287106 0)
(-0.0475638 0.0289724 0)
(-0.0517747 0.0290401 0)
(-0.0559657 0.0289186 0)
(-0.0601129 0.0286121 0)
(-0.0641929 0.0281241 0)
(-0.0681822 0.0274575 0)
(-0.072058 0.0266148 0)
(-0.0757974 0.0255982 0)
(-0.079378 0.0244099 0)
(-0.0827775 0.0230522 0)
(-0.085974 0.0215283 0)
(-0.0889462 0.0198418 0)
(-0.0916732 0.0179974 0)
(-0.0941347 0.0160012 0)
(-0.0963116 0.0138608 0)
(-0.0981854 0.0115854 0)
(-0.0997392 0.0091862 0)
(-0.100957 0.00667619 0)
(-0.101826 0.00407055 0)
(-0.102333 0.00138647 0)
(-0.102468 -0.00135677 0)
(-0.102224 -0.00413791 0)
(-0.101596 -0.00693382 0)
(-0.100582 -0.00971968 0)
(-0.099183 -0.0124692 0)
(-0.0974025 -0.0151548 0)
(-0.0952486 -0.0177481 0)
(-0.0927322 -0.0202204 0)
(-0.0898682 -0.0225426 0)
(-0.0866752 -0.0246863 0)
(-0.0831754 -0.0266237 0)
(-0.0793946 -0.0283288 0)
(-0.0753626 -0.0297773 0)
(-0.0711121 -0.0309476 0)
(-0.0666793 -0.031821 0)
(-0.0621029 -0.0323827 0)
(-0.0574242 -0.0326217 0)
(-0.0526863 -0.0325319 0)
(-0.0479334 -0.0321119 0)
(-0.0432107 -0.0313659 0)
(-0.0385632 -0.0303034 0)
(-0.034035 -0.0289399 0)
(-0.0296687 -0.0272965 0)
(-0.0255048 -0.0254004 0)
(-0.0215805 -0.0232846 0)
(-0.0179292 -0.0209875 0)
(-0.0145797 -0.0185534 0)
(-0.0115559 -0.0160314 0)
(-0.00887607 -0.013476 0)
(-0.00655227 -0.0109463 0)
(-0.00459059 -0.00850609 0)
(-0.00299088 -0.0062233 0)
(-0.00174616 -0.00417009 0)
(-0.000842147 -0.00242224 0)
(-0.000268894 -0.00105876 0)
(-3.23442e-05 -0.000164971 0)
(-9.43569e-05 0.00153986 0)
(-0.000632143 0.00474477 0)
(-0.00179692 0.00797125 0)
(-0.00346935 0.01114 0)
(-0.00557999 0.0141909 0)
(-0.00808646 0.0170772 0)
(-0.0109462 0.019764 0)
(-0.0141179 0.0222265 0)
(-0.0175628 0.0244487 0)
(-0.0212446 0.0264214 0)
(-0.0251291 0.0281409 0)
(-0.0291836 0.0296075 0)
(-0.0333772 0.0308245 0)
(-0.0376805 0.0317971 0)
(-0.042065 0.0325314 0)
(-0.0465035 0.0330342 0)
(-0.0509696 0.0333118 0)
(-0.0554378 0.0333704 0)
(-0.0598828 0.0332152 0)
(-0.0642803 0.0328509 0)
(-0.0686059 0.0322814 0)
(-0.0728359 0.0315098 0)
(-0.0769466 0.0305389 0)
(-0.0809146 0.0293711 0)
(-0.0847168 0.0280088 0)
(-0.0883303 0.0264549 0)
(-0.0917326 0.0247126 0)
(-0.0949014 0.0227862 0)
(-0.0978152 0.020681 0)
(-0.100453 0.0184038 0)
(-0.102795 0.0159632 0)
(-0.104821 0.0133695 0)
(-0.106514 0.0106351 0)
(-0.107856 0.00777466 0)
(-0.108834 0.00480509 0)
(-0.109434 0.00174558 0)
(-0.109645 -0.00138235 0)
(-0.109457 -0.00455497 0)
(-0.108866 -0.00774642 0)
(-0.107867 -0.0109289 0)
(-0.106461 -0.014073 0)
(-0.10465 -0.0171478 0)
(-0.102442 -0.0201213 0)
(-0.0998456 -0.0229611 0)
(-0.0968761 -0.0256344 0)
(-0.0935512 -0.0281088 0)
(-0.089893 -0.0303529 0)
(-0.0859274 -0.0323368 0)
(-0.0816844 -0.0340324 0)
(-0.0771977 -0.0354149 0)
(-0.0725044 -0.0364623 0)
(-0.0676448 -0.0371571 0)
(-0.0626622 -0.0374861 0)
(-0.057602 -0.0374412 0)
(-0.0525111 -0.0370201 0)
(-0.0474377 -0.0362263 0)
(-0.0424303 -0.0350698 0)
(-0.0375366 -0.033567 0)
(-0.0328032 -0.031741 0)
(-0.0282745 -0.0296215 0)
(-0.0239919 -0.027245 0)
(-0.019993 -0.0246541 0)
(-0.0163107 -0.0218979 0)
(-0.012973 -0.0190309 0)
(-0.0100018 -0.0161136 0)
(-0.00741315 -0.0132112 0)
(-0.00521646 -0.0103937 0)
(-0.00341482 -0.00773561 0)
(-0.00200408 -0.00531505 0)
(-0.000972244 -0.00321351 0)
(-0.000312904 -0.0015149 0)
(-3.83631e-05 -0.00030855 0)
(-0.000102689 0.00187342 0)
(-0.000685706 0.00568027 0)
(-0.00194566 0.00944848 0)
(-0.00375079 0.0131031 0)
(-0.00602372 0.0165882 0)
(-0.00871682 0.0198605 0)
(-0.0117827 0.0228884 0)
(-0.0151758 0.0256502 0)
(-0.0188537 0.0281326 0)
(-0.0227772 0.0303287 0)
(-0.0269094 0.0322371 0)
(-0.0312159 0.03386 0)
(-0.035664 0.0352023 0)
(-0.0402228 0.0362706 0)
(-0.044863 0.0370723 0)
(-0.0495564 0.0376152 0)
(-0.0542758 0.0379066 0)
(-0.058995 0.0379533 0)
(-0.0636884 0.0377611 0)
(-0.0683308 0.0373352 0)
(-0.0728978 0.0366797 0)
(-0.0773648 0.0357982 0)
(-0.0817078 0.0346935 0)
(-0.085903 0.0333684 0)
(-0.0899266 0.0318256 0)
(-0.0937553 0.0300681 0)
(-0.0973658 0.0280995 0)
(-0.100735 0.0259245 0)
(-0.103842 0.0235491 0)
(-0.106663 0.0209807 0)
(-0.109178 0.0182287 0)
(-0.111367 0.0153046 0)
(-0.113212 0.012222 0)
(-0.114693 0.00899706 0)
(-0.115795 0.0056483 0)
(-0.116504 0.0021969 0)
(-0.116807 -0.00133343 0)
(-0.116695 -0.00491651 0)
(-0.116159 -0.00852377 0)
(-0.115195 -0.0121245 0)
(-0.113802 -0.0156859 0)
(-0.11198 -0.0191738 0)
(-0.109736 -0.0225526 0)
(-0.107079 -0.0257859 0)
(-0.104021 -0.0288369 0)
(-0.10058 -0.0316693 0)
(-0.0967774 -0.0342475 0)
(-0.0926389 -0.0365373 0)
(-0.0881947 -0.038507 0)
(-0.0834789 -0.0401277 0)
(-0.0785297 -0.0413739 0)
(-0.0733889 -0.0422249 0)
(-0.0681015 -0.0426647 0)
(-0.0627151 -0.0426831 0)
(-0.0572799 -0.0422763 0)
(-0.051847 -0.0414468 0)
(-0.0464686 -0.0402046 0)
(-0.0411964 -0.038567 0)
(-0.0360813 -0.0365586 0)
(-0.0311721 -0.0342118 0)
(-0.0265148 -0.0315662 0)
(-0.0221516 -0.0286688 0)
(-0.0181202 -0.0255733 0)
(-0.0144528 -0.0223402 0)
(-0.0111759 -0.0190357 0)
(-0.00830933 -0.0157316 0)
(-0.00586648 -0.0125046 0)
(-0.00385386 -0.00943556 0)
(-0.00227024 -0.00660932 0)
(-0.00110589 -0.00411337 0)
(-0.00035781 -0.00203703 0)
(-4.44071e-05 -0.000474256 0)
(-0.000110661 0.00223363 0)
(-0.000737032 0.00668847 0)
(-0.0020883 0.0110375 0)
(-0.00402093 0.0152108 0)
(-0.00644997 0.0191568 0)
(-0.00932283 0.0228367 0)
(-0.0125875 0.0262229 0)
(-0.0161943 0.0292974 0)
(-0.0200974 0.03205 0)
(-0.0242546 0.0344771 0)
(-0.0286267 0.0365795 0)
(-0.0331772 0.0383619 0)
(-0.0378719 0.0398313 0)
(-0.0426786 0.040996 0)
(-0.047567 0.0418649 0)
(-0.0525081 0.0424469 0)
(-0.057474 0.0427504 0)
(-0.062438 0.0427829 0)
(-0.067374 0.042551 0)
(-0.0722566 0.0420603 0)
(-0.0770606 0.0413153 0)
(-0.0817615 0.0403199 0)
(-0.0863347 0.0390771 0)
(-0.090756 0.0375899 0)
(-0.0950014 0.0358611 0)
(-0.0990469 0.0338941 0)