/*--------------------------------*- C++ -*----------------------------------*\
  =========                 |
  \\      /  F ield         | OpenFOAM: The Open Source CFD Toolbox
   \\    /   O peration     | Website:  https://openfoam.org
    \\  /    A nd           | Version:  dev
     \\/     M anipulation  |
\*---------------------------------------------------------------------------*/
FoamFile
{
    format      ascii;
    class       volScalarField;
    location    "28.8";
    object      Uy;
}
// * * * * * * * * * * * * * * * * * * * * * * * * * * * * * * * * * * * * * //

dimensions      [0 1 -1 0 0 0 0];

internalField   nonuniform List<scalar> 
5184
(
-1.27874e-05
-2.09308e-05
-1.72635e-05
-8.20189e-06
2.6681e-06
1.36175e-05
2.38439e-05
3.30439e-05
4.11002e-05
4.80174e-05
5.38567e-05
5.87034e-05
6.26505e-05
6.57888e-05
6.82028e-05
6.99678e-05
7.11482e-05
7.17969e-05
7.19545e-05
7.16506e-05
7.09043e-05
6.97261e-05
6.8119e-05
6.60801e-05
6.36022e-05
6.06755e-05
5.72895e-05
5.34346e-05
4.91037e-05
4.4294e-05
3.90077e-05
3.3254e-05
2.70502e-05
2.04222e-05
1.3406e-05
6.04714e-06
-1.59823e-06
-9.4638e-06
-1.74731e-05
-2.55404e-05
-3.35711e-05
-4.14637e-05
-4.91109e-05
-5.64018e-05
-6.32239e-05
-6.94654e-05
-7.50176e-05
-7.97775e-05
-8.36503e-05
-8.65521e-05
-8.84124e-05
-8.91762e-05
-8.88055e-05
-8.72807e-05
-8.46013e-05
-8.07862e-05
-7.58745e-05
-6.9925e-05
-6.30156e-05
-5.52427e-05
-4.67201e-05
-3.75805e-05
-2.79788e-05
-1.80973e-05
-8.1615e-06
1.53338e-06
1.05639e-05
1.82933e-05
2.37099e-05
2.51227e-05
1.98463e-05
6.24411e-06
-4.59981e-05
-6.57781e-05
-4.05878e-05
7.61738e-06
6.56659e-05
0.000125976
0.000184272
0.000238307
0.000286947
0.000329749
0.000366671
0.000397905
0.000423761
0.000444609
0.000460823
0.000472762
0.000480749
0.00048506
0.000485918
0.000483495
0.000477911
0.000469243
0.000457529
0.00044278
0.000424983
0.000404114
0.00038015
0.000353073
0.000322884
0.000289609
0.00025331
0.000214089
0.000172095
0.000127531
8.06577e-05
3.17935e-05
-1.86828e-05
-7.03333e-05
-0.000122663
-0.000175125
-0.000227125
-0.000278031
-0.000327182
-0.000373899
-0.000417498
-0.000457303
-0.000492663
-0.000522963
-0.000547642
-0.000566205
-0.000578239
-0.000583426
-0.000581548
-0.000572504
-0.00055631
-0.000533103
-0.000503147
-0.000466831
-0.000424669
-0.000377304
-0.000325502
-0.000270168
-0.000212363
-0.000153338
-9.4604e-05
-3.80392e-05
1.38973e-05
5.79002e-05
8.93781e-05
0.000101836
8.6506e-05
3.64855e-05
-8.13513e-05
-9.50679e-05
-1.9156e-05
0.000105904
0.000254612
0.000410529
0.000563341
0.000706914
0.000837802
0.0009543
0.00105581
0.00114243
0.00121467
0.00127327
0.00131903
0.00135278
0.0013753
0.00138725
0.00138921
0.0013816
0.00136477
0.00133893
0.00130422
0.00126069
0.00120835
0.00114721
0.00107723
0.00099845
0.000910922
0.000814788
0.000710279
0.00059774
0.000477644
0.000350607
0.000217393
7.89253e-05
-6.37155e-05
-0.000209294
-0.000356429
-0.000503602
-0.000649178
-0.000791425
-0.000928541
-0.00105868
-0.00118
-0.00129067
-0.00138895
-0.00147318
-0.00154188
-0.00159371
-0.00162759
-0.00164267
-0.0016384
-0.00161451
-0.00157107
-0.00150849
-0.00142751
-0.00132924
-0.00121511
-0.00108694
-0.000946898
-0.00079755
-0.000641905
-0.000483493
-0.000326511
-0.000176046
-3.84155e-05
7.83655e-05
0.000164001
0.000205327
0.000186237
9.03796e-05
-9.77478e-05
-7.31551e-05
8.47658e-05
0.000318318
0.000590008
0.000874218
0.00115392
0.00141833
0.00166098
0.00187833
0.00206884
0.00223224
0.0023691
0.00248046
0.00256758
0.0026318
0.0026744
0.00269653
0.00269917
0.00268311
0.00264895
0.00259711
0.00252787
0.00244138
0.00233772
0.00221693
0.00207908
0.00192427
0.00175271
0.00156474
0.0013609
0.00114191
0.000908762
0.00066268
0.000405181
0.000138067
-0.000136574
-0.000416372
-0.000698693
-0.00098066
-0.00125919
-0.00153102
-0.00179278
-0.00204102
-0.00227231
-0.00248325
-0.00267059
-0.0028313
-0.00296258
-0.00306202
-0.0031276
-0.00315778
-0.00315153
-0.0031084
-0.00302854
-0.00291273
-0.00276242
-0.00257969
-0.0023673
-0.00212871
-0.00186807
-0.00159026
-0.00130101
-0.00100698
-0.000715988
-0.000437307
-0.000182079
3.60891e-05
0.000200482
0.000290708
0.000282477
0.000147254
-8.43955e-05
2.08977e-05
0.00029542
0.000667942
0.00109066
0.00152967
0.00196154
0.0023708
0.00274772
0.00308667
0.00338489
0.00364154
0.0038571
0.0040328
0.0041703
0.00427142
0.00433796
0.00437156
0.00437364
0.00434537
0.00428768
0.0042012
0.00408641
0.0039436
0.00377297
0.00357465
0.00334885
0.00309584
0.00281606
0.00251018
0.00217914
0.00182421
0.00144705
0.0010497
0.000634638
0.000204793
-0.000236479
-0.000685392
-0.00113776
-0.00158902
-0.00203432
-0.00246853
-0.00288636
-0.00328244
-0.00365137
-0.0039879
-0.00428695
-0.0045438
-0.00475413
-0.00491418
-0.00502084
-0.00507171
-0.00506521
-0.00500067
-0.00487836
-0.00469951
-0.00446641
-0.00418238
-0.0038518
-0.00348012
-0.00307392
-0.00264094
-0.00219016
-0.00173199
-0.00127849
-0.000843693
-0.000444094
-9.92462e-05
0.000167516
0.000328464
0.000350864
0.000194092
-3.7505e-05
0.000197365
0.00062684
0.00117019
0.00177147
0.00238982
0.0029962
0.00357082
0.00410082
0.00457844
0.00499962
0.00536285
0.00566839
0.00591759
0.00611244
0.0062552
0.00634816
0.00639344
0.00639291
0.00634815
0.00626037
0.00613053
0.00595928
0.00574709
0.00549433
0.00520131
0.00486841
0.00449616
0.00408532
0.00363699
0.00315265
0.00263426
0.0020843
0.00150581
0.000902439
0.000278441
-0.000361321
-0.0010114
-0.00166578
-0.00231797
-0.00296103
-0.00358771
-0.00419049
-0.00476177
-0.00529396
-0.00577961
-0.00621159
-0.00658323
-0.00688848
-0.00712203
-0.00727948
-0.00735749
-0.00735383
-0.00726756
-0.00709905
-0.0068501
-0.00652394
-0.00612529
-0.00566039
-0.00513701
-0.00456449
-0.00395381
-0.00331767
-0.00267066
-0.00202951
-0.00141341
-0.000844491
-0.000348428
4.48067e-05
0.000300275
0.00037717
0.000224454
4.4118e-05
0.000461249
0.00108694
0.00183446
0.00264195
0.00346318
0.00426452
0.00502254
0.00572161
0.00635207
0.00690858
0.00738899
0.00779332
0.00812298
0.00838025
0.00856779
0.00868835
0.0087445
0.00873858
0.00867252
0.00854789
0.00836592
0.0081275
0.00783331
0.00748392
0.00707986
0.00662176
0.00611048
0.0055472
0.00493354
0.00427163
0.00356426
0.00281488
0.00202768
0.00120766
0.000360595
-0.000506956
-0.00138766
-0.00227347
-0.0031557
-0.00402512
-0.00487208
-0.00568661
-0.00645864
-0.00717809
-0.00783514
-0.00842034
-0.00892487
-0.00934071
-0.00966086
-0.00987948
-0.00999212
-0.00999584
-0.00988935
-0.00967314
-0.00934956
-0.00892288
-0.00839938
-0.0077873
-0.00709697
-0.00634076
-0.00553319
-0.00469099
-0.00383326
-0.00298168
-0.00216086
-0.0013987
-0.000727068
-0.000182437
0.000193389
0.000352294
0.00023491
0.00016047
0.000814416
0.0016795
0.00266575
0.00370748
0.00475467
0.00577028
0.00672804
0.00761015
0.00840534
0.00910728
0.00971324
0.0102231
0.0106383
0.0109614
0.0111954
0.0113436
0.0114089
0.0113942
0.0113016
0.0111332
0.0108905
0.0105745
0.0101862
0.00972639
0.00919589
0.00859563
0.00792686
0.00719126
0.00639104
0.00552912
0.00460921
0.00363586
0.00261456
0.00155179
0.000455014
-0.000667337
-0.00180587
-0.00295032
-0.00408961
-0.00521203
-0.0063053
-0.00735681
-0.00835377
-0.00928345
-0.0101334
-0.0108917
-0.0115471
-0.0120894
-0.0125098
-0.0128009
-0.0129569
-0.0129741
-0.0128508
-0.0125875
-0.0121871
-0.011655
-0.010999
-0.0102296
-0.00935983
-0.00840522
-0.00738407
-0.00631738
-0.00522898
-0.00414571
-0.00309772
-0.0021188
-0.0012469
-0.000524836
-7.98654e-07
0.000270672
0.000223754
0.000310917
0.00125678
0.00240548
0.00366593
0.0049704
0.00626654
0.00751512
0.00868793
0.00976564
0.0107359
0.0115916
0.0123298
0.0129502
0.0134545
0.0138455
0.0141266
0.0143015
0.0143737
0.0143461
0.0142217
0.0140026
0.0136905
0.0132869
0.012793
0.0122098
0.0115385
0.0107802
0.00993683
0.00901047
0.00800408
0.00692144
0.00576724
0.00454727
0.00326842
0.00193877
0.000567604
-0.000834635
-0.00225635
-0.0036849
-0.00510667
-0.00650726
-0.00787163
-0.00918431
-0.0104296
-0.011592
-0.0126561
-0.0136074
-0.014432
-0.0151174
-0.0156527
-0.0160287
-0.0162383
-0.0162768
-0.0161418
-0.015834
-0.0153568
-0.0147165
-0.0139227
-0.0129881
-0.0119284
-0.0107626
-0.00951291
-0.00820475
-0.00686683
-0.0055313
-0.00423394
-0.00301443
-0.00191678
-0.000989853
-0.000287809
0.000129195
0.000190336
0.000494556
0.0017871
0.003264
0.00483462
0.00643067
0.00799883
0.00949878
0.0109013
0.0121863
0.0133409
0.0143576
0.0152334
0.0159683
0.016564
0.0170239
0.0173518
0.0175518
0.0176278
0.0175833
0.0174214
0.0171446
0.016755
0.0162543
0.015644
0.0149253
0.0140997
0.0131688
0.012135
0.0110009
0.00977028
0.00844782
0.00703931
0.00555182
0.00399374
0.00237483
0.000706303
-0.000999286
-0.00272802
-0.00446475
-0.00619319
-0.00789613
-0.00955559
-0.0111531
-0.0126699
-0.0140874
-0.0153872
-0.0165518
-0.0175647
-0.0184108
-0.0190769
-0.0195518
-0.0198268
-0.019896
-0.0197566
-0.0194089
-0.0188567
-0.0181075
-0.0171725
-0.0160664
-0.014808
-0.0134197
-0.0119276
-0.0103618
-0.00875597
-0.00714767
-0.00557839
-0.00409372
-0.00274363
-0.00158287
-0.000671184
-7.3751e-05
0.000134575
0.000710354
0.00240347
0.00425298
0.00616986
0.00808649
0.00994978
0.0117194
0.013366
0.0148694
0.0162167
0.0174008
0.0184187
0.0192709
0.0199597
0.0204887
0.0208625
0.0210855
0.0211621
0.0210962
0.0208913
0.0205502
0.0200754
0.0194686
0.0187318
0.0178663
0.0168741
0.0157573
0.0145185
0.0131612
0.0116898
0.0101101
0.0084289
0.00665464
0.00479727
0.00286832
0.00088096
-0.00115004
-0.00320837
-0.00527627
-0.00733468
-0.00936346
-0.0113416
-0.0132473
-0.0150588
-0.0167541
-0.0183118
-0.019711
-0.0209325
-0.0219582
-0.0227725
-0.0233619
-0.023716
-0.0238275
-0.0236927
-0.0233116
-0.0226884
-0.0218314
-0.0207532
-0.0194711
-0.0180064
-0.0163851
-0.0146375
-0.0127982
-0.010906
-0.00900402
-0.00713949
-0.00536395
-0.00373331
-0.00230808
-0.00115337
-0.000339003
5.66396e-05
0.000957231
0.00310359
0.00536953
0.00766854
0.00993472
0.0121162
0.0141736
0.0160783
0.0178109
0.019359
0.0207161
0.0218802
0.0228521
0.0236348
0.0242328
0.0246511
0.0248947
0.0249685
0.0248769
0.0246237
0.0242121
0.0236446
0.0229236
0.022051
0.0210287
0.0198588
0.0185438
0.0170869
0.0154923
0.0137653
0.0119124
0.0099417
0.00786302
0.00568785
0.00342953
0.00110323
-0.00127402
-0.00368345
-0.00610465
-0.00851569
-0.0108934
-0.0132135
-0.0154511
-0.0175809
-0.0195775
-0.021416
-0.0230724
-0.024524
-0.0257499
-0.0267315
-0.0274531
-0.027902
-0.0280694
-0.0279504
-0.0275445
-0.026856
-0.0258939
-0.0246725
-0.0232108
-0.0215333
-0.0196693
-0.0176533
-0.0155247
-0.0133273
-0.01111
-0.00892578
-0.00683225
-0.00489131
-0.00316921
-0.00173637
-0.000667126
-4.32536e-05
0.0012341
0.00388493
0.00661022
0.00932676
0.0119712
0.0144938
0.016857
0.0190337
0.0210059
0.0227625
0.0242982
0.0256119
0.0267054
0.0275828
0.0282493
0.0287106
0.0289724
0.0290401
0.0289186
0.0286121
0.0281241
0.0274575
0.0266148
0.0255982
0.0244099
0.0230522
0.0215283
0.0198418
0.0179974
0.0160012
0.0138608
0.0115854
0.0091862
0.00667619
0.00407055
0.00138647
-0.00135677
-0.00413791
-0.00693382
-0.00971968
-0.0124692
-0.0151548
-0.0177481
-0.0202204
-0.0225426
-0.0246863
-0.0266237
-0.0283288
-0.0297773
-0.0309476
-0.031821
-0.0323827
-0.0326217
-0.0325319
-0.0321119
-0.0313659
-0.0303034
-0.0289399
-0.0272965
-0.0254004
-0.0232846
-0.0209875
-0.0185534
-0.0160314
-0.013476
-0.0109463
-0.00850609
-0.0062233
-0.00417009
-0.00242224
-0.00105876
-0.000164971
0.00153986
0.00474477
0.00797125
0.01114
0.0141909
0.0170772
0.019764
0.0222265
0.0244487
0.0264214
0.0281409
0.0296075
0.0308245
0.0317971
0.0325314
0.0330342
0.0333118
0.0333704
0.0332152
0.0328509
0.0322814
0.0315098
0.0305389
0.0293711
0.0280088
0.0264549
0.0247126
0.0227862
0.020681
0.0184038
0.0159632
0.0133695
0.0106351
0.00777466
0.00480509
0.00174558
-0.00138235
-0.00455497
-0.00774642
-0.0109289
-0.014073
-0.0171478
-0.0201213
-0.0229611
-0.0256344
-0.0281088
-0.0303529
-0.0323368
-0.0340324
-0.0354149
-0.0364623
-0.0371571
-0.0374861
-0.0374412
-0.0370201
-0.0362263
-0.0350698
-0.033567
-0.031741
-0.0296215
-0.027245
-0.0246541
-0.0218979
-0.0190309
-0.0161136
-0.0132112
-0.0103937
-0.00773561
-0.00531505
-0.00321351
-0.0015149
-0.00030855
0.00187342
0.00568027
0.00944848
0.0131031
0.0165882
0.0198605
0.0228884
0.0256502
0.0281326
0.0303287
0.0322371
0.03386
0.0352023
0.0362706
0.0370723
0.0376152
0.0379066
0.0379533
0.0377611
0.0373352
0.0366797
0.0357982
0.0346935
0.0333684
0.0318256
0.0300681
0.0280995
0.0259245
0.0235491
0.0209807
0.0182287
0.0153046
0.012222
0.00899706
0.0056483
0.0021969
-0.00133343
-0.00491651
-0.00852377
-0.0121245
-0.0156859
-0.0191738
-0.0225526
-0.0257859
-0.0288369
-0.0316693
-0.0342475
-0.0365373
-0.038507
-0.0401277
-0.0413739
-0.0422249
-0.0426647
-0.0426831
-0.0422763
-0.0414468
-0.0402046
-0.038567
-0.0365586
-0.0342118
-0.0315662
-0.0286688
-0.0255733
-0.0223402
-0.0190357
-0.0157316
-0.0125046
-0.00943556
-0.00660932
-0.00411337
-0.00203703
-0.000474256
0.00223363
0.00668847
0.0110375
0.0152108
0.0191568
0.0228367
0.0262229
0.0292974
0.03205
0.0344771
0.0365795
0.0383619
0.0398313
0.040996
0.0418649
0.0424469
0.0427504
0.0427829
0.042551
0.0420603
0.0413153
0.0403199
0.0390771
0.0375899
0.0358611
0.0338941
0.0316928
0.0292622
0.0266087
0.0237405
0.0206678
0.0174028
0.0139606
0.0103584
0.00661653
0.00275799
-0.00119141
-0.00520311
-0.00924587
-0.013286
-0.0172877
-0.021213
-0.0250226
-0.0286763
-0.0321332
-0.0353524
-0.0382939
-0.0409194
-0.0431924
-0.0450798
-0.0465524
-0.0475855
-0.0481599
-0.0482629
-0.0478883
-0.0470377
-0.0457205
-0.0439543
-0.0417653
-0.039188
-0.0362655
-0.0330488
-0.0295967
-0.0259752
-0.022257
-0.0185205
-0.0148494
-0.0113317
-0.00805922
-0.00512595
-0.0026273
-0.000662626
0.00261936
0.00776627
0.0127337
0.017457
0.0218899
0.0259986
0.0297598
0.03316
0.0361928
0.038858
0.0411596
0.0431051
0.0447036
0.0459656
0.0469017
0.0475222
0.0478365
0.0478532
0.0475796
0.0470218
0.0461846
0.0450723
0.0436881
0.0420352
0.0401165
0.0379357
0.0354967
0.032805
0.0298674
0.0266926
0.0232913
0.0196768
0.015865
0.0118745
0.0077271
0.00344746
-0.000936592
-0.00539418
-0.00989152
-0.014392
-0.0188566
-0.0232438
-0.0275107
-0.0316127
-0.0355046
-0.0391411
-0.0424774
-0.0454702
-0.0480785
-0.0502642
-0.0519936
-0.0532378
-0.0539738
-0.0541856
-0.0538644
-0.0530099
-0.0516307
-0.0497443
-0.047378
-0.0445685
-0.0413618
-0.0378132
-0.0339865
-0.0299536
-0.0257937
-0.0215923
-0.0174406
-0.0134342
-0.00967239
-0.00625644
-0.00328858
-0.000874492
0.00302938
0.00891041
0.014532
0.0198356
0.0247803
0.0293379
0.0334904
0.037229
0.0405517
0.0434623
0.0459685
0.0480805
0.0498105
0.051171
0.0521747
0.0528334
0.053158
0.0531579
0.0528413
0.0522148
0.0512838
0.0500527
0.0485251
0.0467042
0.0445932
0.0421956
0.0395158
0.0365593
0.0333332
0.0298466
0.0261108
0.0221398
0.0179502
0.013562
0.00899805
0.00428471
-0.000548346
-0.00546812
-0.0104383
-0.0154196
-0.0203696
-0.0252435
-0.0299944
-0.0345735
-0.038931
-0.0430169
-0.0467813
-0.0501757
-0.0531537
-0.0556722
-0.0576921
-0.0591796
-0.0601075
-0.0604556
-0.0602121
-0.0593741
-0.0579486
-0.0559529
-0.0534147
-0.0503725
-0.0468754
-0.0429826
-0.0387631
-0.0342949
-0.029664
-0.0249635
-0.0202925
-0.0157548
-0.0114579
-0.00751119
-0.00402455
-0.001111
0.00346245
0.0101174
0.0164273
0.0223397
0.0278201
0.0328461
0.0374056
0.0414949
0.0451171
0.0482803
0.0509961
0.0532785
0.0551424
0.056603
0.0576751
0.0583724
0.0587071
0.05869
0.0583299
0.0576342
0.0566088
0.0552582
0.0535864
0.0515967
0.0492922
0.0466766
0.0437543
0.0405309
0.0370136
0.033212
0.0291375
0.0248048
0.0202313
0.0154375
0.0104478
0.00528969
-5.3912e-06
-0.00540246
-0.0108629
-0.0163447
-0.0218023
-0.0271876
-0.0324495
-0.0375352
-0.0423901
-0.046959
-0.0511867
-0.0550192
-0.0584042
-0.0612927
-0.0636401
-0.0654068
-0.0665605
-0.0670762
-0.0669381
-0.0661404
-0.0646876
-0.0625961
-0.0598937
-0.0566203
-0.0528276
-0.048579
-0.0439485
-0.0390204
-0.033888
-0.0286523
-0.023421
-0.0183069
-0.0134263
-0.0088978
-0.00483972
-0.00137362
0.00391724
0.0113838
0.018414
0.0249624
0.031001
0.0365139
0.0414953
0.0459472
0.0498782
0.0533011
0.056232
0.0586885
0.0606891
0.0622517
0.0633935
0.0641302
0.0644757
0.0644419
0.0640387
0.0632742
0.0621546
0.0606851
0.0588695
0.0567114
0.0542138
0.0513805
0.0482157
0.0447251
0.040916
0.0367979
0.0323826
0.0276849
0.0227229
0.0175178
0.0120947
0.0064825
0.000713939
-0.00517418
-0.0111411
-0.0171422
-0.0231291
-0.0290501
-0.0348503
-0.0404725
-0.0458573
-0.0509441
-0.0556723
-0.0599815
-0.0638134
-0.0671124
-0.0698275
-0.0719129
-0.07333
-0.0740485
-0.0740477
-0.0733177
-0.0718602
-0.0696897
-0.0668335
-0.0633325
-0.0592409
-0.0546257
-0.0495662
-0.0441533
-0.0384877
-0.032679
-0.0268443
-0.0211058
-0.01559
-0.0104251
-0.00573948
-0.00166415
0.00439233
0.0127055
0.0204862
0.027696
0.0343141
0.0403315
0.0457489
0.0505749
0.0548236
0.0585133
0.0616645
0.0642992
0.0664394
0.0681063
0.0693195
0.0700971
0.0704545
0.0704051
0.06996
0.0691278
0.0679156
0.0663286
0.064371
0.0620463
0.0593576
0.0563083
0.0529028
0.0491465
0.0450466
0.0406125
0.0358561
0.0307922
0.0254393
0.0198189
0.013957
0.0078831
0.00163135
-0.00475995
-0.0112481
-0.0177862
-0.024323
-0.0308035
-0.0371691
-0.0433579
-0.0493057
-0.0549466
-0.0602137
-0.0650405
-0.0693616
-0.0731146
-0.076241
-0.0786882
-0.0804105
-0.0813712
-0.0815438
-0.0809133
-0.0794777
-0.0772486
-0.0742524
-0.0705302
-0.0661382
-0.0611471
-0.0556413
-0.0497183
-0.0434869
-0.037066
-0.0305822
-0.0241686
-0.0179626
-0.0121034
-0.0067301
-0.00198474
0.00488625
0.0140787
0.0226377
0.0305326
0.03775
0.0442883
0.0501553
0.0553662
0.0599413
0.0639044
0.0672813
0.0700983
0.0723814
0.074155
0.0754418
0.076262
0.0766332
0.0765701
0.0760849
0.0751873
0.0738848
0.072183
0.0700863
0.0675981
0.0647214
0.0614597
0.0578169
0.0537981
0.0494103
0.0446626
0.0395668
0.0341376
0.0283934
0.0223561
0.0160518
0.00951084
0.0027682
-0.00413655
-0.0111591
-0.0182503
-0.0253564
-0.0324192
-0.0393764
-0.0461617
-0.052706
-0.0589377
-0.0647836
-0.0701704
-0.0750255
-0.0792787
-0.0828636
-0.0857195
-0.087793
-0.0890398
-0.0894264
-0.0889318
-0.0875491
-0.0852863
-0.0821676
-0.0782339
-0.0735428
-0.0681681
-0.0621997
-0.0557417
-0.0489114
-0.0418372
-0.0346566
-0.0275144
-0.0205597
-0.0139441
-0.00781874
-0.00233787
0.0053974
0.0154989
0.0248619
0.0334637
0.0412988
0.0483733
0.0547025
0.0603085
0.0652181
0.0694613
0.0730691
0.0760726
0.0785019
0.0803851
0.081748
0.0826131
0.0830003
0.0829259
0.0824033
0.0814433
0.0800537
0.0782408
0.076009
0.0733617
0.0703019
0.0668326
0.0629574
0.0586811
0.0540102
0.0489533
0.0435219
0.0377304
0.0315968
0.025143
0.0183952
0.011384
0.00414504
-0.00328122
-0.0108491
-0.0185076
-0.0262008
-0.0338673
-0.0414414
-0.0488525
-0.0560264
-0.0628859
-0.0693513
-0.0753421
-0.0807779
-0.0855802
-0.0896739
-0.0929894
-0.0954643
-0.0970457
-0.0976919
-0.0973748
-0.096081
-0.093814
-0.0905949
-0.0864633
-0.0814775
-0.0757143
-0.0692685
-0.0622511
-0.0547882
-0.0470186
-0.0390914
-0.0311639
-0.0233985
-0.0159602
-0.00901346
-0.00272636
0.00592411
0.0169617
0.027152
0.0364806
0.0449501
0.0525749
0.0593778
0.0653885
0.0706405
0.07517
0.0790138
0.0822079
0.0847869
0.0867827
0.0882243
0.0891371
0.089543
0.0894603
0.0889037
0.0878848
0.0864124
0.084493
0.0821312
0.0793304
0.0760934
0.0724228
0.0683218
0.0637946
0.0588472
0.0534875
0.0477264
0.0415777
0.0350589
0.0281915
0.0210015
0.0135194
0.00578115
-0.0021722
-0.010294
-0.0185318
-0.0268275
-0.0351173
-0.0433319
-0.0513968
-0.0592328
-0.0667568
-0.0738827
-0.0805224
-0.0865873
-0.09199
-0.0966458
-0.100475
-0.103406
-0.105376
-0.106332
-0.10624
-0.105076
-0.10284
-0.0995479
-0.0952366
-0.0899645
-0.0838108
-0.0768749
-0.0692749
-0.0611459
-0.0526377
-0.043912
-0.0351396
-0.0264976
-0.0181657
-0.0103232
-0.00315339
0.00646463
0.0184624
0.0295007
0.0395738
0.048693
0.0568807
0.0641681
0.0705922
0.0761939
0.0810157
0.0851002
0.088489
0.0912212
0.0933327
0.094856
0.0958194
0.0962473
0.0961596
0.0955727
0.0944993
0.0929489
0.0909284
0.0884427
0.085495
0.082088
0.0782237
0.0739049
0.0691352
0.0639195
0.0582654
0.0521825
0.045684
0.0387865
0.0315109
0.0238825
0.0159317
0.00769399
-0.000789222
-0.00947066
-0.0182969
-0.0272081
-0.0361382
-0.0450149
-0.0537597
-0.0622887
-0.0705132
-0.0783403
-0.0856742
-0.0924177
-0.098474
-0.103748
-0.10815
-0.111595
-0.114011
-0.115334
-0.115519
-0.114534
-0.11237
-0.109037
-0.10457
-0.0990245
-0.0924822
-0.0850465
-0.0768423
-0.0680142
-0.0587236
-0.0491456
-0.0394659
-0.0298774
-0.0205762
-0.0117579
-0.00362246
0.00701711
0.0199959
0.0319003
0.0427338
0.052516
0.0612782
0.0690596
0.0759051
0.081863
0.0869825
0.0913125
0.0948998
0.0977885
0.100019
0.101627
0.102644
0.103097
0.103008
0.102395
0.101272
0.0996493
0.0975338
0.094931
0.091844
0.0882751
0.0842261
0.0796989
0.0746963
0.0692226
0.063284
0.0568893
0.0500506
0.0427834
0.0351076
0.0270476
0.0186329
0.00989861
0.000885912
-0.00835779
-0.0177784
-0.0273149
-0.0368994
-0.0464568
-0.0559051
-0.0651561
-0.0741153
-0.0826833
-0.0907564
-0.0982286
-0.104993
-0.110943
-0.115978
-0.120002
-0.122926
-0.124679
-0.125199
-0.124447
-0.122403
-0.11907
-0.114476
-0.108676
-0.101752
-0.0938099
-0.0849825
-0.0754235
-0.0653064
-0.0548208
-0.0441685
-0.0335597
-0.0232084
-0.0133283
-0.00413743
0.00757963
0.021557
0.0343432
0.0459504
0.0564074
0.0657539
0.0740377
0.0813119
0.0876319
0.0930542
0.0976337
0.101423
0.104472
0.106824
0.10852
0.109594
0.110075
0.109989
0.109355
0.108187
0.106497
0.104294
0.101581
0.0983632
0.0946416
0.0904177
0.0856926
0.0804684
0.0747482
0.0685371
0.0618426
0.0546755
0.04705
0.0389845
0.0305023
0.0216318
0.0124071
0.00286872
-0.00693626
-0.0169536
-0.0271216
-0.0373708
-0.0476241
-0.0577965
-0.0677954
-0.0775212
-0.0868679
-0.0957241
-0.103975
-0.111502
-0.118189
-0.123921
-0.128589
-0.132091
-0.134339
-0.135262
-0.134804
-0.132934
-0.129647
-0.124963
-0.118934
-0.11164
-0.103191
-0.0937244
-0.0834044
-0.0724171
-0.0609674
-0.0492747
-0.0375678
-0.0260804
-0.0150459
-0.0047025
0.00815019
0.0231406
0.0368212
0.0492134
0.0603549
0.0702942
0.0790878
0.0867967
0.0934841
0.0992134
0.104046
0.108041
0.111252
0.113729
0.115515
0.116649
0.117163
0.117084
0.116432
0.115225
0.113475
0.11119
0.108375
0.105035
0.101171
0.0967829
0.0918717
0.0864382
0.0804846
0.0740145
0.0670341
0.0595525
0.0515824
0.0431406
0.0342487
0.0249336
0.0152281
0.00517144
-0.00518996
-0.0158023
-0.0266037
-0.0375239
-0.0484842
-0.059397
-0.0701662
-0.0806871
-0.0908476
-0.100529
-0.109606
-0.117952
-0.125436
-0.131931
-0.137312
-0.141464
-0.144283
-0.145678
-0.145583
-0.143951
-0.140764
-0.136036
-0.129811
-0.122166
-0.113213
-0.103096
-0.0919875
-0.0800873
-0.0676164
-0.0548129
-0.0419261
-0.0292113
-0.0169233
-0.00532221
0.00872676
0.0247411
0.039326
0.0525121
0.064346
0.0748852
0.0841944
0.0923431
0.0994022
0.105442
0.110531
0.114734
0.118111
0.120715
0.122594
0.123791
0.12434
0.12427
0.123606
0.122365
0.12056
0.118201
0.115293
0.111841
0.107844
0.103303
0.098218
0.0925888
0.086416
0.079702
0.0724513
0.0646712
0.0563726
0.0475704
0.0382842
0.028539
0.0183658
0.00780236
-0.00310637
-0.0143075
-0.0257396
-0.0373324
-0.0490059
-0.0606708
-0.0722279
-0.0835682
-0.094574
-0.105119
-0.115069
-0.124287
-0.132629
-0.139954
-0.146122
-0.151
-0.154466
-0.156414
-0.156757
-0.155434
-0.152412
-0.147693
-0.141312
-0.133343
-0.123897
-0.113123
-0.101203
-0.0883486
-0.0747992
-0.0608126
-0.0466605
-0.0326213
-0.0189737
-0.00600145
0.00930726
0.026353
0.0418493
0.0558358
0.0683682
0.0795124
0.0893421
0.0979346
0.105369
0.111722
0.11707
0.121483
0.125027
0.127759
0.129734
0.130995
0.131583
0.131527
0.130854
0.129584
0.127731
0.125305
0.122312
0.118755
0.114637
0.109955
0.10471
0.0988991
0.0925226
0.085581
0.0780772
0.0700165
0.0614078
0.0522636
0.0426014
0.032444
0.02182
0.0107653
-0.000677279
-0.0124562
-0.0245113
-0.0367726
-0.0491602
-0.0615834
-0.0739406
-0.0861196
-0.0979972
-0.10944
-0.120307
-0.130448
-0.139708
-0.14793
-0.154958
-0.160641
-0.164838
-0.167423
-0.168288
-0.167354
-0.16457
-0.159924
-0.153438
-0.145181
-0.135261
-0.12383
-0.111078
-0.0972321
-0.0825476
-0.0673042
-0.0517977
-0.0363319
-0.0212112
-0.00674544
0.00988961
0.0279708
0.0443826
0.0591739
0.0724086
0.0841617
0.094515
0.103554
0.111366
0.118035
0.123643
0.128267
0.131979
0.134842
0.136912
0.138241
0.138868
0.138829
0.138151
0.136856
0.13496
0.132474
0.129404
0.125754
0.121524
0.116714
0.111321
0.105344
0.0987801
0.0916285
0.0838903
0.0755686
0.06667
0.0572049
0.0471879
0.0366393
0.0255853
0.0140588
0.00210064
-0.0102401
-0.0229049
-0.0358252
-0.0489214
-0.0621027
-0.0752662
-0.0882967
-0.101067
-0.113437
-0.125258
-0.13637
-0.146604
-0.15579
-0.163753
-0.170324
-0.175339
-0.178651
-0.18013
-0.179674
-0.177211
-0.172711
-0.166182
-0.157682
-0.147316
-0.135236
-0.12164
-0.106768
-0.0908932
-0.0743185
-0.0573653
-0.0403653
-0.0236507
-0.00755973
0.0104718
0.029589
0.0469178
0.0625155
0.0764547
0.0888186
0.0996974
0.109185
0.117375
0.12436
0.130229
0.135065
0.138945
0.141938
0.144105
0.145501
0.14617
0.146149
0.14547
0.144154
0.142221
0.13968
0.136541
0.132805
0.128475
0.123549
0.118023
0.111895
0.10516
0.0978169
0.089864
0.0813025
0.0721364
0.0623735
0.0520257
0.0411103
0.0296505
0.0176762
0.00522523
-0.00765604
-0.0209116
-0.0344749
-0.0482679
-0.0622003
-0.0761689
-0.0900567
-0.103733
-0.117054
-0.129861
-0.141986
-0.153248
-0.163461
-0.172433
-0.179974
-0.185899
-0.190033
-0.192224
-0.192343
-0.190295
-0.186026
-0.179528
-0.170844
-0.16007
-0.147358
-0.132913
-0.116984
-0.099867
-0.0818863
-0.0633916
-0.0447445
-0.0263078
-0.00845022
0.0110516
0.0312023
0.0494466
0.0658503
0.080494
0.093469
0.104874
0.114809
0.123377
0.130678
0.136808
0.141854
0.145902
0.149024
0.151288
0.152751
0.153462
0.153461
0.152781
0.151448
0.149481
0.146892
0.14369
0.139878
0.135458
0.130427
0.124782
0.118518
0.11163
0.104114
0.0959672
0.0871883
0.0777787
0.0677433
0.0570912
0.0458363
0.0339986
0.0216045
0.00868833
-0.00470684
-0.0185282
-0.0327122
-0.047183
-0.0618521
-0.0766168
-0.0913597
-0.105948
-0.120234
-0.134052
-0.147226
-0.159564
-0.170864
-0.180917
-0.18951
-0.196436
-0.201494
-0.204502
-0.205302
-0.203773
-0.199833
-0.19345
-0.184651
-0.173521
-0.160206
-0.144914
-0.127908
-0.109499
-0.0900384
-0.0699052
-0.0494933
-0.0291986
-0.00942311
0.0116274
0.0328054
0.0519612
0.0691682
0.0845145
0.0980992
0.110028
0.120411
0.129356
0.136971
0.143358
0.148614
0.152826
0.156076
0.158434
0.159963
0.160715
0.160733
0.160055
0.158706
0.156708
0.154076
0.150817
0.146937
0.142436
0.137312
0.13156
0.125176
0.118152
0.110483
0.102164
0.0931911
0.0835634
0.0732827
0.0623551
0.0507909
0.0386065
0.0258246
0.0124755
-0.00140172
-0.0157581
-0.0305337
-0.0456561
-0.0610394
-0.0765829
-0.0921699
-0.107667
-0.122923
-0.137769
-0.152021
-0.165474
-0.177915
-0.189115
-0.198842
-0.206862
-0.212946
-0.216881
-0.218478
-0.217581
-0.214079
-0.207912
-0.199083
-0.187661
-0.173784
-0.157659
-0.13956
-0.119816
-0.0988046
-0.0769348
-0.054636
-0.0323401
-0.0104849
0.0121971
0.0343937
0.0544544
0.0724597
0.0885048
0.102696
0.115146
0.125973
0.135292
0.143218
0.149859
0.15532
0.159694
0.163068
0.165517
0.167108
0.167899
0.167935
0.167257
0.165893
0.163867
0.161194
0.157884
0.153943
0.14937
0.144163
0.138318
0.131829
0.124686
0.116884
0.108414
0.0992715
0.089452
0.0789548
0.0677824
0.0559416
0.043445
0.0303109
0.0165655
0.00224338
-0.0126112
-0.0279427
-0.0436829
-0.0597499
-0.0760459
-0.0924565
-0.108849
-0.125071
-0.140951
-0.156298
-0.170899
-0.184527
-0.196936
-0.207873
-0.217077
-0.224291
-0.229269
-0.231784
-0.231645
-0.228702
-0.222865
-0.214105
-0.202471
-0.188086
-0.171156
-0.15196
-0.130845
-0.108214
-0.0845089
-0.0601971
-0.0357494
-0.0116424
0.0127592
0.0359627
0.0569193
0.075716
0.0924542
0.107247
0.120214
0.13148
0.141168
0.1494
0.156291
0.161951
0.166481
0.169973
0.172508
0.174158
0.174983
0.175035
0.174355
0.172975
0.170921
0.16821
0.164852
0.160855
0.156218
0.150939
0.145013
0.138432
0.131188
0.123271
0.114673
0.105385
0.0954015
0.0847176
0.0733328
0.0612505
0.0484787
0.0350317
0.0209307
0.00620553
-0.00910478
-0.0249499
-0.0412669
-0.0579786
-0.0749917
-0.0921955
-0.109459
-0.126632
-0.143541
-0.15999
-0.17576
-0.190611
-0.204282
-0.216499
-0.226976
-0.235424
-0.24156
-0.245122
-0.245873
-0.243625
-0.238245
-0.22967
-0.21792
-0.2031
-0.185406
-0.165121
-0.142607
-0.118292
-0.0926551
-0.0662013
-0.0394444
-0.0129027
0.0133121
0.0375085
0.0593503
0.0789295
0.0963534
0.111741
0.125219
0.136917
0.146968
0.155498
0.162632
0.168484
0.173163
0.176766
0.17938
0.181082
0.181936
0.181997
0.181311
0.179914
0.177831
0.175082
0.171679
0.16763
0.162935
0.157592
0.151596
0.144938
0.137609
0.129597
0.120893
0.111485
0.101364
0.0905245
0.0789612
0.0666739
0.0536665
0.0399487
0.0255367
0.0104548
-0.00526343
-0.0215737
-0.0384191
-0.0557283
-0.073414
-0.0913703
-0.109471
-0.127568
-0.145488
-0.163033
-0.17998
-0.196079
-0.211056
-0.224615
-0.236445
-0.246227
-0.25364
-0.258379
-0.260163
-0.258754
-0.253974
-0.245718
-0.233967
-0.218801
-0.200401
-0.179049
-0.155119
-0.129065
-0.1014
-0.0726733
-0.043443
-0.0142732
0.0138548
0.0390281
0.0617423
0.0820937
0.100194
0.116168
0.130148
0.142271
0.152676
0.161496
0.168862
0.174897
0.179716
0.18342
0.186104
0.187848
0.188724
0.188788
0.188091
0.18667
0.184556
0.181768
0.178321
0.174223
0.169476
0.164077
0.158021
0.151299
0.143899
0.135811
0.127021
0.117518
0.107289
0.0963247
0.0846177
0.0721635
0.058962
0.045018
0.0303426
0.0149545
-0.0011191
-0.0178402
-0.0351588
-0.0530107
-0.0713152
-0.0899732
-0.108864
-0.127845
-0.146746
-0.165369
-0.183488
-0.200846
-0.217158
-0.232109
-0.245366
-0.256576
-0.265382
-0.271432
-0.274396
-0.273983
-0.269961
-0.262173
-0.250555
-0.235153
-0.216124
-0.193743
-0.168394
-0.140553
-0.110769
-0.0796369
-0.0477633
-0.0157614
0.0143863
0.0405191
0.0640918
0.0852035
0.10397
0.12052
0.134992
0.14753
0.158277
0.167376
0.174963
0.181169
0.186114
0.189909
0.192651
0.194427
0.195313
0.195372
0.194656
0.193206
0.191055
0.188225
0.184733
0.180588
0.175792
0.170343
0.164236
0.157461
0.150006
0.141859
0.133005
0.123431
0.113121
0.102064
0.0902485
0.0776666
0.0643138
0.0501903
0.0353019
0.0196612
0.00328918
-0.0137833
-0.0315138
-0.0498458
-0.0687069
-0.0880059