/*--------------------------------*- C++ -*----------------------------------*\
  =========                 |
  \\      /  F ield         | OpenFOAM: The Open Source CFD Toolbox
   \\    /   O peration     | Website:  https://openfoam.org
    \\  /    A nd           | Version:  dev
     \\/     M anipulation  |
\*---------------------------------------------------------------------------*/
FoamFile
{
    format      ascii;
    class       volScalarField;
    location    "27.9";
    object      p;
}
// * * * * * * * * * * * * * * * * * * * * * * * * * * * * * * * * * * * * * //

dimensions      [0 2 -2 0 0 0 0];

internalField   nonuniform List<scalar> 
5184
(
2.19843e-06
-8.83076e-06
-9.45608e-05
-0.000247365
-0.00044672
-0.000675336
-0.000918943
-0.00116558
-0.00140613
-0.00163344
-0.00184211
-0.0020281
-0.00218847
-0.00232112
-0.00242459
-0.00249787
-0.00254028
-0.00255139
-0.00253092
-0.00247871
-0.00239467
-0.00227878
-0.0021311
-0.00195176
-0.00174101
-0.00149922
-0.00122693
-0.000924889
-0.000594095
-0.000235816
0.000148363
0.000556517
0.000986354
0.0014352
0.0019
0.0023773
0.00286329
0.0033538
0.00384436
0.00433022
0.00480645
0.00526798
0.00570968
0.00612647
0.0065134
0.00686576
0.00717918
0.00744975
0.00767408
0.00784944
0.00797382
0.00804602
0.00806569
0.00803339
0.00795062
0.00781982
0.00764439
0.00742864
0.00717779
0.00689787
0.00659576
0.00627907
0.00595609
0.0056358
0.00532773
0.00504197
0.00478904
0.00457953
0.00442343
0.00432917
0.00430224
0.00432951
1.62654e-05
3.86908e-06
-7.0691e-05
-0.000198387
-0.000363565
-0.000553778
-0.000758084
-0.000966855
-0.00117217
-0.00136765
-0.00154826
-0.00171009
-0.00185016
-0.00196624
-0.00205668
-0.0021203
-0.00215624
-0.0021639
-0.00214283
-0.00209277
-0.00201353
-0.00190503
-0.00176728
-0.00160038
-0.00140456
-0.00118019
-0.000927789
-0.000648094
-0.000342063
-1.0913e-05
0.00034385
0.00072041
0.00111662
0.00152998
0.00195766
0.00239647
0.00284289
0.00329312
0.00374304
0.00418834
0.00462453
0.005047
0.00545111
0.00583228
0.00618606
0.00650821
0.00679485
0.00704247
0.00724812
0.00740938
0.00752456
0.00759265
0.00761345
0.00758759
0.00751655
0.00740264
0.00724905
0.0070598
0.00683968
0.00659424
0.00632973
0.00605302
0.00577155
0.00549324
0.00522641
0.00497961
0.00476153
0.00458054
0.00444393
0.00435764
0.00432908
0.00435668
0.00010306
7.83459e-05
3.00202e-06
-0.000114508
-0.000262149
-0.000430318
-0.000610324
-0.000794324
-0.000975604
-0.00114861
-0.00130883
-0.00145269
-0.00157738
-0.00168073
-0.00176107
-0.00181719
-0.00184815
-0.00185326
-0.00183203
-0.00178409
-0.00170921
-0.00160724
-0.00147814
-0.00132199
-0.00113897
-0.000929396
-0.000693771
-0.00043277
-0.000147293
0.000161519
0.000492254
0.00084321
0.00121238
0.00159743
0.00199571
0.00240426
0.00281981
0.00323879
0.0036574
0.00407164
0.00447732
0.00487019
0.00524596
0.00560037
0.00592932
0.00622892
0.00649558
0.00672611
0.00691779
0.00706846
0.00717658
0.0072413
0.0072625
0.00724084
0.00717775
0.00707547
0.006937
0.00676612
0.00656732
0.00634576
0.00610719
0.00585791
0.00560467
0.0053546
0.00511507
0.00489352
0.00469744
0.00453389
0.0044089
0.00432769
0.00429989
0.00433052
0.000258062
0.000206684
0.000118897
-3.91427e-08
-0.00014243
-0.000300502
-0.000467151
-0.000636021
-0.000801566
-0.000959088
-0.00110472
-0.00123531
-0.00134838
-0.00144196
-0.00151451
-0.00156485
-0.00159209
-0.00159552
-0.00157464
-0.00152903
-0.00145843
-0.00136264
-0.00124157
-0.00109525
-0.0009238
-0.000727489
-0.000506741
-0.000262162
5.43558e-06
0.000295004
0.000605242
0.000934572
0.00128112
0.00164272
0.00201689
0.00240085
0.00279152
0.00318557
0.00357941
0.00396927
0.0043512
0.00472119
0.00507518
0.00540917
0.00571927
0.0060018
0.00625339
0.00647102
0.00665213
0.00679471
0.00689731
0.00695917
0.0069802
0.00696106
0.00690313
0.00680857
0.00668025
0.00652174
0.00633729
0.00613173
0.00591046
0.0056793
0.00544448
0.00521247
0.00498993
0.00478353
0.00459989
0.00444528
0.00432515
0.00424452
0.00421348
0.00423872
0.000462752
0.000374184
0.000265638
0.000137975
-6.34069e-06
-0.000161128
-0.000320622
-0.000479835
-0.000634363
-0.000780403
-0.000914767
-0.00103484
-0.00113852
-0.00122412
-0.0012903
-0.00133602
-0.00136045
-0.00136294
-0.00134297
-0.00130014
-0.00123414
-0.00114474
-0.00103181
-0.00089529
-0.000735256
-0.000551895
-0.000345546
-0.000116718
0.000133877
0.000405309
0.0006964
0.00100571
0.0013315
0.00167178
0.00202422
0.00238622
0.00275489
0.00312707
0.00349937
0.0038682
0.00422983
0.0045804
0.00491606
0.00523296
0.00552738
0.0057958
0.00603498
0.006242
0.00641443
0.0065503
0.00664826
0.00670756
0.00672812
0.00671057
0.00665626
0.00656724
0.00644626
0.00629672
0.00612266
0.00592864
0.00571971
0.00550133
0.00527924
0.00505939
0.00484783
0.00465059
0.00447357
0.00432241
0.00420205
0.00411728
0.00407688
0.0040867
0.000701002
0.000569
0.000433897
0.000291921
0.00014005
-1.69349e-05
-0.000174418
-0.000328661
-0.000476336
-0.000614519
-0.000740734
-0.000852932
-0.000949441
-0.00102891
-0.00109026
-0.00113261
-0.00115526
-0.00115764
-0.00113926
-0.00109974
-0.00103873
-0.000955993
-0.000851322
-0.000724611
-0.000575842
-0.000405117
-0.000212673
1.0881e-06
0.000235577
0.000489991
0.000763289
0.00105417
0.00136107
0.00168212
0.00201518
0.0023578
0.00270725
0.00306054
0.00341444
0.00376551
0.00411016
0.00444468
0.00476533
0.00506839
0.00535023
0.00560743
0.00583681
0.00603552
0.00620115
0.0063318
0.00642608
0.00648327
0.00650325
0.00648662
0.00643464
0.0063493
0.00623322
0.00608965
0.00592244
0.00573593
0.00553489
0.00532445
0.00510995
0.00489693
0.00469092
0.0044974
0.00432172
0.00416892
0.00404356
0.00395004
0.00389485
0.00388176
0.00095901
0.00078028
0.000614798
0.000454331
0.000290487
0.000126868
-3.28968e-05
-0.000186201
-0.000330714
-0.000464348
-0.000585333
-0.000692198
-0.000783734
-0.000858957
-0.000917067
-0.000957403
-0.000979412
-0.000982618
-0.000966601
-0.000930988
-0.000875444
-0.000799675
-0.000703437
-0.000586545
-0.000448896
-0.000290488
-0.000111445
8.79548e-05
0.000307255
0.000545794
0.000802677
0.00107676
0.00136662
0.00167056
0.00198657
0.00231238
0.00264539
0.00298276
0.00332137
0.00365791
0.00398889
0.00431069
0.00461966
0.00491211
0.0051845
0.00543339
0.00565564
0.0058484
0.00600926
0.00613627
0.00622802
0.00628374
0.00630326
0.00628711
0.00623649
0.00615326
0.00603996
0.0058997
0.00573616
0.00555351
0.00535629
0.00514935
0.00493775
0.00472663
0.00452116
0.00432638
0.00414715
0.00398803
0.00385326
0.00374687
0.00367256
0.00363153
0.00122464
0.000997871
0.00079976
0.000617933
0.000438902
0.000265295
9.98999e-05
-5.57054e-05
-0.000200111
-0.000332019
-0.000450335
-0.000554162
-0.000642762
-0.000715532
-0.000771973
-0.000811655
-0.000834192
-0.000839228
-0.000826413
-0.000795406
-0.00074587
-0.000677479
-0.000589932
-0.000482968
-0.000356387
-0.000210075
-4.40308e-05
0.000141603
0.000346514
0.000570191
0.000811895
0.00107064
0.00134516
0.00163391
0.00193504
0.00224639
0.00256553
0.00288971
0.00321593
0.00354095
0.00386136
0.00417359
0.004474
0.00475895
0.00502486
0.00526829
0.00548604
0.00567523
0.00583337
0.00595844
0.00604897
0.00610408
0.00612353
0.00610775
0.00605784
0.00597558
0.00586338
0.00572425
0.00556174
0.00537985
0.00518294
0.00497567
0.00476285
0.00454934
0.00434001
0.00413956
0.00395247
0.00378291
0.00363488
0.00351212
0.00341535
0.00334316
0.00148762
0.0012126
0.000980713
0.000775699
0.000579252
0.000393201
0.000219625
5.91674e-05
-8.76157e-05
-0.000220163
-0.000338025
-0.000440855
-0.000528384
-0.000600389
-0.000656676
-0.000697055
-0.000721319
-0.000729233
-0.000720528
-0.000694897
-0.000652001
-0.000591484
-0.000512983
-0.000416154
-0.000300692
-0.000166363
-1.30313e-05
0.000159308
0.000350497
0.000560184
0.000787793
0.0010325
0.0012932
0.0015685
0.0018567
0.00215578
0.0024634
0.00277693
0.00309344
0.00340977
0.00372253
0.00402817
0.00432304
0.00460346
0.00486581
0.00510658
0.00532248
0.00551051
0.00566809
0.00579308
0.00588387
0.00593948
0.00595953
0.00594435
0.00589491
0.00581288
0.00570057
0.00556088
0.00539723
0.00521351
0.00501395
0.00480305
0.00458544
0.0043658
0.00414876
0.00393877
0.00374004
0.00355644
0.00339183
0.00324975
0.00312801
0.00302267
0.001739
0.00141622
0.00115015
0.000920895
0.000705572
0.000505342
0.000321681
0.000154384
3.2213e-06
-0.000131936
-0.000251246
-0.000354889
-0.000443045
-0.000515864
-0.000573455
-0.000615865
-0.000643065
-0.000654946
-0.000651314
-0.000631899
-0.000596359
-0.0005443
-0.000475295
-0.000388909
-0.000284725
-0.00016238
-2.15929e-05
0.000137797
0.000315797
0.000512222
0.00072667
0.000958482
0.00120672
0.00147015
0.0017472
0.00203598
0.00233427
0.00263951
0.00294886
0.00325916
0.00356705
0.00386897
0.00416122
0.00444005
0.00470175
0.00494267
0.00515941
0.00534883
0.00550816
0.0056351
0.0057279
0.00578539
0.00580704
0.00579303
0.0057442
0.00566209
0.00554889
0.00540739
0.00524092
0.00505326
0.00484856
0.00463121
0.00440573
0.00417668
0.00394853
0.0037256
0.00351189
0.00331109
0.00312704
0.00296318
0.00281456
0.00267484
0.00197085
0.00160123
0.0013011
0.00104711
0.000812044
0.000596473
0.000401351
0.000225701
6.85657e-05
-7.08271e-05
-0.000193207
-0.000299256
-0.000389579
-0.000464685
-0.000524974
-0.000570723
-0.000602075
-0.00061904
-0.000621497
-0.000609206
-0.000581817
-0.000538893
-0.000479936
-0.000404411
-0.000311783
-0.000201547
-7.327e-05
7.33756e-05
0.00023857
0.000422308
0.000624364
0.000844256
0.00108121
0.00133415
0.00160166
0.00188196
0.00217293
0.00247209
0.00277664
0.00308347
0.00338917
0.00369016
0.00398266
0.00426281
0.00452676
0.00477074
0.00499112
0.00518459
0.00534818
0.00547937
0.00557618
0.00563725
0.00566185
0.00564997
0.00560228
0.00552019
0.00540575
0.00526165
0.00509113
0.00489789
0.00468602
0.00445985
0.00422385
0.00398252
0.00374028
0.00350138
0.00326975
0.00304896
0.00284295
0.00265521
0.00247816
0.00230326
0.00217602
0.00176077
0.00142706
0.00114826
0.000893018
0.000661394
0.000453863
0.000268737
0.000104383
-4.05746e-05
-0.000167402
-0.000277254
-0.000371139
-0.000449904
-0.000514224
-0.000564592
-0.000601313
-0.000624508
-0.00063412
-0.000629929
-0.00061157
-0.000578555
-0.000530305
-0.00046618
-0.000385512
-0.000287651
-0.000171998
-3.80492e-05
0.000114559
0.000286009
0.000476264
0.000685025
0.000911696
0.00115536
0.00141473
0.00168817
0.00197366
0.00226879
0.00257079
0.00287655
0.00318266
0.00348544
0.00378102
0.00406543
0.00433461
0.00458461
0.00481159
0.00501198
0.00518255
0.00532054
0.00542369
0.00549039
0.00551966
0.00551127
0.0054657
0.00538417
0.00526859
0.00512155
0.00494619
0.00474617
0.00452553
0.00428859
0.00403982
0.00378373
0.00352479
0.00326724
0.00301503
0.00277175
0.00254153
0.00232804
0.00212124
0.00191048
0.00234797
0.00188846
0.0015219
0.00121853
0.000943027
0.000694983
0.000474437
0.000279031
0.000106496
-4.51084e-05
-0.000177553
-0.000292437
-0.000391149
-0.000474853
-0.000544481
-0.000600725
-0.000644038
-0.000674638
-0.00069252
-0.000697476
-0.000689113
-0.000666884
-0.000630119
-0.000578061
-0.000509904
-0.000424836
-0.000322085
-0.00020096
-6.09033e-05
9.84682e-05
0.000277314
0.000475529
0.000692702
0.00092808
0.00118054
0.00144856
0.00173023
0.0020232
0.00232475
0.00263176
0.00294076
0.00324802
0.00354952
0.00384113
0.00411861
0.00437774
0.00461443
0.00482482
0.00500539
0.00515303
0.0052652
0.00533996
0.00537605
0.00537295
0.00533091
0.00525095
0.00513481
0.00498493
0.00480441
0.00459684
0.00436625
0.00411698
0.00385357
0.0035806
0.00330263
0.00302404
0.00274886
0.0024808
0.00222431
0.00198333
0.00174549
0.00149815
0.0024806
0.00197834
0.00157986
0.00125238
0.000956786
0.000692224
0.000458321
0.000252082
7.06362e-05
-8.84915e-05
-0.00022755
-0.000348555
-0.000453251
-0.000543098
-0.000619265
-0.000682624
-0.00073376
-0.000772973
-0.000800297
-0.000815521
-0.000818215
-0.000807761
-0.000783387
-0.000744208
-0.000689268
-0.000617584
-0.000528197
-0.000420218
-0.000292881
-0.000145593
2.20157e-05
0.000210047
0.000418284
0.000646157
0.000892702
0.00115654
0.00143585
0.00172838
0.00203142
0.00234186
0.00265618
0.00297054
0.00328081
0.00358263
0.00387154
0.00414306
0.00439279
0.00461653
0.00481039
0.00497091
0.00509516
0.00518083
0.00522633
0.0052308
0.0051942
0.00511731
0.00500166
0.00484957
0.00466401
0.00444855
0.00420724
0.00394449
0.00366492
0.00337327
0.00307425
0.00277245
0.0024721
0.00217713
0.00189239
0.00162223
0.00135202
0.00106719
0.0025682
0.00202478
0.00159545
0.00124451
0.000929194
0.000648222
0.000400827
0.000183402
-7.50114e-06
-0.000174867
-0.000321396
-0.000449498
-0.00056125
-0.000658384
-0.000742286
-0.000813993
-0.000874199
-0.000923273
-0.000961273
-0.000987971
-0.00100289
-0.00100532
-0.000994383
-0.000969053
-0.00092821
-0.00087069
-0.000795332
-0.000701037
-0.000586818
-0.000451856
-0.000295556
-0.000117597
8.20182e-05
0.000302913
0.000544301
0.00080495
0.00108316
0.00137676
0.00168309
0.00199902
0.00232099
0.00264505
0.0029669
0.003282
0.00358562
0.00387296
0.00413928
0.00437999
0.00459079
0.00476778
0.00490761
0.00500752
0.00506551
0.00508034
0.00505162
0.00497982
0.00486626
0.00471306
0.00452309
0.00429989
0.00404753
0.00377051
0.00347361
0.00316176
0.00283992
0.00251296
0.0021854
0.00186148
0.00154655
0.00124548
0.000941435
0.000617914
0.00260538
0.00202248
0.00156347
0.00118985
0.000855333
0.000558221
0.000297359
6.85466e-05
-0.000132219
-0.00030841
-0.00046316
-0.000599248
-0.00071906
-0.000824584
-0.0009174
-0.000998688
-0.00106924
-0.00112947
-0.00117945
-0.00121892
-0.00124734
-0.00126391
-0.00126761
-0.00125727
-0.0012316
-0.00118923
-0.00112879
-0.00104896
-0.000948509
-0.00082638
-0.000681734
-0.000514011
-0.000322986
-0.000108819
0.000127899
0.000386104
0.000664234
0.000960207
0.00127142
0.00159476
0.0019266
0.00226289
0.00259918
0.00293067
0.00325238
0.00355915
0.00384585
0.00410746
0.0043392
0.0045367
0.00469606
0.00481405
0.00488816
0.00491671
0.00489888
0.0048348
0.00472547
0.00457283
0.00437961
0.00414929
0.00388599
0.00359432
0.00327926
0.002946
0.00259981
0.00224591
0.00188921
0.00153435
0.00118729
0.000853489
0.000513934
0.000150184
0.00258698
0.00196636
0.00147896
0.00108355
0.000730478
0.00041762
0.000143436
-9.68484e-05
-0.000307775
-0.000493287
-0.000656927
-0.000801825
-0.00093066
-0.00104565
-0.00114855
-0.00124067
-0.00132288
-0.00139563
-0.00145898
-0.00151263
-0.00155595
-0.00158804
-0.00160775
-0.00161374
-0.00160452
-0.00157852
-0.00153414
-0.00146982
-0.00138406
-0.00127557
-0.00114323
-0.000986214
-0.000804058
-0.000596678
-0.000364447
-0.000108234
0.000170556
0.000469962
0.000787453
0.00111993
0.00146374
0.00181473
0.00216825
0.00251932
0.00286259
0.00319258
0.00350372
0.00379048
0.00404757
0.00427004
0.00445342
0.00459388
0.00468835
0.00473459
0.0047313
0.00467818
0.00457588
0.00442607
0.00423132
0.00399504
0.00372138
0.00341512
0.00308144
0.00272585
0.002354
0.00197155
0.00158387
0.00119609
0.0008149
0.000446424
6.9435e-05
-0.00033649
0.0025081
0.00185164
0.00133722
0.000920994
0.000550101
0.000221985
-6.52821e-05
-0.000317038
-0.000538347
-0.000733605
-0.00090675
-0.00106124
-0.00120004
-0.00132556
-0.00143973
-0.00154397
-0.0016392
-0.00172589
-0.00180409
-0.00187343
-0.0019332
-0.00198237
-0.00201964
-0.00204349
-0.00205223
-0.00204407
-0.00201716
-0.00196967
-0.00189986
-0.00180612
-0.00168706
-0.00154158
-0.00136893
-0.00116874
-0.000941156
-0.000686817
-0.000406937
-0.000103329
0.000221574
0.000564716
0.000922425
0.00129045
0.00166399
0.00203781
0.00240625
0.00276343
0.00310329
0.0034198
0.00370704
0.00395944
0.00417186
0.00433979
0.00445949
0.00452809
0.0045437
0.00450549
0.0044137
0.00426966
0.00407573
0.00383523
0.00355234
0.00323198
0.0028796
0.00250107
0.00210249
0.00169004
0.00126963
0.000846959
0.000429542
2.42836e-05
-0.000392347
-0.000842833
0.00236409
0.00167375
0.00113376
0.000697793
0.000309891
-3.29237e-05
-0.000332969
-0.000596135
-0.000827993
-0.00103338
-0.00121661
-0.00138146
-0.00153114
-0.00166827
-0.00179492
-0.00191259
-0.00202226
-0.0021244
-0.00221903
-0.00230571
-0.00238362
-0.00245159
-0.00250817
-0.00255164
-0.0025801
-0.00259151
-0.00258377
-0.00255477
-0.00250247
-0.00242496
-0.00232055
-0.0021878
-0.00202565
-0.00183346
-0.00161107
-0.00135886
-0.00107782
-0.000769578
-0.000436432
-8.13642e-05
0.000291961
0.000679219
0.00107547
0.00147521
0.00187249
0.00226097
0.00263411
0.00298528
0.00330791
0.00359569
0.00384275
0.0040438
0.00419431
0.00429067
0.0043303
0.00431173
0.00423469
0.00410011
0.00391006
0.00366773
0.00337732
0.00304387
0.00267315
0.00227141
0.00184529
0.00140153
0.000946698
0.000487157
3.13256e-05
-0.00041301
-0.000871797
-0.00136969
0.00215053
0.0014284
0.00086439
0.0004098
5.76367e-06
-0.000351135
-0.000663604
-0.000938076
-0.00118062
-0.00139649
-0.00159036
-0.00176632
-0.00192782
-0.00207765
-0.00221801
-0.00235049
-0.00247609
-0.00259529
-0.00270804
-0.00281382
-0.00291172
-0.00300041
-0.00307825
-0.00314333
-0.00319352
-0.00322653
-0.00323997
-0.00323144
-0.00319859
-0.00313917
-0.00305115
-0.00293275
-0.00278256
-0.0025996
-0.00238337
-0.00213398
-0.00185212
-0.0015392
-0.00119734
-0.0008294
-0.000439007
-3.05242e-05
0.000390976
0.00081977
0.00124956
0.0016736
0.00208478
0.00247585
0.00283951
0.00316866
0.00345656
0.00369705
0.0038847
0.00401503
0.00408464
0.00409131
0.00403413
0.00391351
0.00373119
0.00349016
0.00319458
0.00284964
0.0024614
0.00203658
0.00158237
0.0011062
0.000615336
0.000116916
-0.000379629
-0.000865535
-0.00136932
-0.00191795
0.00186328
0.00111154
0.000525141
5.31283e-05
-0.000366116
-0.000736438
-0.00106094
-0.00134659
-0.00159992
-0.00182662
-0.0020317
-0.00221953
-0.00239379
-0.00255744
-0.0027128
-0.00286152
-0.00300462
-0.00314256
-0.00327523
-0.00340205
-0.00352193
-0.00363343
-0.00373471
-0.00382364
-0.00389784
-0.00395477
-0.00399173
-0.00400602
-0.00399493
-0.00395586
-0.00388641
-0.00378442
-0.0036481
-0.00347608
-0.00326749
-0.00302206
-0.0027402
-0.00242301
-0.00207238
-0.00169102
-0.00128244
-0.000851015
-0.000401916
5.89281e-05
0.000524899
0.000988797
0.00144297
0.00187946
0.0022902
0.00266721
0.00300278
0.00328975
0.00352167
0.00369305
0.0037995
0.00383794
0.00380667
0.00370547
0.00353561
0.00329981
0.00300217
0.00264798
0.00224361
0.00179626
0.00131375
0.00080426
0.000275865
-0.000263449
-0.000803114
-0.00133329
-0.00188523
-0.00248841
0.00149845
0.000719434
0.000112354
-0.00037583
-0.000809309
-0.00119236
-0.00152849
-0.00182516
-0.00208939
-0.00232725
-0.0025441
-0.00274458
-0.00293256
-0.00311119
-0.00328287
-0.00344932
-0.00361156
-0.00377003
-0.00392456
-0.00407445
-0.00421851
-0.0043551
-0.0044822
-0.00459746
-0.00469824
-0.00478171
-0.00484489
-0.00488469
-0.00489808
-0.00488206
-0.00483383
-0.0047508
-0.00463076
-0.0044719
-0.00427293
-0.00403317
-0.00375264
-0.0034321
-0.00307315
-0.00267825
-0.00225078
-0.00179506
-0.0013163
-0.000820601
-0.000314893
0.000193186
0.000695405
0.00118309
0.00164734
0.00207918
0.00246987
0.0028111
0.00309526
0.00331567
0.00346683
0.00354458
0.00354631
0.003471
0.00331934
0.00309366
0.0027979
0.00243745
0.00201897
0.00155015
0.00103952
0.000496054
-7.12543e-05
-0.00065347
-0.00123876
-0.0018161
-0.00241971
-0.00308175
0.00105249
0.000248636
-0.000377327
-0.000880377
-0.00132708
-0.00172214
-0.00206946
-0.002377
-0.00265223
-0.0029016
-0.00313078
-0.00334469
-0.0035474
-0.0037422
-0.00393158
-0.0041173
-0.00430041
-0.00448129
-0.00465971
-0.00483487
-0.00500542
-0.00516958
-0.0053251
-0.00546942
-0.00559962
-0.00571259
-0.00580499
-0.00587341
-0.00591441
-0.00592458
-0.00590068
-0.00583967
-0.00573884
-0.00559592
-0.00540914
-0.00517733
-0.00490006
-0.00457767
-0.0042114
-0.0038034
-0.00335684
-0.00287589
-0.00236577
-0.00183271
-0.0012839
-0.000727404
-0.000172032
0.000372801
0.000897276
0.0013914
0.00184525
0.00224925
0.00259446
0.00287287
0.00307764
0.00320338
0.00324633
0.00320453
0.00307789
0.00286826
0.00257931
0.00221644
0.00178659
0.00129798
0.000759836
0.00018206
-0.000425373
-0.00105246
-0.00168598
-0.00231356
-0.00297267
-0.00369836
0.000522184
-0.000303955
-0.000946925
-0.00146349
-0.00192236
-0.00232869
-0.00268675
-0.003005
-0.00329132
-0.00355255
-0.00379466
-0.0040228
-0.00424126
-0.00445343
-0.00466193
-0.00486853
-0.00507429
-0.00527955
-0.00548401
-0.00568675
-0.00588629
-0.00608066
-0.00626742
-0.00644376
-0.00660649
-0.00675219
-0.00687719
-0.00697769
-0.00704984
-0.0070898
-0.00709384
-0.00705842
-0.00698032
-0.00685671
-0.00668528
-0.00646433
-0.00619289
-0.0058708
-0.00549885
-0.0050788
-0.00461351
-0.00410696
-0.00356428
-0.00299175
-0.00239677
-0.0017878
-0.00117422
-0.000566219
2.54595e-05
0.000589697
0.0011153
0.00159129
0.00200724
0.00235359
0.00262199
0.00280555
0.00289919
0.00289976
0.00280623
0.00261976
0.00234363
0.00198318
0.00154555
0.00103949
0.000475004
-0.000137048
-0.000785593
-0.00145945
-0.00214383
-0.00282493
-0.0035437
-0.00433832
-9.5334e-05
-0.000941075
-0.0015991
-0.00212777
-0.00259775
-0.00301458
-0.00338293
-0.00371171
-0.00400923
-0.00428266
-0.00453828
-0.00478148
-0.00501671
-0.00524752
-0.00547657
-0.0057057
-0.00593595
-0.00616763
-0.00640036
-0.0066331
-0.00686424
-0.00709163
-0.00731263
-0.00752417
-0.00772281
-0.00790477
-0.00806606
-0.00820248
-0.00830974
-0.00838352
-0.00841959
-0.00841387
-0.00836257
-0.00826225
-0.00810999
-0.00790347
-0.00764112
-0.00732219
-0.00694691
-0.00651657
-0.00603361
-0.00550172
-0.00492584
-0.00431224
-0.00366845
-0.00300327
-0.00232663
-0.00164946
-0.000983476
-0.000340984
0.000265452
0.000823321
0.00132053
0.00174577
0.00208892
0.00234141
0.00249651
0.00254968
0.00249869
0.00234381
0.00208776
0.00173566
0.00129483
0.000774506
0.000185472
-0.000460355
-0.00115071
-0.0018731
-0.00261103
-0.00334906
-0.00413194
-0.00500128
-0.000802509
-0.00166507
-0.00233614
-0.00287548
-0.00335545
-0.003782
-0.00416017
-0.00449931
-0.00480812
-0.00509411
-0.00536383
-0.0056229
-0.00587594
-0.00612662
-0.00637769
-0.00663102
-0.00688764
-0.00714782
-0.0074111
-0.00767635
-0.00794182
-0.00820518
-0.00846357
-0.0087137
-0.00895182
-0.00917385
-0.00937542
-0.00955193
-0.00969864
-0.00981072
-0.0098834
-0.00991202
-0.00989215
-0.00981971
-0.00969109
-0.00950328
-0.00925401
-0.00894184
-0.00856636
-0.00812827
-0.00762947
-0.00707325
-0.00646426
-0.00580863
-0.00511396
-0.00438929
-0.00364504
-0.00289288
-0.0021455
-0.00141643
-0.000719703
-6.94913e-05
0.000520269
0.00103632
0.00146652
0.00180031
0.00202906
0.00214651
0.00214897
0.00203556
0.00180821
0.0014717
0.00103337
0.000502897
-0.000108118
-0.000786651
-0.00151914
-0.00229164
-0.00308577
-0.00388427
-0.00473603
-0.00568632
-0.00160135
-0.00247786
-0.0031599
-0.00370843
-0.00419728
-0.00463275
-0.00502026
-0.00536957
-0.00568975
-0.00598863
-0.00627302
-0.00654876
-0.00682063
-0.00709242
-0.00736696
-0.00764615
-0.00793102
-0.0082218
-0.00851797
-0.00881829
-0.00912088
-0.00942323
-0.00972231
-0.0100145
-0.0102959
-0.010562
-0.0108082
-0.0110293
-0.0112201
-0.0113754
-0.0114897
-0.0115578
-0.0115745
-0.0115352
-0.0114353
-0.0112712
-0.0110397
-0.0107387
-0.010367
-0.00992455
-0.00941261
-0.00883391
-0.00819271
-0.00749488
-0.00674796
-0.00596113
-0.00514524
-0.00431261
-0.00347691
-0.00265292
-0.0018562
-0.00110272
-0.00040842
0.000211269
0.00074193
0.00117069
0.00148672
0.00168169
0.00175011
0.00168963
0.00150117
0.00118889
0.000760037
0.000224645
-0.000404888
-0.00111438
-0.00188885
-0.00271279
-0.00356568
-0.00442828
-0.00535395
-0.0063919
-0.00249342
-0.00338093
-0.00407182
-0.00462805
-0.00512461
-0.0055682
-0.00596456
-0.00632383
-0.00665544
-0.00696751
-0.00726711
-0.00756028
-0.00785196
-0.00814606
-0.00844547
-0.00875214
-0.00906711
-0.00939058
-0.00972195
-0.0100599
-0.0104024
-0.0107469
-0.01109
-0.011428
-0.0117565
-0.0120709
-0.0123661
-0.0126365
-0.0128764
-0.0130801
-0.0132415
-0.0133546
-0.0134138
-0.0134132
-0.0133479
-0.0132132
-0.0130051
-0.0127205
-0.0123573
-0.0119147
-0.0113933
-0.0107949
-0.0101233
-0.00938405
-0.00858436
-0.0077335
-0.00684259
-0.00592455
-0.00499399
-0.0040669
-0.00316044
-0.00229246
-0.00148107
-0.000744101
-9.85233e-05
0.000440172
0.00085857
0.00114589
0.00129447
0.00130013
0.00116241
0.000884616
0.000473675
-6.01418e-05
-0.000703682
-0.00144156
-0.0022573
-0.00313363
-0.00404772
-0.00497809
-0.00598293
-0.0071157
-0.00347977
-0.00437528
-0.00507288
-0.00563529
-0.00613842
-0.00658929
-0.00699398
-0.00736298
-0.00770604
-0.00803156
-0.00834685
-0.00865814
-0.00897054
-0.00928806
-0.00961367
-0.00994937
-0.0102962
-0.0106544
-0.0110232
-0.0114013
-0.0117866
-0.0121762
-0.0125667
-0.0129541
-0.0133338
-0.0137008
-0.0140496
-0.0143742
-0.0146686
-0.0149261
-0.0151403
-0.0153046
-0.0154122
-0.0154569
-0.0154325
-0.0153335
-0.0151549
-0.0148927
-0.0145438
-0.0141064
-0.0135799
-0.0129657
-0.0122667
-0.0114877
-0.0106358
-0.00971997
-0.00875155
-0.00774392
-0.00671252
-0.00567455
-0.00464876
-0.00365495
-0.00271356
-0.00184502
-0.00106912
-0.00040433
0.000132966
0.000529115
0.000773826
0.000860663
0.000787384
0.000556083
0.000173116
-0.000351189
-0.00100301
-0.00176575
-0.00262132
-0.00355056
-0.00452805
-0.00552983
-0.00661931
-0.0078545
-0.00456095
-0.00546144
-0.0061636
-0.00673067
-0.0072392
-0.00769651
-0.00810898
-0.00848743
-0.00884191
-0.00918106
-0.00951244
-0.00984245
-0.0101764
-0.0105183
-0.0108713
-0.0112375
-0.0116178
-0.0120125
-0.012421
-0.0128417
-0.0132723
-0.0137101
-0.0141513
-0.0145918
-0.0150266
-0.0154506
-0.0158576
-0.0162416
-0.0165956
-0.0169128
-0.0171859
-0.0174075
-0.0175703
-0.0176669
-0.0176903
-0.0176339
-0.0174919
-0.0172589
-0.0169308
-0.0165047
-0.0159789
-0.0153538
-0.0146313
-0.0138156
-0.012913
-0.0119324
-0.0108851
-0.00978464
-0.00864726
-0.00749128
-0.00633699
-0.00520619
-0.00412175
-0.00310688
-0.0021845
-0.00137636
-0.000702264
-0.000179193
0.000179427
0.000364397
0.000371217
0.000200352
-0.000142766
-0.000647995
-0.00130097
-0.0020839
-0.00297702
-0.00395911
-0.0050019
-0.00607866
-0.00725843
-0.00860402
-0.00573697
-0.00663945
-0.00734403
-0.00791425
-0.00842701
-0.00888989
-0.00930957
-0.00969714
-0.0100629
-0.0104158
-0.0107635
-0.0111127
-0.0114688
-0.0118359
-0.0122174
-0.0126152
-0.0130305
-0.0134635
-0.0139135
-0.014379
-0.0148576
-0.0153464
-0.0158415
-0.0163385
-0.0168324
-0.0173175
-0.0177876
-0.0182358
-0.0186551
-0.0190377
-0.0193759
-0.0196614
-0.0198861
-0.0200417
-0.0201203
-0.0201141
-0.0200161
-0.0198198
-0.0195199
-0.0191121
-0.0185937
-0.0179636
-0.0172228
-0.0163745
-0.0154243
-0.0143805
-0.013254
-0.0120587
-0.0108113
-0.00953111
-0.00823985
-0.00696136
-0.00572096
-0.00454484
-0.00345926
-0.00248963
-0.00165959
-0.000989954
-0.000497848
-0.000195811
-9.11606e-05
-0.000185579
-0.00047499
-0.000949759
-0.00159517
-0.00239233
-0.00331971
-0.00435389
-0.00546345
-0.00661862
-0.0078944
-0.00935877
-0.00700732
-0.00790884
-0.00861374
-0.00918564
-0.00970146
-0.010169
-0.0105953
-0.0109916
-0.0113684
-0.0117349
-0.0120991
-0.0124678
-0.0128464
-0.0132394
-0.0136501
-0.0140806
-0.0145321
-0.0150048
-0.015498
-0.0160103
-0.0165391
-0.0170814
-0.0176334
-0.0181903
-0.018747
-0.0192973
-0.0198349
-0.0203524
-0.0208422
-0.021296
-0.0217055
-0.0220615
-0.0223551
-0.0225772
-0.0227186
-0.0227705
-0.0227246
-0.0225732
-0.0223095
-0.021928
-0.0214244
-0.0207965
-0.0200438
-0.0191683
-0.0181748
-0.0170706
-0.0158662
-0.0145755
-0.0132154
-0.0118059
-0.0103703
-0.00893418
-0.00752541
-0.00617324
-0.0049075
-0.0037576
-0.00275141
-0.00191417
-0.00126727
-0.000827251
-0.000604902
-0.000604666
-0.00082436
-0.00125528
-0.00188264
-0.00268654
-0.00364372
-0.00472837
-0.00590565
-0.0071424
-0.00852
-0.0101119
-0.00837093
-0.00926866
-0.00997186
-0.010544
-0.0110617
-0.0115331
-0.0119652
-0.0123697
-0.0127572
-0.0131372
-0.0135178
-0.0139059
-0.0143073
-0.0147265
-0.0151668
-0.0156307
-0.0161192
-0.0166327
-0.0171705
-0.0177311
-0.0183121
-0.0189103
-0.0195217
-0.0201415
-0.0207643
-0.0213838
-0.021993
-0.0225845
-0.02315
-0.0236808
-0.0241676
-0.0246008
-0.0249704
-0.0252662
-0.0254783
-0.0255964
-0.0256111
-0.0255131
-0.0252944
-0.0249478
-0.0244676
-0.0238498
-0.0230928
-0.0221969
-0.0211657
-0.0200056
-0.0187262
-0.017341
-0.015867
-0.0143248
-0.0127387
-0.0111362
-0.00954747
-0.00800498
-0.00654224
-0.00519294
-0.00398966
-0.00296256
-0.00213796
-0.00153712
-0.00117504
-0.00105966
-0.00119134
-0.00156282
-0.00215965
-0.00296112
-0.00394226
-0.00507477
-0.00632006
-0.00764121
-0.00912643
-0.0108548
-0.00982623
-0.0107175
-0.011417
-0.011988
-0.0125065
-0.0129807
-0.013418
-0.01383
-0.0142278
-0.0146208
-0.0150174
-0.0154247
-0.0158487
-0.016294
-0.0167642
-0.0172616
-0.0177876
-0.0183425
-0.0189258
-0.019536
-0.0201707
-0.0208265
-0.0214995
-0.0221848
-0.0228767
-0.0235687
-0.0242536
-0.0249234
-0.0255694
-0.0261824
-0.0267525
-0.0272692
-0.0277216
-0.0280987
-0.0283892
-0.0285819
-0.0286657
-0.0286302
-0.0284655
-0.028163
-0.0277153
-0.0271168
-0.026364
-0.0254557
-0.024394
-0.0231838
-0.0218339
-0.020357
-0.0187697
-0.017093
-0.0153521
-0.0135758
-0.0117969
-0.0100507
-0.00837468
-0.00680695
-0.00538522
-0.00414507
-0.00311849
-0.00233219
-0.00180624
-0.00155289
-0.00157584
-0.00186996
-0.0024216
-0.00320957
-0.00420727
-0.00538382
-0.0066966
-0.00810455
-0.00970308
-0.0115772
-0.0113711
-0.0122534
-0.0129476
-0.0135161
-0.0140342
-0.0145104
-0.0149519
-0.0153708
-0.015778
-0.0161833
-0.0165953
-0.0170212
-0.0174672
-0.0179382
-0.0184377
-0.0189685
-0.0195319
-0.0201285
-0.0207577
-0.021418
-0.0221073
-0.0228221
-0.0235584
-0.0243112
-0.0250746
-0.025842
-0.0266059
-0.0273579
-0.0280889
-0.0287891
-0.0294478
-0.030054
-0.0305959
-0.0310613
-0.0314379
-0.0317132
-0.0318748
-0.0319107
-0.0318095
-0.0315608
-0.0311554
-0.0305858
-0.0298467
-0.0289352
-0.0278513
-0.0265986
-0.0251844
-0.0236203
-0.0219224
-0.0201114
-0.0182131
-0.0162578
-0.01428
-0.0123181
-0.0104135
-0.0086088
-0.00694723
-0.00547035
-0.0042164
-0.00321842
-0.00250244
-0.002086
-0.00197704
-0.00217337
-0.0026628
-0.00342408
-0.00442918
-0.0056446
-0.00702339
-0.00851996
-0.0102373
-0.0122666
-0.013003
-0.0138741
-0.0145613
-0.0151261
-0.015643
-0.01612
-0.0165649
-0.0169896
-0.0174053
-0.0178219
-0.0182482
-0.0186917
-0.0191587
-0.0196543
-0.0201824
-0.0207456
-0.0213458
-0.0219835
-0.0226584
-0.023369
-0.0241131
-0.0248875
-0.0256881