/*--------------------------------*- C++ -*----------------------------------*\
  =========                 |
  \\      /  F ield         | OpenFOAM: The Open Source CFD Toolbox
   \\    /   O peration     | Website:  https://openfoam.org
    \\  /    A nd           | Version:  dev
     \\/     M anipulation  |
\*---------------------------------------------------------------------------*/
FoamFile
{
    format      ascii;
    class       volScalarField;
    location    "27.9";
    object      Ux;
}
// * * * * * * * * * * * * * * * * * * * * * * * * * * * * * * * * * * * * * //

dimensions      [0 1 -1 0 0 0 0];

internalField   nonuniform List<scalar> 
5184
(
1.22498e-05
4.50426e-05
8.02472e-05
9.5926e-05
8.21073e-05
3.64161e-05
-4.05925e-05
-0.000146893
-0.000279692
-0.000435937
-0.000612509
-0.000806375
-0.00101467
-0.00123472
-0.00146407
-0.00170047
-0.00194183
-0.00218626
-0.00243196
-0.00267725
-0.00292053
-0.00316023
-0.00339483
-0.0036228
-0.00384261
-0.00405273
-0.0042516
-0.00443765
-0.0046093
-0.00476497
-0.0049031
-0.00502217
-0.00512071
-0.00519736
-0.00525085
-0.00528006
-0.00528406
-0.00526211
-0.00521371
-0.00513864
-0.00503696
-0.00490903
-0.00475558
-0.00457765
-0.00437664
-0.00415431
-0.00391275
-0.00365438
-0.00338194
-0.00309843
-0.00280708
-0.00251133
-0.00221473
-0.00192094
-0.00163364
-0.00135646
-0.00109294
-0.000846455
-0.000620148
-0.000416869
-0.000239116
-8.89675e-05
3.19889e-05
0.000122739
0.000182949
0.000213123
0.000214845
0.000191167
0.000147115
9.078e-05
3.66246e-05
6.22737e-06
2.0798e-05
6.55264e-05
9.46172e-05
7.27167e-05
-1.90044e-05
-0.000187363
-0.000432944
-0.00075253
-0.00114057
-0.00159028
-0.00209433
-0.00264525
-0.00323576
-0.00385885
-0.00450793
-0.00517679
-0.00585964
-0.00655103
-0.00724583
-0.00793917
-0.00862633
-0.00930277
-0.00996402
-0.0106056
-0.0112233
-0.0118124
-0.0123688
-0.0128879
-0.0133653
-0.0137968
-0.0141781
-0.0145051
-0.0147739
-0.0149808
-0.0151226
-0.0151965
-0.0152
-0.0151315
-0.0149898
-0.0147745
-0.014486
-0.0141255
-0.0136951
-0.013198
-0.0126379
-0.0120199
-0.0113496
-0.0106336
-0.00987941
-0.00909504
-0.00828919
-0.00747105
-0.00665016
-0.00583624
-0.00503907
-0.00426834
-0.0035334
-0.00284318
-0.00220596
-0.00162922
-0.00111943
-0.000681888
-0.000320513
-3.75867e-05
0.000166523
0.000293735
0.000348796
0.000339975
0.000279758
0.000185996
8.63488e-05
1.96767e-05
1.76109e-05
4.12716e-05
1.95278e-05
-8.40724e-05
-0.000290301
-0.000607902
-0.00103814
-0.00157721
-0.00221794
-0.00295114
-0.00376654
-0.00465343
-0.00560109
-0.00659907
-0.00763731
-0.00870625
-0.00979681
-0.0109004
-0.0120088
-0.0131141
-0.0142089
-0.0152857
-0.0163373
-0.0173565
-0.0183363
-0.0192697
-0.0201496
-0.020969
-0.0217211
-0.0223991
-0.0229965
-0.0235069
-0.0239245
-0.0242437
-0.0244597
-0.0245682
-0.0245659
-0.0244502
-0.0242197
-0.0238739
-0.0234138
-0.0228415
-0.0221604
-0.0213753
-0.0204927
-0.0195199
-0.0184661
-0.0173413
-0.016157
-0.0149256
-0.0136605
-0.0123755
-0.0110854
-0.00980483
-0.00854879
-0.00733194
-0.00616855
-0.00507212
-0.00405521
-0.00312908
-0.00230347
-0.00158628
-0.000983235
-0.000497577
-0.000129616
0.000123715
0.000269508
0.000319605
0.000291135
0.000207321
0.00010242
2.49703e-05
8.82389e-06
-7.04812e-06
-0.000107617
-0.000322377
-0.000669564
-0.00115757
-0.00178715
-0.00255354
-0.0034482
-0.00446009
-0.00557674
-0.00678496
-0.00807132
-0.00942259
-0.0108259
-0.0122687
-0.0137392
-0.015226
-0.0167181
-0.018205
-0.0196765
-0.0211226
-0.0225336
-0.0238997
-0.0252116
-0.0264596
-0.0276345
-0.0287269
-0.0297279
-0.0306284
-0.03142
-0.0320944
-0.0326439
-0.0330617
-0.0333415
-0.0334779
-0.0334669
-0.0333053
-0.0329914
-0.0325252
-0.0319078
-0.0311424
-0.0302337
-0.0291882
-0.028014
-0.0267214
-0.0253219
-0.0238288
-0.022257
-0.0206226
-0.0189429
-0.0172358
-0.0155203
-0.0138155
-0.0121405
-0.0105144
-0.00895547
-0.00748112
-0.00610752
-0.00484915
-0.00371851
-0.00272571
-0.00187807
-0.00117974
-0.000631171
-0.000228673
3.62271e-05
0.00017742
0.000214626
0.000174005
9.299e-05
2.40194e-05
-2.13276e-06
-6.73076e-05
-0.000264104
-0.000609704
-0.00111661
-0.00179101
-0.00263193
-0.00363298
-0.00478404
-0.00607241
-0.00748374
-0.00900278
-0.0106139
-0.0123016
-0.0140506
-0.0158461
-0.0176737
-0.0195195
-0.0213702
-0.0232128
-0.0250348
-0.0268239
-0.0285679
-0.0302549
-0.0318732
-0.0334111
-0.0348572
-0.0362001
-0.0374288
-0.0385324
-0.0395007
-0.0403239
-0.0409928
-0.0414992
-0.0418357
-0.0419963
-0.041976
-0.0417714
-0.0413809
-0.0408043
-0.0400436
-0.0391026
-0.0379871
-0.036705
-0.0352665
-0.0336837
-0.0319705
-0.030143
-0.028219
-0.0262176
-0.0241594
-0.0220662
-0.0199602
-0.0178644
-0.0158015
-0.0137943
-0.0118646
-0.0100332
-0.00831939
-0.00674046
-0.00531138
-0.00404427
-0.002948
-0.00202771
-0.00128435
-0.000714163
-0.000308151
-5.15552e-05
7.64955e-05
0.000103499
6.74652e-05
1.96568e-05
-1.36954e-05
-0.000132825
-0.000435771
-0.000924489
-0.00160361
-0.00247569
-0.0035369
-0.00477853
-0.0061885
-0.00775229
-0.00945377
-0.0112759
-0.0132011
-0.015212
-0.0172913
-0.0194219
-0.0215876
-0.0237723
-0.0259606
-0.0281373
-0.0302877
-0.0323975
-0.0344524
-0.0364386
-0.0383421
-0.0401495
-0.0418473
-0.0434224
-0.0448619
-0.0461535
-0.0472852
-0.0482459
-0.0490252
-0.0496137
-0.0500031
-0.0501866
-0.0501588
-0.049916
-0.0494565
-0.0487802
-0.0478897
-0.0467894
-0.0454861
-0.043989
-0.0423098
-0.0404623
-0.0384625
-0.0363289
-0.0340815
-0.0317423
-0.0293348
-0.0268836
-0.0244144
-0.021953
-0.0195257
-0.0171583
-0.0148757
-0.0127018
-0.0106587
-0.00876627
-0.00704181
-0.0054994
-0.00414951
-0.00299851
-0.00204818
-0.00129524
-0.000730926
-0.000340517
-0.000103061
9.06728e-06
3.24583e-05
1.36127e-05
-2.51816e-05
-0.000199977
-0.000613966
-0.00125265
-0.00211157
-0.00318857
-0.00447608
-0.00596239
-0.00763301
-0.00947138
-0.0114595
-0.0135787
-0.0158095
-0.0181329
-0.0205298
-0.0229815
-0.0254696
-0.0279765
-0.0304847
-0.0329774
-0.0354378
-0.0378499
-0.0401974
-0.0424647
-0.0446361
-0.0466964
-0.0486304
-0.0504233
-0.0520608
-0.0535289
-0.0548145
-0.0559052
-0.0567893
-0.0574565
-0.0578978
-0.0581057
-0.0580743
-0.0577996
-0.0572798
-0.0565151
-0.0555082
-0.0542642
-0.0527908
-0.0510981
-0.0491991
-0.0471089
-0.0448456
-0.0424292
-0.0398822
-0.0372287
-0.0344948
-0.0317078
-0.0288958
-0.0260879
-0.0233131
-0.0206
-0.0179765
-0.0154693
-0.0131031
-0.0109004
-0.00888059
-0.00705988
-0.0054505
-0.00406029
-0.00289224
-0.00194409
-0.00120789
-0.000669706
-0.000309328
-9.99342e-05
-7.74789e-06
6.85341e-06
-3.63329e-05
-0.000266883
-0.000793569
-0.00158526
-0.0026278
-0.00391362
-0.00543077
-0.00716395
-0.00909586
-0.0112076
-0.0134793
-0.0158903
-0.0184197
-0.0210468
-0.0237508
-0.0265116
-0.0293092
-0.0321243
-0.0349379
-0.0377314
-0.0404866
-0.0431856
-0.0458108
-0.0483446
-0.0507701
-0.0530701
-0.0552283
-0.0572283
-0.0590543
-0.0606912
-0.0621245
-0.0633407
-0.0643273
-0.0650729
-0.0655678
-0.0658039
-0.0657747
-0.0654761
-0.064906
-0.0640647
-0.0629551
-0.0615827
-0.0599558
-0.0580853
-0.0559851
-0.0536717
-0.0511645
-0.0484851
-0.0456578
-0.0427089
-0.0396665
-0.0365602
-0.0334208
-0.0302798
-0.0271689
-0.0241194
-0.0211622
-0.0183263
-0.0156392
-0.0131259
-0.0108081
-0.00870428
-0.00682858
-0.00519065
-0.00379509
-0.00264106
-0.00172198
-0.00102528
-0.000532164
-0.000217267
-5.04867e-05
-9.01324e-08
-4.70507e-05
-0.000332557
-0.000971588
-0.0019167
-0.00314389
-0.0046398
-0.00638761
-0.00836804
-0.0105606
-0.0129439
-0.0154958
-0.0181938
-0.0210155
-0.0239386
-0.0269408
-0.0300007
-0.0330968
-0.0362084
-0.0393152
-0.0423971
-0.0454345
-0.048408
-0.0512986
-0.0540875
-0.056756
-0.059286
-0.0616594
-0.0638588
-0.0658672
-0.0676681
-0.0692461
-0.0705866
-0.071676
-0.0725023
-0.073055
-0.0733252
-0.0733062
-0.0729932
-0.072384
-0.0714788
-0.0702805
-0.0687949
-0.0670304
-0.0649988
-0.0627146
-0.0601953
-0.0574612
-0.0545355
-0.051444
-0.0482146
-0.0448775
-0.0414643
-0.0380081
-0.0345429
-0.0311028
-0.027722
-0.0244337
-0.0212699
-0.0182606
-0.0154334
-0.0128128
-0.0104193
-0.00826941
-0.00637497
-0.0047425
-0.00337304
-0.00226181
-0.00139812
-0.000764997
-0.000339029
-9.41997e-05
-6.94801e-06
-5.73216e-05
-0.000396513
-0.00114629
-0.00224346
-0.00365429
-0.00535944
-0.00733701
-0.00956342
-0.0120148
-0.0146668
-0.0174952
-0.0204755
-0.0235836
-0.0267957
-0.0300883
-0.0334385
-0.0368237
-0.040222
-0.0436117
-0.0469716
-0.0502808
-0.0535188
-0.0566653
-0.0597001
-0.0626036
-0.0653562
-0.0679389
-0.0703329
-0.0725202
-0.0744833
-0.0762056
-0.0776717
-0.078867
-0.0797788
-0.0803957
-0.0807082
-0.080709
-0.0803928
-0.079757
-0.0788014
-0.077529
-0.0759454
-0.0740593
-0.0718826
-0.0694304
-0.0667208
-0.0637752
-0.0606176
-0.0572751
-0.0537773
-0.0501559
-0.0464447
-0.0426788
-0.0388945
-0.0351284
-0.0314174
-0.0277973
-0.0243029
-0.0209672
-0.0178203
-0.0148895
-0.0121981
-0.00976519
-0.00760488
-0.00572613
-0.00413221
-0.00282057
-0.00178274
-0.00100396
-0.000463004
-0.00013807
-1.36045e-05
-6.71639e-05
-0.000458526
-0.00131666
-0.00256331
-0.00415527
-0.00606723
-0.00827206
-0.0107417
-0.0134487
-0.0163659
-0.0194664
-0.022724
-0.0261127
-0.0296073
-0.0331831
-0.0368158
-0.0404819
-0.0441582
-0.0478221
-0.0514513
-0.055024
-0.0585183
-0.0619131
-0.0651872
-0.0683197
-0.0712902
-0.0740784
-0.0766647
-0.07903
-0.0811558
-0.0830247
-0.0846201
-0.0859268
-0.0869311
-0.0876208
-0.0879857
-0.0880176
-0.0877109
-0.0870622
-0.086071
-0.0847398
-0.0830739
-0.0810821
-0.0787761
-0.0761714
-0.0732864
-0.0701429
-0.0667662
-0.0631841
-0.0594276
-0.05553
-0.0515268
-0.0474553
-0.0433541
-0.0392622
-0.035219
-0.0312634
-0.0274331
-0.0237639
-0.0202891
-0.017039
-0.0140398
-0.0113135
-0.00887715
-0.00674231
-0.00491491
-0.00339494
-0.00217648
-0.0012472
-0.000588182
-0.000181771
-2.00331e-05
-7.66027e-05
-0.000518492
-0.0014821
-0.00287482
-0.00464429
-0.00675936
-0.00918765
-0.0118966
-0.0148551
-0.0180328
-0.0214005
-0.0249298
-0.0285932
-0.0323638
-0.0362158
-0.0401239
-0.0440634
-0.0480103
-0.0519409
-0.0558322
-0.0596612
-0.0634056
-0.0670429
-0.0705513
-0.0739089
-0.0770943
-0.0800866
-0.082865
-0.0854095
-0.0877008
-0.0897205
-0.0914513
-0.0928768
-0.0939826
-0.0947556
-0.0951847
-0.095261
-0.0949779
-0.0943314
-0.0933204
-0.0919465
-0.0902148
-0.0881335
-0.0857143
-0.0829722
-0.0799261
-0.0765981
-0.0730139
-0.0692023
-0.0651953
-0.0610277
-0.0567367
-0.0523615
-0.047943
-0.0435229
-0.0391433
-0.034846
-0.0306718
-0.0266598
-0.0228468
-0.0192661
-0.0159476
-0.0129164
-0.0101926
-0.00779116
-0.00572078
-0.00398438
-0.0025788
-0.00149434
-0.000714405
-0.000225303
-2.62601e-05
-8.566e-05
-0.000576362
-0.00164224
-0.003177
-0.00511954
-0.007433
-0.0100798
-0.0130231
-0.0162277
-0.0196605
-0.0232897
-0.0270848
-0.0310165
-0.0350567
-0.0391782
-0.0433548
-0.0475608
-0.0517713
-0.0559621
-0.0601091
-0.0641888
-0.0681779
-0.0720535
-0.0757927
-0.079373
-0.0827724
-0.0859687
-0.0889408
-0.0916676
-0.0941291
-0.0963058
-0.0981796
-0.0997333
-0.100951
-0.10182
-0.102327
-0.102462
-0.102218
-0.101591
-0.100577
-0.0991775
-0.0973972
-0.0952434
-0.0927273
-0.0898635
-0.0866707
-0.0831711
-0.0793906
-0.0753588
-0.0711086
-0.066676
-0.0620999
-0.0574215
-0.0526838
-0.0479312
-0.0432088
-0.0385614
-0.0340334
-0.0296674
-0.0255038
-0.0215796
-0.0179284
-0.0145791
-0.0115555
-0.00887574
-0.00655203
-0.00459043
-0.00299078
-0.0017461
-0.000842124
-0.000268888
-3.23439e-05
-9.43504e-05
-0.000632099
-0.0017968
-0.00346912
-0.00557961
-0.00808592
-0.0109455
-0.014117
-0.0175617
-0.0212432
-0.0251274
-0.0291817
-0.033375
-0.037678
-0.0420622
-0.0465005
-0.0509663
-0.0554342
-0.059879
-0.0642762
-0.0686016
-0.0728313
-0.0769417
-0.0809095
-0.0847115
-0.0883249
-0.0917269
-0.0948956
-0.0978093
-0.100447
-0.102788
-0.104815
-0.106507
-0.10785
-0.108828
-0.109428
-0.109638
-0.109451
-0.10886
-0.107861
-0.106455
-0.104645
-0.102436
-0.0998403
-0.096871
-0.0935464
-0.0898884
-0.085923
-0.0816803
-0.0771938
-0.0725008
-0.0676416
-0.0626593
-0.0575992
-0.0525086
-0.0474356
-0.0424283
-0.0375349
-0.0328018
-0.0282733
-0.0239909
-0.0199921
-0.01631
-0.0129725
-0.0100014
-0.00741287
-0.00521626
-0.0034147
-0.00200401
-0.000972213
-0.000312895
-3.83625e-05
-0.000102681
-0.000685659
-0.00194552
-0.00375054
-0.00602331
-0.00871623
-0.011782
-0.0151748
-0.0188525
-0.0227757
-0.0269077
-0.0312138
-0.0356616
-0.0402202
-0.0448601
-0.0495531
-0.0542723
-0.0589912
-0.0636843
-0.0683265
-0.0728932
-0.0773599
-0.0817027
-0.0858977
-0.0899211
-0.0937495
-0.0973599
-0.100729
-0.103835
-0.106657
-0.109172
-0.111361
-0.113205
-0.114686
-0.115789
-0.116498
-0.116801
-0.116688
-0.116153
-0.115189
-0.113796
-0.111974
-0.109731
-0.107073
-0.104016
-0.100575
-0.0967725
-0.0926343
-0.0881904
-0.0834749
-0.078526
-0.0733854
-0.0680982
-0.0627122
-0.0572772
-0.0518446
-0.0464665
-0.0411945
-0.0360797
-0.0311708
-0.0265137
-0.0221507
-0.0181194
-0.0144522
-0.0111754
-0.008309
-0.00586626
-0.00385372
-0.00227016
-0.00110586
-0.000357799
-4.4406e-05
-0.000110653
-0.00073698
-0.00208816
-0.00402065
-0.00644952
-0.00932219
-0.0125867
-0.0161932
-0.0200961
-0.024253
-0.0286248
-0.033175
-0.0378694
-0.0426758
-0.0475639
-0.0525047
-0.0574703
-0.062434
-0.0673698
-0.072252
-0.0770558
-0.0817564
-0.0863294
-0.0907505
-0.0949956
-0.099041
-0.102863
-0.106438
-0.109743
-0.112756
-0.115455
-0.117818
-0.119826
-0.121461
-0.122704
-0.12354
-0.123954
-0.123936
-0.123477
-0.122569
-0.121209
-0.119398
-0.117139
-0.11444
-0.111313
-0.107773
-0.103841
-0.0995432
-0.0949087
-0.0899723
-0.0847727
-0.0793531
-0.0737604
-0.0680446
-0.0622586
-0.0564571
-0.0506961
-0.0450318
-0.0395194
-0.0342129
-0.0291633
-0.0244178
-0.0200193
-0.016005
-0.0124062
-0.00924729
-0.00654569
-0.00431166
-0.00254706
-0.00124445
-0.000404141
-5.05724e-05
-0.000118259
-0.000785981
-0.00222441
-0.00427883
-0.00685717
-0.00990213
-0.0133574
-0.0171692
-0.0212886
-0.0256705
-0.0302734
-0.0350589
-0.0399914
-0.0450375
-0.0501659
-0.0553467
-0.0605518
-0.0657538
-0.0709262
-0.0760435
-0.0810802
-0.0860114
-0.0908125
-0.095459
-0.0999265
-0.104191
-0.108228
-0.112013
-0.115524
-0.118737
-0.12163
-0.12418
-0.126367
-0.12817
-0.12957
-0.130551
-0.131097
-0.131194
-0.130832
-0.130002
-0.128698
-0.12692
-0.124668
-0.121948
-0.118771
-0.115151
-0.111107
-0.106664
-0.101851
-0.0967028
-0.091259
-0.0855637
-0.0796655
-0.0736168
-0.0674734
-0.0612937
-0.0551377
-0.0490663
-0.0431398
-0.0374175
-0.0319559
-0.0268081
-0.0220226
-0.0176421
-0.0137033
-0.0102354
-0.00726051
-0.00479283
-0.00283753
-0.00138954
-0.000452509
-5.69641e-05
-0.000125487
-0.000832557
-0.00235396
-0.00452441
-0.00724511
-0.0104543
-0.0140917
-0.0180997
-0.0224261
-0.0270235
-0.031848
-0.0368595
-0.0420209
-0.0472977
-0.0526577
-0.0580705
-0.0635074
-0.0689406
-0.0743436
-0.0796903
-0.0849555
-0.090114
-0.095141
-0.100012
-0.104702
-0.109187
-0.113443
-0.117444
-0.121168
-0.12459
-0.127687
-0.130436
-0.132815
-0.134802
-0.136378
-0.137523
-0.13822
-0.138454
-0.138211
-0.137482
-0.136259
-0.134537
-0.132315
-0.129598
-0.126393
-0.122713
-0.118575
-0.114004
-0.109027
-0.103679
-0.0979989
-0.0920328
-0.0858305
-0.0794468
-0.0729405
-0.0663737
-0.0598108
-0.0533175
-0.0469597
-0.0408025
-0.0349085
-0.0293372
-0.0241433
-0.0193757
-0.0150769
-0.0112817
-0.00801713
-0.00530186
-0.0031446
-0.00154277
-0.000503526
-6.36861e-05
-0.00013232
-0.000876582
-0.00247644
-0.00475666
-0.00761215
-0.0109771
-0.0147871
-0.0189815
-0.0235049
-0.0283074
-0.0333432
-0.0385704
-0.0439507
-0.0494485
-0.0550308
-0.0606668
-0.0663271
-0.071984
-0.0776106
-0.0831809
-0.0886695
-0.0940512
-0.0993013
-0.104395
-0.109308
-0.114015
-0.118493
-0.122715
-0.126658
-0.130297
-0.133609
-0.136569
-0.139154
-0.141341
-0.14311
-0.144438
-0.145307
-0.1457
-0.145601
-0.144997
-0.143879
-0.142238
-0.140072
-0.137382
-0.134173
-0.130456
-0.126246
-0.121566
-0.116441
-0.110906
-0.105001
-0.0987715
-0.0922686
-0.0855497
-0.0786764
-0.0717147
-0.0647335
-0.0578038
-0.0509974
-0.0443857
-0.0380381
-0.0320208
-0.0263955
-0.0212181
-0.0165376
-0.0123948
-0.00882227
-0.00584361
-0.00347142
-0.00170586
-0.000557833
-7.08448e-05
-0.000138735
-0.000917914
-0.00259145
-0.0049748
-0.00795704
-0.0114685
-0.0154413
-0.0198114
-0.024521
-0.0295175
-0.0347534
-0.0401854
-0.0457736
-0.0514819
-0.0572764
-0.0631258
-0.0690005
-0.0748726
-0.0807152
-0.0865022
-0.0922083
-0.0978086
-0.103278
-0.108593
-0.113727
-0.118658
-0.123359
-0.127806
-0.131974
-0.135839
-0.139374
-0.142557
-0.145362
-0.147765
-0.149743
-0.151274
-0.152336
-0.152911
-0.152979
-0.152525
-0.151537
-0.150005
-0.147921
-0.145285
-0.142099
-0.13837
-0.134112
-0.129343
-0.124091
-0.118386
-0.112269
-0.105786
-0.0989886
-0.0919365
-0.0846943
-0.0773316
-0.0699221
-0.0625423
-0.0552703
-0.0481843
-0.0413611
-0.0348744
-0.0287936
-0.0231821
-0.0180962
-0.0135835
-0.00968285
-0.00642309
-0.00382126
-0.00188059
-0.000616083
-7.85479e-05
-0.000144706
-0.000956392
-0.00269853
-0.005178
-0.00827846
-0.0119267
-0.0160517
-0.0205864
-0.0254703
-0.030649
-0.0360731
-0.0416978
-0.0474824
-0.0533896
-0.0593852
-0.0654374
-0.0715165
-0.0775944
-0.0836442
-0.0896401
-0.0955569
-0.10137
-0.107054
-0.112586
-0.117941
-0.123093
-0.12802
-0.132694
-0.137092
-0.141188
-0.144957
-0.148372
-0.151409
-0.154043
-0.156247
-0.158
-0.159276
-0.160054
-0.160313
-0.160036
-0.159205
-0.157809
-0.155836
-0.153283
-0.150147
-0.146434
-0.142154
-0.137323
-0.131965
-0.126111
-0.1198
-0.113076
-0.105994
-0.0986135
-0.091003
-0.0832356
-0.0753897
-0.0675476
-0.0597939
-0.0522143
-0.0448933
-0.0379131
-0.0313515
-0.0252803
-0.0197636
-0.014857
-0.0106059
-0.00704538
-0.00419743
-0.00206873
-0.000678942
-8.69037e-05
-0.000150206
-0.000991847
-0.00279725
-0.00536541
-0.00857508
-0.0123499
-0.0166158
-0.021303
-0.0263489
-0.0316971
-0.0372965
-0.0431012
-0.0490694
-0.0551632
-0.0613478
-0.0675911
-0.0738633
-0.0801364
-0.0863836
-0.0925793
-0.0986986
-0.104717
-0.11061
-0.116355
-0.121925
-0.127299
-0.132449
-0.137353
-0.141984
-0.146316
-0.150324
-0.153982
-0.157262
-0.160139
-0.162587
-0.164578
-0.166087
-0.167091
-0.167566
-0.16749
-0.166845
-0.165613
-0.163781
-0.161341
-0.158287
-0.15462
-0.150348
-0.145483
-0.140046
-0.134067
-0.127581
-0.120634
-0.11328
-0.105581
-0.0976067
-0.0894339
-0.0811461
-0.0728314
-0.0645815
-0.0564897
-0.0486493
-0.0411512
-0.0340827
-0.0275247
-0.0215505
-0.0162239
-0.0115983
-0.00771558
-0.00460325
-0.00227211
-0.000747078
-9.60211e-05
-0.000155205
-0.00102411
-0.00288713
-0.00553617
-0.00884555
-0.0127361
-0.017131
-0.0219582
-0.0271529
-0.032657
-0.0384181
-0.044389
-0.0505272
-0.056794
-0.0631544
-0.069576
-0.076029
-0.0824854
-0.0889187
-0.0953037
-0.101616
-0.107831
-0.113925
-0.119876
-0.125657
-0.131247
-0.13662
-0.141752
-0.146617
-0.151189
-0.155441
-0.159348
-0.162881
-0.166013
-0.168717
-0.170963
-0.172725
-0.173976
-0.17469
-0.174841
-0.174408
-0.17337
-0.17171
-0.169415
-0.166475
-0.162888
-0.158656
-0.153789
-0.148305
-0.142228
-0.135594
-0.128446
-0.120839
-0.112834
-0.104504
-0.0959286
-0.0871967
-0.078402
-0.0696435
-0.0610226
-0.0526417
-0.0446017
-0.0369998
-0.0299272
-0.0234672
-0.0176932
-0.0126671
-0.00843876
-0.00504206
-0.00249252
-0.000821162
-0.00010601
-0.000159673
-0.00105299
-0.00296771
-0.0056894
-0.00908852
-0.0130833
-0.0175948
-0.0225486
-0.0278782
-0.0335239
-0.0394321
-0.0455546
-0.0518481
-0.0582734
-0.0647952
-0.071381
-0.0780011
-0.0846275
-0.0912343
-0.0977965
-0.10429
-0.110691
-0.116977
-0.123125
-0.12911
-0.134911
-0.140501
-0.145858
-0.150955
-0.155767
-0.160267
-0.164428
-0.168221
-0.171617
-0.174588
-0.177105
-0.179136
-0.180654
-0.181628
-0.182032
-0.181839
-0.181025
-0.179568
-0.177451
-0.174661
-0.171189
-0.167034
-0.162201
-0.156702
-0.150561
-0.143809
-0.136487
-0.128649
-0.120357
-0.111685
-0.102715
-0.0935416
-0.0842632
-0.0749866
-0.0658218
-0.0568811
-0.0482757
-0.040114
-0.0324985
-0.0255235
-0.019273
-0.013819
-0.00921991
-0.00551715
-0.00273177
-0.000901867
-0.000116981
-0.000163581
-0.00107834
-0.00303854
-0.00582431
-0.00930274
-0.01339
-0.0180049
-0.0230713
-0.0285212
-0.0342934
-0.0403333
-0.0465917
-0.0530248
-0.059593
-0.0662606
-0.0729952
-0.0797672
-0.0865489
-0.0933148
-0.10004
-0.106702
-0.113277
-0.119742
-0.126076
-0.132256
-0.138258
-0.144059
-0.149635
-0.154961
-0.16001
-0.164757
-0.169173
-0.17323
-0.176898
-0.180146
-0.182944
-0.18526
-0.187061
-0.188318
-0.188998
-0.189071
-0.18851
-0.187289
-0.185386
-0.182781
-0.179462
-0.175423
-0.170662
-0.165189
-0.159021
-0.152187
-0.144724
-0.136684
-0.128129
-0.119134
-0.109784
-0.100175
-0.0904137
-0.0806133
-0.0708931
-0.0613753
-0.0521826
-0.0434354
-0.0352484
-0.0277285
-0.0209715
-0.0150604
-0.0100639
-0.00603177
-0.00299166
-0.000989865
-0.000129046
-0.000166902
-0.00109999
-0.00309921
-0.00594013
-0.00948703
-0.0136543
-0.018359
-0.0235235
-0.0290783
-0.0349612
-0.0411164
-0.0474943
-0.0540502
-0.0607444
-0.0675411
-0.0744077
-0.081315
-0.0882356
-0.0951443
-0.102017
-0.108832
-0.115566
-0.122197
-0.128704
-0.135065
-0.141257
-0.147259
-0.153045
-0.158592
-0.163874
-0.168864
-0.173534
-0.177855
-0.181797
-0.185329
-0.188417
-0.191029
-0.19313
-0.194687
-0.195665
-0.196031
-0.195752
-0.194798
-0.193143
-0.190761
-0.187636
-0.183754
-0.179109
-0.173704
-0.167552
-0.160676
-0.153112
-0.144905
-0.136119
-0.126826
-0.117115
-0.107084
-0.096846
-0.0865212
-0.0762377
-0.0661288
-0.056329
-0.0469718
-0.0381855
-0.0300905
-0.022796
-0.0163976
-0.0109754
-0.00658909
-0.00327394
-0.00108583
-0.000142318
-0.000169611
-0.0011178
-0.00314936
-0.0060362
-0.00964038
-0.0138748
-0.0186553
-0.0239027
-0.0295465
-0.0355234
-0.041777
-0.0482568
-0.0549178
-0.0617201
-0.0686276
-0.0756082
-0.0826326
-0.0896739
-0.0967075
-0.10371
-0.11066
-0.117535
-0.124316
-0.13098
-0.137507
-0.143876
-0.150064
-0.156048
-0.161806
-0.16731
-0.172536
-0.177455
-0.182038
-0.186254
-0.190071
-0.193456
-0.196372
-0.198785
-0.200658
-0.201953
-0.202634
-0.202665
-0.20201
-0.200637
-0.198518
-0.195628
-0.191947
-0.187463
-0.182175
-0.176086
-0.169216
-0.161594
-0.153264
-0.144284
-0.134726
-0.124681
-0.114249
-0.103546
-0.0927018
-0.0818525
-0.0711423
-0.0607187
-0.0507291
-0.0413165
-0.0326166
-0.0247532
-0.0178363
-0.011959
-0.0071922
-0.00358036
-0.00119042
-0.000156912
-0.000171688
-0.00113167
-0.0031887
-0.006112
-0.00976197
-0.0140505
-0.0188921
-0.0242069
-0.0299231
-0.0359768
-0.0423108
-0.0488742
-0.0556217
-0.0625129
-0.069512
-0.0765869
-0.0837085
-0.0908508
-0.0979894
-0.105102
-0.112167
-0.119165
-0.126074
-0.132877
-0.139552
-0.146079
-0.152437
-0.158604
-0.164558
-0.170272
-0.175723
-0.180881
-0.185719
-0.190204
-0.194305
-0.197986
-0.201212
-0.203945
-0.206146
-0.207775
-0.208792
-0.209157
-0.208831
-0.207776
-0.205957
-0.203343
-0.19991
-0.195637
-0.190515
-0.184543
-0.177731
-0.170103
-0.161698
-0.15257
-0.14279
-0.132445
-0.121639
-0.110493
-0.0991405
-0.0877284
-0.076412
-0.0653518
-0.0547102
-0.0446464
-0.0353125
-0.026849
-0.0193817
-0.0130187
-0.00784405
-0.00391262
-0.00130431
-0.000172945
-0.000173118
-0.00114151
-0.00321704
-0.00616715
-0.00985121
-0.0141803
-0.0190683
-0.0244344
-0.0302061
-0.0363188
-0.0427147
-0.0493426
-0.0561567
-0.0631167
-0.0701867
-0.0773349
-0.0845325
-0.091754
-0.0989757
-0.106176
-0.113335
-0.120432
-0.127449
-0.134368
-0.141169
-0.147834
-0.154342
-0.160672
-0.166803
-0.17271
-0.17837
-0.183754
-0.188834
-0.193579
-0.197957
-0.201932
-0.205468
-0.208525
-0.211062
-0.213038
-0.214408
-0.21513
-0.21516
-0.214455
-0.212974
-0.21068
-0.207542
-0.203531
-0.19863
-0.192831
-0.186135
-0.17856
-0.170137
-0.160915
-0.150961
-0.14036
-0.129217
-0.117655
-0.105815
-0.0938507
-0.081929
-0.0702246
-0.0589154
-0.0481779
-0.0381825
-0.0290881
-0.0210385
-0.0141586
-0.00854745
-0.00427237
-0.00142816
-0.000190538
-0.000173893
-0.00114729
-0.00323426
-0.00620149
-0.00990783
-0.014264
-0.0191833
-0.0245843
-0.0303941
-0.0365475
-0.0429863
-0.0496587
-0.0565189
-0.0635265
-0.0706456
-0.0778446
-0.0850954
-0.0923726
-0.0996536
-0.106917
-0.114145
-0.121318
-0.128418
-0.135428
-0.142331
-0.149108
-0.155742
-0.162212
-0.168497
-0.174576
-0.180424
-0.186015
-0.191322
-0.196313
-0.200957
-0.205217
-0.209057
-0.212437
-0.215314
-0.217644
-0.219382
-0.22048
-0.220889
-0.220564
-0.219458
-0.217526
-0.21473
-0.211034
-0.206411
-0.200845
-0.194329
-0.186871
-0.178494
-0.16924
-0.15917
-0.148367
-0.136934
-0.124995
-0.112695
-0.100197
-0.0876789
-0.0753286
-0.0633409
-0.0519111
-0.041229
-0.0314743
-0.0228106
-0.0153821
-0.00930502
-0.00466119
-0.00156261
-0.00020981
-0.000174013
-0.00114901
-0.00324042
-0.00621508
-0.0099319
-0.0143015
-0.019237
-0.0246566
-0.0304869
-0.0366623
-0.0431242
-0.0498207
-0.0567056
-0.0637386
-0.0708838
-0.07811
-0.0853893
-0.0926972
-0.100012
-0.107313
-0.114582
-0.121803
-0.128958
-0.136032
-0.143008
-0.14987
-0.156602
-0.163184
-0.169598
-0.175822
-0.181834
-0.187609
-0.19312
-0.198338
-0.20323
-0.207763
-0.211897
-0.215594
-0.218809
-0.221497
-0.223609
-0.225097
-0.225907
-0.225989
-0.225291
-0.223761
-0.221354
-0.218026
-0.213741
-0.208472
-0.202203
-0.194931
-0.186672
-0.177456
-0.167339
-0.156397
-0.14473
-0.132462
-0.119742
-0.106738
-0.0936405
-0.0806502
-0.0679793
-0.0558428
-0.0444523
-0.0340095
-0.0247009
-0.0166921
-0.0101191
-0.00508058
-0.0017083
-0.000230887
-0.000173486
-0.00114674
-0.00323568
-0.00620824
-0.00992392
-0.0142935
-0.0192302
-0.0246519
-0.030485
-0.0366636
-0.0431287
-0.0498281
-0.0567157
-0.063751
-0.0708983
-0.0781266
-0.0854086
-0.0927204
-0.100041
-0.10735
-0.114633
-0.121871
-0.129051
-0.136157
-0.143176
-0.150092
-0.156889
-0.163553
-0.170063
-0.176403
-0.182549
-0.18848
-0.194169
-0.199589
-0.204708
-0.209493
-0.213906
-0.217907
-0.221452
-0.224495
-0.226986
-0.228872
-0.230099
-0.230611
-0.23035
-0.22926
-0.227287
-0.224379
-0.220491
-0.215585
-0.209635
-0.202626
-0.194561
-0.185463
-0.175375
-0.164367
-0.152534
-0.139997
-0.126906
-0.113437
-0.0997857
-0.0861699
-0.0728184
-0.0599669
-0.0478501
-0.0366945
-0.0267115
-0.0180911
-0.0109919
-0.00553194
-0.00186584
-0.000253895
-0.000172332
-0.0011406
-0.00322041
-0.00618162
-0.00988484
-0.0142414
-0.0191644
-0.024572
-0.0303903
-0.036553
-0.0430012
-0.0496821
-0.0565498
-0.0635635
-0.0706879
-0.0778921
-0.0851495
-0.0924368
-0.0997334
-0.107021
-0.114285
-0.121509
-0.12868
-0.135786
-0.142812
-0.149747
-0.156576
-0.163284
-0.169857
-0.176277
-0.182524
-0.188577
-0.194413
-0.200005
-0.205323
-0.210335
-0.215004
-0.219291
-0.223153
-0.226542
-0.229408
-0.231696
-0.233349
-0.234308
-0.234511
-0.233895
-0.232398
-0.229961
-0.226529
-0.222053
-0.216495
-0.209827
-0.202041
-0.193146
-0.183174
-0.172184
-0.160263
-0.147529
-0.13413
-0.120244
-0.106079
-0.091862
-0.0778409
-0.0642729
-0.0514174
-0.0395278
-0.028843
-0.0195808
-0.0119251
-0.00601656
-0.00203584
-0.000278963
-0.000170581
-0.0011308
-0.00319512
-0.00613621
-0.00981617
-0.0141469
-0.0190421
-0.0244197
-0.0302058
-0.036334
-0.0427449
-0.0493858
-0.0562103
-0.0631781
-0.0702537
-0.0774067
-0.084611
-0.0918438
-0.0990856
-0.10632
-0.113531
-0.120706
-0.127833
-0.134901
-0.141898
-0.148813
-0.155634
-0.16235
-0.168946
-0.175407
-0.181716
-0.187855
-0.1938
-0.199528
-0.205012
-0.21022
-0.215118
-0.219667
-0.223825
-0.227545
-0.230776
-0.233463
-0.235546
-0.236963
-0.237648
-0.237534
-0.236552
-0.234634
-0.231715
-0.227735
-0.222644
-0.216401
-0.208982
-0.200382
-0.19062
-0.179741
-0.167823
-0.154976
-0.141343
-0.127106
-0.112476
-0.0976935
-0.083024
-0.0687462
-0.055146
-0.0425058
-0.031095
-0.0211622
-0.0129202
-0.00653555
-0.00221885
-0.000306219
-0.000168278
-0.0011176
-0.0031606
-0.0060734
-0.00971998
-0.0140131
-0.0188667
-0.0241991
-0.0299362
-0.0360113
-0.0423649
-0.048944
-0.0557022
-0.062599
-0.0695994
-0.0766731
-0.0837945
-0.0909417
-0.098096
-0.105242
-0.112365
-0.119455
-0.1265
-0.133491
-0.140418
-0.147273
-0.154045
-0.160725
-0.167302
-0.173762
-0.18009
-0.186271
-0.192285
-0.19811
-0.203721
-0.209088
-0.214181
-0.218961
-0.223389
-0.227417
-0.230996
-0.234071
-0.236581
-0.238461
-0.239642
-0.240052
-0.239616
-0.23826
-0.235907
-0.232488
-0.227938
-0.222203
-0.215242
-0.207036
-0.197586
-0.186922
-0.175108
-0.162244
-0.148467
-0.133954
-0.118923
-0.103624
-0.0883386
-0.0733675
-0.0590243
-0.0456225
-0.0334653
-0.0228352
-0.013978
-0.00708987
-0.0024154
-0.000335794
-0.00016548
-0.00110138
-0.00311781
-0.00599499
-0.00959904
-0.0138436
-0.0186431
-0.0239159
-0.0295878
-0.0355919
-0.0418684
-0.0483642
-0.0550327
-0.0618333
-0.0687313
-0.0756968
-0.0827047
-0.0897338
-0.0967667
-0.103789
-0.110787
-0.117752
-0.124675
-0.131547
-0.138363
-0.145113
-0.151792
-0.158392
-0.164903
-0.171315
-0.177617
-0.183794
-0.18983
-0.195707
-0.201401
-0.206886
-0.212134
-0.217108
-0.221772
-0.22608
-0.229984
-0.233428
-0.236353
-0.238693
-0.240375
-0.241325
-0.241462
-0.240703
-0.238965
-0.236167
-0.23223
-0.227086
-0.220678
-0.212967
-0.203936
-0.193599
-0.182002
-0.169229
-0.155409
-0.140713
-0.125359
-0.109606
-0.0937491
-0.0781122
-0.0630367
-0.0488694
-0.0359499
-0.0245989
-0.0150991
-0.00768027
-0.00262597
-0.00036782
-0.000162261
-0.00108259
-0.00306801
-0.00590329
-0.00945683
-0.0136431
-0.018377
-0.023577
-0.0291685
-0.0350846
-0.0412649
-0.0476561
-0.0542115
-0.0608906
-0.0676587
-0.0744865
-0.0813494
-0.0882272
-0.0951032
-0.101964
-0.108799
-0.115599
-0.122358
-0.129068
-0.135727
-0.142327
-0.148865
-0.155336
-0.161733
-0.168048
-0.174273
-0.180397
-0.186406
-0.192285
-0.198014
-0.203571
-0.208928
-0.214055
-0.218915
-0.223467
-0.227664
-0.231453
-0.234774
-0.237562
-0.239743
-0.241238
-0.241965
-0.241833
-0.240752
-0.238629
-0.235373
-0.230901
-0.225138
-0.218026
-0.209528
-0.199636
-0.188377
-0.175816
-0.162068
-0.147296
-0.131712
-0.115582
-0.0992129
-0.0829499
-0.0671633
-0.0522345
-0.038543
-0.0264512
-0.0162831
-0.00830724
-0.00285097
-0.000402425
-0.000158714
-0.00106181
-0.00301275
-0.00580112
-0.00929765
-0.0134176
-0.018076
-0.0231912
-0.0286885
-0.0345004
-0.0405661
-0.0468321
-0.0532514
-0.0597836
-0.0663942
-0.0730543
-0.0797401
-0.0864321
-0.093115
-0.0997766
-0.106408
-0.113001
-0.119552
-0.126056
-0.13251
-0.138913
-0.145261
-0.151553
-0.157784
-0.163951
-0.170046
-0.176064
-0.181993
-0.187822
-0.193533
-0.19911
-0.204527