/*--------------------------------*- C++ -*----------------------------------*\
  =========                 |
  \\      /  F ield         | OpenFOAM: The Open Source CFD Toolbox
   \\    /   O peration     | Website:  https://openfoam.org
    \\  /    A nd           | Version:  dev
     \\/     M anipulation  |
\*---------------------------------------------------------------------------*/
FoamFile
{
    format      ascii;
    class       volScalarField;
    location    "27.9";
    object      Uy;
}
// * * * * * * * * * * * * * * * * * * * * * * * * * * * * * * * * * * * * * //

dimensions      [0 1 -1 0 0 0 0];

internalField   nonuniform List<scalar> 
5184
(
-1.27797e-05
-2.09252e-05
-1.72568e-05
-8.19679e-06
2.66767e-06
1.36144e-05
2.38426e-05
3.30444e-05
4.10997e-05
4.80151e-05
5.38535e-05
5.87004e-05
6.26476e-05
6.57856e-05
6.8199e-05
6.99637e-05
7.11442e-05
7.1793e-05
7.19505e-05
7.16462e-05
7.08998e-05
6.97216e-05
6.81147e-05
6.60761e-05
6.35983e-05
6.06718e-05
5.72859e-05
5.34312e-05
4.91005e-05
4.4291e-05
3.90049e-05
3.32517e-05
2.70484e-05
2.04211e-05
1.34054e-05
6.04699e-06
-1.59795e-06
-9.46306e-06
-1.74718e-05
-2.55385e-05
-3.35685e-05
-4.14606e-05
-4.91073e-05
-5.63978e-05
-6.32196e-05
-6.94607e-05
-7.50125e-05
-7.97719e-05
-8.36444e-05
-8.65462e-05
-8.84069e-05
-8.91713e-05
-8.8801e-05
-8.72764e-05
-8.45968e-05
-8.07818e-05
-7.58703e-05
-6.99215e-05
-6.3013e-05
-5.52409e-05
-4.67191e-05
-3.75802e-05
-2.79793e-05
-1.80988e-05
-8.16376e-06
1.53101e-06
1.0562e-05
1.82919e-05
2.37085e-05
2.51209e-05
1.98443e-05
6.24328e-06
-4.59855e-05
-6.57694e-05
-4.0575e-05
7.63253e-06
6.56716e-05
0.000125971
0.000184263
0.000238299
0.000286937
0.000329734
0.000366652
0.000397884
0.00042374
0.000444585
0.000460798
0.000472735
0.000480722
0.000485032
0.00048589
0.000483466
0.000477882
0.000469214
0.000457501
0.000442753
0.000424956
0.000404089
0.000380126
0.00035305
0.000322863
0.000289591
0.000253294
0.000214075
0.000172084
0.000127524
8.0654e-05
3.17932e-05
-1.86797e-05
-7.03267e-05
-0.000122653
-0.000175111
-0.000227108
-0.000278011
-0.000327159
-0.000373873
-0.000417469
-0.000457272
-0.00049263
-0.000522929
-0.000547606
-0.000566169
-0.000578203
-0.000583391
-0.000581515
-0.000572473
-0.00055628
-0.000533075
-0.000503121
-0.000466809
-0.000424651
-0.00037729
-0.000325492
-0.000270162
-0.000212361
-0.00015334
-9.46092e-05
-3.80473e-05
1.38878e-05
5.78902e-05
8.93682e-05
0.000101827
8.64988e-05
3.64823e-05
-8.13368e-05
-9.50551e-05
-1.91467e-05
0.000105916
0.00025462
0.000410522
0.00056332
0.000706883
0.000837765
0.000954256
0.00105576
0.00114237
0.00121461
0.0012732
0.00131895
0.00135271
0.00137522
0.00138717
0.00138912
0.00138152
0.00136469
0.00133885
0.00130414
0.00126061
0.00120828
0.00114713
0.00107716
0.000998387
0.000910865
0.000814737
0.000710235
0.000597704
0.000477617
0.000350588
0.000217383
7.89258e-05
-6.3705e-05
-0.000209274
-0.000356398
-0.000503561
-0.000649128
-0.000791365
-0.000928472
-0.00105861
-0.00117992
-0.00129058
-0.00138886
-0.00147309
-0.00154178
-0.00159361
-0.00162749
-0.00164257
-0.0016383
-0.00161442
-0.00157099
-0.00150841
-0.00142744
-0.00132918
-0.00121506
-0.0010869
-0.000946866
-0.000797529
-0.000641893
-0.000483489
-0.000326516
-0.00017606
-3.84362e-05
7.83408e-05
0.000163976
0.000205305
0.000186221
9.03723e-05
-9.77282e-05
-7.31292e-05
8.47774e-05
0.000318319
0.000589999
0.000874195
0.00115388
0.00141827
0.0016609
0.00187824
0.00206873
0.00223212
0.00236897
0.00248032
0.00256743
0.00263165
0.00267424
0.00269637
0.00269901
0.00268295
0.00264879
0.00259695
0.00252771
0.00244122
0.00233757
0.00221679
0.00207895
0.00192415
0.0017526
0.00156465
0.00136082
0.00114185
0.000908712
0.000662647
0.000405166
0.000138071
-0.000136551
-0.00041633
-0.000698632
-0.00098058
-0.00125909
-0.0015309
-0.00179264
-0.00204087
-0.00227215
-0.00248308
-0.00267041
-0.00283111
-0.00296239
-0.00306183
-0.00312741
-0.00315759
-0.00315134
-0.00310822
-0.00302837
-0.00291258
-0.00276228
-0.00257957
-0.0023672
-0.00212863
-0.001868
-0.00159021
-0.00130098
-0.00100697
-0.000715991
-0.000437325
-0.000182109
3.60516e-05
0.000200441
0.000290671
0.00028245
0.000147242
-8.43791e-05
2.09275e-05
0.000295434
0.000667932
0.00109063
0.00152962
0.00196146
0.00237069
0.00274758
0.00308651
0.00338471
0.00364135
0.00385689
0.00403257
0.00417006
0.00427117
0.0043377
0.00437129
0.00437337
0.00434511
0.00428741
0.00420095
0.00408616
0.00394336
0.00377273
0.00357443
0.00334864
0.00309565
0.00281589
0.00251003
0.00217901
0.00182411
0.00144697
0.00104965
0.000634618
0.000204803
-0.000236438
-0.00068532
-0.00113765
-0.00158889
-0.00203416
-0.00246834
-0.00288615
-0.0032822
-0.00365111
-0.00398762
-0.00428666
-0.00454349
-0.00475382
-0.00491387
-0.00502053
-0.0050714
-0.00506491
-0.00500039
-0.00487809
-0.00469926
-0.00446619
-0.00418218
-0.00385162
-0.00347997
-0.0030738
-0.00264085
-0.0021901
-0.00173196
-0.00127848
-0.000843709
-0.000444128
-9.92939e-05
0.000167462
0.000328412
0.000350824
0.000194074
-3.74951e-05
0.000197383
0.000626845
0.00117016
0.0017714
0.00238972
0.00299606
0.00357064
0.00410061
0.0045782
0.00499935
0.00536255
0.00566807
0.00591725
0.00611208
0.00625483
0.00634778
0.00639305
0.00639252
0.00634776
0.00625999
0.00613015
0.00595891
0.00574674
0.00549399
0.00520099
0.00486811
0.00449588
0.00408507
0.00363677
0.00315247
0.00263411
0.00208419
0.00150574
0.000902415
0.000278461
-0.000361257
-0.00101129
-0.00166563
-0.00231777
-0.00296079
-0.00358743
-0.00419018
-0.00476143
-0.00529358
-0.00577921
-0.00621117
-0.00658279
-0.00688803
-0.00712157
-0.00727903
-0.00735704
-0.00735339
-0.00726714
-0.00709866
-0.00684973
-0.0065236
-0.00612499
-0.00566012
-0.00513678
-0.00456431
-0.00395367
-0.00331757
-0.00267061
-0.00202949
-0.00141342
-0.000844526
-0.000348482
4.47427e-05
0.000300211
0.000377119
0.000224431
4.41258e-05
0.00046125
0.00108692
0.0018344
0.00264184
0.00346302
0.00426432
0.00502228
0.00572131
0.00635172
0.0069082
0.00738858
0.00779287
0.00812251
0.00837976
0.00856728
0.00868782
0.00874397
0.00873805
0.00867199
0.00854737
0.0083654
0.00812699
0.00783283
0.00748346
0.00707942
0.00662135
0.00611011
0.00554687
0.00493325
0.00427139
0.00356407
0.00281474
0.0020276
0.00120764
0.000360627
-0.000506863
-0.0013875
-0.00227325
-0.00315543
-0.0040248
-0.0048717
-0.00568619
-0.00645817
-0.00717758
-0.00783459
-0.00841976
-0.00892427
-0.0093401
-0.00966024
-0.00987887
-0.00999152
-0.00999525
-0.00988878
-0.0096726
-0.00934905
-0.00892242
-0.00839896
-0.00778693
-0.00709665
-0.0063405
-0.00553298
-0.00469084
-0.00383316
-0.00298163
-0.00216085
-0.00139873
-0.000727122
-0.000182507
0.000193316
0.000352234
0.000234882
0.000160477
0.000814399
0.00167944
0.00266565
0.00370732
0.00475444
0.00576999
0.00672768
0.00760973
0.00840487
0.00910676
0.00971269
0.0102225
0.0106376
0.0109607
0.0111947
0.0113429
0.0114082
0.0113935
0.011301
0.0111326
0.0108898
0.0105738
0.0101856
0.00972579
0.00919532
0.00859511
0.00792639
0.00719083
0.00639067
0.00552882
0.00460897
0.00363568
0.00261446
0.00155177
0.000455063
-0.000667211
-0.00180567
-0.00295004
-0.00408926
-0.0052116
-0.0063048
-0.00735625
-0.00835316
-0.00928279
-0.0101327
-0.0108909
-0.0115463
-0.0120886
-0.012509
-0.0128001
-0.0129562
-0.0129734
-0.01285
-0.0125868
-0.0121864
-0.0116544
-0.0109985
-0.0102291
-0.00935941
-0.00840486
-0.00738378
-0.00631716
-0.00522883
-0.00414562
-0.00309769
-0.00211881
-0.00124695
-0.000524907
-8.76151e-07
0.000270606
0.000223723
0.000310919
0.00125674
0.00240539
0.00366577
0.00497016
0.00626623
0.00751472
0.00868745
0.0097651
0.0107353
0.011591
0.0123291
0.0129495
0.0134537
0.0138447
0.0141258
0.0143007
0.0143728
0.0143453
0.0142208
0.0140017
0.0136896
0.0132861
0.0127922
0.0122091
0.0115378
0.0107796
0.00993624
0.00900994
0.00800363
0.00692106
0.00576694
0.00454706
0.0032683
0.00193875
0.000567675
-0.000834469
-0.00225609
-0.00368454
-0.00510622
-0.00650672
-0.00787101
-0.00918362
-0.0104289
-0.0115912
-0.0126552
-0.0136064
-0.014431
-0.0151164
-0.0156517
-0.0160277
-0.0162373
-0.0162758
-0.0161409
-0.0158331
-0.0153559
-0.0147157
-0.013922
-0.0129875
-0.0119278
-0.0107621
-0.00951253
-0.00820446
-0.00686662
-0.00553116
-0.00423387
-0.00301442
-0.00191682
-0.000989919
-0.000287887
0.000129126
0.000190302
0.000494546
0.00178703
0.00326386
0.00483439
0.00643034
0.00799841
0.00949827
0.0109007
0.0121856
0.0133401
0.0143568
0.0152325
0.0159673
0.016563
0.0170229
0.0173508
0.0175507
0.0176267
0.0175822
0.0174203
0.0171435
0.016754
0.0162533
0.015643
0.0149244
0.0140988
0.013168
0.0121342
0.0110002
0.00976973
0.00844737
0.00703896
0.00555158
0.0039936
0.00237481
0.000706398
-0.000999076
-0.0027277
-0.00446431
-0.00619264
-0.00789547
-0.00955483
-0.0111522
-0.012669
-0.0140863
-0.0153861
-0.0165507
-0.0175635
-0.0184096
-0.0190757
-0.0195506
-0.0198256
-0.0198949
-0.0197555
-0.0194078
-0.0188557
-0.0181066
-0.0171716
-0.0160656
-0.0148073
-0.0134191
-0.0119271
-0.0103614
-0.00875568
-0.00714747
-0.00557827
-0.00409367
-0.00274364
-0.00158292
-0.000671257
-7.38188e-05
0.00013454
0.000710329
0.00240337
0.00425278
0.00616954
0.00808606
0.00994924
0.0117187
0.0133652
0.0148685
0.0162157
0.0173997
0.0184176
0.0192697
0.0199585
0.0204875
0.0208612
0.0210842
0.0211608
0.0210949
0.02089
0.020549
0.0200741
0.0194674
0.0187306
0.0178653
0.0168731
0.0157564
0.0145176
0.0131604
0.0116892
0.0101096
0.00842849
0.00665436
0.00479712
0.00286831
0.000881083
-0.00114978
-0.00320797
-0.00527574
-0.00733403
-0.00936268
-0.0113407
-0.0132463
-0.0150577
-0.0167529
-0.0183105
-0.0197097
-0.0209311
-0.0219568
-0.022771
-0.0233604
-0.0237146
-0.0238261
-0.0236913
-0.0233103
-0.0226872
-0.0218302
-0.0207522
-0.0194701
-0.0180055
-0.0163843
-0.0146369
-0.0127977
-0.0109056
-0.00900375
-0.00713932
-0.00536386
-0.00373329
-0.00230811
-0.00115343
-0.000339067
5.66052e-05
0.000957191
0.00310344
0.00536925
0.00766813
0.00993417
0.0121155
0.0141728
0.0160774
0.0178098
0.0193578
0.0207149
0.0218789
0.0228507
0.0236334
0.0242314
0.0246496
0.0248932
0.024967
0.0248754
0.0246222
0.0242106
0.0236432
0.0229222
0.0220497
0.0210274
0.0198576
0.0185427
0.0170859
0.0154915
0.0137646
0.0119118
0.00994124
0.00786271
0.00568769
0.00342952
0.00110339
-0.00127371
-0.00368298
-0.00610403
-0.00851492
-0.0108925
-0.0132125
-0.0154499
-0.0175796
-0.0195761
-0.0214145
-0.0230708
-0.0245224
-0.0257482
-0.0267299
-0.0274514
-0.0279003
-0.0280677
-0.0279488
-0.027543
-0.0268545
-0.0258926
-0.0246712
-0.0232097
-0.0215322
-0.0196684
-0.0176526
-0.015524
-0.0133268
-0.0111096
-0.00892554
-0.00683211
-0.00489125
-0.00316922
-0.00173641
-0.000667182
-4.32859e-05
0.00123404
0.00388473
0.00660987
0.00932624
0.0119705
0.0144929
0.016856
0.0190326
0.0210046
0.0227612
0.0242968
0.0256103
0.0267038
0.0275811
0.0282476
0.0287088
0.0289706
0.0290383
0.0289168
0.0286104
0.0281224
0.0274558
0.0266132
0.0255966
0.0244084
0.0230509
0.0215271
0.0198407
0.0179964
0.0160004
0.0138601
0.0115849
0.00918585
0.00667602
0.00407055
0.00138666
-0.0013564
-0.00413736
-0.0069331
-0.00971878
-0.0124681
-0.0151536
-0.0177468
-0.0202189
-0.022541
-0.0246846
-0.0266219
-0.028327
-0.0297754
-0.0309457
-0.0318191
-0.0323808
-0.0326198
-0.0325301
-0.0321102
-0.0313642
-0.0303018
-0.0289384
-0.0272952
-0.0253992
-0.0232835
-0.0209866
-0.0185526
-0.0160308
-0.0134755
-0.010946
-0.00850589
-0.0062232
-0.00417006
-0.00242227
-0.00105881
-0.000165
0.00153979
0.00474451
0.0079708
0.0111393
0.0141901
0.0170762
0.0197628
0.0222252
0.0244472
0.0264198
0.0281391
0.0296056
0.0308226
0.0317951
0.0325294
0.0330321
0.0333097
0.0333683
0.0332132
0.0328489
0.0322794
0.0315079
0.030537
0.0293693
0.0280072
0.0264533
0.0247112
0.0227849
0.0206799
0.0184029
0.0159624
0.0133689
0.0106347
0.00777447
0.0048051
0.0017458
-0.00138193
-0.00455434
-0.0077456
-0.0109279
-0.0140718
-0.0171464
-0.0201198
-0.0229594
-0.0256326
-0.0281069
-0.0303509
-0.0323346
-0.0340303
-0.0354127
-0.0364601
-0.0371549
-0.0374839
-0.0374391
-0.0370181
-0.0362244
-0.035068
-0.0335653
-0.0317394
-0.0296201
-0.0272437
-0.0246531
-0.021897
-0.0190302
-0.016113
-0.0132107
-0.0103934
-0.00773545
-0.00531499
-0.0032135
-0.00151493
-0.000308574
0.00187332
0.00567995
0.00944794
0.0131024
0.0165872
0.0198593
0.022887
0.0256486
0.0281309
0.0303269
0.0322351
0.0338579
0.0352001
0.0362683
0.03707
0.0376129
0.0379043
0.0379509
0.0377588
0.0373329
0.0366775
0.035796
0.0346915
0.0333665
0.0318238
0.0300664
0.0280979
0.0259231
0.0235478
0.0209797
0.0182279
0.015304
0.0122216
0.00899686
0.00564832
0.00219715
-0.00133295
-0.0049158
-0.00852284
-0.0121233
-0.0156846
-0.0191723
-0.0225509
-0.025784
-0.0288349
-0.0316671
-0.0342452
-0.036535
-0.0385046
-0.0401252
-0.0413714
-0.0422224
-0.0426622
-0.0426807
-0.0422739
-0.0414446
-0.0402025
-0.038565
-0.0365568
-0.0342101
-0.0315647
-0.0286675
-0.0255723
-0.0223394
-0.019035
-0.0157311
-0.0125042
-0.00943532
-0.0066092
-0.00411333
-0.00203704
-0.000474274
0.00223351
0.00668808
0.0110369
0.0152099
0.0191556
0.0228353
0.0262213
0.0292956
0.0320481
0.0344749
0.0365772
0.0383596
0.0398289
0.0409935
0.0418623
0.0424443
0.0427478
0.0427803
0.0425484
0.0420578
0.0413129
0.0403175
0.0390748
0.0375877
0.0358591
0.0338922
0.031691
0.0292606
0.0266073
0.0237394
0.0206669
0.0174021
0.0139601
0.0103582
0.00661656
0.00275827
-0.00119088
-0.00520232
-0.00924484
-0.0132848
-0.0172862
-0.0212113
-0.0250207
-0.0286742
-0.0321309
-0.0353499
-0.0382914
-0.0409167
-0.0431897
-0.0450771
-0.0465496
-0.0475827
-0.0481572
-0.0482602
-0.0478857
-0.0470352
-0.0457181
-0.0439521
-0.0417632
-0.0391862
-0.0362638
-0.0330473
-0.0295954
-0.0259742
-0.0222561
-0.0185198
-0.0148489
-0.0113314
-0.00805905
-0.00512587
-0.00262728
-0.000662637
0.0026192
0.00776581
0.0127329
0.017456
0.0218886
0.025997
0.029758
0.0331579
0.0361905
0.0388555
0.0411571
0.0431024
0.0447009
0.0459628
0.0468988
0.0475193
0.0478336
0.0478503
0.0475767
0.0470189
0.0461819
0.0450696
0.0436855
0.0420328
0.0401143
0.0379336
0.0354948
0.0328033
0.029866
0.0266913
0.0232903
0.0196761
0.0158645
0.0118743
0.00772715
0.00344778
-0.000935996
-0.00539332
-0.00989038
-0.0143906
-0.0188549
-0.0232419
-0.0275086
-0.0316104
-0.0355021
-0.0391384
-0.0424746
-0.0454673
-0.0480755
-0.0502612
-0.0519906
-0.0532347
-0.0539708
-0.0541826
-0.0538615
-0.0530071
-0.051628
-0.0497418
-0.0473757
-0.0445664
-0.0413599
-0.0378115
-0.0339851
-0.0299524
-0.0257927
-0.0215915
-0.01744
-0.0134338
-0.00967215
-0.00625632
-0.00328854
-0.000874493
0.0030292
0.00890986
0.0145311
0.0198343
0.0247788
0.0293361
0.0334884
0.0372267
0.0405492
0.0434596
0.0459656
0.0480775
0.0498074
0.0511678
0.0521715
0.0528302
0.0531547
0.0531547
0.0528381
0.0522117
0.0512808
0.0500498
0.0485223
0.0467016
0.0445907
0.0421933
0.0395137
0.0365574
0.0333316
0.0298452
0.0261097
0.0221389
0.0179497
0.0135617
0.0089981
0.00428507
-0.000547695
-0.00546717
-0.0104371
-0.0154181
-0.0203678
-0.0252415
-0.0299921
-0.0345709
-0.0389283
-0.043014
-0.0467782
-0.0501725
-0.0531504
-0.0556688
-0.0576887
-0.0591763
-0.0601042
-0.0604523
-0.0602089
-0.059371
-0.0579456
-0.0559501
-0.0534121
-0.0503701
-0.0468732
-0.0429807
-0.0387614
-0.0342935
-0.0296628
-0.0249626
-0.0202918
-0.0157543
-0.0114576
-0.00751102
-0.00402448
-0.00111099
0.00346224
0.0101168
0.0164263
0.0223383
0.0278184
0.0328441
0.0374032
0.0414923
0.0451142
0.0482773
0.050993
0.0532752
0.055139
0.0565995
0.0576716
0.0583688
0.0587036
0.0586865
0.0583264
0.0576308
0.0566054
0.055255
0.0535834
0.0515938
0.0492895
0.0466741
0.043752
0.0405288
0.0370119
0.0332105
0.0291364
0.0248039
0.0202307
0.0154373
0.0104478
0.00529007
-4.68669e-06
-0.00540144
-0.0108616
-0.016343
-0.0218004
-0.0271854
-0.0324471
-0.0375325
-0.0423871
-0.0469558
-0.0511834
-0.0550157
-0.0584007
-0.0612891
-0.0636364
-0.0654031
-0.0665568
-0.0670726
-0.0669346
-0.0661369
-0.0646844
-0.062593
-0.0598908
-0.0566176
-0.0528252
-0.0485768
-0.0439466
-0.0390188
-0.0338866
-0.0286512
-0.0234202
-0.0183063
-0.0134259
-0.00889757
-0.00483962
-0.0013736
0.00391699
0.0113831
0.0184128
0.0249608
0.030999
0.0365116
0.0414926
0.0459443
0.049875
0.0532978
0.0562285
0.0586849
0.0606853
0.0622479
0.0633897
0.0641264
0.0644719
0.0644381
0.0640349
0.0632705
0.062151
0.0606816
0.0588662
0.0567083
0.0542109
0.0513778
0.0482133
0.044723
0.0409141
0.0367963
0.0323813
0.027684
0.0227223
0.0175175
0.0120948
0.00648291
0.000714694
-0.00517308
-0.0111397
-0.0171404
-0.023127
-0.0290477
-0.0348477
-0.0404696
-0.0458541
-0.0509408
-0.0556687
-0.0599778
-0.0638096
-0.0671085
-0.0698235
-0.0719089
-0.073326
-0.0740446
-0.0740439
-0.073314
-0.0718567
-0.0696863
-0.0668303
-0.0633296
-0.0592382
-0.0546233
-0.0495641
-0.0441515
-0.0384861
-0.0326778
-0.0268433
-0.0211051
-0.0155895
-0.0104248
-0.00573934
-0.00166412
0.00439206
0.0127047
0.0204849
0.0276942
0.0343119
0.0403289
0.045746
0.0505717
0.0548202
0.0585096
0.0616607
0.0642953
0.0664354
0.0681021
0.0693153
0.0700929
0.0704503
0.070401
0.0699559
0.0691238
0.0679117
0.0663249
0.0643675
0.0620429
0.0593544
0.0563054
0.0529002
0.0491442
0.0450446
0.0406108
0.0358547
0.0307912
0.0254386
0.0198186
0.013957
0.00788353
0.00163215
-0.00475879
-0.0112466
-0.0177843
-0.0243208
-0.030801
-0.0371662
-0.0433548
-0.0493023
-0.054943
-0.0602099
-0.0650365
-0.0693575
-0.0731103
-0.0762367
-0.0786838
-0.0804062
-0.081367
-0.0815396
-0.0809093
-0.0794738
-0.0772449
-0.0742489
-0.070527
-0.0661353
-0.0611444
-0.0556389
-0.0497163
-0.0434852
-0.0370645
-0.0305811
-0.0241678
-0.017962
-0.012103
-0.00672992
-0.00198469
0.00488593
0.0140778
0.0226363
0.0305307
0.0377476
0.0442855
0.0501521
0.0553627
0.0599375
0.0639004
0.0672771
0.070094
0.072377
0.0741505
0.0754373
0.0762575
0.0766287
0.0765656
0.0760805
0.075183
0.0738806
0.072179
0.0700825
0.0675945
0.0647181
0.0614567
0.0578141
0.0537956
0.0494081
0.0446608
0.0395653
0.0341366
0.0283927
0.0223558
0.0160518
0.00951129
0.00276904
-0.00413532
-0.0111575
-0.0182483
-0.0253541
-0.0324165
-0.0393734
-0.0461584
-0.0527025
-0.0589339
-0.0647796
-0.0701662
-0.0750211
-0.0792742
-0.082859
-0.0857149
-0.0877884
-0.0890352
-0.0894219
-0.0889274
-0.0875448
-0.0852822
-0.0821638
-0.0782304
-0.0735395
-0.0681652
-0.0621971
-0.0557394
-0.0489094
-0.0418356
-0.0346554
-0.0275134
-0.020559
-0.0139437
-0.00781851
-0.00233781
0.00539705
0.0154979
0.0248603
0.0334616
0.0412962
0.0483702
0.054699
0.0603047
0.0652141
0.069457
0.0730646
0.076068
0.0784971
0.0803803
0.0817431
0.0826083
0.0829954
0.0829211
0.0823987
0.0814387
0.0800493
0.0782366
0.076005
0.0733579
0.0702984
0.0668293
0.0629544
0.0586785
0.0540079
0.0489514
0.0435204
0.0377293
0.0315961
0.0251427
0.0183953
0.0113845
0.00414593
-0.00327993
-0.0108474
-0.0185055
-0.0261983
-0.0338645
-0.0414382
-0.048849
-0.0560227
-0.0628819
-0.0693471
-0.0753376
-0.0807733
-0.0855754
-0.089669
-0.0929844
-0.0954593
-0.0970407
-0.0976871
-0.09737
-0.0960764
-0.0938096
-0.0905908
-0.0864594
-0.0814739
-0.0757111
-0.0692656
-0.0622486
-0.054786
-0.0470168
-0.03909
-0.0311627
-0.0233977
-0.0159596
-0.00901319
-0.00272629
0.00592373
0.0169606
0.0271503
0.0364783
0.0449473
0.0525716
0.0593741
0.0653844
0.0706361
0.0751654
0.079009
0.0822029
0.0847818
0.0867775
0.0882191
0.0891319
0.0895379
0.0894552
0.0888987
0.0878799
0.0864077
0.0844885
0.0821269
0.0793264
0.0760896
0.0724193
0.0683187
0.0637918
0.0588448
0.0534855
0.0477248
0.0415765
0.0350581
0.0281911
0.0210015
0.0135199
0.00578207
-0.00217085
-0.0102922
-0.0185296
-0.0268249
-0.0351143
-0.0433286
-0.0513931
-0.0592288
-0.0667526
-0.0738782
-0.0805177
-0.0865824
-0.0919849
-0.0966407
-0.10047
-0.103401
-0.10537
-0.106327
-0.106234
-0.105072
-0.102836
-0.0995435
-0.0952324
-0.0899606
-0.0838073
-0.0768717
-0.0692721
-0.0611435
-0.0526357
-0.0439104
-0.0351384
-0.0264967
-0.0181651
-0.0103229
-0.0031533
0.00646422
0.0184612
0.0294988
0.0395713
0.0486899
0.0568772
0.0641641
0.0705879
0.0761892
0.0810107
0.0850951
0.0884837
0.0912157
0.0933272
0.0948505
0.0958139
0.0962418
0.0961542
0.0955674
0.0944942
0.0929439
0.0909237
0.0884382
0.0854908
0.082084
0.0782201
0.0739016
0.0691322
0.063917
0.0582632
0.0521808
0.0456827
0.0387857
0.0315105
0.0238826
0.0159322
0.00769494
-0.00078783
-0.00946884
-0.0182946
-0.0272054
-0.0361352
-0.0450114
-0.0537559
-0.0622846
-0.0705088
-0.0783356
-0.0856693
-0.0924126
-0.0984687
-0.103743
-0.108144
-0.11159
-0.114005
-0.115329
-0.115513
-0.114529
-0.112365
-0.109032
-0.104565
-0.0990203
-0.0924784
-0.085043
-0.0768392
-0.0680116
-0.0587214
-0.0491438
-0.0394645
-0.0298764
-0.0205755
-0.0117576
-0.00362235
0.00701666
0.0199946
0.0318983
0.0427311
0.0525127
0.0612743
0.0690553
0.0759005
0.081858
0.0869773
0.091307
0.0948942
0.0977828
0.100013
0.101621
0.102638
0.103091
0.103003
0.10239
0.101267
0.0996441
0.0975289
0.0949263
0.0918396
0.088271
0.0842223
0.0796955
0.0746933
0.0692199
0.0632818
0.0568875
0.0500493
0.0427826
0.0351072
0.0270476
0.0186334
0.00989959
0.000887346
-0.0083559
-0.0177761
-0.0273122
-0.0368962
-0.0464532
-0.0559012
-0.0651518
-0.0741107
-0.0826784
-0.0907513
-0.0982232
-0.104987
-0.110938
-0.115973
-0.119996
-0.122921
-0.124673
-0.125194
-0.124442
-0.122398
-0.119064
-0.114471
-0.108671
-0.101747
-0.0938062
-0.0849792
-0.0754206
-0.0653039
-0.0548187
-0.0441669
-0.0335586
-0.0232076
-0.0133279
-0.0041373
0.00757914
0.0215557
0.034341
0.0459475
0.0564039
0.0657498
0.0740332
0.0813069
0.0876266
0.0930486
0.0976279
0.101417
0.104466
0.106818
0.108514
0.109588
0.110069
0.109983
0.109349
0.108181
0.106492
0.104288
0.101576
0.0983585
0.0946373
0.0904137
0.0856891
0.0804652
0.0747454
0.0685348
0.0618408
0.0546741
0.0470491
0.0389841
0.0305024
0.0216323
0.0124081
0.0028702
-0.00693433
-0.0169512
-0.0271187
-0.0373676
-0.0476205
-0.0577924
-0.067791
-0.0775164
-0.0868628
-0.0957188
-0.103969
-0.111496
-0.118183
-0.123915
-0.128582
-0.132085
-0.134333
-0.135256
-0.134798
-0.132928
-0.129641
-0.124958
-0.118929
-0.111636
-0.103187
-0.0937208
-0.0834012
-0.0724144
-0.0609652
-0.0492729
-0.0375665
-0.0260795
-0.0150454
-0.00470235
0.00814967
0.0231392
0.0368189
0.0492103
0.0603511
0.0702899
0.079083
0.0867914
0.0934785
0.0992075
0.10404
0.108035
0.111246
0.113723
0.115509
0.116643
0.117157
0.117077
0.116426
0.115219
0.113469
0.111184
0.10837
0.105031
0.101167
0.0967788
0.091868
0.086435
0.0804817
0.0740121
0.0670322
0.0595511
0.0515814
0.0431401
0.0342487
0.0249341
0.0152291
0.00517295
-0.00518798
-0.0157998
-0.0266008
-0.0375206
-0.0484805
-0.0593929
-0.0701616
-0.0806822
-0.0908424
-0.100523
-0.1096
-0.117946
-0.12543
-0.131925
-0.137306
-0.141458
-0.144276
-0.145672
-0.145577
-0.143945
-0.140759
-0.136031
-0.129806
-0.122161
-0.113209
-0.103092
-0.0919841
-0.0800843
-0.067614
-0.0548109
-0.0419247
-0.0292103
-0.0169227
-0.00532204
0.00872621
0.0247396
0.0393235
0.0525089
0.0643421
0.0748806
0.0841894
0.0923376
0.0993963
0.105436
0.110525
0.114728
0.118104
0.120708
0.122587
0.123784
0.124333
0.124264
0.1236
0.122359
0.120554
0.118195
0.115288
0.111836
0.107839
0.103299
0.0982142
0.0925854
0.0864131
0.0796995
0.0724493
0.0646697
0.0563716
0.0475699
0.0382842
0.0285395
0.0183668
0.0078039
-0.00310435
-0.014305
-0.0257367
-0.037329
-0.0490021
-0.0606666
-0.0722232
-0.0835633
-0.0945687
-0.105113
-0.115064
-0.124281
-0.132623
-0.139948
-0.146115
-0.150993
-0.154459
-0.156407
-0.15675
-0.155427
-0.152406
-0.147687
-0.141307
-0.133338
-0.123893
-0.113119
-0.101199
-0.0883454
-0.0747965
-0.0608105
-0.0466589
-0.0326203
-0.0189731
-0.00600126
0.00930669
0.0263514
0.0418467
0.0558325
0.068364
0.0795077
0.0893368
0.0979289
0.105363
0.111716
0.117064
0.121476
0.12502
0.127752
0.129727
0.130988
0.131576
0.13152
0.130848
0.129578
0.127725
0.125299
0.122306
0.11875
0.114632
0.109951
0.104706
0.0988956
0.0925196
0.0855785
0.0780752
0.070015
0.0614068
0.0522631
0.0426014
0.0324445
0.0218211
0.0107668
-0.000675221
-0.0124537
-0.0245083
-0.0367692
-0.0491563
-0.0615791
-0.0739359
-0.0861145
-0.0979918
-0.109435
-0.120301
-0.130441
-0.139701
-0.147923
-0.154951
-0.160635
-0.164832
-0.167416
-0.168281
-0.167347
-0.164564
-0.159917
-0.153432
-0.145175
-0.135256
-0.123825
-0.111074
-0.0972286
-0.0825447
-0.0673019
-0.051796
-0.0363307
-0.0212105
-0.00674522
0.00988901
0.0279692
0.04438
0.0591703
0.0724043
0.0841567
0.0945095
0.103548
0.111359
0.118028
0.123636
0.12826
0.131972
0.134834
0.136905
0.138233
0.138861
0.138822
0.138144
0.13685
0.134954
0.132468
0.129398
0.125748
0.121519
0.116709
0.111317
0.10534
0.098777
0.091626
0.0838882
0.0755671
0.066669
0.0572044
0.047188
0.0366399
0.0255864
0.0140604
0.00210273
-0.0102375
-0.0229019
-0.0358217
-0.0489175
-0.0620984
-0.0752614
-0.0882915
-0.101061
-0.113432
-0.125252
-0.136363
-0.146598
-0.155783
-0.163746
-0.170317
-0.175332
-0.178644
-0.180123
-0.179667
-0.177205
-0.172704
-0.166176
-0.157677
-0.147311
-0.135232
-0.121636
-0.106764
-0.0908901
-0.074316
-0.0573634
-0.040364
-0.02365
-0.00755949
0.0104711
0.0295873
0.046915
0.0625118
0.0764502
0.0888135
0.0996917
0.109178
0.117368
0.124353
0.130222
0.135058
0.138937
0.14193
0.144098
0.145494
0.146163
0.146142
0.145463
0.144148
0.142214
0.139674
0.136535
0.1328
0.12847
0.123544
0.118019
0.111891
0.105157
0.0978143
0.0898619
0.0813009
0.0721354
0.062373
0.0520258
0.0411109
0.0296516
0.0176778
0.00522735
-0.00765343
-0.0209085
-0.0344713
-0.0482639
-0.0621959
-0.0761641
-0.0900515
-0.103728
-0.117048
-0.129855
-0.141979
-0.153242
-0.163454
-0.172426
-0.179967
-0.185891
-0.190026
-0.192217
-0.192336
-0.190289
-0.18602
-0.179522
-0.170838
-0.160064
-0.147353
-0.132908
-0.116981
-0.0998637
-0.0818836
-0.0633896
-0.044743
-0.026307
-0.00844995
0.011051
0.0312005
0.0494437
0.0658465
0.0804894
0.0934637
0.104868
0.114803
0.123371
0.130671
0.1368
0.141847
0.145894
0.149016
0.15128
0.152743
0.153454
0.153453
0.152774
0.151441
0.149474
0.146886
0.143684
0.139873
0.135453
0.130422
0.124778
0.118514
0.111627
0.104111
0.0959651
0.0871867
0.0777777
0.0677429
0.0570913
0.045837
0.0339997
0.0216061
0.00869048
-0.00470421
-0.0185251
-0.0327086
-0.047179
-0.0618477
-0.076612
-0.0913545
-0.105943
-0.120228
-0.134046
-0.14722
-0.159558
-0.170857
-0.18091
-0.189503
-0.196429
-0.201486
-0.204494
-0.205295
-0.203766
-0.199826
-0.193444
-0.184645
-0.173515
-0.160201
-0.144909
-0.127903
-0.109495
-0.0900355
-0.069903
-0.0494917
-0.0291977
-0.00942281
0.0116267
0.0328036
0.0519583
0.0691643
0.0845097
0.0980937
0.110022
0.120404
0.129349
0.136963
0.14335
0.148606
0.152818
0.156068
0.158426
0.159955
0.160707
0.160726
0.160047
0.158699
0.156701
0.154069
0.150811
0.146931
0.142431
0.137307
0.131556
0.125172
0.118149
0.110481
0.102162
0.0931896
0.0835624
0.0732823
0.0623552
0.0507915
0.0386077
0.0258262
0.0124777
-0.00139905
-0.015755
-0.0305301
-0.0456521
-0.061035
-0.0765781
-0.0921647
-0.107661
-0.122917
-0.137763
-0.152014
-0.165468
-0.177908
-0.189108
-0.198835
-0.206854
-0.212938
-0.216873
-0.218471
-0.217574
-0.214072
-0.207906
-0.199077
-0.187655
-0.173778
-0.157654
-0.139556
-0.119813
-0.0988015
-0.0769325
-0.0546343
-0.0323391
-0.0104846
0.0121964
0.0343918
0.0544513
0.0724557
0.0884999
0.10269
0.11514
0.125966
0.135285
0.14321
0.149852
0.155312
0.159686
0.163059
0.165509
0.1671
0.167891
0.167928
0.16725
0.165886
0.16386
0.161188
0.157878
0.153937
0.149365
0.144159
0.138314
0.131825
0.124683
0.116881
0.108412
0.09927
0.0894511
0.0789544
0.0677825
0.0559423
0.0434462
0.0303126
0.0165678
0.00224607
-0.012608
-0.0279391
-0.0436789
-0.0597455
-0.0760411
-0.0924513
-0.108843
-0.125065
-0.140945
-0.156291
-0.170892
-0.18452
-0.196929
-0.207866
-0.21707
-0.224284
-0.229261
-0.231776
-0.231637
-0.228695
-0.222858
-0.214099
-0.202464
-0.18808
-0.171151
-0.151956
-0.130841
-0.10821
-0.0845063
-0.0601953
-0.0357484
-0.0116421
0.0127585
0.0359607
0.0569163
0.075712
0.0924493
0.107241
0.120208
0.131473
0.141161
0.149392
0.156283
0.161943
0.166473
0.169965
0.1725
0.17415
0.174975
0.175027
0.174347
0.172968
0.170914
0.168203
0.164846
0.160849
0.156212
0.150934
0.145008
0.138428
0.131185
0.123269
0.114671
0.105384
0.0954006
0.0847173
0.073333
0.0612512
0.0484799
0.0350334
0.020933
0.00620825
-0.0091016
-0.0249463
-0.0412629
-0.0579741
-0.0749869
-0.0921903
-0.109454
-0.126627
-0.143535
-0.159984
-0.175753
-0.190604
-0.204275
-0.216492
-0.226969
-0.235416
-0.241553
-0.245114
-0.245865
-0.243617
-0.238237
-0.229663
-0.217914
-0.203094
-0.185401
-0.165116
-0.142603
-0.118289
-0.0926524
-0.0661994
-0.0394432
-0.0129024
0.0133114
0.0375065
0.0593471
0.0789254
0.0963484
0.111735
0.125212
0.13691
0.14696
0.15549
0.162624
0.168476
0.173155
0.176758
0.179372
0.181073
0.181928
0.181989
0.181304
0.179906
0.177824
0.175075
0.171673
0.167624
0.16293
0.157588
0.151592
0.144935
0.137606
0.129595
0.120891
0.111483
0.101363
0.0905242
0.0789615
0.0666747
0.0536678
0.0399505
0.025539
0.0104576
-0.00526024
-0.0215701
-0.038415
-0.0557239
-0.0734093
-0.0913652
-0.109466
-0.127562
-0.145482
-0.163027
-0.179974
-0.196072
-0.211048
-0.224607
-0.236438
-0.246219
-0.253633
-0.258371
-0.260155
-0.258747
-0.253967
-0.245711
-0.23396
-0.218795
-0.200395
-0.179044
-0.155115
-0.129061
-0.101397
-0.0726712
-0.0434417
-0.0142728
0.0138541
0.0390261
0.0617391
0.0820895
0.100189
0.116162
0.130142
0.142264
0.152668
0.161488
0.168854
0.174889
0.179707
0.183412
0.186096
0.18784
0.188715
0.18878
0.188083
0.186663
0.184549
0.181761
0.178315
0.174218
0.169471
0.164072
0.158017
0.151295
0.143896
0.135809
0.127019
0.117517
0.107288
0.0963245
0.084618
0.0721643
0.0589633
0.0450198
0.030345
0.0149572
-0.00111589
-0.0178366
-0.0351548
-0.0530063
-0.0713105
-0.0899681
-0.108859
-0.127839
-0.14674
-0.165363
-0.183481
-0.200839
-0.217151
-0.232102
-0.245359
-0.256569
-0.265374
-0.271424
-0.274388
-0.273976
-0.269954
-0.262166
-0.250548
-0.235146
-0.216118
-0.193738
-0.16839
-0.140549
-0.110766
-0.0796348
-0.047762
-0.0157609
0.0143856
0.0405171
0.0640886
0.0851993
0.103965
0.120514
0.134986
0.147523
0.158269
0.167368
0.174955
0.181161
0.186106
0.1899
0.192642
0.194419
0.195305
0.195364
0.194648
0.193198
0.191048
0.188219
0.184727
0.180582
0.175787
0.170338
0.164232
0.157457
0.150003
0.141857
0.133004
0.123429
0.11312
0.102064
0.0902489
0.0776675
0.0643152
0.0501922
0.0353043
0.019664
0.00329241
-0.0137797