/*--------------------------------*- C++ -*----------------------------------*\
  =========                 |
  \\      /  F ield         | OpenFOAM: The Open Source CFD Toolbox
   \\    /   O peration     | Website:  https://openfoam.org
    \\  /    A nd           | Version:  dev
     \\/     M anipulation  |
\*---------------------------------------------------------------------------*/
FoamFile
{
    format      ascii;
    class       surfaceScalarField;
    location    "23.4";
    object      phi;
}
// * * * * * * * * * * * * * * * * * * * * * * * * * * * * * * * * * * * * * //

dimensions      [0 3 -1 0 0 0 0];

internalField   nonuniform List<scalar> 
10224
(
3.36091e-08
-3.50291e-08
8.77101e-08
-5.40994e-08
1.24254e-07
-3.65489e-08
1.25198e-07
-9.45095e-10
8.35665e-08
4.16337e-08
-1.90768e-09
8.54743e-08
-1.29398e-07
1.27487e-07
-2.95597e-07
1.66195e-07
-4.96443e-07
2.00845e-07
-7.27637e-07
2.31195e-07
-9.84914e-07
2.57277e-07
-1.26418e-06
2.79268e-07
-1.56161e-06
2.97423e-07
-1.87363e-06
3.12026e-07
-2.19699e-06
3.23359e-07
-2.52868e-06
3.3169e-07
-2.86594e-06
3.37255e-07
-3.20619e-06
3.40255e-07
-3.54704e-06
3.4085e-07
-3.8862e-06
3.39165e-07
-4.22149e-06
3.35282e-07
-4.55074e-06
3.29256e-07
-4.87185e-06
3.21112e-07
-5.1827e-06
3.10852e-07
-5.48117e-06
2.98464e-07
-5.76509e-06
2.83927e-07
-6.03231e-06
2.67219e-07
-6.28064e-06
2.48325e-07
-6.50788e-06
2.27238e-07
-6.71185e-06
2.03974e-07
-6.89042e-06
1.7857e-07
-7.04152e-06
1.51094e-07
-7.16316e-06
1.21648e-07
-7.25354e-06
9.03713e-08
-7.31098e-06
5.74439e-08
-7.33407e-06
2.30884e-08
-7.32164e-06
-1.24298e-08
-7.27284e-06
-4.88024e-08
-7.18716e-06
-8.56805e-08
-7.06448e-06
-1.22677e-07
-6.90511e-06
-1.59372e-07
-6.7098e-06
-1.95316e-07
-6.47976e-06
-2.3004e-07
-6.21669e-06
-2.63062e-07
-5.9228e-06
-2.93893e-07
-5.60075e-06
-3.22052e-07
-5.25368e-06
-3.47074e-07
-4.88516e-06
-3.68519e-07
-4.49917e-06
-3.85987e-07
-4.10005e-06
-3.99124e-07
-3.69241e-06
-4.07634e-07
-3.28113e-06
-4.11286e-07
-2.8712e-06
-4.09927e-07
-2.46772e-06
-4.03479e-07
-2.07577e-06
-3.91953e-07
-1.70033e-06
-3.75445e-07
-1.34619e-06
-3.54139e-07
-1.01788e-06
-3.28308e-07
-7.19566e-07
-2.98315e-07
-4.54958e-07
-2.64608e-07
-2.27233e-07
-2.27725e-07
-3.89375e-08
-1.88295e-07
1.08122e-07
-1.47059e-07
2.13007e-07
-1.04884e-07
2.7583e-07
-6.28214e-08
2.9802e-07
-2.21897e-08
2.82751e-07
1.52675e-08
2.35612e-07
4.71352e-08
1.65658e-07
6.99517e-08
8.71756e-08
7.84862e-08
2.25322e-08
6.46531e-08
2.25398e-08
5.37736e-08
-8.88011e-08
1.12215e-07
-1.12544e-07
1.17972e-07
-4.23096e-08
3.86502e-08
7.83726e-08
-1.42142e-07
2.22423e-07
-4.2972e-07
3.7305e-07
-8.22311e-07
5.20078e-07
-1.31377e-06
6.57658e-07
-1.89555e-06
7.82616e-07
-2.55782e-06
8.93468e-07
-3.29033e-06
9.89781e-07
-4.08282e-06
1.07176e-06
-4.92538e-06
1.13999e-06
-5.80858e-06
1.19523e-06
-6.72354e-06
1.23831e-06
-7.66192e-06
1.27007e-06
-8.61593e-06
1.29127e-06
-9.57823e-06
1.30256e-06
-1.05419e-05
1.30449e-06
-1.15002e-05
1.29749e-06
-1.24468e-05
1.28188e-06
-1.33754e-05
1.25786e-06
-1.42798e-05
1.22555e-06
-1.5154e-05
1.18499e-06
-1.59917e-05
1.1362e-06
-1.67869e-05
1.07913e-06
-1.75335e-05
1.01378e-06
-1.82253e-05
9.40131e-07
-1.88563e-05
8.58236e-07
-1.94205e-05
7.68207e-07
-1.99122e-05
6.70247e-07
-2.03257e-05
5.64667e-07
-2.0656e-05
4.519e-07
-2.08981e-05
3.32514e-07
-2.10479e-05
2.07223e-07
-2.11017e-05
7.6889e-08
-2.10567e-05
-5.7472e-08
-2.09108e-05
-1.94697e-07
-2.0663e-05
-3.33479e-07
-2.03133e-05
-4.72383e-07
-1.98628e-05
-6.09856e-07
-1.93139e-05
-7.44255e-07
-1.867e-05
-8.73865e-07
-1.79362e-05
-9.96931e-07
-1.71184e-05
-1.11169e-06
-1.6224e-05
-1.21641e-06
-1.52617e-05
-1.3094e-06
-1.42411e-05
-1.38911e-06
-1.3173e-05
-1.45409e-06
-1.2069e-05
-1.50309e-06
-1.09416e-05
-1.53504e-06
-9.80376e-06
-1.54916e-06
-8.6688e-06
-1.54488e-06
-7.55031e-06
-1.52197e-06
-6.46178e-06
-1.48048e-06
-5.41643e-06
-1.42079e-06
-4.42697e-06
-1.3436e-06
-3.50534e-06
-1.24994e-06
-2.66248e-06
-1.14118e-06
-1.90808e-06
-1.01901e-06
-1.2503e-06
-8.85496e-07
-6.95559e-07
-7.43037e-07
-2.48152e-07
-5.94465e-07
9.00674e-08
-4.43106e-07
3.20174e-07
-2.92931e-07
4.46764e-07
-1.4878e-07
4.7882e-07
-1.67878e-08
4.30807e-07
9.51462e-08
3.24152e-07
1.76598e-07
1.88846e-07
2.13773e-07
6.43303e-08
1.89146e-07
8.68761e-08
3.72588e-08
-1.26065e-07
4.31484e-08
-1.18434e-07
-4.34883e-08
4.43305e-08
-2.5892e-07
2.93803e-07
-6.2275e-07
5.86247e-07
-1.14208e-06
8.92378e-07
-1.81518e-06
1.19317e-06
-2.63439e-06
1.47687e-06
-3.58835e-06
1.73657e-06
-4.66354e-06
1.96866e-06
-5.8454e-06
2.17164e-06
-7.11904e-06
2.34541e-06
-8.46978e-06
2.49072e-06
-9.88337e-06
2.60881e-06
-1.13462e-05
2.70114e-06
-1.28453e-05
2.7692e-06
-1.43685e-05
2.81443e-06
-1.5904e-05
2.83809e-06
-1.74408e-05
2.84125e-06
-1.89681e-05
2.82478e-06
-2.04755e-05
2.78932e-06
-2.1953e-05
2.73532e-06
-2.33905e-05
2.66306e-06
-2.47782e-05
2.57269e-06
-2.61063e-05
2.46428e-06
-2.7365e-05
2.33784e-06
-2.85446e-05
2.1934e-06
-2.96356e-05
2.03106e-06
-3.06283e-05
1.85101e-06
-3.15137e-05
1.65357e-06
-3.22827e-05
1.43928e-06
-3.2927e-05
1.20889e-06
-3.34384e-05
9.63391e-07
-3.381e-05
7.04082e-07
-3.40353e-05
4.32545e-07
-3.41091e-05
1.5067e-07
-3.40273e-05
-1.39339e-07
-3.3787e-05
-4.3498e-07
-3.3387e-05
-7.3346e-07
-3.28277e-05
-1.03172e-06
-3.2111e-05
-1.32649e-06
-3.1241e-05
-1.6143e-06
-3.02233e-05
-1.89154e-06
-2.90657e-05
-2.15455e-06
-2.77777e-05
-2.39964e-06
-2.63709e-05
-2.6232e-06
-2.48586e-05
-2.82174e-06
-2.32557e-05
-2.992e-06
-2.15788e-05
-3.13102e-06
-1.98457e-05
-3.23618e-06
-1.80754e-05
-3.30533e-06
-1.62877e-05
-3.33681e-06
-1.45031e-05
-3.3295e-06
-1.27422e-05
-3.28293e-06
-1.10254e-05
-3.19723e-06
-9.37297e-06
-3.07324e-06
-7.80409e-06
-2.91248e-06
-6.33689e-06
-2.71714e-06
-4.98789e-06
-2.49017e-06
-3.77169e-06
-2.23521e-06
-2.70053e-06
-1.95666e-06
-1.78386e-06
-1.6597e-06
-1.02793e-06
-1.35039e-06
-4.35215e-07
-1.03583e-06
-3.80037e-09
-7.2435e-07
2.7337e-07
-4.25955e-07
4.09358e-07
-1.52776e-07
4.24388e-07
8.01235e-08
3.47067e-07
2.5393e-07
2.15573e-07
3.45275e-07
7.85821e-08
3.26125e-07
1.65459e-07
1.85652e-09
-1.27924e-07
-7.90473e-08
-3.75324e-08
-2.97729e-07
2.63013e-07
-6.87892e-07
6.83965e-07
-1.26784e-06
1.16619e-06
-2.04384e-06
1.66837e-06
-3.01309e-06
2.16242e-06
-4.16635e-06
2.63013e-06
-5.49001e-06
3.06024e-06
-6.96777e-06
3.44642e-06
-8.58179e-06
3.78565e-06
-1.03136e-05
4.07722e-06
-1.21447e-05
4.32181e-06
-1.40569e-05
4.52104e-06
-1.60327e-05
4.67692e-06
-1.80551e-05
4.79165e-06
-2.01081e-05
4.86736e-06
-2.2176e-05
4.906e-06
-2.4244e-05
4.90924e-06
-2.62976e-05
4.87844e-06
-2.8323e-05
4.81465e-06
-3.03062e-05
4.71862e-06
-3.2234e-05
4.59085e-06
-3.4093e-05
4.43167e-06
-3.587e-05
4.24126e-06
-3.75519e-05
4.01976e-06
-3.91259e-05
3.76733e-06
-4.0579e-05
3.48426e-06
-4.1899e-05
3.17098e-06
-4.30736e-05
2.8282e-06
-4.40913e-05
2.45693e-06
-4.4941e-05
2.05858e-06
-4.56126e-05
1.63496e-06
-4.60968e-05
1.18836e-06
-4.63858e-05
7.21542e-07
-4.64729e-05
2.37785e-07
-4.63532e-05
-2.5913e-07
-4.60232e-05
-7.64931e-07
-4.54818e-05
-1.27488e-06
-4.47297e-05
-1.78383e-06
-4.37699e-05
-2.28625e-06
-4.26079e-05
-2.77633e-06
-4.12514e-05
-3.24806e-06
-3.97106e-05
-3.69532e-06
-3.79983e-05
-4.11196e-06
-3.61295e-05
-4.49199e-06
-3.41216e-05
-4.82964e-06
-3.19941e-05
-5.11951e-06
-2.97684e-05
-5.35667e-06
-2.74678e-05
-5.53683e-06
-2.51167e-05
-5.65642e-06
-2.27408e-05
-5.71271e-06
-2.03664e-05
-5.7039e-06
-1.80201e-05
-5.6292e-06
-1.57284e-05
-5.4889e-06
-1.35173e-05
-5.2844e-06
-1.14114e-05
-5.01829e-06
-9.43428e-06
-4.69431e-06
-7.60703e-06
-4.31742e-06
-5.94843e-06
-3.89381e-06
-4.47417e-06
-3.43092e-06
-3.19637e-06
-2.9375e-06
-2.12299e-06
-2.42378e-06
-1.25723e-06
-1.90159e-06
-5.96852e-07
-1.38473e-06
-1.33423e-07
-8.89387e-07
1.48536e-07
-4.34741e-07
2.72472e-07
-4.38179e-08
2.70828e-07
2.55576e-07
1.86077e-07
4.30035e-07
7.2143e-08
4.40054e-07
2.37601e-07
-4.20696e-08
-8.58523e-08
-2.30032e-07
1.50427e-07
-6.06451e-07
6.39428e-07
-1.19789e-06
1.2754e-06
-2.01807e-06
1.98637e-06
-3.07016e-06
2.72046e-06
-4.34898e-06
3.44125e-06
-5.8431e-06
4.12424e-06
-7.53666e-06
4.7538e-06
-9.41087e-06
5.32063e-06
-1.14452e-05
5.81997e-06
-1.36182e-05
6.25023e-06
-1.59083e-05
6.6119e-06
-1.8294e-05
6.9068e-06
-2.07546e-05
7.13745e-06
-2.32696e-05
7.30669e-06
-2.58196e-05
7.41735e-06
-2.83857e-05
7.47205e-06
-3.09495e-05
7.47309e-06
-3.34934e-05
7.42235e-06
-3.60001e-05
7.32134e-06
-3.84526e-05
7.17115e-06
-4.08344e-05
6.97258e-06
-4.31288e-05
6.72615e-06
-4.53198e-05
6.43224e-06
-4.73912e-05
6.09118e-06
-4.93273e-05
5.70337e-06
-5.11124e-05
5.26937e-06
-5.27314e-05
4.79001e-06
-5.41697e-05
4.26651e-06
-5.54134e-05
3.70056e-06
-5.64492e-05
3.0944e-06
-5.72651e-05
2.45089e-06
-5.78503e-05
1.77357e-06
-5.81955e-05
1.0667e-06
-5.82929e-05
3.35236e-07
-5.8137e-05
-4.15099e-07
-5.7724e-05
-1.1779e-06
-5.70528e-05
-1.94609e-06
-5.61246e-05
-2.712e-06
-5.49434e-05
-3.46744e-06
-5.35159e-05
-4.20381e-06
-5.18518e-05
-4.91225e-06
-4.99633e-05
-5.58372e-06
-4.78661e-05
-6.20923e-06
-4.55781e-05
-6.77994e-06
-4.31204e-05
-7.2874e-06
-4.05162e-05
-7.72369e-06
-3.77913e-05
-8.08161e-06
-3.49732e-05
-8.35487e-06
-3.20914e-05
-8.53826e-06
-2.91763e-05
-8.62777e-06
-2.62594e-05
-8.62079e-06
-2.33725e-05
-8.51617e-06
-2.0547e-05
-8.31437e-06
-1.78139e-05
-8.01748e-06
-1.52029e-05
-7.62934e-06
-1.27417e-05
-7.15552e-06
-1.04557e-05
-6.60339e-06
-8.3674e-06
-5.98212e-06
-6.49554e-06
-5.30278e-06
-4.85471e-06
-4.57833e-06
-3.45464e-06
-3.82385e-06
-2.29956e-06
-3.05666e-06
-1.38752e-06
-2.29676e-06
-7.09695e-07
-1.56721e-06
-2.49619e-07
-8.94818e-07
1.75355e-08
-3.10977e-07
1.25798e-07
1.47309e-07
1.19288e-07
4.36548e-07
5.35899e-08
5.05752e-07
2.9119e-07
-8.94217e-08
3.57127e-09
-3.95236e-07
4.56239e-07
-9.44783e-07
1.18897e-06
-1.75462e-06
2.08524e-06
-2.83155e-06
3.0633e-06
-4.17379e-06
4.06271e-06
-5.7725e-06
5.03996e-06
-7.61331e-06
5.96505e-06
-9.67775e-06
6.81824e-06
-1.19445e-05
7.58741e-06
-1.43906e-05
8.26606e-06
-1.6992e-05
8.85164e-06
-1.97245e-05
9.34435e-06
-2.25638e-05
9.74612e-06
-2.54863e-05
1.00599e-05
-2.84687e-05
1.02891e-05
-3.14887e-05
1.04373e-05
-3.45242e-05
1.05076e-05
-3.75543e-05
1.05031e-05
-4.05581e-05
1.04261e-05
-4.35154e-05
1.02787e-05
-4.64064e-05
1.00622e-05
-4.92116e-05
9.77778e-06
-5.19117e-05
9.42626e-06
-5.44878e-05
9.00826e-06
-5.6921e-05
8.52438e-06
-5.91929e-05
7.97532e-06
-6.12856e-05
7.36204e-06
-6.31815e-05
6.68589e-06
-6.48637e-05
5.94874e-06
-6.63163e-05
5.15313e-06
-6.75242e-05
4.30232e-06
-6.84737e-05
3.40044e-06
-6.91527e-05
2.45251e-06
-6.95505e-05
1.46453e-06
-6.96587e-05
4.43458e-07
-6.9471e-05
-6.02778e-07
-6.89836e-05
-1.66531e-06
-6.81953e-05
-2.73437e-06
-6.71079e-05
-3.79944e-06
-6.5726e-05
-4.8493e-06
-6.40577e-05
-5.87219e-06
-6.21139e-05
-6.85601e-06
-5.99092e-05
-7.78846e-06
-5.74611e-05
-8.6573e-06
-5.47905e-05
-9.45052e-06
-5.19213e-05
-1.01566e-05
-4.88801e-05
-1.07649e-05
-4.56962e-05
-1.12655e-05
-4.24012e-05
-1.16499e-05
-3.90284e-05
-1.1911e-05
-3.56128e-05
-1.20435e-05
-3.219e-05
-1.20436e-05
-2.87963e-05
-1.19099e-05
-2.54677e-05
-1.16429e-05
-2.22396e-05
-1.12456e-05
-1.91458e-05
-1.07231e-05
-1.62183e-05
-1.00831e-05
-1.34861e-05
-9.33555e-06
-1.09752e-05
-8.4931e-06
-8.70713e-06
-7.5708e-06
-6.69912e-06
-6.58634e-06
-4.96282e-06
-5.56014e-06
-3.50389e-06
-4.51559e-06
-2.32131e-06
-3.47935e-06
-1.40671e-06
-2.48181e-06
-7.4381e-07
-1.55772e-06
-3.07792e-07
-7.46996e-07
-6.47089e-08
-9.57781e-08
2.91661e-08
3.42674e-07
2.82491e-08
5.0667e-07
3.1944e-07
-1.37596e-07
1.41167e-07
-5.66087e-07
8.84731e-07
-1.29691e-06
1.9198e-06
-2.33515e-06
3.12347e-06
-3.67909e-06
4.40724e-06
-5.32068e-06
5.70429e-06
-7.2463e-06
6.96558e-06
-9.43786e-06
8.15661e-06
-1.18738e-05
9.25419e-06
-1.45302e-05
1.02438e-05
-1.73814e-05
1.11173e-05
-2.04011e-05
1.18714e-05
-2.35626e-05
1.25059e-05
-2.68394e-05
1.30228e-05
-3.02051e-05
1.34256e-05
-3.36342e-05
1.37182e-05
-3.71016e-05
1.39047e-05
-4.0583e-05
1.3989e-05
-4.40544e-05
1.39746e-05
-4.74927e-05
1.38644e-05
-5.08751e-05
1.3661e-05
-5.4179e-05
1.33661e-05
-5.73825e-05
1.29812e-05
-6.04637e-05
1.25075e-05
-6.34012e-05
1.19458e-05
-6.61739e-05
1.12971e-05
-6.87611e-05
1.05625e-05
-7.11424e-05
9.74336e-06
-7.32983e-05
8.84179e-06
-7.52099e-05
7.8604e-06
-7.68595e-05
6.80271e-06
-7.82304e-05
5.67321e-06
-7.93074e-05
4.47746e-06
-8.00771e-05
3.22219e-06
-8.05279e-05
1.91535e-06
-8.06506e-05
5.66124e-07
-8.04383e-05
-8.15073e-07
-7.9887e-05
-2.21664e-06
-7.89955e-05
-3.62586e-06
-7.77659e-05
-5.02903e-06
-7.62036e-05
-6.41161e-06
-7.43174e-05
-7.75837e-06
-7.21198e-05
-9.05366e-06
-6.96266e-05
-1.02816e-05
-6.68576e-05
-1.14264e-05
-6.38356e-05
-1.24724e-05
-6.05872e-05
-1.34051e-05
-5.71418e-05
-1.42103e-05
-5.35318e-05
-1.48755e-05
-4.9792e-05
-1.53897e-05
-4.59595e-05
-1.57436e-05
-4.20728e-05
-1.59302e-05
-3.81715e-05
-1.59448e-05
-3.4296e-05
-1.57854e-05
-3.04862e-05
-1.54527e-05
-2.67816e-05
-1.49503e-05
-2.32198e-05
-1.42849e-05
-1.98366e-05
-1.34663e-05
-1.66647e-05
-1.25074e-05
-1.37333e-05
-1.14245e-05
-1.1067e-05
-1.0237e-05
-8.68568e-06
-8.96769e-06
-6.60317e-06
-7.64265e-06
-4.82705e-06
-6.29172e-06
-3.35781e-06
-4.9486e-06
-2.18836e-06
-3.65126e-06
-1.30352e-06
-2.44256e-06
-6.79573e-07
-1.37094e-06
-2.8392e-07
-4.91432e-07
-7.47298e-08
1.33484e-07
-6.33619e-10
4.32574e-07
3.18807e-07
-1.85341e-07
3.26507e-07
-7.37698e-07
1.43709e-06
-1.65307e-06
2.83517e-06
-2.92446e-06
4.39487e-06
-4.54079e-06
6.02357e-06
-6.48675e-06
7.65025e-06
-8.74311e-06
9.22195e-06
-1.12874e-05
1.07009e-05
-1.40944e-05
1.20613e-05
-1.71374e-05
1.32867e-05
-2.0388e-05
1.43679e-05
-2.38175e-05
1.53009e-05
-2.7397e-05
1.60854e-05
-3.10977e-05
1.67235e-05
-3.48912e-05
1.72192e-05
-3.87497e-05
1.75767e-05
-4.26459e-05
1.78009e-05
-4.65532e-05
1.78963e-05
-5.04455e-05
1.78669e-05
-5.42972e-05
1.77162e-05
-5.80834e-05
1.74471e-05
-6.17792e-05
1.7062e-05
-6.53604e-05
1.65625e-05
-6.8803e-05
1.59501e-05
-7.20834e-05
1.52261e-05
-7.51782e-05
1.43919e-05
-7.80646e-05
1.34489e-05
-8.07206e-05
1.23993e-05
-8.31245e-05
1.12457e-05
-8.52559e-05
9.99177e-06
-8.70952e-05
8.64205e-06
-8.86244e-05
7.20242e-06
-8.9827e-05
5.68004e-06
-9.06883e-05
4.08352e-06
-9.11959e-05
2.42296e-06
-9.13398e-05
7.09959e-07
-9.11125e-05
-1.04236e-06
-9.05097e-05
-2.81944e-06
-8.95302e-05
-4.60538e-06
-8.81761e-05
-6.38305e-06
-8.64534e-05
-8.13432e-06
-8.43716e-05
-9.84023e-06
-8.19439e-05
-1.14813e-05
-7.91878e-05
-1.30378e-05
-7.61242e-05
-1.449e-05
-7.2778e-05
-1.58186e-05
-6.91777e-05
-1.70053e-05
-6.53552e-05
-1.80328e-05
-6.13456e-05
-1.88851e-05
-5.71865e-05
-1.95487e-05
-5.29182e-05
-2.00119e-05
-4.85826e-05
-2.02658e-05
-4.42228e-05
-2.03046e-05
-3.98827e-05
-2.01255e-05
-3.56062e-05
-1.97292e-05
-3.14363e-05
-1.91202e-05
-2.74146e-05
-1.83065e-05
-2.35805e-05
-1.73004e-05
-1.99702e-05
-1.61177e-05
-1.66163e-05
-1.47784e-05
-1.35467e-05
-1.33067e-05
-1.0784e-05
-1.17305e-05
-8.34462e-06
-1.0082e-05
-6.23858e-06
-8.39776e-06
-4.46847e-06
-6.71871e-06
-3.02914e-06
-5.09059e-06
-1.90728e-06
-3.56441e-06
-1.08116e-06
-2.19706e-06
-5.20427e-07
-1.05216e-06
-1.86172e-07
-2.00771e-07
-3.11033e-08
2.77505e-07
2.87704e-07
-2.32017e-07
5.58524e-07
-9.07312e-07
2.11239e-06
-2.00727e-06
3.93513e-06
-3.51284e-06
5.90043e-06
-5.40314e-06
7.91388e-06
-7.65505e-06
9.90215e-06
-1.02431e-05
1.181e-05
-1.31399e-05
1.35977e-05
-1.63164e-05
1.52377e-05
-1.97422e-05
1.67126e-05
-2.33866e-05
1.80123e-05
-2.72183e-05
1.91326e-05
-3.12061e-05
2.00732e-05
-3.53193e-05
2.08367e-05
-3.95274e-05
2.14273e-05
-4.38007e-05
2.185e-05
-4.81099e-05
2.21101e-05
-5.24265e-05
2.22129e-05
-5.67225e-05
2.21628e-05
-6.09703e-05
2.1964e-05
-6.51429e-05
2.16197e-05
-6.92136e-05
2.11327e-05
-7.31561e-05
2.0505e-05
-7.69445e-05
1.97385e-05
-8.05531e-05
1.88348e-05
-8.3957e-05
1.77957e-05
-8.71314e-05
1.66233e-05
-9.00523e-05
1.53203e-05
-9.26968e-05
1.38901e-05
-9.50424e-05
1.23375e-05
-9.70685e-05
1.06681e-05
-9.87554e-05
8.88933e-06
-0.000100085
7.0101e-06
-0.000101043
5.041e-06
-0.000101614
2.99443e-06
-0.000101789
8.84576e-07
-0.000101559
-1.27257e-06
-0.000100919
-3.45932e-06
-9.98679e-05
-5.65636e-06
-9.8408e-05
-7.84297e-06
-9.65452e-05
-9.99719e-06
-9.42893e-05
-1.20961e-05
-9.16544e-05
-1.41162e-05
-8.86587e-05
-1.60335e-05
-8.53243e-05
-1.78243e-05
-8.16777e-05
-1.94653e-05
-7.7749e-05
-2.0934e-05
-7.35721e-05
-2.22096e-05
-6.91844e-05
-2.32729e-05
-6.46261e-05
-2.4107e-05
-5.99401e-05
-2.46978e-05
-5.51715e-05
-2.50344e-05
-5.03668e-05
-2.51093e-05
-4.55732e-05
-2.49191e-05
-4.08381e-05
-2.44643e-05
-3.62083e-05
-2.37499e-05
-3.17292e-05
-2.27857e-05
-2.74437e-05
-2.15858e-05
-2.3392e-05
-2.01694e-05
-1.96099e-05
-1.85605e-05
-1.61289e-05
-1.67877e-05
-1.29748e-05
-1.48846e-05
-1.0167e-05
-1.28897e-05
-7.71847e-06
-1.08463e-05
-5.63435e-06
-8.80283e-06
-3.91208e-06
-6.81286e-06
-2.54088e-06
-4.93561e-06
-1.50164e-06
-3.2363e-06
-7.66939e-07
-1.78686e-06
-3.0135e-07
-6.6636e-07
-6.20589e-08
3.82134e-08
2.25644e-07
-2.77347e-07
8.35872e-07
-1.07339e-06
2.90843e-06
-2.35587e-06
5.21761e-06
-4.09398e-06
7.63854e-06
-6.25698e-06
1.00769e-05
-8.81363e-06
1.24588e-05
-1.17319e-05
1.47283e-05
-1.4979e-05
1.68448e-05
-1.85216e-05
1.87803e-05
-2.2326e-05
2.05169e-05
-2.63582e-05
2.20445e-05
-3.05846e-05
2.3359e-05
-3.49719e-05
2.44605e-05
-3.94872e-05
2.5352e-05
-4.40984e-05
2.60385e-05
-4.87739e-05
2.65255e-05
-5.34827e-05
2.6819e-05
-5.81947e-05
2.69248e-05
-6.288e-05
2.68482e-05
-6.75095e-05
2.65935e-05
-7.20544e-05
2.61646e-05
-7.64863e-05
2.55646e-05
-8.07772e-05
2.47959e-05
-8.48994e-05
2.38607e-05
-8.88257e-05
2.27611e-05
-9.25294e-05
2.14994e-05
-9.59842e-05
2.00781e-05
-9.91645e-05
1.85006e-05
-0.000102046
1.67713e-05
-0.000104604
1.48959e-05
-0.000106818
1.28816e-05
-0.000108665
1.0737e-05
-0.000110128
8.47307e-06
-0.00011119
6.10242e-06
-0.000111835
3.63987e-06
-0.000112053
1.10232e-06
-0.000111834
-1.49125e-06
-0.000111174
-4.11987e-06
-0.000110069
-6.76071e-06
-0.000108523
-9.38923e-06
-0.000106541
-1.19795e-05
-0.000104132
-1.45044e-05
-0.000101312
-1.69362e-05
-9.80995e-05
-1.92465e-05
-9.45165e-05
-2.14073e-05
-9.05909e-05
-2.33908e-05
-8.63543e-05
-2.51706e-05
-8.18423e-05
-2.67217e-05
-7.70939e-05
-2.80212e-05
-7.2152e-05
-2.9049e-05
-6.70618e-05
-2.9788e-05
-6.18713e-05
-3.02249e-05
-5.663e-05
-3.03506e-05
-5.13886e-05
-3.01605e-05
-4.6198e-05
-2.96549e-05
-4.11087e-05
-2.88393e-05
-3.61698e-05
-2.77246e-05
-3.14282e-05
-2.63274e-05
-2.69279e-05
-2.46698e-05
-2.27086e-05
-2.27797e-05
-1.88056e-05
-2.06908e-05
-1.52481e-05
-1.84421e-05
-1.20592e-05
-1.60785e-05
-9.25513e-06
-1.36504e-05
-6.84422e-06
-1.12137e-05
-4.82701e-06
-8.83007e-06
-3.19578e-06
-6.56684e-06
-1.93454e-06
-4.49754e-06
-1.01922e-06
-2.70218e-06
-4.18153e-07
-1.26743e-06
-9.29475e-08
-2.86992e-07
1.32696e-07
-3.21217e-07
1.15709e-06
-1.2351e-06
3.82231e-06
-2.69665e-06
6.67916e-06
-4.66377e-06
9.60566e-06
-7.09603e-06
1.25091e-05
-9.954e-06
1.53168e-05
-1.31989e-05
1.79732e-05
-1.67923e-05
2.04382e-05
-2.06964e-05
2.26844e-05
-2.48736e-05
2.46941e-05
-2.92872e-05
2.6458e-05
-3.39008e-05
2.79726e-05
-3.86789e-05
2.92386e-05
-4.35869e-05
3.026e-05
-4.85907e-05
3.10423e-05
-5.36572e-05
3.1592e-05
-5.87541e-05
3.19158e-05
-6.38494e-05
3.20202e-05
-6.89121e-05
3.19108e-05
-7.39114e-05
3.15928e-05
-7.88171e-05
3.10703e-05
-8.35993e-05
3.03468e-05
-8.82287e-05
2.94252e-05
-9.2676e-05
2.8308e-05
-9.69126e-05
2.69977e-05
-0.00010091
2.5497e-05
-0.000104641
2.38091e-05
-0.000108079
2.1938e-05
-0.000111196
1.98891e-05
-0.00011397
1.76692e-05
-0.000116375
1.52866e-05
-0.000118389
1.27519e-05
-0.000119994
1.00776e-05
-0.00012117
7.27861e-06
-0.000121903
4.37224e-06
-0.000122178
1.37813e-06
-0.000121988
-1.68165e-06
-0.000121325
-4.78276e-06
-0.000120187
-7.8987e-06
-0.000118575
-1.1001e-05
-0.000116495
-1.40597e-05
-0.000113956
-1.70432e-05
-0.000110973
-1.99193e-05
-0.000107565
-2.26551e-05
-0.000103754
-2.52179e-05
-9.95693e-05
-2.75754e-05
-9.50433e-05
-2.96966e-05
-9.02127e-05
-3.15523e-05
-8.51185e-05
-3.31154e-05
-7.98052e-05
-3.43623e-05
-7.43207e-05
-3.52725e-05
-6.87154e-05
-3.58302e-05
-6.30419e-05
-3.60241e-05
-5.73542e-05
-3.58482e-05
-5.17068e-05
-3.53023e-05
-4.61541e-05
-3.4392e-05
-4.0749e-05
-3.31296e-05
-3.55427e-05
-3.15337e-05
-3.05832e-05
-2.96293e-05
-2.59147e-05
-2.74483e-05
-2.15762e-05
-2.50292e-05
-1.76014e-05
-2.24169e-05
-1.40173e-05
-1.96626e-05
-1.08438e-05
-1.6824e-05
-8.09301e-06
-1.39645e-05
-5.76909e-06
-1.1154e-05
-3.86782e-06
-8.46811e-06
-2.37672e-06
-5.98865e-06
-1.27529e-06
-3.80361e-06
-5.35653e-07
-2.00706e-06
-1.23567e-07
-6.99078e-07
9.12906e-09
-3.63588e-07
1.52068e-06
-1.39194e-06
4.85067e-06
-3.02818e-06
8.3154e-06
-5.21946e-06
1.17969e-05
-7.9159e-06
1.52056e-05
-1.107e-05
1.84708e-05
-1.4636e-05
2.15393e-05
-1.85701e-05
2.43723e-05
-2.28295e-05
2.69438e-05
-2.73731e-05
2.92377e-05
-3.21607e-05
3.12456e-05
-3.71535e-05
3.29654e-05
-4.23139e-05
3.4399e-05
-4.76053e-05
3.55514e-05
-5.2992e-05
3.6429e-05
-5.84395e-05
3.70395e-05
-6.39139e-05
3.73903e-05
-6.93822e-05
3.74885e-05
-7.48119e-05
3.73405e-05
-8.01711e-05
3.6952e-05
-8.54283e-05
3.63275e-05
-9.05525e-05
3.5471e-05
-9.55129e-05
3.43856e-05
-0.000100279
3.30743e-05
-0.000104821
3.15398e-05
-0.00010911
2.97855e-05
-0.000113116
2.7815e-05
-0.000116811
2.56332e-05
-0.000120168
2.32463e-05
-0.000123161
2.0662e-05
-0.000125765
1.78903e-05
-0.000127956
1.49432e-05
-0.000129714
1.18351e-05
-0.000131018
8.58314e-06
-0.000131853
5.20707e-06
-0.000132204
1.72937e-06
-0.000132061
-1.82479e-06
-0.000131416
-5.42763e-06
-0.000130266
-9.04891e-06
-0.000128611
-1.26562e-05
-0.000126455
-1.62151e-05
-0.000123809
-1.96898e-05
-0.000120685
-2.30432e-05
-0.000117102
-2.62377e-05
-0.000113085
-2.92356e-05
-0.00010866
-3.2e-05
-0.000103862
-3.44948e-05
-9.87279e-05
-3.66862e-05
-9.33005e-05
-3.85429e-05
-8.76259e-05
-4.00369e-05
-8.1754e-05
-4.11443e-05
-7.57381e-05
-4.18462e-05
-6.96336e-05
-4.21286e-05
-6.34978e-05
-4.1984e-05
-5.7389e-05
-4.14111e-05
-5.13654e-05
-4.04156e-05
-4.54844e-05
-3.90107e-05
-3.98014e-05
-3.72166e-05
-3.43692e-05
-3.50615e-05
-2.92363e-05
-3.25812e-05
-2.44467e-05
-2.98188e-05
-2.00385e-05
-2.68251e-05
-1.60432e-05
-2.36579e-05
-1.24851e-05
-2.03821e-05
-9.38055e-06
-1.70691e-05
-6.7377e-06
-1.37968e-05
-4.55627e-06
-1.06495e-05
-2.82755e-06
-7.71737e-06
-1.53477e-06
-5.09639e-06
-6.53747e-07
-2.88808e-06
-1.53943e-07
-1.19888e-06
-1.44813e-07
-4.04445e-07
1.92512e-06
-1.54363e-06
5.98986e-06
-3.34954e-06
1.01213e-05
-5.75911e-06
1.42065e-05
-8.71336e-06
1.81598e-05
-1.21569e-05
2.19143e-05
-1.60372e-05
2.54196e-05
-2.03047e-05
2.86398e-05
-2.49121e-05
3.15512e-05
-2.98142e-05
3.41398e-05
-3.49678e-05
3.63992e-05
-4.03314e-05
3.8329e-05
-4.58651e-05
3.99328e-05
-5.15307e-05
4.12169e-05
-5.72909e-05
4.21892e-05
-6.31097e-05
4.28583e-05
-6.89522e-05
4.32327e-05
-7.47841e-05
4.33204e-05
-8.05719e-05
4.31283e-05
-8.62826e-05
4.26627e-05
-9.18838e-05
4.19287e-05
-9.73433e-05
4.09305e-05
-0.000102629
3.96716e-05
-0.00010771
3.81554e-05
-0.000112556
3.63851e-05
-0.000117134
3.43642e-05
-0.000121417
3.20972e-05
-0.000125373
2.95895e-05
-0.000128975
2.68481e-05
-0.000132195
2.38821e-05
-0.000135007
2.07024e-05
-0.000137386
1.73228e-05
-0.000139311
1.37596e-05
-0.00014076
1.0032e-05
-0.000141715
6.16229e-06
-0.000142161
2.17564e-06
-0.000142087
-1.89959e-06
-0.000141482
-6.03218e-06
-0.000140343
-1.01881e-05
-0.000138668
-1.43309e-05
-0.000136461
-1.84218e-05
-0.000133731
-2.24203e-05
-0.000130489
-2.62846e-05
-0.000126755
-2.9972e-05
-0.000122551
-3.34397e-05
-0.000117905
-3.66455e-05
-0.000112852
-3.95483e-05
-0.000107429
-4.21092e-05
-0.00010168
-4.4292e-05
-9.56523e-05
-4.60643e-05
-8.93986e-05
-4.73981e-05
-8.29742e-05
-4.82706e-05
-7.64375e-05
-4.86653e-05
-6.98493e-05
-4.85721e-05
-6.32717e-05
-4.79887e-05
-5.67671e-05
-4.69202e-05
-5.03975e-05
-4.53803e-05
-4.42231e-05
-4.3391e-05
-3.83016e-05
-4.0983e-05
-3.26869e-05
-3.8196e-05
-2.74279e-05
-3.50778e-05
-2.25679e-05
-3.16851e-05
-1.81436e-05
-2.80822e-05
-1.41841e-05
-2.43416e-05
-1.07105e-05
-2.05427e-05
-7.73547e-06
-1.67719e-05
-5.26295e-06
-1.31221e-05
-3.28828e-06
-9.69204e-06
-1.79848e-06
-6.58619e-06
-7.72903e-07
-3.91365e-06
-1.84253e-07
-1.78753e-06
-3.29065e-07
-4.43777e-07
2.3689e-06
-1.68996e-06
7.23604e-06
-3.66002e-06
1.20914e-05
-6.28123e-06
1.68277e-05
-9.48591e-06
2.13645e-05
-1.3211e-05
2.56394e-05
-1.73974e-05
2.9606e-05
-2.19899e-05
3.32324e-05
-2.69366e-05
3.64979e-05
-3.21884e-05
3.93915e-05
-3.76989e-05
4.19097e-05
-4.3424e-05
4.40541e-05
-4.93217e-05
4.58306e-05
-5.5352e-05
4.72472e-05
-6.14762e-05
4.83134e-05
-6.76571e-05
4.90392e-05
-7.38586e-05
4.94342e-05
-8.00455e-05
4.95072e-05
-8.61833e-05
4.92662e-05
-9.22383e-05
4.87177e-05
-9.81771e-05
4.78675e-05
-0.000103967
4.67201e-05
-0.000109574
4.52794e-05
-0.000114968
4.35491e-05
-0.000120116
4.15328e-05
-0.000124986
3.92343e-05
-0.000129548
3.66587e-05
-0.00013377
3.3812e-05
-0.000137624
3.0702e-05
-0.000141081
2.73388e-05
-0.000144113
2.37347e-05
-0.000146695
1.99049e-05
-0.000148803
1.58673e-05
-0.000150414
1.16435e-05
-0.00015151
7.25791e-06
-0.000152073
2.73865e-06
-0.00015209
-1.88293e-06
-0.00015155
-6.57217e-06
-0.000150446
-1.12913e-05
-0.000148778
-1.59997e-05
-0.000146545
-2.06543e-05
-0.000143756
-2.52098e-05
-0.000140421
-2.96192e-05
-0.000136558
-3.38349e-05
-0.000132189
-3.78086e-05
-0.000127342
-4.14925e-05
-0.00012205
-4.48401e-05
-0.000116353
-4.7807e-05
-0.000110293
-5.03516e-05
-0.000103921
-5.24366e-05
-9.72897e-05
-5.40292e-05
-9.04577e-05
-5.51026e-05
-8.34863e-05
-5.56367e-05
-7.64397e-05
-5.56188e-05
-6.93839e-05
-5.50444e-05
-6.23861e-05
-5.39181e-05
-5.55128e-05
-5.22535e-05
-4.88299e-05
-5.00739e-05
-4.24002e-05
-4.74127e-05
-3.62835e-05
-4.43127e-05
-3.05345e-05
-4.08268e-05
-2.52022e-05
-3.70174e-05
-2.03289e-05
-3.29555e-05
-1.59492e-05
-2.87213e-05
-1.20896e-05
-2.44023e-05
-8.76749e-06
-2.00939e-05
-5.99163e-06
-1.58979e-05
-3.76155e-06
-1.19221e-05
-2.0681e-06
-8.27964e-06
-8.93992e-07
-5.08776e-06
-2.14774e-07
-2.46675e-06
-5.43839e-07
-4.81563e-07
2.85046e-06
-1.83071e-06
8.58518e-06
-3.95901e-06
1.42197e-05
-6.78457e-06
1.96533e-05
-1.02314e-05
2.48113e-05
-1.42291e-05
2.9637e-05
-1.87122e-05
3.40892e-05
-2.36202e-05
3.81403e-05
-2.88963e-05
4.1774e-05
-3.44878e-05
4.4983e-05
-4.03451e-05
4.7767e-05
-4.64217e-05
5.01307e-05
-5.26735e-05
5.20824e-05
-5.90587e-05
5.36323e-05
-6.55373e-05
5.4792e-05
-7.20709e-05
5.55728e-05
-7.86225e-05
5.59858e-05
-8.5156e-05
5.60408e-05
-9.16364e-05
5.57465e-05
-9.80289e-05
5.51103e-05
-0.0001043
5.41383e-05
-0.000110415
5.28355e-05
-0.000116342
5.12062e-05
-0.000122047
4.92543e-05
-0.000127498
4.69836e-05
-0.000132662
4.43984e-05
-0.000137508
4.15042e-05
-0.000142003
3.83076e-05
-0.000146118
3.48171e-05
-0.000149823
3.10437e-05
-0.000153089
2.70008e-05
-0.000155889
2.27051e-05
-0.000158198
1.81762e-05
-0.000159992
1.34375e-05
-0.00016125
8.51583e-06
-0.000161953
3.44193e-06
-0.000162086
-1.74987e-06
-0.000161637
-7.02156e-06
-0.000160597
-1.23317e-05
-0.000158961
-1.76354e-05
-0.00015673
-2.28853e-05
-0.000153909
-2.80312e-05
-0.000150507
-3.30211e-05
-0.00014654
-3.78018e-05
-0.000142029
-4.23194e-05
-0.000137001
-4.65204e-05
-0.000131489
-5.03522e-05
-0.000125532
-5.37645e-05
-0.000119173
-5.671e-05
-0.000112464
-5.91455e-05
-0.00010546
-6.10332e-05
-9.82214e-05
-6.23415e-05
-9.0812e-05
-6.30461e-05
-8.32999e-05
-6.31308e-05
-7.57555e-05
-6.25889e-05
-6.82505e-05
-6.14232e-05
-6.0857e-05
-5.9647e-05
-5.36462e-05
-5.72847e-05
-4.66874e-05
-5.43714e-05
-4.00464e-05
-5.09537e-05
-3.37844e-05
-4.70889e-05
-2.79568e-05
-4.28449e-05
-2.26123e-05
-3.83001e-05
-1.77915e-05
-3.35421e-05
-1.35266e-05
-2.86672e-05
-9.8408e-06
-2.37798e-05
-6.74757e-06
-1.89912e-05
-4.25102e-06
-1.44187e-05
-2.34589e-06
-1.01848e-05
-1.01817e-06
-6.41548e-06
-2.45854e-07
-3.23907e-06
-7.89692e-07
-5.17768e-07
3.36823e-06
-1.96566e-06
1.00331e-05
-4.24591e-06
1.64999e-05
-7.26793e-06
2.26753e-05
-1.09479e-05
2.84913e-05
-1.52083e-05
3.38975e-05
-1.99778e-05
3.88587e-05
-2.51903e-05
4.33528e-05
-3.0785e-05
4.73686e-05
-3.67052e-05
5.09032e-05
-4.28984e-05
5.39602e-05
-4.93155e-05
5.65479e-05
-5.59106e-05
5.86774e-05
-6.26402e-05
6.03619e-05
-6.9463e-05
6.16148e-05
-7.63397e-05
6.24495e-05
-8.32323e-05
6.28784e-05
-9.01042e-05
6.29127e-05
-9.69197e-05
6.25619e-05
-0.000103644
6.18342e-05
-0.000110241
6.07361e-05
-0.000116679
5.92732e-05
-0.000122923
5.74499e-05
-0.000128939
5.52704e-05
-0.000134694
5.27389e-05
-0.000140156
4.986e-05
-0.000145291
4.66393e-05
-0.000150067
4.3084e-05
-0.000154454
3.92034e-05
-0.000158419
3.5009e-05
-0.000161934
3.05155e-05
-0.000164969
2.57405e-05
-0.000167498
2.07055e-05
-0.000169496
1.54354e-05
-0.00017094
9.95941e-06
-0.000171809
4.31059e-06
-0.000172085
-1.47382e-06
-0.000171754
-7.35257e-06
-0.000170805
-1.32805e-05
-0.000169231
-1.92089e-05
-0.000167031
-2.50857e-05
-0.000164206
-3.08559e-05
-0.000160765
-3.64624e-05
-0.00015672
-4.18462e-05
-0.000152092
-4.69475e-05
-0.000146906
-5.17067e-05
-0.000141193
-5.60649e-05
-0.000134993
-5.99652e-05
-0.000128349
-6.3354e-05
-0.000121312
-6.61819e-05
-0.00011394
-6.8405e-05
-0.000106296
-6.99863e-05
-9.84451e-05
-7.08966e-05
-9.04604e-05
-7.11155e-05
-8.24162e-05
-7.06331e-05
-7.43892e-05
-6.94501e-05
-6.64574e-05
-6.75788e-05
-5.86982e-05
-6.50439e-05
-5.11875e-05
-6.18822e-05
-4.39979e-05
-5.81433e-05
-3.71977e-05
-5.3889e-05
-3.08496e-05
-4.9193e-05
-2.50092e-05
-4.41406e-05
-1.97239e-05
-3.88273e-05
-1.50324e-05
-3.33586e-05
-1.09638e-05
-2.78484e-05
-7.53709e-06
-2.24179e-05
-4.76109e-06
-1.71947e-05
-2.6346e-06
-1.23113e-05
-1.14678e-06
-7.9033e-06
-2.77884e-07
-4.10797e-06
-1.06758e-06
-5.52337e-07
3.92057e-06
-2.09457e-06
1.15753e-05
-4.52009e-06
1.89254e-05
-7.73013e-06
2.58853e-05
-1.16334e-05
3.23946e-05
-1.61459e-05
3.84099e-05
-2.11902e-05
4.39031e-05
-2.66956e-05
4.88582e-05
-3.25967e-05
5.32697e-05
-3.88335e-05
5.714e-05
-4.53505e-05
6.04772e-05
-5.20963e-05
6.32937e-05
-5.9023e-05
6.56042e-05
-6.60857e-05
6.74246e-05
-7.3242e-05
6.87711e-05
-8.04516e-05
6.96591e-05
-8.76759e-05
7.01027e-05
-9.48776e-05
7.01144e-05
-0.00010202
6.97049e-05
-0.000109069
6.88829e-05