/*--------------------------------*- C++ -*----------------------------------*\
  =========                 |
  \\      /  F ield         | OpenFOAM: The Open Source CFD Toolbox
   \\    /   O peration     | Website:  https://openfoam.org
    \\  /    A nd           | Version:  dev
     \\/     M anipulation  |
\*---------------------------------------------------------------------------*/
FoamFile
{
    format      ascii;
    class       volVectorField;
    location    "23.4";
    object      U;
}
// * * * * * * * * * * * * * * * * * * * * * * * * * * * * * * * * * * * * * //

dimensions      [0 1 -1 0 0 0 0];

internalField   nonuniform List<vector> 
5184
(
(1.22491e-05 -1.27723e-05 0)
(4.50316e-05 -2.09149e-05 0)
(8.02115e-05 -1.72485e-05 0)
(9.58642e-05 -8.1896e-06 0)
(8.2027e-05 2.67484e-06 0)
(3.63338e-05 1.36184e-05 0)
(-4.06621e-05 2.38412e-05 0)
(-0.000146941 3.30374e-05 0)
(-0.000279711 4.10895e-05 0)
(-0.000435917 4.8003e-05 0)
(-0.000612438 5.38394e-05 0)
(-0.000806245 5.86837e-05 0)
(-0.00101447 6.26282e-05 0)
(-0.00123445 6.57644e-05 0)
(-0.00146372 6.81769e-05 0)
(-0.00170004 6.99408e-05 0)
(-0.00194132 7.11205e-05 0)
(-0.00218566 7.17683e-05 0)
(-0.00243127 7.19252e-05 0)
(-0.00267648 7.16206e-05 0)
(-0.00291966 7.0874e-05 0)
(-0.00315927 6.96957e-05 0)
(-0.00339378 6.80889e-05 0)
(-0.00362166 6.60505e-05 0)
(-0.00384138 6.35732e-05 0)
(-0.00405142 6.06473e-05 0)
(-0.00425021 5.72624e-05 0)
(-0.00443618 5.3409e-05 0)
(-0.00460776 4.90799e-05 0)
(-0.00476336 4.42721e-05 0)
(-0.00490143 3.89881e-05 0)
(-0.00502045 3.32373e-05 0)
(-0.00511896 2.70366e-05 0)
(-0.00519557 2.04122e-05 0)
(-0.00524904 1.33995e-05 0)
(-0.00527824 6.04427e-06 0)
(-0.00528224 -1.59734e-06 0)
(-0.0052603 -9.45896e-06 0)
(-0.00521193 -1.74642e-05 0)
(-0.00513689 -2.55273e-05 0)
(-0.00503526 -3.35539e-05 0)
(-0.00490739 -4.14425e-05 0)
(-0.00475401 -4.9086e-05 0)
(-0.00457615 -5.63735e-05 0)
(-0.00437523 -6.31926e-05 0)
(-0.004153 -6.94314e-05 0)
(-0.00391154 -7.49813e-05 0)
(-0.00365329 -7.97392e-05 0)
(-0.00338096 -8.36106e-05 0)
(-0.00309757 -8.65119e-05 0)
(-0.00280633 -8.83725e-05 0)
(-0.00251069 -8.91373e-05 0)
(-0.00221421 -8.8768e-05 0)
(-0.00192053 -8.72448e-05 0)
(-0.00163333 -8.45672e-05 0)
(-0.00135625 -8.07547e-05 0)
(-0.00109282 -7.58464e-05 0)
(-0.000846415 -6.99011e-05 0)
(-0.000620175 -6.29962e-05 0)
(-0.000416952 -5.52278e-05 0)
(-0.000239243 -4.67097e-05 0)
(-8.9125e-05 -3.75747e-05 0)
(3.18133e-05 -2.79775e-05 0)
(0.000122557 -1.81003e-05 0)
(0.000182774 -8.16877e-06 0)
(0.000212964 1.52194e-06 0)
(0.000214712 1.05494e-05 0)
(0.000191064 1.82772e-05 0)
(0.000147045 2.36943e-05 0)
(9.07414e-05 2.51101e-05 0)
(3.66115e-05 1.98393e-05 0)
(6.22628e-06 6.24389e-06 0)
(2.07884e-05 -4.59586e-05 0)
(6.54872e-05 -6.57255e-05 0)
(9.45433e-05 -4.05375e-05 0)
(7.26175e-05 7.65572e-06 0)
(-1.91166e-05 6.56814e-05 0)
(-0.000187463 0.000125963 0)
(-0.000432998 0.000184233 0)
(-0.000752504 0.000238243 0)
(-0.00114044 0.000286859 0)
(-0.00159002 0.000329639 0)
(-0.00209392 0.000366542 0)
(-0.00264467 0.000397759 0)
(-0.00323498 0.000423602 0)
(-0.00385786 0.000444437 0)
(-0.00450671 0.00046064 0)
(-0.00517533 0.000472571 0)
(-0.00585794 0.000480552 0)
(-0.00654908 0.000484858 0)
(-0.00724362 0.000485712 0)
(-0.0079367 0.000483286 0)
(-0.0086236 0.000477701 0)
(-0.00929978 0.000469034 0)
(-0.00996076 0.000457324 0)
(-0.0106021 0.000442578 0)
(-0.0112195 0.000424787 0)
(-0.0118084 0.000403926 0)
(-0.0123646 0.000379971 0)
(-0.0128834 0.000352905 0)
(-0.0133607 0.000322729 0)
(-0.013792 0.00028947 0)
(-0.0141732 0.000253188 0)
(-0.0145 0.000213986 0)
(-0.0147686 0.000172013 0)
(-0.0149755 0.000127472 0)
(-0.0151173 8.06225e-05 0)
(-0.0151911 3.17833e-05 0)
(-0.0151947 -1.86673e-05 0)
(-0.0151262 -7.02914e-05 0)
(-0.0149846 -0.000122595 0)
(-0.0147694 -0.00017503 0)
(-0.014481 -0.000227004 0)
(-0.0141207 -0.000277885 0)
(-0.0136905 -0.000327012 0)
(-0.0131936 -0.000373707 0)
(-0.0126338 -0.000417287 0)
(-0.012016 -0.000457076 0)
(-0.011346 -0.000492421 0)
(-0.0106303 -0.00052271 0)
(-0.00987644 -0.000547381 0)
(-0.00909238 -0.00056594 0)
(-0.00828686 -0.000577974 0)
(-0.00746905 -0.000583165 0)
(-0.00664847 -0.000581295 0)
(-0.00583486 -0.000572262 0)
(-0.00503799 -0.000556082 0)
(-0.00426752 -0.000532892 0)
(-0.00353283 -0.000502957 0)
(-0.00284284 -0.000466664 0)
(-0.00220582 -0.000424529 0)
(-0.00162924 -0.00037719 0)
(-0.00111958 -0.000325416 0)
(-0.000682144 -0.00027011 0)
(-0.000320836 -0.000212333 0)
(-3.79455e-05 -0.000153335 0)
(0.000166157 -9.46253e-05 0)
(0.00029339 -3.80838e-05 0)
(0.000348497 1.38345e-05 0)
(0.000339738 5.78256e-05 0)
(0.000279593 8.93011e-05 0)
(0.0001859 0.000101769 0)
(8.63077e-05 8.64622e-05 0)
(1.9668e-05 3.64737e-05 0)
(1.76004e-05 -8.12924e-05 0)
(4.12282e-05 -9.49732e-05 0)
(1.94508e-05 -1.90711e-05 0)
(-8.41548e-05 0.000105954 0)
(-0.000290362 0.000254607 0)
(-0.000607908 0.000410456 0)
(-0.00103805 0.000563199 0)
(-0.00157697 0.000706704 0)
(-0.00221751 0.000837529 0)
(-0.00295049 0.000953968 0)
(-0.00376563 0.00105543 0)
(-0.00465223 0.001142 0)
(-0.00559957 0.0012142 0)
(-0.0065972 0.00127276 0)
(-0.00763507 0.00131849 0)
(-0.00870362 0.00135223 0)
(-0.00979378 0.00137472 0)
(-0.0108969 0.00138666 0)
(-0.0120049 0.00138861 0)
(-0.0131099 0.001381 0)
(-0.0142042 0.00136417 0)
(-0.0152806 0.00133833 0)
(-0.0163317 0.00130362 0)
(-0.0173506 0.00126011 0)
(-0.01833 0.00120779 0)
(-0.019263 0.00114667 0)
(-0.0201425 0.00107673 0)
(-0.0209616 0.000997977 0)
(-0.0217134 0.00091049 0)
(-0.0223912 0.000814401 0)
(-0.0229883 0.000709943 0)
(-0.0234985 0.00059746 0)
(-0.0239159 0.000477425 0)
(-0.024235 0.000350451 0)
(-0.0244509 0.000217306 0)
(-0.0245594 7.89096e-05 0)
(-0.0245571 -6.36579e-05 0)
(-0.0244415 -0.000209162 0)
(-0.0242111 -0.000356222 0)
(-0.0238655 -0.000503321 0)
(-0.0234056 -0.000648824 0)
(-0.0228335 -0.000791002 0)
(-0.0221527 -0.000928052 0)
(-0.0213681 -0.00105813 0)
(-0.0204858 -0.0011794 0)
(-0.0195135 -0.00129002 0)
(-0.0184601 -0.00138826 0)
(-0.0173358 -0.00147247 0)
(-0.016152 -0.00154114 0)
(-0.0149211 -0.00159296 0)
(-0.0136565 -0.00162684 0)
(-0.0123721 -0.00164193 0)
(-0.0110824 -0.00163768 0)
(-0.00980235 -0.00161382 0)
(-0.00854677 -0.00157042 0)
(-0.00733036 -0.00150789 0)
(-0.00616737 -0.00142697 0)
(-0.0050713 -0.00132876 0)
(-0.00405471 -0.0012147 0)
(-0.00312886 -0.0010866 0)
(-0.00230347 -0.000946631 0)
(-0.00158646 -0.00079736 0)
(-0.000983542 -0.00064179 0)
(-0.000497963 -0.00048345 0)
(-0.000130039 -0.000326535 0)
(0.000123298 -0.000176129 0)
(0.000269132 -3.85458e-05 0)
(0.000319298 7.82029e-05 0)
(0.000290914 0.000163826 0)
(0.00020719 0.000205166 0)
(0.000102364 0.00018612 0)
(2.49581e-05 9.0336e-05 0)
(8.81727e-06 -9.76669e-05 0)
(-7.0747e-06 -7.30262e-05 0)
(-0.00010766 8.48649e-05 0)
(-0.000322398 0.000318341 0)
(-0.000669516 0.000589927 0)
(-0.00115741 0.000874017 0)
(-0.00178682 0.00115359 0)
(-0.00255299 0.00141788 0)
(-0.00344736 0.00166041 0)
(-0.00445893 0.00187766 0)
(-0.00557521 0.00206806 0)
(-0.006783 0.00223138 0)
(-0.00806892 0.00236816 0)
(-0.0094197 0.00247945 0)
(-0.0108225 0.00256652 0)
(-0.0122648 0.0026307 0)
(-0.0137347 0.00267326 0)
(-0.015221 0.00269537 0)
(-0.0167125 0.00269799 0)
(-0.0181989 0.00268192 0)
(-0.0196698 0.00264777 0)
(-0.0211153 0.00259594 0)
(-0.0225257 0.00252671 0)
(-0.0238913 0.00244025 0)
(-0.0252026 0.00233663 0)
(-0.0264501 0.0022159 0)
(-0.0276245 0.00207811 0)
(-0.0287166 0.00192336 0)
(-0.0297171 0.00175188 0)
(-0.0306173 0.00156401 0)
(-0.0314085 0.00136027 0)
(-0.0320826 0.00114139 0)
(-0.032632 0.000908356 0)
(-0.0330496 0.000662399 0)
(-0.0333293 0.000405033 0)
(-0.0334657 0.000138056 0)
(-0.0334547 -0.000136444 0)
(-0.0332932 -0.000416099 0)
(-0.0329796 -0.000698277 0)
(-0.0325135 -0.000980102 0)
(-0.0318965 -0.00125849 0)
(-0.0311315 -0.00153019 0)
(-0.0302232 -0.00179183 0)
(-0.0291781 -0.00203996 0)
(-0.0280045 -0.00227114 0)
(-0.0267124 -0.00248199 0)
(-0.0253135 -0.00266926 0)
(-0.0238211 -0.00282991 0)
(-0.02225 -0.00296116 0)
(-0.0206163 -0.00306058 0)
(-0.0189372 -0.00312616 0)
(-0.0172308 -0.00315635 0)
(-0.015516 -0.00315013 0)
(-0.0138118 -0.00310706 0)
(-0.0121375 -0.00302727 0)
(-0.0105119 -0.00291156 0)
(-0.00895354 -0.00276135 0)
(-0.00747968 -0.00257874 0)
(-0.00610652 -0.00236648 0)
(-0.00484853 -0.00212803 0)
(-0.00371822 -0.00186752 0)
(-0.00272567 -0.00158985 0)
(-0.00187823 -0.00130074 0)
(-0.00118003 -0.00100685 0)
(-0.000631543 -0.000715983 0)
(-0.00022907 -0.00043741 0)
(3.58503e-05 -0.00018227 0)
(0.000177099 3.5838e-05 0)
(0.000214387 0.000200204 0)
(0.000173859 0.000290444 0)
(9.2928e-05 0.000282277 0)
(2.40063e-05 0.00014717 0)
(-2.13665e-06 -8.4302e-05 0)
(-6.73114e-05 2.1033e-05 0)
(-0.000264088 0.000295492 0)
(-0.000609624 0.000667885 0)
(-0.0011164 0.00109044 0)
(-0.00179062 0.00152926 0)
(-0.00263128 0.00196094 0)
(-0.00363202 0.00237 0)
(-0.0047827 0.00274674 0)
(-0.00607064 0.00308552 0)
(-0.00748147 0.00338358 0)
(-0.00899996 0.0036401 0)
(-0.0106105 0.00385554 0)
(-0.0122976 0.00403114 0)
(-0.014046 0.00416855 0)
(-0.0158408 0.00426961 0)
(-0.0176676 0.00433609 0)
(-0.0195127 0.00436965 0)
(-0.0213627 0.00437171 0)
(-0.0232046 0.00434344 0)
(-0.0250259 0.00428575 0)
(-0.0268142 0.0041993 0)
(-0.0285576 0.00408454 0)
(-0.0302439 0.00394179 0)
(-0.0318616 0.00377122 0)
(-0.0333989 0.00357299 0)
(-0.0348444 0.00334729 0)
(-0.0361868 0.0030944 0)
(-0.0374149 0.00281475 0)
(-0.0385181 0.00250902 0)
(-0.039486 0.00217814 0)
(-0.0403089 0.00182339 0)
(-0.0409776 0.00144642 0)
(-0.0414838 0.00104927 0)
(-0.0418202 0.000634427 0)
(-0.0419808 0.000204803 0)
(-0.0419605 -0.000236243 0)
(-0.0417561 -0.000684927 0)
(-0.0413658 -0.00113706 0)
(-0.0407895 -0.0015881 0)
(-0.0400292 -0.00203318 0)
(-0.0390886 -0.00246718 0)
(-0.0379737 -0.00288482 0)
(-0.0366922 -0.00328072 0)
(-0.0352544 -0.00364949 0)
(-0.0336722 -0.00398587 0)
(-0.0319598 -0.00428481 0)
(-0.0301331 -0.00454157 0)
(-0.0282099 -0.00475184 0)
(-0.0262093 -0.00491186 0)
(-0.024152 -0.00501851 0)
(-0.0220596 -0.00506941 0)
(-0.0199544 -0.00506297 0)
(-0.0178594 -0.00499852 0)
(-0.0157973 -0.00487631 0)
(-0.0137908 -0.00469761 0)
(-0.0118618 -0.00446467 0)
(-0.010031 -0.00418082 0)
(-0.00831776 -0.00385044 0)
(-0.00673933 -0.00347897 0)
(-0.00531067 -0.00307299 0)
(-0.0040439 -0.00264023 0)
(-0.00294791 -0.00218967 0)
(-0.00202782 -0.00173171 0)
(-0.00128459 -0.0012784 0)
(-0.000714468 -0.000843777 0)
(-0.00030847 -0.000444318 0)
(-5.18434e-05 -9.95701e-05 0)
(7.62706e-05 0.000167142 0)
(0.000103356 0.000328099 0)
(6.74037e-05 0.000350578 0)
(1.9644e-05 0.000193965 0)
(-1.36976e-05 -3.74133e-05 0)
(-0.000132807 0.000197467 0)
(-0.000435685 0.000626829 0)
(-0.000924279 0.00116999 0)
(-0.00160321 0.00177102 0)
(-0.00247502 0.00238911 0)
(-0.00353588 0.00299521 0)
(-0.0047771 0.00356955 0)
(-0.00618658 0.0040993 0)
(-0.00774981 0.00457668 0)
(-0.00945068 0.00499764 0)
(-0.0112721 0.00536068 0)
(-0.0131967 0.00566605 0)
(-0.0152068 0.00591511 0)
(-0.0172852 0.00610984 0)
(-0.0194151 0.00625251 0)
(-0.0215799 0.00634539 0)
(-0.0237638 0.00639062 0)
(-0.0259512 0.00639007 0)
(-0.028127 0.0063453 0)
(-0.0302766 0.00625754 0)
(-0.0323856 0.00612773 0)
(-0.0344397 0.00595654 0)
(-0.036425 0.00574444 0)
(-0.0383278 0.00549178 0)
(-0.0401345 0.00519889 0)
(-0.0418316 0.00486615 0)
(-0.0434061 0.00449407 0)
(-0.044845 0.00408343 0)
(-0.0461361 0.00363532 0)
(-0.0472674 0.00315123 0)
(-0.0482277 0.0026331 0)
(-0.0490068 0.00208342 0)
(-0.049595 0.00150523 0)
(-0.0499844 0.000902169 0)
(-0.0501679 0.000278492 0)
(-0.0501402 -0.000360943 0)
(-0.0498976 -0.00101069 0)
(-0.0494383 -0.00166474 0)
(-0.0487624 -0.00231661 0)
(-0.0478723 -0.00295936 0)
(-0.0467725 -0.00358573 0)
(-0.0454699 -0.00418824 0)
(-0.0439735 -0.00475926 0)
(-0.0422951 -0.00529122 0)
(-0.0404484 -0.00577667 0)
(-0.0384495 -0.00620848 0)
(-0.0363167 -0.00658 0)
(-0.0340703 -0.00688515 0)
(-0.0317321 -0.00711865 0)
(-0.0293256 -0.0072761 0)
(-0.0268754 -0.00735414 0)
(-0.0244071 -0.00735056 0)
(-0.0219467 -0.00726441 0)
(-0.0195203 -0.00709606 0)
(-0.0171537 -0.00684731 0)
(-0.0148719 -0.00652137 0)
(-0.0126988 -0.00612298 0)
(-0.0106563 -0.00565836 0)
(-0.00876453 -0.00513527 0)
(-0.00704058 -0.00456306 0)
(-0.00549861 -0.0039527 0)
(-0.00414908 -0.00331687 0)
(-0.00299835 -0.00267016 0)
(-0.00204821 -0.00202928 0)
(-0.0012954 -0.00141343 0)
(-0.000731141 -0.000844708 0)
(-0.000340738 -0.000348793 0)
(-0.000103246 4.43586e-05 0)
(8.94389e-06 0.000299823 0)
(3.24026e-05 0.000376807 0)
(1.36007e-05 0.000224289 0)
(-2.51804e-05 4.41928e-05 0)
(-0.000199935 0.000461276 0)
(-0.000613804 0.00108678 0)
(-0.0012523 0.00183402 0)
(-0.00211094 0.00264118 0)
(-0.00318758 0.00346205 0)
(-0.00447465 0.00426303 0)
(-0.00596043 0.00502068 0)
(-0.00763044 0.00571942 0)
(-0.00946814 0.00634956 0)
(-0.0114556 0.00690579 0)
(-0.0135739 0.00738595 0)
(-0.0158039 0.00779005 0)
(-0.0181264 0.00811953 0)
(-0.0205224 0.00837664 0)
(-0.0229731 0.00856406 0)
(-0.0254603 0.00868452 0)
(-0.0279661 0.00874062 0)
(-0.0304734 0.00873467 0)
(-0.032965 0.00866861 0)
(-0.0354245 0.00854401 0)
(-0.0378356 0.0083621 0)
(-0.0401822 0.00812376 0)
(-0.0424486 0.0078297 0)
(-0.0446192 0.00748046 0)
(-0.0466786 0.00707658 0)
(-0.0486118 0.0066187 0)
(-0.050404 0.00610767 0)
(-0.0520409 0.00554467 0)
(-0.0535085 0.00493131 0)
(-0.0547936 0.00426974 0)
(-0.0558838 0.00356273 0)
(-0.0567677 0.00281373 0)
(-0.0574347 0.00202694 0)
(-0.0578759 0.00120734 0)
(-0.0580838 0.000360708 0)
(-0.0580525 -0.0005064 0)
(-0.0577781 -0.00138666 0)
(-0.0572586 -0.00227202 0)
(-0.0564943 -0.00315382 0)
(-0.0554879 -0.00402282 0)
(-0.0542446 -0.00486938 0)
(-0.0527718 -0.00568354 0)
(-0.05108 -0.00645522 0)
(-0.0491818 -0.00717437 0)
(-0.0470926 -0.00783114 0)
(-0.0448302 -0.00841612 0)
(-0.0424149 -0.00892048 0)
(-0.0398689 -0.0093362 0)
(-0.0372166 -0.00965628 0)
(-0.0344838 -0.0098749 0)
(-0.0316978 -0.00998758 0)
(-0.028887 -0.0099914 0)
(-0.0260802 -0.00988506 0)
(-0.0233064 -0.00966906 0)
(-0.0205942 -0.00934573 0)
(-0.0179717 -0.00891936 0)
(-0.0154654 -0.00839618 0)
(-0.0131 -0.00778447 0)
(-0.010898 -0.00709453 0)
(-0.00887879 -0.00633873 0)
(-0.00705861 -0.00553157 0)
(-0.00544966 -0.00468978 0)
(-0.0040598 -0.00383244 0)
(-0.00289202 -0.00298124 0)
(-0.00194406 -0.00216074 0)
(-0.00120797 -0.00139886 0)
(-0.000669832 -0.000727432 0)
(-0.000309455 -0.000182926 0)
(-0.000100028 0.000192874 0)
(-7.79352e-06 0.00035187 0)
(6.84281e-06 0.000234713 0)
(-3.63254e-05 0.000160511 0)
(-0.000266809 0.000814324 0)
(-0.000793327 0.00167913 0)
(-0.00158475 0.002665 0)
(-0.00262693 0.0037063 0)
(-0.00391229 0.00475302 0)
(-0.00542889 0.00576816 0)
(-0.00716143 0.00672546 0)
(-0.00909261 0.00760714 0)
(-0.0112036 0.00840194 0)
(-0.0134744 0.00910352 0)
(-0.0158844 0.00970917 0)
(-0.0184129 0.0102187 0)
(-0.0210389 0.0106337 0)
(-0.0237419 0.0109566 0)
(-0.0265016 0.0111905 0)
(-0.0292981 0.0113386 0)
(-0.0321121 0.0114038 0)
(-0.0349246 0.011389 0)
(-0.037717 0.0112965 0)
(-0.0404711 0.0111282 0)
(-0.043169 0.0108855 0)
(-0.0457931 0.0105696 0)
(-0.048326 0.0101815 0)
(-0.0507504 0.0097219 0)
(-0.0530496 0.00919165 0)
(-0.0552069 0.00859168 0)
(-0.0572061 0.00792324 0)
(-0.0590314 0.007188 0)
(-0.0606677 0.00638819 0)
(-0.0621006 0.00552672 0)
(-0.0633163 0.00460727 0)
(-0.0643026 0.00363442 0)
(-0.065048 0.00261365 0)
(-0.0655428 0.00155143 0)
(-0.0657789 0.000455214 0)
(-0.0657499 -0.000666566 0)
(-0.0654516 -0.00180453 0)
(-0.0648818 -0.0029484 0)
(-0.064041 -0.00408714 0)
(-0.062932 -0.00520902 0)
(-0.0615603 -0.00630178 0)
(-0.0599341 -0.00735281 0)
(-0.0580645 -0.00834933 0)
(-0.0559653 -0.00927862 0)
(-0.053653 -0.0101282 0)
(-0.0511468 -0.0108862 0)
(-0.0484686 -0.0115414 0)
(-0.0456425 -0.0120836 0)
(-0.0426948 -0.0125039 0)
(-0.0396536 -0.012795 0)
(-0.0365486 -0.012951 0)
(-0.0334104 -0.0129684 0)
(-0.0302706 -0.0128452 0)
(-0.0271608 -0.0125821 0)
(-0.0241125 -0.0121821 0)
(-0.0211563 -0.0116503 0)
(-0.0183214 -0.0109948 0)
(-0.0156352 -0.0102259 0)
(-0.0131227 -0.00935657 0)
(-0.0108057 -0.00840247 0)
(-0.00870246 -0.00738184 0)
(-0.00682729 -0.00631567 0)
(-0.0051898 -0.00522776 0)
(-0.00379458 -0.00414497 0)
(-0.0026408 -0.0030974 0)
(-0.00172189 -0.00211883 0)
(-0.0010253 -0.00124722 0)
(-0.000532219 -0.000525326 0)
(-0.000217323 -1.34686e-06 0)
(-5.05191e-05 0.000270205 0)
(-9.8844e-08 0.000223532 0)
(-4.70361e-05 0.000310905 0)
(-0.000332448 0.00125652 0)
(-0.000971258 0.00240482 0)
(-0.00191603 0.00366478 0)
(-0.00314277 0.00496868 0)
(-0.00463811 0.00626425 0)
(-0.00638526 0.00751224 0)
(-0.00836493 0.00868449 0)
(-0.0105567 0.00976168 0)
(-0.012939 0.0107314 0)
(-0.0154899 0.0115868 0)
(-0.0181869 0.0123246 0)
(-0.0210075 0.0129446 0)
(-0.0239294 0.0134486 0)
(-0.0269304 0.0138394 0)
(-0.029989 0.0141204 0)
(-0.0330839 0.0142951 0)
(-0.0361943 0.0143672 0)
(-0.0392999 0.0143397 0)
(-0.0423806 0.0142152 0)
(-0.0454167 0.0139962 0)
(-0.0483891 0.0136842 0)
(-0.0512785 0.0132808 0)
(-0.0540663 0.0127871 0)
(-0.0567338 0.0122042 0)
(-0.0592628 0.0115332 0)
(-0.0616353 0.0107753 0)
(-0.0638339 0.00993233 0)
(-0.0658415 0.00900644 0)
(-0.0676418 0.00800057 0)
(-0.0692192 0.00691848 0)
(-0.0705592 0.00576488 0)
(-0.0716483 0.00454554 0)
(-0.0724744 0.00326735 0)
(-0.073027 0.00193839 0)
(-0.0732973 0.000567916 0)
(-0.0732784 -0.000833615 0)
(-0.0729657 -0.00225462 0)
(-0.072357 -0.00368246 0)
(-0.0714523 -0.00510354 0)
(-0.0702546 -0.00650347 0)
(-0.0687697 -0.00786721 0)
(-0.0670062 -0.0091793 0)
(-0.0649755 -0.0104241 0)
(-0.0626923 -0.011586 0)
(-0.0601741 -0.0126497 0)
(-0.0574413 -0.0136005 0)
(-0.0545169 -0.0144249 0)
(-0.0514266 -0.0151101 0)
(-0.0481986 -0.0156453 0)
(-0.0448628 -0.0160213 0)
(-0.0414509 -0.016231 0)
(-0.0379961 -0.0162695 0)
(-0.0345322 -0.0161348 0)
(-0.0310934 -0.0158273 0)
(-0.0277138 -0.0153504 0)
(-0.0244267 -0.0147106 0)
(-0.0212639 -0.0139174 0)
(-0.0182557 -0.0129833 0)
(-0.0154295 -0.0119242 0)
(-0.0128096 -0.010759 0)
(-0.0104168 -0.00950996 0)
(-0.00826762 -0.00820243 0)
(-0.00637371 -0.00686512 0)
(-0.00474166 -0.00553017 0)
(-0.00337253 -0.00423334 0)
(-0.00226154 -0.00301428 0)
(-0.001398 -0.00191698 0)
(-0.000764972 -0.000990297 0)
(-0.000339042 -0.000288355 0)
(-9.42167e-05 0.000128708 0)
(-6.9543e-06 0.000190098 0)
(-5.73013e-05 0.000494471 0)
(-0.000396369 0.00178662 0)
(-0.00114586 0.00326298 0)
(-0.00224262 0.00483296 0)
(-0.0036529 0.00642831 0)
(-0.0053574 0.00799576 0)
(-0.00733419 0.00949502 0)
(-0.00955972 0.0108969 0)
(-0.0120101 0.0121813 0)
(-0.0146611 0.0133352 0)
(-0.0174883 0.0143515 0)
(-0.0204674 0.0152268 0)
(-0.0235743 0.0159613 0)
(-0.0267851 0.0165567 0)
(-0.0300764 0.0170163 0)
(-0.0334253 0.0173441 0)
(-0.0368091 0.0175439 0)
(-0.040206 0.0176198 0)
(-0.0435944 0.0175753 0)
(-0.0469529 0.0174134 0)
(-0.0502608 0.0171368 0)
(-0.0534976 0.0167473 0)
(-0.0566428 0.0162469 0)
(-0.0596764 0.0156368 0)
(-0.0625788 0.0149185 0)
(-0.0653303 0.0140932 0)
(-0.067912 0.0131629 0)
(-0.0703052 0.0121295 0)
(-0.0724917 0.010996 0)
(-0.0744541 0.00976606 0)
(-0.0761758 0.00844428 0)
(-0.0776414 0.00703651 0)
(-0.0788365 0.00554979 0)
(-0.079748 0.0039925 0)
(-0.0803649 0.00237443 0)
(-0.0806774 0.000706748 0)
(-0.0806784 -0.000997983 0)
(-0.0803625 -0.00272586 0)
(-0.0797271 -0.00446174 0)
(-0.0787722 -0.00618935 0)
(-0.0775005 -0.00789149 0)
(-0.0759176 -0.00955018 0)
(-0.0740325 -0.011147 0)
(-0.0718568 -0.0126631 0)
(-0.0694058 -0.01408 0)
(-0.0666974 -0.0153793 0)
(-0.063753 -0.0165435 0)
(-0.0605968 -0.0175561 0)
(-0.0572557 -0.0184019 0)
(-0.0537593 -0.0190679 0)
(-0.0501394 -0.0195427 0)
(-0.0464296 -0.0198178 0)
(-0.0426651 -0.0198872 0)
(-0.0388823 -0.019748 0)
(-0.0351176 -0.0194007 0)
(-0.0314079 -0.018849 0)
(-0.0277891 -0.0181003 0)
(-0.024296 -0.0171658 0)
(-0.0209614 -0.0160604 0)
(-0.0178155 -0.0148027 0)
(-0.0148857 -0.0134151 0)
(-0.0121951 -0.0119238 0)
(-0.00976288 -0.0103588 0)
(-0.00760319 -0.00875367 0)
(-0.00572494 -0.00714607 0)
(-0.00413143 -0.00557742 0)
(-0.0028201 -0.0040933 0)
(-0.00178249 -0.00274366 0)
(-0.00100385 -0.00158321 0)
(-0.000462971 -0.00067169 0)
(-0.00013807 -7.42327e-05 0)
(-1.3608e-05 0.000134331 0)
(-6.71389e-05 0.000710176 0)
(-0.000458349 0.00240272 0)
(-0.00131614 0.00425151 0)
(-0.0025623 0.00616759 0)
(-0.00415362 0.00808338 0)
(-0.00606482 0.00994582 0)
(-0.00826876 0.0117146 0)
(-0.0107374 0.0133604 0)
(-0.0134433 0.0148631 0)
(-0.0163593 0.0162097 0)
(-0.0194586 0.0173932 0)
(-0.0227148 0.0184107 0)
(-0.0261022 0.0192624 0)
(-0.0295954 0.0199508 0)
(-0.0331697 0.0204796 0)
(-0.0368009 0.0208531 0)
(-0.0404655 0.021076 0)
(-0.0441404 0.0211525 0)
(-0.0478028 0.0210866 0)
(-0.0514306 0.0208818 0)
(-0.0550018 0.0205408 0)
(-0.0584948 0.0200662 0)
(-0.0618883 0.0194597 0)
(-0.0651611 0.0187232 0)
(-0.0682924 0.0178582 0)
(-0.0712618 0.0168665 0)
(-0.074049 0.0157502 0)
(-0.0766343 0.0145121 0)
(-0.0789988 0.0131555 0)
(-0.0811239 0.0116849 0)
(-0.0829922 0.010106 0)
(-0.0845871 0.00842563 0)
(-0.0858935 0.0066523 0)
(-0.0868976 0.00479588 0)
(-0.0875872 0.00286791 0)
(-0.0879521 0.00088156 0)
(-0.0879843 -0.00114843 0)
(-0.0876779 -0.00320574 0)
(-0.0870297 -0.00527264 0)
(-0.0860391 -0.00733007 0)
(-0.0847086 -0.0093579 0)
(-0.0830436 -0.0113351 0)
(-0.0810528 -0.01324 0)
(-0.0787479 -0.0150508 0)
(-0.0761444 -0.0167454 0)
(-0.0732606 -0.0183024 0)
(-0.0701186 -0.0197012 0)
(-0.0667432 -0.0209222 0)
(-0.0631627 -0.0219476 0)
(-0.0594077 -0.0227617 0)
(-0.0555116 -0.0233511 0)
(-0.05151 -0.0237053 0)
(-0.0474401 -0.023817 0)
(-0.0433403 -0.0236824 0)
(-0.03925 -0.0233018 0)
(-0.0352082 -0.0226791 0)
(-0.0312541 -0.0218226 0)
(-0.0274251 -0.0207452 0)
(-0.0237571 -0.0194638 0)
(-0.0202835 -0.0179999 0)
(-0.0170344 -0.0163795 0)
(-0.0140361 -0.0146327 0)
(-0.0113107 -0.0127943 0)
(-0.00887501 -0.010903 0)
(-0.00674076 -0.00900185 0)
(-0.00491385 -0.00713808 0)
(-0.00339427 -0.00536319 0)
(-0.00217608 -0.0037331 0)
(-0.001247 -0.00230827 0)
(-0.000588102 -0.00115379 0)
(-0.000181754 -0.000339453 0)
(-2.00337e-05 5.63982e-05 0)
(-7.65731e-05 0.000956942 0)
(-0.000518283 0.00310252 0)
(-0.0014815 0.00536754 0)
(-0.00287364 0.00766557 0)
(-0.00464239 0.00993074 0)
(-0.00675659 0.0121112 0)
(-0.00918387 0.0141676 0)
(-0.0118917 0.0160714 0)
(-0.0148489 0.0178032 0)
(-0.0180253 0.0193505 0)
(-0.0213917 0.020707 0)
(-0.0249195 0.0218705 0)
(-0.0285814 0.0228418 0)
(-0.0323505 0.0236242 0)
(-0.036201 0.0242219 0)
(-0.0401075 0.0246399 0)
(-0.0440454 0.0248834 0)
(-0.0479907 0.0249572 0)
(-0.0519197 0.0248656 0)
(-0.0558095 0.0246125 0)
(-0.059637 0.024201 0)
(-0.0633799 0.0236339 0)
(-0.0670158 0.0229132 0)
(-0.0705229 0.022041 0)
(-0.0738792 0.0210192 0)
(-0.0770635 0.0198499 0)
(-0.0800547 0.0185355 0)
(-0.0828321 0.0170795 0)
(-0.0853757 0.0154857 0)
(-0.0876663 0.0137596 0)
(-0.0896854 0.0119076 0)
(-0.0914156 0.00993797 0)
(-0.0928409 0.00786036 0)
(-0.0939464 0.00568631 0)
(-0.0947193 0.00342913 0)
(-0.0951485 0.001104 0)
(-0.095225 -0.00127207 0)
(-0.0949423 -0.00368032 0)
(-0.0942964 -0.00610036 0)
(-0.093286 -0.00851026 0)
(-0.0919129 -0.0108869 0)
(-0.0901821 -0.0132059 0)
(-0.0881018 -0.0154426 0)
(-0.0856837 -0.0175715 0)
(-0.082943 -0.0195672 0)
(-0.0798982 -0.0214051 0)
(-0.0765716 -0.0230609 0)
(-0.0729889 -0.024512 0)
(-0.0691788 -0.0257376 0)
(-0.0651735 -0.026719 0)
(-0.0610075 -0.0274404 0)
(-0.0567181 -0.0278894 0)
(-0.0523447 -0.028057 0)
(-0.0479278 -0.0279383 0)
(-0.0435093 -0.0275329 0)
(-0.0391312 -0.0268449 0)
(-0.0348354 -0.0258836 0)
(-0.0306627 -0.0246629 0)
(-0.0266521 -0.0232021 0)
(-0.0228403 -0.0215255 0)
(-0.0192608 -0.0196625 0)
(-0.0159433 -0.0176475 0)
(-0.012913 -0.0155199 0)
(-0.01019 -0.0133235 0)
(-0.00778924 -0.0111071 0)
(-0.00571943 -0.00892382 0)
(-0.00398349 -0.00683108 0)
(-0.00257826 -0.00489079 0)
(-0.00149404 -0.00316919 0)
(-0.000714278 -0.00173666 0)
(-0.000225269 -0.000667516 0)
(-2.62579e-05 -4.3482e-05 0)
(-8.56251e-05 0.00123368 0)
(-0.000576122 0.00388348 0)
(-0.00164155 0.00660764 0)
(-0.00317566 0.00932299 0)
(-0.00511738 0.0119662 0)
(-0.00742987 0.0144877 0)
(-0.0100756 0.0168497 0)
(-0.0130176 0.0190254 0)
(-0.0162209 0.0209967 0)
(-0.0196523 0.0227524 0)
(-0.0232799 0.0242874 0)
(-0.0270734 0.0256004 0)
(-0.0310035 0.0266934 0)
(-0.0350421 0.0275704 0)
(-0.039162 0.0282365 0)
(-0.0433368 0.0286975 0)
(-0.0475411 0.0289592 0)
(-0.05175 0.0290268 0)
(-0.0559391 0.0289054 0)
(-0.0600845 0.0285991 0)
(-0.0641626 0.0281113 0)
(-0.0681502 0.027445 0)
(-0.0720243 0.0266027 0)
(-0.0757621 0.0255866 0)
(-0.0793411 0.0243989 0)
(-0.0827392 0.023042 0)
(-0.0859345 0.0215189 0)
(-0.0889055 0.0198332 0)
(-0.0916314 0.0179898 0)
(-0.0940921 0.0159947 0)
(-0.0962682 0.0138554 0)
(-0.0981415 0.0115812 0)
(-0.0996949 0.00918321 0)
(-0.100913 0.00667449 0)
(-0.101781 0.00407016 0)
(-0.102288 0.00138743 0)
(-0.102424 -0.00135446 0)
(-0.10218 -0.00413426 0)
(-0.101553 -0.00692884 0)
(-0.10054 -0.0097134 0)
(-0.0991415 -0.0124616 0)
(-0.0973622 -0.0151461 0)
(-0.0952095 -0.0177383 0)
(-0.0926945 -0.0202095 0)
(-0.089832 -0.0225308 0)
(-0.0866406 -0.0246737 0)
(-0.0831425 -0.0266105 0)
(-0.0793636 -0.028315 0)
(-0.0753334 -0.0297631 0)
(-0.0710849 -0.0309331 0)
(-0.0666541 -0.0318065 0)
(-0.0620797 -0.0323682 0)
(-0.057403 -0.0326074 0)
(-0.052667 -0.0325179 0)
(-0.0479162 -0.0320984 0)
(-0.0431954 -0.031353 0)
(-0.0385497 -0.0302913 0)
(-0.0340232 -0.0289286 0)
(-0.0296587 -0.0272862 0)
(-0.0254964 -0.0253912 0)
(-0.0215735 -0.0232765 0)
(-0.0179234 -0.0209806 0)
(-0.0145752 -0.0185475 0)
(-0.0115524 -0.0160267 0)
(-0.00887344 -0.0134724 0)
(-0.00655039 -0.0109437 0)
(-0.00458932 -0.00850442 0)
(-0.00299009 -0.00622241 0)
(-0.00174572 -0.0041698 0)
(-0.000841948 -0.00242237 0)
(-0.000268836 -0.00105907 0)
(-3.2339e-05 -0.000165176 0)
(-9.43101e-05 0.00153929 0)
(-0.000631827 0.00474289 0)
(-0.00179602 0.00796799 0)
(-0.00346762 0.0111353 0)
(-0.00557721 0.0141848 0)
(-0.00808244 0.0170698 0)
(-0.0109408 0.0197553 0)
(-0.0141109 0.0222167 0)
(-0.0175542 0.0244378 0)
(-0.0212342 0.0264095 0)
(-0.0251167 0.0281282 0)
(-0.0291693 0.0295941 0)
(-0.033361 0.0308105 0)
(-0.0376622 0.0317826 0)
(-0.0420446 0.0325166 0)
(-0.0464811 0.0330191 0)
(-0.0509452 0.0332966 0)
(-0.0554113 0.0333551 0)
(-0.0598543 0.0332001 0)
(-0.0642498 0.032836 0)
(-0.0685735 0.0322667 0)
(-0.0728016 0.0314956 0)
(-0.0769105 0.0305251 0)
(-0.0808769 0.0293579 0)
(-0.0846775 0.0279964 0)
(-0.0882896 0.0264433 0)
(-0.0916905 0.0247019 0)
(-0.0948581 0.0227765 0)
(-0.0977709 0.0206724 0)
(-0.100408 0.0183965 0)
(-0.102749 0.0159571 0)
(-0.104774 0.0133647 0)
(-0.106467 0.0106318 0)
(-0.107809 0.0077728 0)
(-0.108787 0.00480473 0)
(-0.109387 0.00174674 0)
(-0.109598 -0.00137967 0)
(-0.109411 -0.00455077 0)
(-0.10882 -0.00774072 0)
(-0.107822 -0.0109218 0)
(-0.106417 -0.0140644 0)
(-0.104607 -0.0171379 0)
(-0.1024 -0.0201102 0)
(-0.0998054 -0.0229488 0)
(-0.0968375 -0.025621 0)
(-0.0935143 -0.0280945 0)
(-0.0898578 -0.0303379 0)
(-0.0858941 -0.032321 0)
(-0.0816531 -0.0340162 0)
(-0.0771684 -0.0353984 0)
(-0.0724771 -0.0364457 0)
(-0.0676197 -0.0371405 0)
(-0.0626392 -0.0374697 0)
(-0.057581 -0.0374252 0)
(-0.0524922 -0.0370046 0)
(-0.0474209 -0.0362115 0)
(-0.0424154 -0.0350558 0)
(-0.0375236 -0.033554 0)
(-0.032792 -0.031729 0)
(-0.028265 -0.0296107 0)
(-0.023984 -0.0272354 0)
(-0.0199865 -0.0246458 0)
(-0.0163055 -0.0218909 0)
(-0.0129689 -0.0190252 0)
(-0.00999876 -0.0161091 0)
(-0.00741093 -0.0132078 0)
(-0.00521494 -0.0103915 0)
(-0.00341386 -0.00773426 0)
(-0.00200353 -0.00531444 0)
(-0.00097199 -0.00321342 0)
(-0.000312827 -0.00151509 0)
(-3.83551e-05 -0.000308722 0)
(-0.000102636 0.00187268 0)
(-0.000685357 0.00567793 0)
(-0.00194467 0.00944449 0)
(-0.00374889 0.0130975 0)
(-0.00602067 0.0165809 0)
(-0.00871242 0.0198517 0)
(-0.0117768 0.0228782 0)
(-0.0151682 0.0256387 0)
(-0.0188443 0.0281199 0)
(-0.0227659 0.030315 0)
(-0.0268961 0.0322225 0)
(-0.0312005 0.0338446 0)
(-0.0356465 0.0351862 0)
(-0.0402032 0.036254 0)
(-0.0448412 0.0370554 0)
(-0.0495324 0.0375981 0)
(-0.0542496 0.0378893 0)
(-0.0589667 0.037936 0)
(-0.063658 0.0377439 0)
(-0.0682984 0.0373183 0)
(-0.0728634 0.0366632 0)
(-0.0773285 0.0357821 0)
(-0.0816697 0.034678 0)
(-0.0858631 0.0333537 0)
(-0.0898851 0.0318117 0)
(-0.0937122 0.0300551 0)
(-0.0973214 0.0280875 0)
(-0.10069 0.0259137 0)
(-0.103795 0.0235395 0)
(-0.106615 0.0209725 0)
(-0.10913 0.018222 0)
(-0.111318 0.0152994 0)
(-0.113162 0.0122184 0)
(-0.114643 0.00899505 0)
(-0.115745 0.00564796 0)
(-0.116454 0.00219826 0)
(-0.116758 -0.00133037 0)
(-0.116646 -0.00491175 0)
(-0.116111 -0.00851733 0)
(-0.115148 -0.0121164 0)
(-0.113755 -0.0156763 0)
(-0.111935 -0.0191627 0)
(-0.109692 -0.0225401 0)
(-0.107036 -0.025772 0)
(-0.10398 -0.0288219 0)
(-0.100541 -0.0316533 0)
(-0.09674 -0.0342305 0)
(-0.0926035 -0.0365197 0)
(-0.0881613 -0.0384888 0)
(-0.0834477 -0.0401091 0)
(-0.0785006 -0.0413552 0)
(-0.0733619 -0.0422061 0)
(-0.0680767 -0.0426461 0)
(-0.0626925 -0.042665 0)
(-0.0572595 -0.0422587 0)
(-0.0518287 -0.0414299 0)
(-0.0464523 -0.0401887 0)
(-0.0411822 -0.0385521 0)
(-0.036069 -0.0365449 0)
(-0.0311616 -0.0341993 0)
(-0.026506 -0.031555 0)
(-0.0221444 -0.028659 0)
(-0.0181143 -0.0255651 0)
(-0.0144482 -0.0223334 0)
(-0.0111724 -0.0190303 0)
(-0.00830677 -0.0157275 0)
(-0.00586471 -0.0125016 0)
(-0.00385272 -0.00943369 0)
(-0.00226958 -0.00660833 0)
(-0.00110558 -0.00411302 0)
(-0.000357714 -0.00203707 0)
(-4.43963e-05 -0.000474386 0)
(-0.000110603 0.00223271 0)
(-0.00073665 0.00668561 0)
(-0.00208722 0.0110327 0)
(-0.00401886 0.0152041 0)
(-0.00644666 0.0191482 0)
(-0.00931808 0.0228265 0)
(-0.0125812 0.0262111 0)
(-0.0161862 0.0292841 0)
(-0.0200873 0.0320354 0)
(-0.0242425 0.0344613 0)
(-0.0286125 0.0365628 0)
(-0.0331608 0.0383444 0)
(-0.0378532 0.0398131 0)
(-0.0426577 0.0409773 0)
(-0.0475439 0.0418458 0)
(-0.0524827 0.0424275 0)
(-0.0574464 0.0427309 0)
(-0.0624082 0.0427635 0)
(-0.067342 0.0425317 0)
(-0.0722224 0.0420413 0)
(-0.0770244 0.0412968 0)
(-0.0817233 0.0403019 0)
(-0.0862946 0.0390598 0)
(-0.0907142 0.0375734 0)
(-0.0949579 0.0358456 0)
(-0.0990019 0.0338796 0)