/*--------------------------------*- C++ -*----------------------------------*\
  =========                 |
  \\      /  F ield         | OpenFOAM: The Open Source CFD Toolbox
   \\    /   O peration     | Website:  https://openfoam.org
    \\  /    A nd           | Version:  dev
     \\/     M anipulation  |
\*---------------------------------------------------------------------------*/
FoamFile
{
    format      ascii;
    class       volScalarField;
    location    "23.4";
    object      Ux;
}
// * * * * * * * * * * * * * * * * * * * * * * * * * * * * * * * * * * * * * //

dimensions      [0 1 -1 0 0 0 0];

internalField   nonuniform List<scalar> 
5184
(
1.22491e-05
4.50316e-05
8.02115e-05
9.58642e-05
8.2027e-05
3.63338e-05
-4.06621e-05
-0.000146941
-0.000279711
-0.000435917
-0.000612438
-0.000806245
-0.00101447
-0.00123445
-0.00146372
-0.00170004
-0.00194132
-0.00218566
-0.00243127
-0.00267648
-0.00291966
-0.00315927
-0.00339378
-0.00362166
-0.00384138
-0.00405142
-0.00425021
-0.00443618
-0.00460776
-0.00476336
-0.00490143
-0.00502045
-0.00511896
-0.00519557
-0.00524904
-0.00527824
-0.00528224
-0.0052603
-0.00521193
-0.00513689
-0.00503526
-0.00490739
-0.00475401
-0.00457615
-0.00437523
-0.004153
-0.00391154
-0.00365329
-0.00338096
-0.00309757
-0.00280633
-0.00251069
-0.00221421
-0.00192053
-0.00163333
-0.00135625
-0.00109282
-0.000846415
-0.000620175
-0.000416952
-0.000239243
-8.9125e-05
3.18133e-05
0.000122557
0.000182774
0.000212964
0.000214712
0.000191064
0.000147045
9.07414e-05
3.66115e-05
6.22628e-06
2.07884e-05
6.54872e-05
9.45433e-05
7.26175e-05
-1.91166e-05
-0.000187463
-0.000432998
-0.000752504
-0.00114044
-0.00159002
-0.00209392
-0.00264467
-0.00323498
-0.00385786
-0.00450671
-0.00517533
-0.00585794
-0.00654908
-0.00724362
-0.0079367
-0.0086236
-0.00929978
-0.00996076
-0.0106021
-0.0112195
-0.0118084
-0.0123646
-0.0128834
-0.0133607
-0.013792
-0.0141732
-0.0145
-0.0147686
-0.0149755
-0.0151173
-0.0151911
-0.0151947
-0.0151262
-0.0149846
-0.0147694
-0.014481
-0.0141207
-0.0136905
-0.0131936
-0.0126338
-0.012016
-0.011346
-0.0106303
-0.00987644
-0.00909238
-0.00828686
-0.00746905
-0.00664847
-0.00583486
-0.00503799
-0.00426752
-0.00353283
-0.00284284
-0.00220582
-0.00162924
-0.00111958
-0.000682144
-0.000320836
-3.79455e-05
0.000166157
0.00029339
0.000348497
0.000339738
0.000279593
0.0001859
8.63077e-05
1.9668e-05
1.76004e-05
4.12282e-05
1.94508e-05
-8.41548e-05
-0.000290362
-0.000607908
-0.00103805
-0.00157697
-0.00221751
-0.00295049
-0.00376563
-0.00465223
-0.00559957
-0.0065972
-0.00763507
-0.00870362
-0.00979378
-0.0108969
-0.0120049
-0.0131099
-0.0142042
-0.0152806
-0.0163317
-0.0173506
-0.01833
-0.019263
-0.0201425
-0.0209616
-0.0217134
-0.0223912
-0.0229883
-0.0234985
-0.0239159
-0.024235
-0.0244509
-0.0245594
-0.0245571
-0.0244415
-0.0242111
-0.0238655
-0.0234056
-0.0228335
-0.0221527
-0.0213681
-0.0204858
-0.0195135
-0.0184601
-0.0173358
-0.016152
-0.0149211
-0.0136565
-0.0123721
-0.0110824
-0.00980235
-0.00854677
-0.00733036
-0.00616737
-0.0050713
-0.00405471
-0.00312886
-0.00230347
-0.00158646
-0.000983542
-0.000497963
-0.000130039
0.000123298
0.000269132
0.000319298
0.000290914
0.00020719
0.000102364
2.49581e-05
8.81727e-06
-7.0747e-06
-0.00010766
-0.000322398
-0.000669516
-0.00115741
-0.00178682
-0.00255299
-0.00344736
-0.00445893
-0.00557521
-0.006783
-0.00806892
-0.0094197
-0.0108225
-0.0122648
-0.0137347
-0.015221
-0.0167125
-0.0181989
-0.0196698
-0.0211153
-0.0225257
-0.0238913
-0.0252026
-0.0264501
-0.0276245
-0.0287166
-0.0297171
-0.0306173
-0.0314085
-0.0320826
-0.032632
-0.0330496
-0.0333293
-0.0334657
-0.0334547
-0.0332932
-0.0329796
-0.0325135
-0.0318965
-0.0311315
-0.0302232
-0.0291781
-0.0280045
-0.0267124
-0.0253135
-0.0238211
-0.02225
-0.0206163
-0.0189372
-0.0172308
-0.015516
-0.0138118
-0.0121375
-0.0105119
-0.00895354
-0.00747968
-0.00610652
-0.00484853
-0.00371822
-0.00272567
-0.00187823
-0.00118003
-0.000631543
-0.00022907
3.58503e-05
0.000177099
0.000214387
0.000173859
9.2928e-05
2.40063e-05
-2.13665e-06
-6.73114e-05
-0.000264088
-0.000609624
-0.0011164
-0.00179062
-0.00263128
-0.00363202
-0.0047827
-0.00607064
-0.00748147
-0.00899996
-0.0106105
-0.0122976
-0.014046
-0.0158408
-0.0176676
-0.0195127
-0.0213627
-0.0232046
-0.0250259
-0.0268142
-0.0285576
-0.0302439
-0.0318616
-0.0333989
-0.0348444
-0.0361868
-0.0374149
-0.0385181
-0.039486
-0.0403089
-0.0409776
-0.0414838
-0.0418202
-0.0419808
-0.0419605
-0.0417561
-0.0413658
-0.0407895
-0.0400292
-0.0390886
-0.0379737
-0.0366922
-0.0352544
-0.0336722
-0.0319598
-0.0301331
-0.0282099
-0.0262093
-0.024152
-0.0220596
-0.0199544
-0.0178594
-0.0157973
-0.0137908
-0.0118618
-0.010031
-0.00831776
-0.00673933
-0.00531067
-0.0040439
-0.00294791
-0.00202782
-0.00128459
-0.000714468
-0.00030847
-5.18434e-05
7.62706e-05
0.000103356
6.74037e-05
1.9644e-05
-1.36976e-05
-0.000132807
-0.000435685
-0.000924279
-0.00160321
-0.00247502
-0.00353588
-0.0047771
-0.00618658
-0.00774981
-0.00945068
-0.0112721
-0.0131967
-0.0152068
-0.0172852
-0.0194151
-0.0215799
-0.0237638
-0.0259512
-0.028127
-0.0302766
-0.0323856
-0.0344397
-0.036425
-0.0383278
-0.0401345
-0.0418316
-0.0434061
-0.044845
-0.0461361
-0.0472674
-0.0482277
-0.0490068
-0.049595
-0.0499844
-0.0501679
-0.0501402
-0.0498976
-0.0494383
-0.0487624
-0.0478723
-0.0467725
-0.0454699
-0.0439735
-0.0422951
-0.0404484
-0.0384495
-0.0363167
-0.0340703
-0.0317321
-0.0293256
-0.0268754
-0.0244071
-0.0219467
-0.0195203
-0.0171537
-0.0148719
-0.0126988
-0.0106563
-0.00876453
-0.00704058
-0.00549861
-0.00414908
-0.00299835
-0.00204821
-0.0012954
-0.000731141
-0.000340738
-0.000103246
8.94389e-06
3.24026e-05
1.36007e-05
-2.51804e-05
-0.000199935
-0.000613804
-0.0012523
-0.00211094
-0.00318758
-0.00447465
-0.00596043
-0.00763044
-0.00946814
-0.0114556
-0.0135739
-0.0158039
-0.0181264
-0.0205224
-0.0229731
-0.0254603
-0.0279661
-0.0304734
-0.032965
-0.0354245
-0.0378356
-0.0401822
-0.0424486
-0.0446192
-0.0466786
-0.0486118
-0.050404
-0.0520409
-0.0535085
-0.0547936
-0.0558838
-0.0567677
-0.0574347
-0.0578759
-0.0580838
-0.0580525
-0.0577781
-0.0572586
-0.0564943
-0.0554879
-0.0542446
-0.0527718
-0.05108
-0.0491818
-0.0470926
-0.0448302
-0.0424149
-0.0398689
-0.0372166
-0.0344838
-0.0316978
-0.028887
-0.0260802
-0.0233064
-0.0205942
-0.0179717
-0.0154654
-0.0131
-0.010898
-0.00887879
-0.00705861
-0.00544966
-0.0040598
-0.00289202
-0.00194406
-0.00120797
-0.000669832
-0.000309455
-0.000100028
-7.79352e-06
6.84281e-06
-3.63254e-05
-0.000266809
-0.000793327
-0.00158475
-0.00262693
-0.00391229
-0.00542889
-0.00716143
-0.00909261
-0.0112036
-0.0134744
-0.0158844
-0.0184129
-0.0210389
-0.0237419
-0.0265016
-0.0292981
-0.0321121
-0.0349246
-0.037717
-0.0404711
-0.043169
-0.0457931
-0.048326
-0.0507504
-0.0530496
-0.0552069
-0.0572061
-0.0590314
-0.0606677
-0.0621006
-0.0633163
-0.0643026
-0.065048
-0.0655428
-0.0657789
-0.0657499
-0.0654516
-0.0648818
-0.064041
-0.062932
-0.0615603
-0.0599341
-0.0580645
-0.0559653
-0.053653
-0.0511468
-0.0484686
-0.0456425
-0.0426948
-0.0396536
-0.0365486
-0.0334104
-0.0302706
-0.0271608
-0.0241125
-0.0211563
-0.0183214
-0.0156352
-0.0131227
-0.0108057
-0.00870246
-0.00682729
-0.0051898
-0.00379458
-0.0026408
-0.00172189
-0.0010253
-0.000532219
-0.000217323
-5.05191e-05
-9.8844e-08
-4.70361e-05
-0.000332448
-0.000971258
-0.00191603
-0.00314277
-0.00463811
-0.00638526
-0.00836493
-0.0105567
-0.012939
-0.0154899
-0.0181869
-0.0210075
-0.0239294
-0.0269304
-0.029989
-0.0330839
-0.0361943
-0.0392999
-0.0423806
-0.0454167
-0.0483891
-0.0512785
-0.0540663
-0.0567338
-0.0592628
-0.0616353
-0.0638339
-0.0658415
-0.0676418
-0.0692192
-0.0705592
-0.0716483
-0.0724744
-0.073027
-0.0732973
-0.0732784
-0.0729657
-0.072357
-0.0714523
-0.0702546
-0.0687697
-0.0670062
-0.0649755
-0.0626923
-0.0601741
-0.0574413
-0.0545169
-0.0514266
-0.0481986
-0.0448628
-0.0414509
-0.0379961
-0.0345322
-0.0310934
-0.0277138
-0.0244267
-0.0212639
-0.0182557
-0.0154295
-0.0128096
-0.0104168
-0.00826762
-0.00637371
-0.00474166
-0.00337253
-0.00226154
-0.001398
-0.000764972
-0.000339042
-9.42167e-05
-6.9543e-06
-5.73013e-05
-0.000396369
-0.00114586
-0.00224262
-0.0036529
-0.0053574
-0.00733419
-0.00955972
-0.0120101
-0.0146611
-0.0174883
-0.0204674
-0.0235743
-0.0267851
-0.0300764
-0.0334253
-0.0368091
-0.040206
-0.0435944
-0.0469529
-0.0502608
-0.0534976
-0.0566428
-0.0596764
-0.0625788
-0.0653303
-0.067912
-0.0703052
-0.0724917
-0.0744541
-0.0761758
-0.0776414
-0.0788365
-0.079748
-0.0803649
-0.0806774
-0.0806784
-0.0803625
-0.0797271
-0.0787722
-0.0775005
-0.0759176
-0.0740325
-0.0718568
-0.0694058
-0.0666974
-0.063753
-0.0605968
-0.0572557
-0.0537593
-0.0501394
-0.0464296
-0.0426651
-0.0388823
-0.0351176
-0.0314079
-0.0277891
-0.024296
-0.0209614
-0.0178155
-0.0148857
-0.0121951
-0.00976288
-0.00760319
-0.00572494
-0.00413143
-0.0028201
-0.00178249
-0.00100385
-0.000462971
-0.00013807
-1.3608e-05
-6.71389e-05
-0.000458349
-0.00131614
-0.0025623
-0.00415362
-0.00606482
-0.00826876
-0.0107374
-0.0134433
-0.0163593
-0.0194586
-0.0227148
-0.0261022
-0.0295954
-0.0331697
-0.0368009
-0.0404655
-0.0441404
-0.0478028
-0.0514306
-0.0550018
-0.0584948
-0.0618883
-0.0651611
-0.0682924
-0.0712618
-0.074049
-0.0766343
-0.0789988
-0.0811239
-0.0829922
-0.0845871
-0.0858935
-0.0868976
-0.0875872
-0.0879521
-0.0879843
-0.0876779
-0.0870297
-0.0860391
-0.0847086
-0.0830436
-0.0810528
-0.0787479
-0.0761444
-0.0732606
-0.0701186
-0.0667432
-0.0631627
-0.0594077
-0.0555116
-0.05151
-0.0474401
-0.0433403
-0.03925
-0.0352082
-0.0312541
-0.0274251
-0.0237571
-0.0202835
-0.0170344
-0.0140361
-0.0113107
-0.00887501
-0.00674076
-0.00491385
-0.00339427
-0.00217608
-0.001247
-0.000588102
-0.000181754
-2.00337e-05
-7.65731e-05
-0.000518283
-0.0014815
-0.00287364
-0.00464239
-0.00675659
-0.00918387
-0.0118917
-0.0148489
-0.0180253
-0.0213917
-0.0249195
-0.0285814
-0.0323505
-0.036201
-0.0401075
-0.0440454
-0.0479907
-0.0519197
-0.0558095
-0.059637
-0.0633799
-0.0670158
-0.0705229
-0.0738792
-0.0770635
-0.0800547
-0.0828321
-0.0853757
-0.0876663
-0.0896854
-0.0914156
-0.0928409
-0.0939464
-0.0947193
-0.0951485
-0.095225
-0.0949423
-0.0942964
-0.093286
-0.0919129
-0.0901821
-0.0881018
-0.0856837
-0.082943
-0.0798982
-0.0765716
-0.0729889
-0.0691788
-0.0651735
-0.0610075
-0.0567181
-0.0523447
-0.0479278
-0.0435093
-0.0391312
-0.0348354
-0.0306627
-0.0266521
-0.0228403
-0.0192608
-0.0159433
-0.012913
-0.01019
-0.00778924
-0.00571943
-0.00398349
-0.00257826
-0.00149404
-0.000714278
-0.000225269
-2.62579e-05
-8.56251e-05
-0.000576122
-0.00164155
-0.00317566
-0.00511738
-0.00742987
-0.0100756
-0.0130176
-0.0162209
-0.0196523
-0.0232799
-0.0270734
-0.0310035
-0.0350421
-0.039162
-0.0433368
-0.0475411
-0.05175
-0.0559391
-0.0600845
-0.0641626
-0.0681502
-0.0720243
-0.0757621
-0.0793411
-0.0827392
-0.0859345
-0.0889055
-0.0916314
-0.0940921
-0.0962682
-0.0981415
-0.0996949
-0.100913
-0.101781
-0.102288
-0.102424
-0.10218
-0.101553
-0.10054
-0.0991415
-0.0973622
-0.0952095
-0.0926945
-0.089832
-0.0866406
-0.0831425
-0.0793636
-0.0753334
-0.0710849
-0.0666541
-0.0620797
-0.057403
-0.052667
-0.0479162
-0.0431954
-0.0385497
-0.0340232
-0.0296587
-0.0254964
-0.0215735
-0.0179234
-0.0145752
-0.0115524
-0.00887344
-0.00655039
-0.00458932
-0.00299009
-0.00174572
-0.000841948
-0.000268836
-3.2339e-05
-9.43101e-05
-0.000631827
-0.00179602
-0.00346762
-0.00557721
-0.00808244
-0.0109408
-0.0141109
-0.0175542
-0.0212342
-0.0251167
-0.0291693
-0.033361
-0.0376622
-0.0420446
-0.0464811
-0.0509452
-0.0554113
-0.0598543
-0.0642498
-0.0685735
-0.0728016
-0.0769105
-0.0808769
-0.0846775
-0.0882896
-0.0916905
-0.0948581
-0.0977709
-0.100408
-0.102749
-0.104774
-0.106467
-0.107809
-0.108787
-0.109387
-0.109598
-0.109411
-0.10882
-0.107822
-0.106417
-0.104607
-0.1024
-0.0998054
-0.0968375
-0.0935143
-0.0898578
-0.0858941
-0.0816531
-0.0771684
-0.0724771
-0.0676197
-0.0626392
-0.057581
-0.0524922
-0.0474209
-0.0424154
-0.0375236
-0.032792
-0.028265
-0.023984
-0.0199865
-0.0163055
-0.0129689
-0.00999876
-0.00741093
-0.00521494
-0.00341386
-0.00200353
-0.00097199
-0.000312827
-3.83551e-05
-0.000102636
-0.000685357
-0.00194467
-0.00374889
-0.00602067
-0.00871242
-0.0117768
-0.0151682
-0.0188443
-0.0227659
-0.0268961
-0.0312005
-0.0356465
-0.0402032
-0.0448412
-0.0495324
-0.0542496
-0.0589667
-0.063658
-0.0682984
-0.0728634
-0.0773285
-0.0816697
-0.0858631
-0.0898851
-0.0937122
-0.0973214
-0.10069
-0.103795
-0.106615
-0.10913
-0.111318
-0.113162
-0.114643
-0.115745
-0.116454
-0.116758
-0.116646
-0.116111
-0.115148
-0.113755
-0.111935
-0.109692
-0.107036
-0.10398
-0.100541
-0.09674
-0.0926035
-0.0881613
-0.0834477
-0.0785006
-0.0733619
-0.0680767
-0.0626925
-0.0572595
-0.0518287
-0.0464523
-0.0411822
-0.036069
-0.0311616
-0.026506
-0.0221444
-0.0181143
-0.0144482
-0.0111724
-0.00830677
-0.00586471
-0.00385272
-0.00226958
-0.00110558
-0.000357714
-4.43963e-05
-0.000110603
-0.00073665
-0.00208722
-0.00401886
-0.00644666
-0.00931808
-0.0125812
-0.0161862
-0.0200873
-0.0242425
-0.0286125
-0.0331608
-0.0378532
-0.0426577
-0.0475439
-0.0524827
-0.0574464
-0.0624082
-0.067342
-0.0722224
-0.0770244
-0.0817233
-0.0862946
-0.0907142
-0.0949579
-0.0990019
-0.102823
-0.106396
-0.109701
-0.112713
-0.115411
-0.117774
-0.119782
-0.121416
-0.122659
-0.123495
-0.123909
-0.123892
-0.123433
-0.122525
-0.121167
-0.119357
-0.117099
-0.114401
-0.111275
-0.107737
-0.103807
-0.0995107
-0.094878
-0.0899434
-0.0847457
-0.0793281
-0.0737373
-0.0680235
-0.0622395
-0.05644
-0.0506809
-0.0450183
-0.0395078
-0.0342029
-0.0291548
-0.0244108
-0.0200136
-0.0160005
-0.0124028
-0.00924476
-0.00654393
-0.00431051
-0.0025464
-0.00124413
-0.000404039
-5.05604e-05
-0.000118205
-0.000785625
-0.00222341
-0.00427691
-0.00685411
-0.00989773
-0.0133515
-0.0171617
-0.0212793
-0.0256593
-0.0302603
-0.0350439
-0.0399744
-0.0450185
-0.0501448
-0.0553236
-0.0605266
-0.0657266
-0.0708971
-0.0760125
-0.0810474
-0.0859769
-0.0907763
-0.0954212
-0.0998872
-0.10415
-0.108186
-0.11197
-0.11548
-0.118693
-0.121585
-0.124134
-0.12632
-0.128123
-0.129523
-0.130504
-0.13105
-0.131148
-0.130786
-0.129957
-0.128654
-0.126877
-0.124626
-0.121908
-0.118732
-0.115113
-0.111071
-0.10663
-0.101819
-0.0966724
-0.0912306
-0.0855372
-0.079641
-0.0735943
-0.067453
-0.0612753
-0.0551213
-0.0490518
-0.0431272
-0.0374066
-0.0319467
-0.0268005
-0.0220163
-0.0176372
-0.0136995
-0.0102326
-0.00725853
-0.00479153
-0.00283677
-0.00138917
-0.000452391
-5.69498e-05
-0.00012543
-0.000832178
-0.0023529
-0.00452237
-0.00724187
-0.0104497
-0.0140854
-0.0180917
-0.0224164
-0.0270118
-0.0318343
-0.0368437
-0.042003
-0.0472777
-0.0526356
-0.0580464
-0.0634811
-0.0689123
-0.0743133
-0.0796582
-0.0849215
-0.0900782
-0.0951035
-0.0999727
-0.104661
-0.109145
-0.113399
-0.1174
-0.121123
-0.124544
-0.12764
-0.130389
-0.132767
-0.134754
-0.136329
-0.137475
-0.138172
-0.138406
-0.138165
-0.137436
-0.136214
-0.134492
-0.132272
-0.129556
-0.126352
-0.122674
-0.118538
-0.113968
-0.108993
-0.103647
-0.097969
-0.0920049
-0.0858047
-0.0794231
-0.0729189
-0.0663542
-0.0597933
-0.053302
-0.0469461
-0.0407908
-0.0348986
-0.0293289
-0.0241365
-0.0193703
-0.0150727
-0.0112786
-0.00801493
-0.00530041
-0.00314375
-0.00154235
-0.000503392
-6.36695e-05
-0.000132259
-0.000876183
-0.00247532
-0.00475452
-0.00760875
-0.0109722
-0.0147806
-0.0189731
-0.0234947
-0.0282952
-0.0333289
-0.038554
-0.0439322
-0.0494278
-0.055008
-0.0606418
-0.0663
-0.0719548
-0.0775794
-0.0831478
-0.0886344
-0.0940144
-0.0992628
-0.104355
-0.109266
-0.113972
-0.118448
-0.122669
-0.126612
-0.13025
-0.133561
-0.13652
-0.139105
-0.141292
-0.14306
-0.144389
-0.145258
-0.145652
-0.145553
-0.14495
-0.143832
-0.142192
-0.140028
-0.137339
-0.134132
-0.130416
-0.126208
-0.121529
-0.116406
-0.110873
-0.10497
-0.0987423
-0.0922416
-0.0855248
-0.0786537
-0.0716941
-0.064715
-0.0577874
-0.050983
-0.0443732
-0.0380274
-0.0320118
-0.0263882
-0.0212123
-0.016533
-0.0123914
-0.00881986
-0.00584202
-0.00347048
-0.0017054
-0.000557682
-7.08259e-05
-0.000138671
-0.000917496
-0.00259028
-0.00497257
-0.0079535
-0.0114634
-0.0154345
-0.0198028
-0.0245104
-0.0295049
-0.0347387
-0.0401685
-0.0457546
-0.0514606
-0.0572529
-0.0631001
-0.0689727
-0.0748427
-0.0806832
-0.0864683
-0.0921725
-0.0977709
-0.103239
-0.108552
-0.113685
-0.118614
-0.123314
-0.12776
-0.131927
-0.135791
-0.139326
-0.142508
-0.145312
-0.147715
-0.149693
-0.151224
-0.152286
-0.152861
-0.15293
-0.152477
-0.15149
-0.149958
-0.147876
-0.145241
-0.142056
-0.138329
-0.134072
-0.129305
-0.124054
-0.118352
-0.112237
-0.105756
-0.0989604
-0.0919105
-0.0846704
-0.0773099
-0.0699025
-0.0625249
-0.055255
-0.048171
-0.0413497
-0.0348648
-0.0287857
-0.0231758
-0.0180913
-0.0135799
-0.00968023
-0.00642135
-0.00382023
-0.00188008
-0.000615917
-7.85266e-05
-0.00014464
-0.00095596
-0.00269733
-0.00517571
-0.00827482
-0.0119215
-0.0160448
-0.0205775
-0.0254595
-0.0306361
-0.036058
-0.0416805
-0.0474629
-0.0533679
-0.0593612
-0.0654112
-0.0714882
-0.0775639
-0.0836117
-0.0896056
-0.0955205
-0.101332
-0.107014
-0.112545
-0.117898
-0.123049
-0.127974
-0.132647
-0.137044
-0.14114
-0.144907
-0.148322
-0.151359
-0.153992
-0.156197
-0.157949
-0.159225
-0.160004
-0.160264
-0.159987
-0.159157
-0.157761
-0.15579
-0.153238
-0.150104
-0.146392
-0.142113
-0.137284
-0.131928
-0.126076
-0.119766
-0.113045
-0.105964
-0.0985865
-0.0909782
-0.083213
-0.0753693
-0.0675293
-0.0597778
-0.0522002
-0.0448813
-0.037903
-0.0313431
-0.0252735
-0.0197583
-0.014853
-0.010603
-0.00704349
-0.00419631
-0.00206818
-0.00067876
-8.68801e-05
-0.000150138
-0.000991406
-0.00279602
-0.00536307
-0.00857136
-0.0123446
-0.0166087
-0.021294
-0.0263379
-0.0316839
-0.0372812
-0.0430837
-0.0490496
-0.0551411
-0.0613235
-0.0675646
-0.0738347
-0.0801056
-0.0863508
-0.0925445
-0.0986619
-0.104678
-0.11057
-0.116313
-0.121882
-0.127254
-0.132404
-0.137306
-0.141936
-0.146268
-0.150275
-0.153932
-0.157212
-0.160089
-0.162536
-0.164527
-0.166037
-0.167041
-0.167516
-0.167441
-0.166796
-0.165565
-0.163735
-0.161295
-0.158242
-0.154577
-0.150306
-0.145443
-0.140008
-0.134031
-0.127547
-0.120602
-0.11325
-0.105553
-0.0975811
-0.0894105
-0.0811249
-0.0728124
-0.0645646
-0.056475
-0.0486366
-0.0411405
-0.0340738
-0.0275176
-0.0215449
-0.0162197
-0.0115953
-0.00771355
-0.00460204
-0.00227151
-0.000746879
-9.59954e-05
-0.000155136
-0.00102366
-0.00288588
-0.00553379
-0.00884178
-0.0127307
-0.0171238
-0.0219491
-0.0271417
-0.0326437
-0.0384026
-0.0443713
-0.0505072
-0.0567718
-0.0631299
-0.0695493
-0.0760002
-0.0824545
-0.0888858
-0.0952688
-0.101579
-0.107792
-0.113885
-0.119834
-0.125614
-0.131203
-0.136575
-0.141705
-0.146569
-0.15114
-0.155392
-0.159298
-0.162831
-0.165963
-0.168666
-0.170913
-0.172675
-0.173926
-0.17464
-0.174792
-0.17436
-0.173323
-0.171664
-0.169369
-0.166431
-0.162845
-0.158615
-0.153749
-0.148266
-0.142191
-0.135559
-0.128414
-0.120808
-0.112805
-0.104477
-0.0959044
-0.0871747
-0.0783823
-0.0696259
-0.0610072
-0.0526284
-0.0445904
-0.0369904
-0.0299196
-0.0234612
-0.0176887
-0.0126639
-0.00843659
-0.00504076
-0.00249187
-0.000820948
-0.000105982
-0.000159603
-0.00105254
-0.00296645
-0.00568702
-0.00908474
-0.013078
-0.0175876
-0.0225395
-0.027867
-0.0335106
-0.0394166
-0.0455369
-0.0518281
-0.0582512
-0.0647708
-0.0713544
-0.0779723
-0.0845967
-0.0912015
-0.0977618
-0.104253
-0.110653
-0.116937
-0.123083
-0.129067
-0.134866
-0.140456
-0.145811
-0.150908
-0.155719
-0.160218
-0.164378
-0.168171
-0.171567
-0.174539
-0.177055
-0.179086
-0.180604
-0.181579
-0.181984
-0.181791
-0.180978
-0.179522
-0.177406
-0.174617
-0.171146
-0.166993
-0.162161
-0.156664
-0.150524
-0.143774
-0.136454
-0.128618
-0.120328
-0.111658
-0.102691
-0.093519
-0.0842429
-0.0749685
-0.0658059
-0.0568673
-0.048264
-0.0401042
-0.0324905
-0.0255172
-0.0192683
-0.0138156
-0.00921761
-0.00551577
-0.00273108
-0.000901636
-0.00011695
-0.000163512
-0.00107789
-0.00303729
-0.00582193
-0.00929898
-0.0133846
-0.0179977
-0.0230623
-0.0285101
-0.0342802
-0.0403179
-0.0465741
-0.053005
-0.059571
-0.0662364
-0.0729689
-0.0797387
-0.0865185
-0.0932824
-0.100006
-0.106666
-0.113239
-0.119703
-0.126036
-0.132214
-0.138214
-0.144014
-0.149589
-0.154914
-0.159963
-0.164709
-0.169125
-0.173181
-0.176849
-0.180097
-0.182895
-0.185211
-0.187013
-0.18827
-0.18895
-0.189024
-0.188464
-0.187244
-0.185341
-0.182738
-0.17942
-0.175382
-0.170622
-0.165151
-0.158985
-0.152152
-0.144691
-0.136653
-0.1281
-0.119107
-0.109759
-0.100152
-0.0903929
-0.0805947
-0.0708767
-0.061361
-0.0521704
-0.0434252
-0.0352402
-0.027722
-0.0209665
-0.0150568
-0.0100615
-0.0060303
-0.00299092
-0.000989618
-0.000129013
-0.000166833
-0.00109955
-0.00309797
-0.00593779
-0.00948333
-0.013649
-0.018352
-0.0235146
-0.0290674
-0.0349482
-0.0411013
-0.047477
-0.0540308
-0.0607228
-0.0675173
-0.0743819
-0.0812871
-0.0882057
-0.0951126
-0.101984
-0.108796
-0.115529
-0.122158
-0.128664
-0.135024
-0.141215
-0.147215
-0.153001
-0.158547
-0.163828
-0.168817
-0.173487
-0.177808
-0.18175
-0.185281
-0.18837
-0.190982
-0.193083
-0.19464
-0.195619
-0.195985
-0.195707
-0.194754
-0.193099
-0.190719
-0.187595
-0.183713
-0.17907
-0.173666
-0.167516
-0.160642
-0.153078
-0.144874
-0.136089
-0.126799
-0.117089
-0.107061
-0.0968249
-0.0865022
-0.0762209
-0.0661141
-0.0563165
-0.0469613
-0.0381769
-0.0300837
-0.0227908
-0.0163938
-0.0109729
-0.00658754
-0.00327316
-0.00108556
-0.000142282
-0.000169544
-0.00111737
-0.00314816
-0.00603392
-0.00963677
-0.0138697
-0.0186484
-0.023894
-0.0295358
-0.0355107
-0.0417622
-0.0482399
-0.0548988
-0.061699
-0.0686045
-0.075583
-0.0826054
-0.0896448
-0.0966766
-0.103678
-0.110626
-0.1175
-0.124278
-0.130941
-0.137467
-0.143835
-0.150022
-0.156006
-0.161762
-0.167266
-0.172492
-0.17741
-0.181993
-0.186209
-0.190026
-0.19341
-0.196327
-0.19874
-0.200613
-0.201909
-0.20259
-0.202621
-0.201967
-0.200595
-0.198477
-0.195587
-0.191907
-0.187425
-0.182138
-0.176051
-0.169182
-0.161561
-0.153233
-0.144254
-0.134699
-0.124655
-0.114225
-0.103525
-0.0926826
-0.0818354
-0.0711273
-0.0607059
-0.0507182
-0.0413076
-0.0326095
-0.0247478
-0.0178324
-0.0119563
-0.00719057
-0.00357954
-0.00119014
-0.000156873
-0.000171624
-0.00113126
-0.00318754
-0.00610979
-0.00975848
-0.0140455
-0.0188854
-0.0241984
-0.0299128
-0.0359645
-0.0422966
-0.0488579
-0.0556033
-0.0624925
-0.0694896
-0.0765626
-0.0836823
-0.0908227
-0.0979596
-0.105071
-0.112134
-0.11913
-0.126039
-0.13284
-0.139514
-0.14604
-0.152397
-0.158563
-0.164516
-0.17023
-0.17568
-0.180838
-0.185675
-0.190161
-0.194261
-0.197943
-0.201169
-0.203902
-0.206103
-0.207733
-0.20875
-0.209116
-0.20879
-0.207736
-0.205917
-0.203305
-0.199872
-0.195601
-0.19048
-0.184509
-0.177698
-0.170072
-0.161668
-0.152542
-0.142763
-0.13242
-0.121616
-0.110472
-0.0991212
-0.0877112
-0.0763968
-0.0653388
-0.0546992
-0.0446373
-0.0353052
-0.0268434
-0.0193776
-0.013016
-0.00784235
-0.00391176
-0.00130402
-0.000172904
-0.000173057
-0.00114112
-0.00321593
-0.00616505
-0.00984788
-0.0141756
-0.019062
-0.0244263
-0.0301962
-0.036307
-0.0427011
-0.0493269
-0.0561391
-0.0630972
-0.0701654
-0.0773117
-0.0845075
-0.0917272
-0.0989473
-0.106146
-0.113303
-0.120399
-0.127415
-0.134333
-0.141133
-0.147797
-0.154304
-0.160634
-0.166764
-0.172671
-0.17833
-0.183713
-0.188793
-0.193539
-0.197917
-0.201892
-0.205428
-0.208485
-0.211022
-0.212998
-0.214369
-0.215092
-0.215122
-0.214417
-0.212937
-0.210644
-0.207506
-0.203496
-0.198596
-0.192798
-0.186103
-0.178529
-0.170108
-0.160887
-0.150934
-0.140335
-0.129194
-0.117634
-0.105796
-0.0938335
-0.0819138
-0.0702114
-0.0589042
-0.0481687
-0.0381751
-0.0290824
-0.0210343
-0.0141558
-0.00854568
-0.00427147
-0.00142785
-0.000190494
-0.000173836
-0.00114692
-0.00323322
-0.00619951
-0.00990468
-0.0142595
-0.0191773
-0.0245767
-0.0303848
-0.0365364
-0.0429734
-0.0496439
-0.0565023
-0.0635081
-0.0706254
-0.0778227
-0.0850717
-0.0923474
-0.0996268
-0.106889
-0.114115
-0.121287
-0.128386
-0.135395
-0.142297
-0.149074
-0.155706
-0.162176
-0.168461
-0.174539
-0.180387
-0.185978
-0.191284
-0.196276
-0.200919
-0.20518
-0.20902
-0.2124
-0.215278
-0.217608
-0.219346
-0.220444
-0.220854
-0.22053
-0.219424
-0.217493
-0.214697
-0.211001
-0.20638
-0.200814
-0.194299
-0.186842
-0.178466
-0.169213
-0.159145
-0.148343
-0.136912
-0.124974
-0.112676
-0.10018
-0.0876637
-0.0753154
-0.0633297
-0.0519017
-0.0412215
-0.0314684
-0.0228063
-0.0153791
-0.00930319
-0.00466025
-0.00156229
-0.000209764
-0.00017396
-0.00114867
-0.00323945
-0.00621324
-0.00992898
-0.0142973
-0.0192314
-0.0246495
-0.0304782
-0.036652
-0.0431122
-0.0498069
-0.0566901
-0.0637214
-0.070865
-0.0780895
-0.0853673
-0.0926737
-0.0999868
-0.107287
-0.114555
-0.121774
-0.128928
-0.136001
-0.142977
-0.149838
-0.156569
-0.163151
-0.169564
-0.175788
-0.1818
-0.187575
-0.193086
-0.198304
-0.203197
-0.207729
-0.211864
-0.21556
-0.218776
-0.221464
-0.223577
-0.225065
-0.225876
-0.225958
-0.22526
-0.223731
-0.221324
-0.217996
-0.213711
-0.208443
-0.202175
-0.194904
-0.186645
-0.177431
-0.167315
-0.156374
-0.144708
-0.132442
-0.119723
-0.106722
-0.0936255
-0.0806371
-0.0679681
-0.0558334
-0.0444447
-0.0340036
-0.0246965
-0.0166891
-0.0101173
-0.00507961
-0.00170796
-0.000230839
-0.000173438
-0.00114643
-0.00323481
-0.00620656
-0.00992125
-0.0142897
-0.0192251
-0.0246454
-0.0304771
-0.0366541
-0.0431176
-0.0498155
-0.0567015
-0.0637352
-0.070881
-0.0781078
-0.0853884
-0.0926988
-0.100018
-0.107326
-0.114607
-0.121845
-0.129024
-0.13613
-0.143148
-0.150063
-0.15686
-0.163523
-0.170033
-0.176372
-0.182519
-0.18845
-0.194139
-0.199559
-0.204678
-0.209463
-0.213876
-0.217877
-0.221423
-0.224466
-0.226957
-0.228844
-0.230071
-0.230583
-0.230322
-0.229233
-0.22726
-0.224353
-0.220465
-0.21556
-0.209609
-0.202601
-0.194537
-0.185439
-0.175353
-0.164346
-0.152513
-0.139978
-0.126888
-0.11342
-0.0997711
-0.0861571
-0.0728073
-0.0599575
-0.0478425
-0.0366885
-0.026707
-0.0180881
-0.01099
-0.00553095
-0.0018655
-0.000253845
-0.00017229
-0.00114032
-0.00321962
-0.00618013
-0.00988246
-0.0142379
-0.0191598
-0.0245662
-0.0303831
-0.0365445
-0.0429912
-0.0496707
-0.0565369
-0.0635492
-0.0706722
-0.0778752
-0.0851313
-0.0924173
-0.0997128
-0.107
-0.114262
-0.121486
-0.128656
-0.135761
-0.142787
-0.149721
-0.15655
-0.163258
-0.169831
-0.17625
-0.182497
-0.188551
-0.194387
-0.199979
-0.205297
-0.210309
-0.214979
-0.219266
-0.223128
-0.226517
-0.229383
-0.231672
-0.233326
-0.234285
-0.234487
-0.233871
-0.232375
-0.229938
-0.226506
-0.22203
-0.216472
-0.209805
-0.20202
-0.193125
-0.183153
-0.172164
-0.160244
-0.147511
-0.134113
-0.120229
-0.106065
-0.0918495
-0.0778301
-0.0642637
-0.0514099
-0.0395218
-0.0288386
-0.0195777
-0.0119232
-0.00601555
-0.00203549
-0.00027891
-0.000170545
-0.00113056
-0.00319445
-0.00613492
-0.0098141
-0.014144
-0.0190381
-0.0244146
-0.0301995
-0.0363265
-0.0427361
-0.0493757
-0.056199
-0.0631655
-0.0702399
-0.0773918
-0.0845949
-0.0918267
-0.0990676
-0.106301
-0.113511
-0.120686
-0.127812
-0.134879
-0.141876
-0.148791
-0.155612
-0.162328
-0.168923
-0.175385
-0.181694
-0.187832
-0.193778
-0.199507
-0.204991
-0.210199
-0.215097
-0.219647
-0.223805
-0.227525
-0.230756
-0.233443
-0.235527
-0.236944
-0.237629
-0.237515
-0.236533
-0.234615
-0.231696
-0.227716
-0.222624
-0.216381
-0.208963
-0.200363
-0.190601
-0.179723
-0.167806
-0.154959
-0.141328
-0.127091
-0.112462
-0.0976816
-0.0830135
-0.0687373
-0.0551387
-0.0424999
-0.0310906
-0.0211591
-0.0129183
-0.00653453
-0.00221849
-0.000306164
-0.000168248
-0.0011174
-0.00316004
-0.00607232
-0.00971825
-0.0140106
-0.0188634
-0.0241948
-0.0299309
-0.0360049
-0.0423574
-0.0489354
-0.0556926
-0.0625883
-0.0695875
-0.0766603
-0.0837807
-0.0909271
-0.0980806
-0.105226
-0.112349
-0.119438
-0.126482
-0.133473
-0.1404
-0.147254
-0.154027
-0.160707
-0.167283
-0.173743
-0.180072
-0.186254
-0.192268
-0.198093
-0.203704
-0.209072
-0.214165
-0.218946
-0.223373
-0.227402
-0.230981
-0.234056
-0.236566
-0.238446
-0.239627
-0.240037
-0.239602
-0.238245
-0.235892
-0.232473
-0.227922
-0.222187
-0.215227
-0.20702
-0.19757
-0.186907
-0.175093
-0.162229
-0.148452
-0.133941
-0.118911
-0.103613
-0.0883287
-0.073359
-0.0590172
-0.0456168
-0.033461
-0.0228322
-0.0139761
-0.00708885
-0.00241504
-0.000335739
-0.000165457
-0.00110122
-0.00311737
-0.00599414
-0.00959767
-0.0138416
-0.0186404
-0.0239124
-0.0295834
-0.0355867
-0.0418623
-0.0483572
-0.0550247
-0.0618245
-0.0687216
-0.0756862
-0.0826934
-0.0897219
-0.0967541
-0.103775
-0.110774
-0.117738
-0.124661
-0.131533
-0.138348
-0.145099
-0.151778
-0.158377
-0.164888
-0.171301
-0.177603
-0.183781
-0.189818
-0.195695
-0.201389
-0.206875
-0.212123
-0.217098
-0.221762
-0.22607
-0.229974
-0.233419
-0.236344
-0.238683
-0.240366
-0.241315
-0.241452
-0.240693
-0.238955
-0.236156
-0.232218
-0.227074
-0.220665
-0.212954
-0.203923
-0.193586
-0.181989
-0.169216
-0.155396
-0.140701
-0.125348
-0.109596
-0.0937398
-0.0781041
-0.0630299
-0.0488639
-0.0359457
-0.0245959
-0.0150971
-0.00767925
-0.0026256
-0.000367763
-0.000162247
-0.00108249
-0.0030677
-0.00590268
-0.00945584
-0.0136417
-0.018375
-0.0235743
-0.0291653
-0.0350806
-0.0412602
-0.0476507
-0.0542054
-0.0608838
-0.0676512
-0.0744784
-0.0813407
-0.088218
-0.0950936
-0.101954
-0.108789
-0.115589
-0.122347
-0.129058
-0.135716
-0.142317
-0.148855
-0.155326
-0.161723
-0.168039
-0.174264
-0.180389
-0.186399
-0.192278
-0.198007
-0.203564
-0.208922
-0.214049
-0.21891
-0.223462
-0.22766
-0.231449
-0.23477
-0.237557
-0.239738
-0.241234
-0.24196
-0.241828
-0.240746
-0.238622
-0.235366
-0.230893
-0.225129
-0.218017
-0.209519
-0.199626
-0.188366
-0.175806
-0.162058
-0.147285
-0.131702
-0.115573
-0.0992044
-0.0829425
-0.0671569
-0.0522294
-0.038539
-0.0264483
-0.0162812
-0.00830624
-0.00285061
-0.000402368
-0.000158707
-0.00106176
-0.00301258
-0.00580076
-0.00929705
-0.0134167
-0.0180747
-0.0231895
-0.0286864
-0.0344977
-0.040563
-0.0468284
-0.0532472
-0.0597789
-0.066389
-0.0730487
-0.0797341
-0.0864258
-0.0931084
-0.0997698
-0.106401
-0.112994
-0.119545
-0.126049
-0.132504
-0.138907
-0.145255
-0.151547
-0.157779
-0.163946
-0.170042
-0.176061
-0.18199
-0.187819
-0.193532
-0.199108
-0.204526
-0.209757