/*--------------------------------*- C++ -*----------------------------------*\
  =========                 |
  \\      /  F ield         | OpenFOAM: The Open Source CFD Toolbox
   \\    /   O peration     | Website:  https://openfoam.org
    \\  /    A nd           | Version:  dev
     \\/     M anipulation  |
\*---------------------------------------------------------------------------*/
FoamFile
{
    format      ascii;
    class       volScalarField;
    location    "23.4";
    object      Uy;
}
// * * * * * * * * * * * * * * * * * * * * * * * * * * * * * * * * * * * * * //

dimensions      [0 1 -1 0 0 0 0];

internalField   nonuniform List<scalar> 
5184
(
-1.27723e-05
-2.09149e-05
-1.72485e-05
-8.1896e-06
2.67484e-06
1.36184e-05
2.38412e-05
3.30374e-05
4.10895e-05
4.8003e-05
5.38394e-05
5.86837e-05
6.26282e-05
6.57644e-05
6.81769e-05
6.99408e-05
7.11205e-05
7.17683e-05
7.19252e-05
7.16206e-05
7.0874e-05
6.96957e-05
6.80889e-05
6.60505e-05
6.35732e-05
6.06473e-05
5.72624e-05
5.3409e-05
4.90799e-05
4.42721e-05
3.89881e-05
3.32373e-05
2.70366e-05
2.04122e-05
1.33995e-05
6.04427e-06
-1.59734e-06
-9.45896e-06
-1.74642e-05
-2.55273e-05
-3.35539e-05
-4.14425e-05
-4.9086e-05
-5.63735e-05
-6.31926e-05
-6.94314e-05
-7.49813e-05
-7.97392e-05
-8.36106e-05
-8.65119e-05
-8.83725e-05
-8.91373e-05
-8.8768e-05
-8.72448e-05
-8.45672e-05
-8.07547e-05
-7.58464e-05
-6.99011e-05
-6.29962e-05
-5.52278e-05
-4.67097e-05
-3.75747e-05
-2.79775e-05
-1.81003e-05
-8.16877e-06
1.52194e-06
1.05494e-05
1.82772e-05
2.36943e-05
2.51101e-05
1.98393e-05
6.24389e-06
-4.59586e-05
-6.57255e-05
-4.05375e-05
7.65572e-06
6.56814e-05
0.000125963
0.000184233
0.000238243
0.000286859
0.000329639
0.000366542
0.000397759
0.000423602
0.000444437
0.00046064
0.000472571
0.000480552
0.000484858
0.000485712
0.000483286
0.000477701
0.000469034
0.000457324
0.000442578
0.000424787
0.000403926
0.000379971
0.000352905
0.000322729
0.00028947
0.000253188
0.000213986
0.000172013
0.000127472
8.06225e-05
3.17833e-05
-1.86673e-05
-7.02914e-05
-0.000122595
-0.00017503
-0.000227004
-0.000277885
-0.000327012
-0.000373707
-0.000417287
-0.000457076
-0.000492421
-0.00052271
-0.000547381
-0.00056594
-0.000577974
-0.000583165
-0.000581295
-0.000572262
-0.000556082
-0.000532892
-0.000502957
-0.000466664
-0.000424529
-0.00037719
-0.000325416
-0.00027011
-0.000212333
-0.000153335
-9.46253e-05
-3.80838e-05
1.38345e-05
5.78256e-05
8.93011e-05
0.000101769
8.64622e-05
3.64737e-05
-8.12924e-05
-9.49732e-05
-1.90711e-05
0.000105954
0.000254607
0.000410456
0.000563199
0.000706704
0.000837529
0.000953968
0.00105543
0.001142
0.0012142
0.00127276
0.00131849
0.00135223
0.00137472
0.00138666
0.00138861
0.001381
0.00136417
0.00133833
0.00130362
0.00126011
0.00120779
0.00114667
0.00107673
0.000997977
0.00091049
0.000814401
0.000709943
0.00059746
0.000477425
0.000350451
0.000217306
7.89096e-05
-6.36579e-05
-0.000209162
-0.000356222
-0.000503321
-0.000648824
-0.000791002
-0.000928052
-0.00105813
-0.0011794
-0.00129002
-0.00138826
-0.00147247
-0.00154114
-0.00159296
-0.00162684
-0.00164193
-0.00163768
-0.00161382
-0.00157042
-0.00150789
-0.00142697
-0.00132876
-0.0012147
-0.0010866
-0.000946631
-0.00079736
-0.00064179
-0.00048345
-0.000326535
-0.000176129
-3.85458e-05
7.82029e-05
0.000163826
0.000205166
0.00018612
9.0336e-05
-9.76669e-05
-7.30262e-05
8.48649e-05
0.000318341
0.000589927
0.000874017
0.00115359
0.00141788
0.00166041
0.00187766
0.00206806
0.00223138
0.00236816
0.00247945
0.00256652
0.0026307
0.00267326
0.00269537
0.00269799
0.00268192
0.00264777
0.00259594
0.00252671
0.00244025
0.00233663
0.0022159
0.00207811
0.00192336
0.00175188
0.00156401
0.00136027
0.00114139
0.000908356
0.000662399
0.000405033
0.000138056
-0.000136444
-0.000416099
-0.000698277
-0.000980102
-0.00125849
-0.00153019
-0.00179183
-0.00203996
-0.00227114
-0.00248199
-0.00266926
-0.00282991
-0.00296116
-0.00306058
-0.00312616
-0.00315635
-0.00315013
-0.00310706
-0.00302727
-0.00291156
-0.00276135
-0.00257874
-0.00236648
-0.00212803
-0.00186752
-0.00158985
-0.00130074
-0.00100685
-0.000715983
-0.00043741
-0.00018227
3.5838e-05
0.000200204
0.000290444
0.000282277
0.00014717
-8.4302e-05
2.1033e-05
0.000295492
0.000667885
0.00109044
0.00152926
0.00196094
0.00237
0.00274674
0.00308552
0.00338358
0.0036401
0.00385554
0.00403114
0.00416855
0.00426961
0.00433609
0.00436965
0.00437171
0.00434344
0.00428575
0.0041993
0.00408454
0.00394179
0.00377122
0.00357299
0.00334729
0.0030944
0.00281475
0.00250902
0.00217814
0.00182339
0.00144642
0.00104927
0.000634427
0.000204803
-0.000236243
-0.000684927
-0.00113706
-0.0015881
-0.00203318
-0.00246718
-0.00288482
-0.00328072
-0.00364949
-0.00398587
-0.00428481
-0.00454157
-0.00475184
-0.00491186
-0.00501851
-0.00506941
-0.00506297
-0.00499852
-0.00487631
-0.00469761
-0.00446467
-0.00418082
-0.00385044
-0.00347897
-0.00307299
-0.00264023
-0.00218967
-0.00173171
-0.0012784
-0.000843777
-0.000444318
-9.95701e-05
0.000167142
0.000328099
0.000350578
0.000193965
-3.74133e-05
0.000197467
0.000626829
0.00116999
0.00177102
0.00238911
0.00299521
0.00356955
0.0040993
0.00457668
0.00499764
0.00536068
0.00566605
0.00591511
0.00610984
0.00625251
0.00634539
0.00639062
0.00639007
0.0063453
0.00625754
0.00612773
0.00595654
0.00574444
0.00549178
0.00519889
0.00486615
0.00449407
0.00408343
0.00363532
0.00315123
0.0026331
0.00208342
0.00150523
0.000902169
0.000278492
-0.000360943
-0.00101069
-0.00166474
-0.00231661
-0.00295936
-0.00358573
-0.00418824
-0.00475926
-0.00529122
-0.00577667
-0.00620848
-0.00658
-0.00688515
-0.00711865
-0.0072761
-0.00735414
-0.00735056
-0.00726441
-0.00709606
-0.00684731
-0.00652137
-0.00612298
-0.00565836
-0.00513527
-0.00456306
-0.0039527
-0.00331687
-0.00267016
-0.00202928
-0.00141343
-0.000844708
-0.000348793
4.43586e-05
0.000299823
0.000376807
0.000224289
4.41928e-05
0.000461276
0.00108678
0.00183402
0.00264118
0.00346205
0.00426303
0.00502068
0.00571942
0.00634956
0.00690579
0.00738595
0.00779005
0.00811953
0.00837664
0.00856406
0.00868452
0.00874062
0.00873467
0.00866861
0.00854401
0.0083621
0.00812376
0.0078297
0.00748046
0.00707658
0.0066187
0.00610767
0.00554467
0.00493131
0.00426974
0.00356273
0.00281373
0.00202694
0.00120734
0.000360708
-0.0005064
-0.00138666
-0.00227202
-0.00315382
-0.00402282
-0.00486938
-0.00568354
-0.00645522
-0.00717437
-0.00783114
-0.00841612
-0.00892048
-0.0093362
-0.00965628
-0.0098749
-0.00998758
-0.0099914
-0.00988506
-0.00966906
-0.00934573
-0.00891936
-0.00839618
-0.00778447
-0.00709453
-0.00633873
-0.00553157
-0.00468978
-0.00383244
-0.00298124
-0.00216074
-0.00139886
-0.000727432
-0.000182926
0.000192874
0.00035187
0.000234713
0.000160511
0.000814324
0.00167913
0.002665
0.0037063
0.00475302
0.00576816
0.00672546
0.00760714
0.00840194
0.00910352
0.00970917
0.0102187
0.0106337
0.0109566
0.0111905
0.0113386
0.0114038
0.011389
0.0112965
0.0111282
0.0108855
0.0105696
0.0101815
0.0097219
0.00919165
0.00859168
0.00792324
0.007188
0.00638819
0.00552672
0.00460727
0.00363442
0.00261365
0.00155143
0.000455214
-0.000666566
-0.00180453
-0.0029484
-0.00408714
-0.00520902
-0.00630178
-0.00735281
-0.00834933
-0.00927862
-0.0101282
-0.0108862
-0.0115414
-0.0120836
-0.0125039
-0.012795
-0.012951
-0.0129684
-0.0128452
-0.0125821
-0.0121821
-0.0116503
-0.0109948
-0.0102259
-0.00935657
-0.00840247
-0.00738184
-0.00631567
-0.00522776
-0.00414497
-0.0030974
-0.00211883
-0.00124722
-0.000525326
-1.34686e-06
0.000270205
0.000223532
0.000310905
0.00125652
0.00240482
0.00366478
0.00496868
0.00626425
0.00751224
0.00868449
0.00976168
0.0107314
0.0115868
0.0123246
0.0129446
0.0134486
0.0138394
0.0141204
0.0142951
0.0143672
0.0143397
0.0142152
0.0139962
0.0136842
0.0132808
0.0127871
0.0122042
0.0115332
0.0107753
0.00993233
0.00900644
0.00800057
0.00691848
0.00576488
0.00454554
0.00326735
0.00193839
0.000567916
-0.000833615
-0.00225462
-0.00368246
-0.00510354
-0.00650347
-0.00786721
-0.0091793
-0.0104241
-0.011586
-0.0126497
-0.0136005
-0.0144249
-0.0151101
-0.0156453
-0.0160213
-0.016231
-0.0162695
-0.0161348
-0.0158273
-0.0153504
-0.0147106
-0.0139174
-0.0129833
-0.0119242
-0.010759
-0.00950996
-0.00820243
-0.00686512
-0.00553017
-0.00423334
-0.00301428
-0.00191698
-0.000990297
-0.000288355
0.000128708
0.000190098
0.000494471
0.00178662
0.00326298
0.00483296
0.00642831
0.00799576
0.00949502
0.0108969
0.0121813
0.0133352
0.0143515
0.0152268
0.0159613
0.0165567
0.0170163
0.0173441
0.0175439
0.0176198
0.0175753
0.0174134
0.0171368
0.0167473
0.0162469
0.0156368
0.0149185
0.0140932
0.0131629
0.0121295
0.010996
0.00976606
0.00844428
0.00703651
0.00554979
0.0039925
0.00237443
0.000706748
-0.000997983
-0.00272586
-0.00446174
-0.00618935
-0.00789149
-0.00955018
-0.011147
-0.0126631
-0.01408
-0.0153793
-0.0165435
-0.0175561
-0.0184019
-0.0190679
-0.0195427
-0.0198178
-0.0198872
-0.019748
-0.0194007
-0.018849
-0.0181003
-0.0171658
-0.0160604
-0.0148027
-0.0134151
-0.0119238
-0.0103588
-0.00875367
-0.00714607
-0.00557742
-0.0040933
-0.00274366
-0.00158321
-0.00067169
-7.42327e-05
0.000134331
0.000710176
0.00240272
0.00425151
0.00616759
0.00808338
0.00994582
0.0117146
0.0133604
0.0148631
0.0162097
0.0173932
0.0184107
0.0192624
0.0199508
0.0204796
0.0208531
0.021076
0.0211525
0.0210866
0.0208818
0.0205408
0.0200662
0.0194597
0.0187232
0.0178582
0.0168665
0.0157502
0.0145121
0.0131555
0.0116849
0.010106
0.00842563
0.0066523
0.00479588
0.00286791
0.00088156
-0.00114843
-0.00320574
-0.00527264
-0.00733007
-0.0093579
-0.0113351
-0.01324
-0.0150508
-0.0167454
-0.0183024
-0.0197012
-0.0209222
-0.0219476
-0.0227617
-0.0233511
-0.0237053
-0.023817
-0.0236824
-0.0233018
-0.0226791
-0.0218226
-0.0207452
-0.0194638
-0.0179999
-0.0163795
-0.0146327
-0.0127943
-0.010903
-0.00900185
-0.00713808
-0.00536319
-0.0037331
-0.00230827
-0.00115379
-0.000339453
5.63982e-05
0.000956942
0.00310252
0.00536754
0.00766557
0.00993074
0.0121112
0.0141676
0.0160714
0.0178032
0.0193505
0.020707
0.0218705
0.0228418
0.0236242
0.0242219
0.0246399
0.0248834
0.0249572
0.0248656
0.0246125
0.024201
0.0236339
0.0229132
0.022041
0.0210192
0.0198499
0.0185355
0.0170795
0.0154857
0.0137596
0.0119076
0.00993797
0.00786036
0.00568631
0.00342913
0.001104
-0.00127207
-0.00368032
-0.00610036
-0.00851026
-0.0108869
-0.0132059
-0.0154426
-0.0175715
-0.0195672
-0.0214051
-0.0230609
-0.024512
-0.0257376
-0.026719
-0.0274404
-0.0278894
-0.028057
-0.0279383
-0.0275329
-0.0268449
-0.0258836
-0.0246629
-0.0232021
-0.0215255
-0.0196625
-0.0176475
-0.0155199
-0.0133235
-0.0111071
-0.00892382
-0.00683108
-0.00489079
-0.00316919
-0.00173666
-0.000667516
-4.3482e-05
0.00123368
0.00388348
0.00660764
0.00932299
0.0119662
0.0144877
0.0168497
0.0190254
0.0209967
0.0227524
0.0242874
0.0256004
0.0266934
0.0275704
0.0282365
0.0286975
0.0289592
0.0290268
0.0289054
0.0285991
0.0281113
0.027445
0.0266027
0.0255866
0.0243989
0.023042
0.0215189
0.0198332
0.0179898
0.0159947
0.0138554
0.0115812
0.00918321
0.00667449
0.00407016
0.00138743
-0.00135446
-0.00413426
-0.00692884
-0.0097134
-0.0124616
-0.0151461
-0.0177383
-0.0202095
-0.0225308
-0.0246737
-0.0266105
-0.028315
-0.0297631
-0.0309331
-0.0318065
-0.0323682
-0.0326074
-0.0325179
-0.0320984
-0.031353
-0.0302913
-0.0289286
-0.0272862
-0.0253912
-0.0232765
-0.0209806
-0.0185475
-0.0160267
-0.0134724
-0.0109437
-0.00850442
-0.00622241
-0.0041698
-0.00242237
-0.00105907
-0.000165176
0.00153929
0.00474289
0.00796799
0.0111353
0.0141848
0.0170698
0.0197553
0.0222167
0.0244378
0.0264095
0.0281282
0.0295941
0.0308105
0.0317826
0.0325166
0.0330191
0.0332966
0.0333551
0.0332001
0.032836
0.0322667
0.0314956
0.0305251
0.0293579
0.0279964
0.0264433
0.0247019
0.0227765
0.0206724
0.0183965
0.0159571
0.0133647
0.0106318
0.0077728
0.00480473
0.00174674
-0.00137967
-0.00455077
-0.00774072
-0.0109218
-0.0140644
-0.0171379
-0.0201102
-0.0229488
-0.025621
-0.0280945
-0.0303379
-0.032321
-0.0340162
-0.0353984
-0.0364457
-0.0371405
-0.0374697
-0.0374252
-0.0370046
-0.0362115
-0.0350558
-0.033554
-0.031729
-0.0296107
-0.0272354
-0.0246458
-0.0218909
-0.0190252
-0.0161091
-0.0132078
-0.0103915
-0.00773426
-0.00531444
-0.00321342
-0.00151509
-0.000308722
0.00187268
0.00567793
0.00944449
0.0130975
0.0165809
0.0198517
0.0228782
0.0256387
0.0281199
0.030315
0.0322225
0.0338446
0.0351862
0.036254
0.0370554
0.0375981
0.0378893
0.037936
0.0377439
0.0373183
0.0366632
0.0357821
0.034678
0.0333537
0.0318117
0.0300551
0.0280875
0.0259137
0.0235395
0.0209725
0.018222
0.0152994
0.0122184
0.00899505
0.00564796
0.00219826
-0.00133037
-0.00491175
-0.00851733
-0.0121164
-0.0156763
-0.0191627
-0.0225401
-0.025772
-0.0288219
-0.0316533
-0.0342305
-0.0365197
-0.0384888
-0.0401091
-0.0413552
-0.0422061
-0.0426461
-0.042665
-0.0422587
-0.0414299
-0.0401887
-0.0385521
-0.0365449
-0.0341993
-0.031555
-0.028659
-0.0255651
-0.0223334
-0.0190303
-0.0157275
-0.0125016
-0.00943369
-0.00660833
-0.00411302
-0.00203707
-0.000474386
0.00223271
0.00668561
0.0110327
0.0152041
0.0191482
0.0228265
0.0262111
0.0292841
0.0320354
0.0344613
0.0365628
0.0383444
0.0398131
0.0409773
0.0418458
0.0424275
0.0427309
0.0427635
0.0425317
0.0420413
0.0412968
0.0403019
0.0390598
0.0375734
0.0358456
0.0338796
0.0316795
0.0292502
0.0265981
0.0237315
0.0206604
0.0173971
0.0139566
0.0103562
0.00661621
0.00275955
-0.00118796
-0.00519778
-0.0092387
-0.013277
-0.0172769
-0.0212006
-0.0250087
-0.0286609
-0.0321165
-0.0353345
-0.0382751
-0.0408997
-0.0431721
-0.0450591
-0.0465314
-0.0475645
-0.0481391
-0.0482425
-0.0478685
-0.0470187
-0.0457024
-0.0439374
-0.0417496
-0.0391737
-0.0362527
-0.0330375
-0.029587
-0.0259671
-0.0222505
-0.0185154
-0.0148457
-0.0113293
-0.00805779
-0.0051253
-0.00262717
-0.000662703
0.00261823
0.00776285
0.012728
0.0174492
0.02188
0.0259867
0.0297462
0.0331447
0.0361761
0.0388401
0.0411407
0.0430853
0.0446831
0.0459446
0.0468803
0.0475005
0.0478148
0.0478316
0.0475582
0.0470007
0.046164
0.0450523
0.0436689
0.0420169
0.0400994
0.0379197
0.0354821
0.0327919
0.0298559
0.0266827
0.0232832
0.0196706
0.0158607
0.0118722
0.0077268
0.00344922
-0.000932756
-0.00538829
-0.0098836
-0.0143821
-0.0188447
-0.0232302
-0.0274954
-0.0315958
-0.0354862
-0.0391214
-0.0424566
-0.0454486
-0.0480561
-0.0502413
-0.0519704
-0.0532146
-0.0539508
-0.0541629
-0.0538423
-0.0529886
-0.0516104
-0.0497252
-0.0473603
-0.0445523
-0.0413472
-0.0378003
-0.0339753
-0.0299442
-0.025786
-0.0215862
-0.0174361
-0.0134311
-0.00967045
-0.00625545
-0.00328825
-0.000874507
0.00302804
0.00890639
0.0145254
0.0198265
0.0247689
0.0293244
0.033475
0.0372118
0.040533
0.0434422
0.0459472
0.0480583
0.0497876
0.0511475
0.0521508
0.0528093
0.0531339
0.0531339
0.0528176
0.0521915
0.0512611
0.0500308
0.0485041
0.0466843
0.0445744
0.0421782
0.0394998
0.0365449
0.0333205
0.0298358
0.0261019
0.022133
0.0179455
0.0135595
0.00899776
0.00428668
-0.000544133
-0.00546167
-0.0104297
-0.0154088
-0.0203567
-0.0252286
-0.0299776
-0.034555
-0.0389109
-0.0429954
-0.0467586
-0.050152
-0.0531292
-0.055647
-0.0576666
-0.0591541
-0.0600821
-0.0604306
-0.0601876
-0.0593505
-0.0579261
-0.0559316
-0.0533949
-0.0503543
-0.0468589
-0.0429679
-0.0387503
-0.034284
-0.029655
-0.0249563
-0.020287
-0.0157509
-0.0114554
-0.00750981
-0.004024
-0.00111094
0.00346088
0.0101128
0.0164197
0.0223294
0.0278072
0.0328308
0.0373881
0.0414755
0.0450961
0.0482579
0.0509725
0.0532539
0.055117
0.0565771
0.0576488
0.0583459
0.0586807
0.0586637
0.0583039
0.0576087
0.056584
0.0552343
0.0535635
0.0515749
0.0492717
0.0466576
0.0437369
0.0405153
0.037
0.0332003
0.029128
0.0247975
0.0202262
0.0154348
0.0104475
0.00529183
-8.12207e-07
-0.00539547
-0.0108535
-0.016333
-0.0217884
-0.0271715
-0.0324314
-0.0375152
-0.0423683
-0.0469357
-0.0511621
-0.0549934
-0.0583775
-0.0612654
-0.0636123
-0.0653789
-0.0665326
-0.0670487
-0.0669113
-0.0661143
-0.0646627
-0.0625725
-0.0598716
-0.0565999
-0.0528091
-0.0485624
-0.043934
-0.039008
-0.0338776
-0.0286439
-0.0234146
-0.0183022
-0.0134232
-0.00889599
-0.00483892
-0.00137348
0.00391543
0.0113785
0.0184054
0.0249507
0.0309864
0.0364968
0.0414758
0.0459257
0.0498549
0.0532763
0.0562059
0.0586615
0.0606612
0.0622233
0.0633647
0.0641013
0.0644468
0.0644132
0.0640104
0.0632464
0.0621277
0.0606591
0.0588447
0.0566878
0.0541917
0.05136
0.048197
0.0447083
0.0409013
0.0367853
0.0323723
0.0276771
0.0227175
0.0175149
0.0120944
0.00648482
0.000718867
-0.00516666
-0.011131
-0.0171296
-0.0231141
-0.0290328
-0.0348308
-0.040451
-0.0458339
-0.0509191
-0.0556457
-0.0599537
-0.0637845
-0.0670828
-0.0697974
-0.0718825
-0.0732997
-0.0740185
-0.0740184
-0.0732892
-0.0718329
-0.0696637
-0.0668091
-0.06331
-0.0592203
-0.0546072
-0.0495499
-0.0441392
-0.0384759
-0.0326694
-0.0268367
-0.0211002
-0.0155862
-0.0104228
-0.0057384
-0.00166392
0.00439027
0.0126995
0.0204765
0.0276829
0.0342979
0.0403125
0.0457274
0.0505512
0.054798
0.058486
0.061636
0.0642696
0.066409
0.0680753
0.0692882
0.0700656
0.0704231
0.070374
0.0699294
0.0690979
0.0678865
0.0663006
0.0643442
0.0620209
0.0593338
0.0562863
0.0528827
0.0491285
0.0450308
0.040599
0.0358451
0.0307838
0.0254335
0.0198159
0.0139567
0.00788557
0.00163661
-0.00475193
-0.0112374
-0.0177728
-0.024307
-0.0307851
-0.0371483
-0.0433349
-0.0492807
-0.0549198
-0.0601853
-0.0650106
-0.0693306
-0.0730827
-0.0762086
-0.0786554
-0.0803778
-0.0813388
-0.0815119
-0.0808823
-0.0794478
-0.0772202
-0.0742256
-0.0705054
-0.0661154
-0.0611265
-0.0556231
-0.0497025
-0.0434736
-0.037055
-0.0305735
-0.0241621
-0.0179581
-0.0121006
-0.00672871
-0.00198441
0.00488393
0.014072
0.0226269
0.0305181
0.0377321
0.0442673
0.0501317
0.0553402
0.0599133
0.0638747
0.0672502
0.0700662
0.0723484
0.0741215
0.0754079
0.076228
0.0765993
0.0765366
0.076052
0.0751551
0.0738536
0.0721529
0.0700576
0.0675709
0.064696
0.0614362
0.0577954
0.0537789
0.0493935
0.0446483
0.0395551
0.0341287
0.0283873
0.0223528
0.0160514
0.00951345
0.00277376
-0.00412805
-0.0111477
-0.0182361
-0.0253394
-0.0323996
-0.0393543
-0.0461373
-0.0526794
-0.0589091
-0.0647533
-0.0701386
-0.0749924
-0.0792446
-0.0828289
-0.0856844
-0.0877578
-0.0890048
-0.089392
-0.0888983
-0.0875167
-0.0852553
-0.0821384
-0.0782067
-0.0735177
-0.0681454
-0.0621795
-0.0557241
-0.0488964
-0.0418247
-0.0346467
-0.0275068
-0.0205544
-0.0139408
-0.00781701
-0.00233743
0.00539482
0.0154915
0.0248501
0.0334478
0.0412792
0.0483504
0.0546767
0.0602802
0.0651878
0.0694292
0.0730355
0.0760379
0.0784663
0.080349
0.0817115
0.0825766
0.082964
0.08289
0.0823681
0.0814089
0.0800204
0.0782088
0.0759784
0.0733328
0.0702749
0.0668076
0.0629346
0.0586607
0.0539923
0.0489382
0.0435096
0.037721
0.0315903
0.0251396
0.0183948
0.0113868
0.00415089
-0.00327228
-0.0108371
-0.0184927
-0.0261829
-0.0338467
-0.0414181
-0.0488267
-0.0559984
-0.0628557
-0.0693193
-0.0753084
-0.0807428
-0.085544
-0.0896369
-0.0929519
-0.0954267
-0.0970082
-0.097655
-0.0973386
-0.096046
-0.0937805
-0.0905632
-0.0864336
-0.08145
-0.0756894
-0.0692462
-0.0622315
-0.0547714
-0.0470046
-0.0390802
-0.0311553
-0.0233923
-0.0159562
-0.00901138
-0.00272581
0.00592127
0.0169536
0.027139
0.0364632
0.0449288
0.05255
0.0593499
0.0653579
0.0706077
0.0751354
0.0789776
0.0821706
0.0847487
0.086744
0.0881853
0.0890981
0.0895043
0.089422
0.0888662
0.0878482
0.086377
0.084459
0.0820988
0.0792998
0.0760648
0.0723964
0.0682977
0.0637731
0.0588284
0.0534715
0.0477134
0.0415677
0.0350521
0.0281879
0.021001
0.0135223
0.00578726
-0.00216286
-0.0102814
-0.0185161
-0.0268088
-0.0350957
-0.0433075
-0.0513697
-0.0592033
-0.0667251
-0.073849
-0.0804869
-0.0865503
-0.0919518
-0.0966067
-0.100436
-0.103366
-0.105336
-0.106293
-0.106201
-0.105039
-0.102804
-0.0995137
-0.0952044
-0.0899347
-0.0837836
-0.0768505
-0.0692534
-0.0611274
-0.0526222
-0.0438994
-0.0351299
-0.0264905
-0.0181611
-0.0103208
-0.00315271
0.00646153
0.0184535
0.0294866
0.039555
0.0486699
0.0568539
0.0641381
0.0705594
0.0761587
0.0809785
0.0850615
0.0884491
0.0911804
0.0932914
0.0948145
0.095778
0.0962061
0.096119
0.0955329
0.0944606
0.0929115
0.0908925
0.0884085
0.0854628
0.0820578
0.0781959
0.0738797
0.0691126
0.0638998
0.0582486
0.0521688
0.0456735
0.0387793
0.0315071
0.0238821
0.0159346
0.00770033
-0.000779504
-0.00945762
-0.0182806
-0.0271886
-0.0361157
-0.0449894
-0.0537315
-0.0622579
-0.0704801
-0.078305
-0.085637
-0.0923789
-0.0984338
-0.103707
-0.108108
-0.111553
-0.113969
-0.115292
-0.115478
-0.114494
-0.112331
-0.109
-0.104535
-0.0989922
-0.0924526
-0.0850198
-0.0768187
-0.0679938
-0.0587064
-0.0491315
-0.039455
-0.0298694
-0.0205709
-0.0117551
-0.00362164
0.00701374
0.0199863
0.0318851
0.0427135
0.0524912
0.0612494
0.0690274
0.07587
0.0818255
0.086943
0.0912713
0.0948574
0.0977453
0.0999751
0.101583
0.1026
0.103054
0.102965
0.102353
0.101231
0.0996099
0.0974961
0.0948951
0.0918102
0.0882436
0.084197
0.0796725
0.0746727
0.069202
0.0632665
0.0568751
0.0500397
0.0427759
0.0351036
0.0270471
0.0186359
0.00990517
0.000895972
-0.00834428
-0.0177615
-0.0272947
-0.036876
-0.0464304
-0.0558759
-0.0651241
-0.0740809
-0.0826465
-0.0907176
-0.0981881
-0.104951
-0.1109
-0.115934
-0.119957
-0.122882
-0.124635
-0.125156
-0.124405
-0.122362
-0.11903
-0.114438
-0.108641
-0.10172
-0.093781
-0.0849568
-0.0754011
-0.0652874
-0.0548052
-0.0441563
-0.0335507
-0.0232024
-0.013325
-0.00413646
0.007576
0.0215468
0.0343269
0.0459287
0.0563809
0.0657232
0.0740035
0.0812746
0.0875921
0.0930122
0.0975901
0.101378
0.104426
0.106778
0.108473
0.109548
0.11003
0.109944
0.109311
0.108144
0.106456
0.104254
0.101544
0.0983278
0.0946087
0.0903873
0.0856651
0.0804438
0.0747267
0.0685189
0.0618278
0.0546641
0.0470422
0.0389804
0.0305018
0.0216349
0.0124139
0.0028791
-0.00692232
-0.0169362
-0.0271007
-0.0373467
-0.0475969
-0.0577663
-0.0677624
-0.0774855
-0.0868298
-0.0956839
-0.103933
-0.111458
-0.118144
-0.123875
-0.128542
-0.132044
-0.134293
-0.135216
-0.134759
-0.13289
-0.129605
-0.124924
-0.118897
-0.111606
-0.10316
-0.0936966
-0.08338
-0.0723963
-0.0609503
-0.0492611
-0.0375577
-0.0260736
-0.0150421
-0.00470138
0.00814632
0.0231297
0.0368038
0.0491903
0.0603268
0.0702617
0.0790515
0.0867572
0.0934419
0.0991691
0.104
0.107994
0.111204
0.113681
0.115467
0.116601
0.117115
0.117036
0.116386
0.11518
0.113432
0.111148
0.108336
0.104999
0.101137
0.0967514
0.0918432
0.0864128
0.0804624
0.0739957
0.0670188
0.0595408
0.0515744
0.0431363
0.0342481
0.0249368
0.015235
0.00518211
-0.00517563
-0.0157844
-0.0265823
-0.0374992
-0.0484562
-0.059366
-0.0701322
-0.0806504
-0.0908084
-0.100487
-0.109563
-0.117907
-0.12539
-0.131883
-0.137264
-0.141416
-0.144234
-0.14563
-0.145535
-0.143905
-0.14072
-0.135994
-0.129771
-0.122129
-0.11318
-0.103066
-0.0919612
-0.0800647
-0.0675977
-0.054798
-0.041915
-0.0292037
-0.016919
-0.00532092
0.00872265
0.0247295
0.0393076
0.0524877
0.0643164
0.0748509
0.0841562
0.0923016
0.0993579
0.105396
0.110483
0.114685
0.11806
0.120664
0.122543
0.12374
0.12429
0.124221
0.123558
0.122319
0.120515
0.118158
0.115253
0.111802
0.107808
0.10327
0.0981886
0.0925626
0.0863931
0.0796826
0.0724356
0.0646592
0.0563644
0.047566
0.0382836
0.0285423
0.018373
0.00781331
-0.00309169
-0.0142892
-0.0257177
-0.037307
-0.0489773
-0.060639
-0.0721931
-0.0835307
-0.0945338
-0.105076
-0.115025
-0.12424
-0.132581
-0.139905
-0.146072
-0.150949
-0.154415
-0.156363
-0.156707
-0.155385
-0.152366
-0.147648
-0.14127
-0.133304
-0.123862
-0.113091
-0.101174
-0.0883241
-0.0747788
-0.0607963
-0.0466483
-0.0326129
-0.0189689
-0.00599999
0.00930292
0.0263408
0.04183
0.0558103
0.068337
0.0794765
0.0893021
0.0978911
0.105322
0.111674
0.11702
0.121432
0.124974
0.127706
0.129681
0.130943
0.131531
0.131476
0.130805
0.129536
0.127684
0.12526
0.12227
0.118716
0.1146
0.109922
0.10468
0.0988722
0.0924992
0.0855612
0.0780612
0.0700043
0.0613994
0.0522592
0.0426009
0.0324474
0.0218274
0.0107765
-0.000662269
-0.0124375
-0.024489
-0.0367468
-0.049131
-0.061551
-0.0739052
-0.0860813
-0.0979562
-0.109397
-0.120261
-0.1304
-0.139658
-0.147879
-0.154907
-0.160589
-0.164786
-0.167371
-0.168237
-0.167304
-0.164522
-0.159877
-0.153394
-0.14514
-0.135223
-0.123796
-0.111048
-0.0972058
-0.0825256
-0.0672865
-0.0517843
-0.0363227
-0.0212059
-0.00674379
0.00988507
0.0279581
0.0443625
0.0591471
0.0723761
0.0841242
0.0944732
0.103509
0.111317
0.117984
0.12359
0.128213
0.131924
0.134787
0.136857
0.138186
0.138814
0.138776
0.1381
0.136807
0.134913
0.132428
0.129361
0.125713
0.121486
0.116679
0.11129
0.105317
0.0987562
0.0916084
0.083874
0.0755562
0.0666616
0.0572005
0.0471875
0.0366429
0.0255929
0.0140703
0.00211596
-0.010221
-0.0228822
-0.0357989
-0.0488918
-0.0620698
-0.0752302
-0.0882578
-0.101025
-0.113393
-0.125212
-0.136321
-0.146554
-0.155738
-0.163701
-0.170271
-0.175286
-0.178597
-0.180077
-0.179621
-0.17716
-0.172662
-0.166136
-0.157639
-0.147276
-0.1352
-0.121608
-0.10674
-0.0908695
-0.0742993
-0.0573507
-0.0403552
-0.0236449
-0.00755789
0.010467
0.0295757
0.0468968
0.0624877
0.0764209
0.0887796
0.099654
0.109138
0.117325
0.124307
0.130174
0.135009
0.138888
0.141881
0.144049
0.145445
0.146114
0.146095
0.145417
0.144103
0.142172
0.139634
0.136497
0.132764
0.128437
0.123514
0.117992
0.111867
0.105136
0.0977966
0.0898476
0.0812901
0.0721281
0.0623692
0.0520255
0.0411141
0.0296583
0.017688
0.00524084
-0.00763666
-0.0208886
-0.0344483
-0.0482379
-0.0621671
-0.0761325
-0.0900174
-0.103691
-0.117009
-0.129814
-0.141937
-0.153197
-0.163409
-0.17238
-0.17992
-0.185844
-0.189978
-0.19217
-0.192289
-0.190243
-0.185976
-0.17948
-0.170798
-0.160028
-0.14732
-0.132878
-0.116954
-0.0998416
-0.0818657
-0.0633759
-0.0447335
-0.0263014
-0.00844818
0.0110467
0.0311885
0.0494248
0.0658215
0.080459
0.0934287
0.104829
0.11476
0.123326
0.130624
0.136751
0.141797
0.145844
0.148966
0.15123
0.152693
0.153405
0.153405
0.152727
0.151396
0.149431
0.146844
0.143645
0.139836
0.135419
0.130392
0.12475
0.118489
0.111605
0.104094
0.0959508
0.0871759
0.0777704
0.0677392
0.0570912
0.0458404
0.0340067
0.0216165
0.00870424
-0.00468717
-0.0185049
-0.0326853
-0.0471528
-0.0618186
-0.0765802
-0.0913202
-0.105906
-0.120189
-0.134005
-0.147177
-0.159513
-0.170811
-0.180862
-0.189455
-0.19638
-0.201438
-0.204446
-0.205247
-0.203719
-0.19978
-0.1934
-0.184604
-0.173477
-0.160166
-0.144878
-0.127876
-0.109472
-0.0900163
-0.0698882
-0.0494813
-0.0291917
-0.00942086
0.0116223
0.0327912
0.0519388
0.0691385
0.0844785
0.0980577
0.109982
0.120361
0.129303
0.136915
0.1433
0.148555
0.152766
0.156016
0.158374
0.159904
0.160656
0.160676
0.159999
0.158653
0.156657
0.154027
0.150771
0.146894
0.142397
0.137276
0.131528
0.125147
0.118128
0.110463
0.102148
0.0931789
0.0835553
0.0732789
0.0623553
0.0507953
0.0386149
0.0258369
0.0124917
-0.00138177
-0.0157345
-0.0305066
-0.0456256
-0.0610058
-0.0765462
-0.0921303
-0.107625
-0.122878
-0.137722
-0.151971
-0.165423
-0.177862
-0.189061
-0.198786
-0.206805
-0.212889
-0.216824
-0.218422
-0.217526
-0.214025
-0.207861
-0.199034
-0.187615
-0.173741
-0.157621
-0.139527
-0.119788
-0.0987811
-0.0769166
-0.0546231
-0.0323325
-0.0104825
0.0121919
0.0343791
0.0544314
0.0724293
0.0884679
0.102653
0.115099
0.125922
0.135237
0.14316
0.1498
0.15526
0.159633
0.163006
0.165456
0.167048
0.167839
0.167877
0.167201
0.165839
0.163815
0.161145
0.157838
0.1539
0.14933
0.144127
0.138286
0.1318
0.124662
0.116863
0.108398
0.0992595
0.0894443
0.0789513
0.067783
0.0559464
0.0434537
0.0303236
0.0165821
0.00226361
-0.0125874
-0.0279154
-0.0436524
-0.0597162
-0.0760092
-0.0924169
-0.108807
-0.125026
-0.140904
-0.156248
-0.170848
-0.184473
-0.196881
-0.207817
-0.21702
-0.224234
-0.229211
-0.231727
-0.231588
-0.228647
-0.222812
-0.214054
-0.202423
-0.188042
-0.171116
-0.151925
-0.130815
-0.108189
-0.0844895
-0.0601833
-0.0357413
-0.0116398
0.0127539
0.0359478
0.0568959
0.075685
0.0924166
0.107204
0.120166
0.131428
0.141112
0.149341
0.156231
0.161889
0.166419
0.169911
0.172446
0.174096
0.174923
0.174976
0.174297
0.17292
0.170869
0.16816
0.164806
0.160811
0.156178
0.150903
0.14498
0.138404
0.131164
0.123251
0.114657
0.105374
0.0953942
0.0847145
0.0733339
0.0612556
0.0484878
0.0350447
0.0209476
0.00622604
-0.00908076
-0.0249225
-0.0412363
-0.0579449
-0.0749551
-0.0921561
-0.109417
-0.126588
-0.143494
-0.159941
-0.175709
-0.190558
-0.204228
-0.216444
-0.226919
-0.235366
-0.241503
-0.245064
-0.245816
-0.243569
-0.23819
-0.229618
-0.217871
-0.203055
-0.185365
-0.165084
-0.142575
-0.118266
-0.0926346
-0.0661867
-0.0394356
-0.0128999
0.0133068
0.0374934
0.0593265
0.0788981
0.0963152
0.111697
0.12517
0.136864
0.146911
0.155439
0.162571
0.168422
0.1731
0.176703
0.179317
0.181019
0.181874
0.181938
0.181254
0.179858
0.177778
0.175032
0.171633
0.167587
0.162895
0.157557
0.151564
0.14491
0.137585
0.129578
0.120877
0.111474
0.101357
0.0905219
0.0789628
0.0666796
0.0536761
0.0399622
0.0255539
0.0104756
-0.00523921
-0.0215462
-0.0383885
-0.0556948
-0.0733776
-0.0913312
-0.109429
-0.127524
-0.145441
-0.162985
-0.17993
-0.196027
-0.211002
-0.224559
-0.236389
-0.246169
-0.253582
-0.258321
-0.260105
-0.258698
-0.253919
-0.245665
-0.233917
-0.218754
-0.200358
-0.179011
-0.155086
-0.129038
-0.101379
-0.0726577
-0.0434336
-0.0142701
0.0138494
0.0390129
0.0617183
0.0820619
0.100155
0.116123
0.130099
0.142218
0.152618
0.161436
0.1688
0.174834
0.179652
0.183356
0.18604
0.187786
0.188662
0.188728
0.188033
0.186615
0.184503
0.181718
0.178275
0.17418
0.169436
0.164041
0.157989
0.151271
0.143876
0.135792
0.127007
0.117507
0.107283
0.0963228
0.0846199
0.0721697
0.0589721
0.0450319
0.0303602
0.0149756
-0.00109468
-0.0178126
-0.0351282
-0.0529772
-0.0712791
-0.0899345
-0.108823
-0.127802
-0.1467
-0.165321
-0.183438
-0.200795
-0.217105
-0.232055
-0.24531
-0.256519
-0.265324
-0.271374
-0.274338
-0.273926
-0.269905
-0.262119
-0.250504
-0.235105
-0.21608
-0.193704
-0.16836
-0.140524
-0.110747
-0.0796205
-0.0477534
-0.0157581
0.0143809
0.0405039
0.0640677
0.0851715
0.103931
0.120475
0.134942
0.147476
0.158219
0.167315
0.174901
0.181106
0.18605
0.189844
0.192587
0.194364
0.195251
0.195312
0.194598
0.19315
0.191002
0.188175
0.184687
0.180545
0.175753
0.170308
0.164204
0.157434
0.149983
0.141841
0.132991
0.123421
0.113116
0.102063
0.0902514
0.0776734
0.0643245
0.0502048
0.0353199
0.0196826
0.0033138
-0.0137557
-0.0314832
-0.0498125
-0.0686711
-0.0879677
-0.10759