/*--------------------------------*- C++ -*----------------------------------*\
  =========                 |
  \\      /  F ield         | OpenFOAM: The Open Source CFD Toolbox
   \\    /   O peration     | Website:  https://openfoam.org
    \\  /    A nd           | Version:  dev
     \\/     M anipulation  |
\*---------------------------------------------------------------------------*/
FoamFile
{
    format      ascii;
    class       volScalarField;
    location    "42.75";
    object      p;
}
// * * * * * * * * * * * * * * * * * * * * * * * * * * * * * * * * * * * * * //

dimensions      [0 2 -2 0 0 0 0];

internalField   nonuniform List<scalar> 
5184
(
1.1491e-06
-1.06158e-05
-9.65425e-05
-0.000249496
-0.000448991
-0.000677755
-0.000921548
-0.00116838
-0.00140914
-0.00163666
-0.00184554
-0.00203173
-0.0021923
-0.00232514
-0.00242879
-0.00250223
-0.00254481
-0.00255607
-0.00253575
-0.00248368
-0.00239976
-0.00228399
-0.00213641
-0.00195715
-0.00174646
-0.00150472
-0.00123247
-0.000930454
-0.000599664
-0.000241373
0.000142836
0.000551033
0.000980924
0.00142984
0.0018947
0.00237208
0.00285815
0.00334875
0.00383939
0.00432534
0.00480164
0.00526323
0.00570499
0.00612181
0.00650876
0.00686113
0.00717453
0.00744506
0.00766932
0.00784459
0.00796886
0.00804092
0.00806042
0.00802793
0.00794495
0.00781392
0.00763825
0.00742224
0.00717111
0.00689093
0.00658855
0.0062716
0.00594838
0.00562786
0.00531959
0.00503366
0.00478059
0.00457098
0.00441482
0.00432053
0.00429361
0.00432091
1.44614e-05
1.95301e-06
-7.26677e-05
-0.000200491
-0.000365815
-0.000556174
-0.000760631
-0.000969576
-0.00117507
-0.00137074
-0.00155154
-0.00171356
-0.00185381
-0.00197007
-0.00206068
-0.00212447
-0.00216056
-0.00216837
-0.00214745
-0.00209753
-0.00201841
-0.00191003
-0.00177238
-0.00160557
-0.00140983
-0.00118552
-0.000933166
-0.000653507
-0.000347496
-1.63498e-05
0.000338424
0.000715007
0.00111125
0.00152465
0.00195238
0.00239124
0.00283772
0.003288
0.00373799
0.00418335
0.00461959
0.0050421
0.00544624
0.00582743
0.00618121
0.00650336
0.00678996
0.00703754
0.00724311
0.00740429
0.00751935
0.0075873
0.00760795
0.00758191
0.00751067
0.00739655
0.00724273
0.00705324
0.00683287
0.00658718
0.00632243
0.00604549
0.0057638
0.00548529
0.00521827
0.00497131
0.0047531
0.00457202
0.00443536
0.00434905
0.00432048
0.00434811
0.00010113
7.63991e-05
1.02328e-06
-0.000116573
-0.000264347
-0.000432659
-0.00061281
-0.000796962
-0.000978407
-0.00115158
-0.00131198
-0.00145602
-0.00158088
-0.0016844
-0.00176491
-0.00182118
-0.00185229
-0.00185755
-0.00183646
-0.00178867
-0.00171391
-0.00161206
-0.00148307
-0.00132701
-0.00114407
-0.000934577
-0.000699015
-0.000438064
-0.00015262
0.000156173
0.000486903
0.000837866
0.00120705
0.00159212
0.00199043
0.00239902
0.0028146
0.00323362
0.00365227
0.00406655
0.00447227
0.00486516
0.00524094
0.00559536
0.00592431
0.00622389
0.00649051
0.00672099
0.00691259
0.00706316
0.00717117
0.00723575
0.00725681
0.00723497
0.0071717
0.00706921
0.00693053
0.00675943
0.0065604
0.0063386
0.00609981
0.00585031
0.00559688
0.00534662
0.00510692
0.00488521
0.00468901
0.00452537
0.00440033
0.00431911
0.00429131
0.00432196
0.000256192
0.000204778
0.000116938
-2.05493e-06
-0.000144556
-0.000302768
-0.000469564
-0.000638578
-0.000804272
-0.000961949
-0.00110774
-0.00123851
-0.00135174
-0.00144548
-0.00151819
-0.00156868
-0.00159607
-0.00159966
-0.00157891
-0.00153345
-0.00146297
-0.0013673
-0.00124635
-0.00110013
-0.000928774
-0.000732548
-0.000511874
-0.000267356
1.93898e-07
0.000289729
0.000599947
0.000929266
0.00127582
0.00163742
0.0020116
0.00239558
0.00278627
0.00318034
0.00357421
0.00396409
0.00434604
0.00471605
0.00507004
0.00540403
0.00571411
0.00599662
0.00624816
0.00646574
0.00664677
0.00678925
0.00689174
0.00695347
0.00697435
0.00695504
0.00689693
0.00680218
0.00667364
0.00651492
0.00633025
0.00612448
0.005903
0.00567164
0.00543662
0.00520442
0.00498172
0.00477518
0.00459143
0.00443674
0.00431655
0.0042359
0.00420487
0.00423014
0.000460997
0.00037239
0.000263756
0.000136012
-8.40309e-06
-0.000163311
-0.000322938
-0.000482289
-0.000636961
-0.000783148
-0.000917665
-0.0010379
-0.00114174
-0.00122749
-0.00129383
-0.0013397
-0.00136428
-0.00136691
-0.00134709
-0.0013044
-0.00123853
-0.00114926
-0.00103644
-0.000900036
-0.000740108
-0.000556844
-0.00035058
-0.000121826
0.000128709
0.000400093
0.000691147
0.00100043
0.00132621
0.00166647
0.00201891
0.00238091
0.00274959
0.00312178
0.00349409
0.00386294
0.00422457
0.00457515
0.0049108
0.00522769
0.00552209
0.00579048
0.0060296
0.00623657
0.00640891
0.0065447
0.00664254
0.0067017
0.00672212
0.00670441
0.00664992
0.00656071
0.00643953
0.00628979
0.00611551
0.00592128
0.00571216
0.00549358
0.0052713
0.00505128
0.00483957
0.00464219
0.00446506
0.00431381
0.0041934
0.00410859
0.00406821
0.00407807
0.000699375
0.000567338
0.000432143
0.000290054
0.000138073
-1.90247e-05
-0.000176627
-0.000331
-0.000478812
-0.000617141
-0.000743506
-0.000855856
-0.000952518
-0.00103214
-0.00109364
-0.00113614
-0.00115894
-0.00116147
-0.00114323
-0.00110385
-0.00104298
-0.000960373
-0.000855828
-0.000729238
-0.000580586
-0.000409969
-0.000217623
-3.94899e-06
0.000230465
0.000484816
0.000758061
0.0010489
0.00135577
0.00167679
0.00200983
0.00235244
0.00270188
0.00305517
0.00340907
0.00376015
0.00410479
0.00443931
0.00475995
0.00506299
0.00534481
0.00560197
0.0058313
0.00602994
0.0061955
0.00632604
0.00642022
0.00647727
0.00649711
0.00648032
0.00642818
0.00634265
0.00622637
0.0060826
0.00591518
0.00572847
0.00552724
0.0053166
0.00510194
0.00488874
0.00468258
0.00448892
0.00431313
0.00416024
0.00403482
0.00394127
0.00388609
0.00387304
0.000957541
0.000778751
0.000613185
0.000452596
0.000288631
0.000124893
-3.49894e-05
-0.000188419
-0.000333064
-0.000466841
-0.000587976
-0.00069499
-0.000786673
-0.000862044
-0.000920302
-0.000960788
-0.000982947
-0.000986302
-0.000970433
-0.000934966
-0.000879564
-0.000803934
-0.000707831
-0.000591071
-0.000453549
-0.000295261
-0.00011633
8.29685e-05
0.000302179
0.000540639
0.000797454
0.00107148
0.00136129
0.00166519
0.00198117
0.00230695
0.00263995
0.0029773
0.0033159
0.00365244
0.00398341
0.0043052
0.00461415
0.00490658
0.00517894
0.00542779
0.00564999
0.00584269
0.00600346
0.00613037
0.00622202
0.00627761
0.00629699
0.00628068
0.00622989
0.00614649
0.00603299
0.00589253
0.00572879
0.00554594
0.00534852
0.0051414
0.00492963
0.00471836
0.00451273
0.00431781
0.00413846
0.00397926
0.00384442
0.003738
0.00366368
0.00362269
0.00122337
0.000996488
0.000798284
0.000616342
0.000437187
0.000263454
9.79341e-05
-5.77994e-05
-0.000202338
-0.000334386
-0.000452849
-0.000556822
-0.000645567
-0.000718483
-0.00077507
-0.000814902
-0.000837592
-0.000842781
-0.000830119
-0.000799264
-0.000749877
-0.000681635
-0.000594234
-0.000487413
-0.000360971
-0.000214791
-4.88729e-05
0.000136644
0.000341449
0.000565031
0.000806651
0.00106532
0.00133978
0.00162847
0.00192955
0.00224088
0.00255998
0.00288414
0.00321034
0.00353535
0.00385574
0.00416796
0.00446835
0.00475328
0.00501916
0.00526255
0.00548025
0.00566937
0.00582743
0.00595241
0.00604282
0.0060978
0.00611712
0.00610118
0.00605111
0.00596868
0.00585629
0.00571697
0.00555426
0.00537216
0.00517506
0.0049676
0.00475461
0.00454095
0.00433148
0.0041309
0.00394369
0.00377403
0.00362593
0.00350313
0.00340634
0.00333417
0.00148659
0.00121141
0.000979385
0.000774252
0.00057768
0.000391499
0.000217792
5.71986e-05
-8.97218e-05
-0.00022241
-0.000340415
-0.000443389
-0.00053106
-0.00060321
-0.000659645
-0.000700175
-0.000724596
-0.000732669
-0.000724124
-0.000698653
-0.000655917
-0.000595559
-0.000517215
-0.000420541
-0.000305232
-0.000171049
-1.7858e-05
0.000154349
0.000345415
0.000554989
0.000782497
0.00102711
0.00128774
0.00156297
0.00185111
0.00215014
0.00245772
0.00277122
0.00308771
0.00340402
0.00371676
0.00402238
0.00431723
0.00459763
0.00485995
0.00510068
0.00531652
0.0055045
0.005662
0.00578689
0.00587758
0.00593306
0.00595298
0.00593764
0.00588805
0.00580585
0.00569336
0.00555347
0.00538963
0.00520572
0.00500596
0.00479487
0.00457708
0.00435728
0.00414009
0.00392998
0.00373114
0.00354743
0.00338275
0.00324061
0.00311885
0.00301351
0.0017382
0.00141522
0.00114899
0.000919599
0.000704141
0.000503776
0.000319977
0.000152538
1.2331e-06
-0.000134067
-0.000253518
-0.000357302
-0.0004456
-0.000518565
-0.000576307
-0.000618873
-0.000646235
-0.000658282
-0.00065482
-0.000635575
-0.000600206
-0.000548318
-0.000479484
-0.000393267
-0.000289251
-0.000167068
-2.6437e-05
0.000132804
0.000310663
0.000506958
0.000721287
0.000952993
0.00120114
0.00146448
0.00174146
0.00203018
0.00232842
0.00263363
0.00294294
0.00325323
0.0035611
0.003863
0.00415523
0.00443404
0.0046957
0.00493659
0.00515328
0.00534264
0.0055019
0.00562876
0.00572145
0.00577882
0.00580034
0.00578619
0.0057372
0.00565492
0.00554153
0.00539984
0.00523318
0.00504534
0.00484046
0.00462291
0.00439725
0.00416802
0.00393973
0.00371667
0.00350285
0.00330194
0.00311781
0.00295388
0.00280522
0.00266549
0.00197027
0.00160043
0.00130012
0.00104597
0.00081075
0.000595034
0.000399767
0.00022397
6.66907e-05
-7.28458e-05
-0.000195368
-0.000301558
-0.000392025
-0.000467281
-0.000527726
-0.000573638
-0.00060516
-0.0006223
-0.000624937
-0.000612828
-0.000585623
-0.000542885
-0.000484113
-0.000408774
-0.000316328
-0.000206272
-7.81691e-05
6.83091e-05
0.000233345
0.000416935
0.000618854
0.000838623
0.00107547
0.00132832
0.00159574
0.00187597
0.00216688
0.002466
0.00277052
0.00307731
0.003383
0.00368397
0.00397645
0.00425658
0.00452051
0.00476445
0.00498479
0.00517821
0.00534173
0.00547284
0.00556956
0.00563051
0.00565499
0.00564297
0.00559513
0.00551287
0.00539826
0.00525397
0.00508326
0.00488984
0.00467778
0.00445142
0.00421524
0.00397373
0.00373134
0.0034923
0.00326055
0.00303965
0.00283355
0.00264573
0.00246864
0.0022937
0.00217565
0.00176016
0.00142624
0.00114726
0.000891855
0.000660073
0.00045239
0.000267114
0.000102613
-4.24896e-05
-0.000169462
-0.000279459
-0.000373492
-0.000452413
-0.000516897
-0.000567437
-0.000604338
-0.000627719
-0.000637522
-0.000633527
-0.000615367
-0.000582553
-0.000534506
-0.000470583
-0.000390117
-0.000292454
-0.000176994
-4.32318e-05
0.000109199
0.000280482
0.000470584
0.000679204
0.000905751
0.0011493
0.00140858
0.00168195
0.00196737
0.00226245
0.00256441
0.00287014
0.00317623
0.00347899
0.00377457
0.00405895
0.00432812
0.00457809
0.00480504
0.00500538
0.0051759
0.00531381
0.00541688
0.00548347
0.00551263
0.0055041
0.00545839
0.0053767
0.00526095
0.00511372
0.00493818
0.00473797
0.00451715
0.00428002
0.00403107
0.00377481
0.0035157
0.003258
0.00300566
0.00276227
0.00253195
0.00231837
0.0021115
0.00190069
0.0023478
0.00188801
0.00152123
0.00121767
0.000941984
0.000693771
0.000473066
0.000277504
0.000104819
-4.69331e-05
-0.000179528
-0.000294564
-0.000393432
-0.0004773
-0.000547101
-0.000603528
-0.000647031
-0.000677829
-0.000695917
-0.000701084
-0.000692936
-0.000670927
-0.000634384
-0.000582548
-0.000514612
-0.000429763
-0.000327225
-0.000206307
-6.64476e-05
9.27383e-05
0.000271412
0.000469471
0.000686504
0.00092176
0.00117411
0.00144205
0.00172365
0.00201656
0.00231807
0.00262505
0.00293404
0.00324128
0.00354277
0.00383437
0.00411183
0.00437094
0.00460761
0.00481797
0.00499849
0.00514608
0.00525817
0.00533283
0.00536881
0.00536559
0.00532342
0.00524331
0.005127
0.00497695
0.00479625
0.00458848
0.00435771
0.00410826
0.00384467
0.00357153
0.00329339
0.00301464
0.00273931
0.00247113
0.00221453
0.00197345
0.00173553
0.00148812
0.00248062
0.00197805
0.00157932
0.00125164
0.000955849
0.000691108
0.000457038
0.000250637
6.90364e-05
-9.02453e-05
-0.000229461
-0.000350627
-0.00045549
-0.000545512
-0.000621862
-0.000685415
-0.000736754
-0.000776179
-0.000803724
-0.000819177
-0.000822106
-0.000811892
-0.00078776
-0.000748825
-0.000694128
-0.000622684
-0.000533532
-0.000425782
-0.000298663
-0.000151581
1.58387e-05
0.000203697
0.00041178
0.000639516
0.000885945
0.00114968
0.00142892
0.00172139
0.00202438
0.00233479
0.0026491
0.00296345
0.00327371
0.00357553
0.00386444
0.00413595
0.00438567
0.00460939
0.00480322
0.00496369
0.00508788
0.00517347
0.00521887
0.00522323
0.00518651
0.00510947
0.00499367
0.00484141
0.00465568
0.00444004
0.00419855
0.00393561
0.00365585
0.00336403
0.00306484
0.00276287
0.00246237
0.00216726
0.0018824
0.00161212
0.00134182
0.0010569
0.00256839
0.00202463
0.00159503
0.00124386
0.000928341
0.000647182
0.000399612
0.000182018
-9.04735e-06
-0.000176575
-0.00032327
-0.000451544
-0.000563474
-0.000660796
-0.000744894
-0.000816807
-0.00087723
-0.000926532
-0.000964771
-0.000991718
-0.00100689
-0.00100958
-0.000998913
-0.00097385
-0.000933274
-0.000876017
-0.000800918
-0.000706874
-0.000592896
-0.00045816
-0.000302068
-0.000124298
7.51477e-05
0.000295894
0.000537153
0.000797697
0.00107582
0.00136936
0.00167564
0.00199154
0.0023135
0.00263756
0.00295941
0.00327452
0.00357814
0.00386549
0.00413181
0.00437251
0.0045833
0.00476027
0.00490004
0.00499989
0.0050578
0.00507253
0.0050437
0.00497178
0.00485807
0.00470471
0.00451458
0.0042912
0.00403866
0.00376145
0.00346436
0.00315234
0.00283033
0.0025032
0.00217548
0.0018514
0.00153634
0.00123514
0.000930988
0.000607362
0.0026057
0.00202243
0.00156313
0.00118927
0.000854539
0.00055723
0.000296185
6.71963e-05
-0.00013374
-0.000310103
-0.00046503
-0.0006013
-0.000721304
-0.000827028
-0.000920054
-0.00100156
-0.00107235
-0.00113283
-0.00118307
-0.00122281
-0.00125151
-0.00126836
-0.00127235
-0.0012623
-0.00123692
-0.00119484
-0.00113469
-0.00105513
-0.000954944
-0.000833063
-0.000688645
-0.000521129
-0.000330288
-0.000116282
0.000120297
0.000378388
0.000656426
0.000952333
0.0012635
0.00158681
0.00191864
0.00225494
0.00259123
0.00292274
0.00324446
0.00355126
0.00383798
0.0040996
0.00433135
0.00452883
0.00468817
0.00480612
0.00488016
0.00490863
0.00489071
0.00482651
0.00471706
0.00456428
0.0043709
0.00414041
0.00387693
0.00358508
0.00326984
0.00293639
0.00259003
0.00223595
0.00187909
0.00152406
0.00117685
0.000842911
0.000503229
0.000139355
0.00258739
0.00196638
0.00147867
0.00108301
0.000729708
0.000416643
0.000142269
-9.81998e-05
-0.000309306
-0.000494999
-0.000658827
-0.00080392
-0.00093296
-0.00104816
-0.00115129
-0.00124365
-0.00132611
-0.00139913
-0.00146276
-0.0015167
-0.00156033
-0.00159274
-0.00161276
-0.00161907
-0.00161016
-0.00158448
-0.00154041
-0.00147639
-0.00139092
-0.0012827
-0.0011506
-0.000993817
-0.000811861
-0.000604656
-0.000372574
-0.000116485
0.000162208
0.000461543
0.000778987
0.00111144
0.00145524
0.00180624
0.00215979
0.00251087
0.00285419
0.00318422
0.00349539
0.00378218
0.0040393
0.00426178
0.00444516
0.0045856
0.00468002
0.0047262
0.00472285
0.00466963
0.00456722
0.00441728
0.00422238
0.00398594
0.00371212
0.00340568
0.00307181
0.00271603
0.002344
0.00196138
0.00157353
0.00118557
0.000804217
0.000435594
5.84615e-05
-0.000347609
0.00250856
0.00185168
0.00133694
0.000920449
0.000549317
0.000220985
-6.64809e-05
-0.000318429
-0.000539926
-0.000735376
-0.00090872
-0.00106342
-0.00120243
-0.00132819
-0.0014426
-0.0015471
-0.0016426
-0.00172958
-0.00180809
-0.00187775
-0.00193785
-0.00198736
-0.00202498
-0.00204917
-0.00205826
-0.00205044
-0.00202387
-0.00197671
-0.00190721
-0.00181376
-0.00169498
-0.00154974
-0.0013773
-0.00117731
-0.000949885
-0.000695678
-0.000415901
-0.000112369
0.000212486
0.000555604
0.000913312
0.00128135
0.00165493
0.00202878
0.00239728
0.00275452
0.00309444
0.003411
0.0036983
0.00395073
0.00416318
0.00433112
0.0044508
0.00451936
0.00453492
0.00449664
0.00440476
0.00426061
0.00406654
0.0038259
0.00354286
0.00322232
0.00286976
0.00249104
0.00209228
0.00167964
0.00125905
0.000836203
0.00041861
1.31912e-05
-0.000403599
-0.000854251
0.00236455
0.00167377
0.00113344
0.000697201
0.00030905
-3.3989e-05
-0.00033424
-0.000597606
-0.000829662
-0.00103525
-0.00121869
-0.00138376
-0.00153367
-0.00167105
-0.00179796
-0.00191591
-0.00202588
-0.00212834
-0.0022233
-0.00231033
-0.0023886
-0.00245694
-0.0025139
-0.00255775
-0.00258658
-0.00259837
-0.00259099
-0.00256235
-0.00251039
-0.0024332
-0.00232907
-0.00219659
-0.00203468
-0.0018427
-0.00162048
-0.00136841
-0.00108748
-0.000779321
-0.000446223
-9.11766e-05
0.000282152
0.000669436
0.00106573
0.00146553
0.00186288
0.00225144
0.00262467
0.00297591
0.00329862
0.00358648
0.00383359
0.00403468
0.0041852
0.00428156
0.00432116
0.00430254
0.00422544
0.00409077
0.0039006
0.00365815
0.00336758
0.00303398
0.00266308
0.00226116
0.00183484
0.0013909
0.000935877
0.000476149
2.01328e-05
-0.000424377
-0.000883339
-0.00138142
0.00215093
0.00142835
0.000863984
0.000409115
4.82149e-06
-0.000352308
-0.000664991
-0.00093967
-0.00118242
-0.0013985
-0.0015926
-0.0017688
-0.00193054
-0.00208064
-0.00222128
-0.00235406
-0.00247999
-0.00259953
-0.00271264
-0.00281881
-0.00291709
-0.00300618
-0.00308443
-0.00314992
-0.00320052
-0.00323394
-0.00324778
-0.00323964
-0.00320715
-0.00314807
-0.00306036
-0.00294225
-0.00279232
-0.00260958
-0.00239354
-0.0021443
-0.00186256
-0.00154973
-0.00120792
-0.000839997
-0.000449595
-4.10759e-05
0.000380483
0.000809354
0.00123924
0.00166338
0.00207467
0.00246584
0.00282961
0.00315886
0.00344686
0.00368742
0.00387513
0.00400549
0.0040751
0.00408175
0.00402453
0.00390385
0.00372144
0.00348029
0.00318457
0.00283948
0.00245108
0.00202608
0.00157168
0.00109531
0.000604257
0.000105642
-0.000391096
-0.000877188
-0.00138116
-0.00192999
0.00186356
0.00111137
0.000524602
5.23027e-05
-0.000367205
-0.000737765
-0.00106249
-0.00134835
-0.0016019
-0.00182882
-0.00203414
-0.00222222
-0.00239674
-0.00256068
-0.00271635
-0.00286539
-0.00300884
-0.00314716
-0.00328022
-0.00340745
-0.00352776
-0.00363969
-0.00374141
-0.00383078
-0.00390543
-0.00396279
-0.00400019
-0.00401489
-0.0040042
-0.0039655
-0.00389639
-0.00379472
-0.00365867
-0.00348689
-0.0032785
-0.00303325
-0.00275151
-0.00243441
-0.00208384
-0.00170249
-0.00129389
-0.000862423
-0.000413252
4.76871e-05
0.000513773
0.000977799
0.00143211
0.00186874
0.00227962
0.00265676
0.00299247
0.00327956
0.00351158
0.00368302
0.00378952
0.00382797
0.00379669
0.00369545
0.00352553
0.00328965
0.00299188
0.00263755
0.00223302
0.0017855
0.0013028
0.000793114
0.000264518
-0.000274999
-0.000814867
-0.00134524
-0.00189738
-0.00250079
0.00149857
0.00071908
0.000111632
-0.000376844
-0.000810592
-0.00119389
-0.00153024
-0.00182714
-0.00209159
-0.00232969
-0.00254679
-0.00274753
-0.0029358
-0.00311474
-0.00328675
-0.00345355
-0.00361617
-0.00377504
-0.00393
-0.00408033
-0.00422484
-0.0043619
-0.00448948
-0.00460522
-0.00470648
-0.00479043
-0.00485407
-0.00489432
-0.00490814
-0.00489252
-0.00484466
-0.00476197
-0.00464222
-0.00448362
-0.00428487
-0.0040453
-0.00376491
-0.00344447
-0.00308557
-0.00269069
-0.0022632
-0.00180741
-0.00132856
-0.000832756
-0.00032691
0.000181327
0.000683715
0.00117158
0.001636
0.00206802
0.00245888
0.00280027
0.00308457
0.0033051
0.00345634
0.00353416
0.00353591
0.0034606
0.00330891
0.00308316
0.00278731
0.00242673
0.0020081
0.00153912
0.0010283
0.000484636
-8.28788e-05
-0.000665305
-0.00125081
-0.00182835
-0.00243218
-0.00309445
0.00105238
0.000248047
-0.000378286
-0.00088163
-0.0013286
-0.00172392
-0.00207146
-0.00237923
-0.0026547
-0.00290431
-0.00313376
-0.00334795
-0.00355097
-0.00374609
-0.00393583
-0.00412193
-0.00430545
-0.00448677
-0.00466565
-0.00484128
-0.00501233
-0.00517699
-0.00533303
-0.00547786
-0.00560859
-0.00572206
-0.00581496
-0.00588387
-0.00592532
-0.00593593
-0.00591242
-0.00585178
-0.00575128
-0.00560864
-0.0054221
-0.00519049
-0.00491337
-0.00459109
-0.00422488
-0.00381689
-0.0033703
-0.00288928
-0.00237906
-0.00184587
-0.0012969
-0.000740215
-0.000184638
0.000360409
0.000885103
0.00137944
0.00183351
0.00223771
0.00258312
0.00286169
0.0030666
0.00319244
0.00323546
0.0031937
0.00306707
0.00285741
0.00256839
0.00220541
0.00177543
0.00128666
0.000748332
0.000170358
-0.000437284
-0.00106459
-0.00169833
-0.00232613
-0.00298547
-0.00371141
0.000521777
-0.000304836
-0.000948175
-0.00146503
-0.00192418
-0.00233076
-0.00268906
-0.00300754
-0.00329411
-0.00355559
-0.00379798
-0.00402643
-0.0042452
-0.00445774
-0.00466661
-0.00487362
-0.00507982
-0.00528555
-0.0054905
-0.00569375
-0.00589383
-0.00608874
-0.00627606
-0.00645295
-0.00661624
-0.00676249
-0.00688802
-0.00698905
-0.00706169
-0.00710211
-0.00710658
-0.00707155
-0.0069938
-0.0068705
-0.00669933
-0.0064786
-0.00620733
-0.00588536
-0.00551347
-0.00509344
-0.00462811
-0.00412148
-0.00357868
-0.003006
-0.00241084
-0.00180165
-0.00118784
-0.000579575
1.23675e-05
0.000576871
0.00110274
0.00157898
0.00199517
0.00234174
0.00261033
0.00279405
0.00288781
0.00288846
0.00279498
0.00260851
0.00233234
0.00197181
0.00153407
0.00102787
0.000463202
-0.000149044
-0.0007978
-0.00147188
-0.00215649
-0.00283782
-0.00355683
-0.00435173
-9.6097e-05
-0.000942308
-0.0016007
-0.00212967
-0.00259992
-0.003017
-0.00338559
-0.00371461
-0.00401239
-0.00428609
-0.004542
-0.00478552
-0.00502109
-0.00525227
-0.00548173
-0.0057113
-0.00594203
-0.00617421
-0.00640746
-0.00664075
-0.00687247
-0.00710044
-0.00732203
-0.00753417
-0.0077334
-0.00791596
-0.00807782
-0.00821479
-0.00832258
-0.00839687
-0.0084334
-0.00842811
-0.00837718
-0.00827719
-0.00812521
-0.00791893
-0.00765676
-0.00733796
-0.00696275
-0.00653243
-0.00604944
-0.00551746
-0.00494145
-0.00432767
-0.00368368
-0.00301826
-0.00234134
-0.00166387
-0.000997573
-0.000354764
0.000251988
0.000810166
0.00130767
0.00173318
0.00207658
0.00232928
0.00248457
0.00253786
0.00248697
0.00233212
0.00207607
0.00172393
0.00128301
0.000762555
0.000173359
-0.000472656
-0.00116322
-0.00188584
-0.002624
-0.00336227
-0.00414541
-0.00501504
-0.000803693
-0.00166671
-0.00233814
-0.00287777
-0.00335802
-0.00378482
-0.00416324
-0.00450262
-0.00481169
-0.00509796
-0.00536799
-0.00562739
-0.0058808
-0.00613188
-0.00638338
-0.00663718
-0.0068943
-0.00715502
-0.00741887
-0.00768471
-0.00795079
-0.00821477
-0.0084738
-0.00872456
-0.00896332
-0.00918598
-0.00938817
-0.00956527
-0.00971255
-0.00982517
-0.00989835
-0.00992742
-0.00990796
-0.00983587
-0.00970756
-0.00952001
-0.00927093
-0.00895891
-0.00858351
-0.00814544
-0.00764661
-0.00709029
-0.00648115
-0.00582532
-0.00513042
-0.00440548
-0.00366093
-0.00290842
-0.00216069
-0.00143125
-0.000734147
-8.35677e-05
0.000506547
0.00102293
0.00145344
0.0017875
0.00201649
0.00213413
0.00213673
0.00202341
0.0017961
0.00145957
0.00102118
0.000490605
-0.000120555
-0.000799268
-0.00153196
-0.00230469
-0.00309906
-0.0038978
-0.00474984
-0.00570043
-0.00160303
-0.00247998
-0.00316237
-0.00371118
-0.00420029
-0.00463602
-0.00502378
-0.00537334
-0.00569379
-0.00599295
-0.00627767
-0.00655376
-0.00682602
-0.00709824
-0.00737323
-0.00765292
-0.00793833
-0.00822968
-0.00852645
-0.00882741
-0.00913064
-0.00943366
-0.00973341
-0.0100263
-0.0103084
-0.0105752
-0.010822
-0.0110437
-0.0112351
-0.011391
-0.0115058
-0.0115744
-0.0115916
-0.0115526
-0.0114531
-0.0112893
-0.011058
-0.0107572
-0.0103855
-0.0099431
-0.00943112
-0.00885232
-0.00821096
-0.00751292
-0.00676573
-0.00597861
-0.00516237
-0.00432937
-0.00349327
-0.00266886
-0.00187171
-0.0011178
-0.000423073
0.000197015
0.000728049
0.00115715
0.00147348
0.00166869
0.00173731
0.00167698
0.0014886
0.00117635
0.000747466
0.000211996
-0.000417663
-0.00112732
-0.00190199
-0.00272615
-0.00357929
-0.00444214
-0.00536809
-0.00640637
-0.00249564
-0.00338358
-0.0040748
-0.00463131
-0.00512813
-0.00557197
-0.00596857
-0.0063281
-0.00665999
-0.00697236
-0.00727229
-0.00756583
-0.00785792
-0.00815247
-0.00845237
-0.00875957
-0.00907511
-0.00939918
-0.0097312
-0.0100698
-0.010413
-0.0107582
-0.011102
-0.0114407
-0.01177
-0.0120851
-0.0123809
-0.012652
-0.0128926
-0.0130969
-0.0132589
-0.0133725
-0.0134321
-0.013432
-0.0133671
-0.0132326
-0.0130247
-0.0127403
-0.0123772
-0.0119347
-0.0114132
-0.0108147
-0.010143
-0.00940349
-0.00860352
-0.00775233
-0.00686104
-0.00594259
-0.00501158
-0.00408402
-0.00317707
-0.0023086
-0.00149672
-0.000759285
-0.000113266
0.000425836
0.000844599
0.00113223
0.00128107
0.00128693
0.00114935
0.000871628
0.000460698
-7.31665e-05
-0.000716808
-0.00145484
-0.00227076
-0.00314732
-0.00406165
-0.00499227
-0.0059974
-0.00713052
-0.0034826
-0.00437851
-0.00507643
-0.0056391
-0.00614248
-0.0065936
-0.00699853
-0.00736779
-0.00771114
-0.00803697
-0.00835261
-0.00866429
-0.00897712
-0.00929511
-0.00962124
-0.0099575
-0.0103049
-0.0106637
-0.0110333
-0.0114121
-0.0117981
-0.0121884
-0.0125797
-0.0129678
-0.0133483
-0.0137161
-0.0140656
-0.0143909
-0.0146859
-0.0149442
-0.015159
-0.0153238
-0.0154319
-0.015477
-0.015453
-0.0153543
-0.015176
-0.014914
-0.0145652
-0.0141278
-0.0136014
-0.0129871
-0.0122879
-0.0115086
-0.0106564
-0.00974021
-0.00877137
-0.0077633
-0.0067314
-0.00569292
-0.00466658
-0.00367222
-0.00273027
-0.00186119
-0.00108478
-0.000419511
0.00011822
0.000514753
0.00075979
0.000846888
0.000773803
0.000542625
0.000159713
-0.000364604
-0.00101649
-0.00177936
-0.0026351
-0.00356456
-0.00454229
-0.00554433
-0.00663411
-0.00786965
-0.00456444
-0.00546531
-0.00616777
-0.00673509
-0.00724386
-0.0077014
-0.00811412
-0.00849283
-0.00884759
-0.00918707
-0.00951881
-0.00984923
-0.0101836
-0.010526
-0.0108796
-0.0112463
-0.0116273
-0.0120227
-0.0124319
-0.0128533
-0.0132847
-0.0137233
-0.0141653
-0.0146066
-0.0150422
-0.0154669
-0.0158748
-0.0162595
-0.0166143
-0.0169322
-0.0172059
-0.0174281
-0.0175914
-0.0176884
-0.0177123
-0.0176563
-0.0175145
-0.0172817
-0.0169537
-0.0165276
-0.0160018
-0.0153766
-0.0146539
-0.013838
-0.0129351
-0.0119541
-0.0109063
-0.0098054
-0.00866749
-0.00751094
-0.00635604
-0.00522463
-0.00413957
-0.0031241
-0.00220113
-0.00139244
-0.000717827
-0.000194301
0.000164715
0.000350013
0.000357089
0.000186403
-0.000156612
-0.000661811
-0.00131482
-0.00209786
-0.00299113
-0.00397343
-0.00501644
-0.00609347
-0.00727354
-0.00861949
-0.00574118
-0.00664401
-0.00734886
-0.00791932
-0.0084323
-0.00889541
-0.00931533
-0.00970316
-0.0100692
-0.0104224
-0.0107705
-0.0111201
-0.0114767
-0.0118444
-0.0122264
-0.0126248
-0.0130408
-0.0134746
-0.0139253
-0.0143915
-0.014871
-0.0153605
-0.0158565
-0.0163544
-0.0168491
-0.017335
-0.0178059
-0.0182549
-0.0186749
-0.0190583
-0.0193971
-0.0196833
-0.0199085
-0.0200647
-0.0201437
-0.0201379
-0.0200402
-0.0198441
-0.0195443
-0.0191366
-0.0186181
-0.0179879
-0.017247
-0.0163984
-0.0154479
-0.0144036
-0.0132767
-0.0120809
-0.0108329
-0.00955208
-0.00826018
-0.00698101
-0.00573993
-0.00456314
-0.00347689
-0.00250664
-0.001676
-0.00100584
-0.000513267
-0.000210831
-0.000105859
-0.000200037
-0.000489291
-0.000963985
-0.0016094
-0.00240663
-0.00333414
-0.00436851
-0.00547829
-0.00663371
-0.00790981
-0.00937455
-0.00701229
-0.00791413
-0.00861928
-0.00919138
-0.00970742
-0.0101752
-0.0106017
-0.0109982
-0.0113754
-0.0117423
-0.0121068
-0.0124759
-0.012855
-0.0132486
-0.0136599
-0.014091
-0.0145432
-0.0150167
-0.0155107
-0.0160237
-0.0165534
-0.0170966
-0.0176494
-0.0182072
-0.0187647
-0.019316
-0.0198543
-0.0203727
-0.0208633
-0.0213179
-0.021728
-0.0220848
-0.022379
-0.0226016
-0.0227434
-0.0227957
-0.0227501
-0.022599
-0.0223354
-0.0219539
-0.0214504
-0.0208223
-0.0200694
-0.0191937
-0.0181998
-0.0170952
-0.0158904
-0.0145991
-0.0132383
-0.0118282
-0.0103919
-0.00895506
-0.00754555
-0.00619264
-0.00492617
-0.00377556
-0.00276871
-0.00193086
-0.00128342
-0.000842929
-0.000620189
-0.000619648
-0.000839128
-0.00126992
-0.00189724
-0.00270118
-0.00365846
-0.00474328
-0.00592077
-0.00715777
-0.00853568
-0.0101279
-0.00837671
-0.00927471
-0.00997813
-0.0105504
-0.0110684
-0.0115399
-0.0119723
-0.012377
-0.0127649
-0.0131452
-0.0135262
-0.0139148
-0.0143167
-0.0147364
-0.0151774
-0.0156419
-0.0161311
-0.0166454
-0.017184
-0.0177455
-0.0183274
-0.0189265
-0.0195387
-0.0201595
-0.0207832
-0.0214035
-0.0220137
-0.022606
-0.0231724
-0.0237039
-0.0241915
-0.0246253
-0.0249956
-0.025292
-0.0255045
-0.0256231
-0.025638
-0.0255404
-0.0253218
-0.0249752
-0.024495
-0.0238771
-0.0231199
-0.0222238
-0.0211922
-0.0200316
-0.0187518
-0.017366
-0.0158913
-0.0143484
-0.0127616
-0.0111583
-0.00956879
-0.00802549
-0.00656195
-0.00521188
-0.00400787
-0.00298008
-0.00215486
-0.00155347
-0.00119093
-0.00107518
-0.00120657
-0.00157788
-0.00217462
-0.00297609
-0.00395731
-0.00508995
-0.00633544
-0.00765683
-0.00914236
-0.0108711
-0.00983284
-0.0107243
-0.0114241
-0.0119952
-0.0125139
-0.0129883
-0.0134258
-0.0138381
-0.0142362
-0.0146295
-0.0150265
-0.0154343
-0.0158588
-0.0163047
-0.0167755
-0.0172736
-0.0178003
-0.0183561
-0.0189403
-0.0195513
-0.0201869
-0.0208436
-0.0215176
-0.0222038
-0.0228966
-0.0235895
-0.0242753
-0.0249461
-0.025593
-0.0262068
-0.0267777
-0.027295
-0.0277481
-0.0281258
-0.0284168
-0.0286099
-0.028694
-0.0286588
-0.0284943
-0.0281919
-0.0277441
-0.0271455
-0.0263925
-0.025484
-0.0244218
-0.0232112
-0.0218609
-0.0203833
-0.0187954
-0.017118
-0.0153762
-0.0135991
-0.0118194
-0.0100723
-0.00839543
-0.00682687
-0.00540433
-0.00416343
-0.00313614
-0.00234922
-0.00182274
-0.00156895
-0.00159155
-0.00188543
-0.00243693
-0.00322485
-0.0042226
-0.00539926
-0.00671222
-0.0081204
-0.00971923
-0.0115937
-0.0113786
-0.012261
-0.0129554
-0.013524
-0.0140424
-0.0145187
-0.0149605
-0.0153796
-0.0157871
-0.0161928
-0.0166051
-0.0170316
-0.0174781
-0.0179496
-0.0184498
-0.0189813
-0.0195455
-0.0201429
-0.0207729
-0.0214342
-0.0221244
-0.0228402
-0.0235774
-0.0243312
-0.0250956
-0.025864
-0.0266288
-0.0273817
-0.0281136
-0.0288146
-0.0294742
-0.0300811
-0.0306236
-0.0310896
-0.0314668
-0.0317425
-0.0319044
-0.0319406
-0.0318396
-0.031591
-0.0311856
-0.0306159
-0.0298766
-0.0289648
-0.0278805
-0.0266274
-0.0252126
-0.0236479
-0.0219493
-0.0201376
-0.0182385
-0.0162822
-0.0143036
-0.0123408
-0.0104352
-0.00862967
-0.00696724
-0.00548953
-0.00423481
-0.00323613
-0.00251954
-0.00210259
-0.00199322
-0.00218924
-0.00267848
-0.00343966
-0.00444476
-0.00566026
-0.00703921
-0.008536
-0.0102536
-0.0122833
-0.0130113
-0.0138826
-0.0145699
-0.0151349
-0.0156518
-0.0161291
-0.0165742
-0.0169991
-0.0174151
-0.0178321
-0.0182588
-0.0187028
-0.0191703
-0.0196665
-0.0201953
-0.0207593
-0.0213603
-0.0219988
-0.0226745
-0.0233861
-0.0241311
-0.0249065