/*--------------------------------*- C++ -*----------------------------------*\
  =========                 |
  \\      /  F ield         | OpenFOAM: The Open Source CFD Toolbox
   \\    /   O peration     | Website:  https://openfoam.org
    \\  /    A nd           | Version:  dev
     \\/     M anipulation  |
\*---------------------------------------------------------------------------*/
FoamFile
{
    format      ascii;
    class       surfaceScalarField;
    location    "42.75";
    object      phi;
}
// * * * * * * * * * * * * * * * * * * * * * * * * * * * * * * * * * * * * * //

dimensions      [0 3 -1 0 0 0 0];

internalField   nonuniform List<scalar> 
10224
(
3.39778e-08
-3.4725e-08
8.79748e-08
-5.39943e-08
1.24533e-07
-3.65423e-08
1.25491e-07
-9.59346e-10
8.38573e-08
4.16319e-08
-1.65142e-09
8.55045e-08
-1.29207e-07
1.27553e-07
-2.95508e-07
1.66304e-07
-4.96486e-07
2.00988e-07
-7.27849e-07
2.31364e-07
-9.85326e-07
2.5747e-07
-1.26482e-06
2.79487e-07
-1.56249e-06
2.97666e-07
-1.87477e-06
3.12286e-07
-2.1984e-06
3.23633e-07
-2.53038e-06
3.31974e-07
-2.86793e-06
3.37548e-07
-3.20848e-06
3.40555e-07
-3.54964e-06
3.41155e-07
-3.88911e-06
3.39471e-07
-4.2247e-06
3.35588e-07
-4.55426e-06
3.29559e-07
-4.87567e-06
3.2141e-07
-5.18681e-06
3.11143e-07
-5.48556e-06
2.98745e-07
-5.76975e-06
2.84196e-07
-6.03723e-06
2.67474e-07
-6.28579e-06
2.48562e-07
-6.51324e-06
2.27454e-07
-6.71741e-06
2.04166e-07
-6.89615e-06
1.78736e-07
-7.04738e-06
1.51231e-07
-7.16914e-06
1.21754e-07
-7.25958e-06
9.04442e-08
-7.31706e-06
5.74818e-08
-7.34015e-06
2.30896e-08
-7.32768e-06
-1.24663e-08
-7.27881e-06
-4.88774e-08
-7.19301e-06
-8.57942e-08
-7.07018e-06
-1.22829e-07
-6.91062e-06
-1.59561e-07
-6.71508e-06
-1.95541e-07
-6.48478e-06
-2.30299e-07
-6.22143e-06
-2.63351e-07
-5.92722e-06
-2.94209e-07
-5.60483e-06
-3.22392e-07
-5.2574e-06
-3.47433e-07
-4.88851e-06
-3.68893e-07
-4.50214e-06
-3.86371e-07
-4.10263e-06
-3.99512e-07
-3.69461e-06
-4.0802e-07
-3.28294e-06
-4.11667e-07
-2.87265e-06
-4.10295e-07
-2.46882e-06
-4.03831e-07
-2.07654e-06
-3.92282e-07
-1.70079e-06
-3.75746e-07
-1.34638e-06
-3.54407e-07
-1.01784e-06
-3.28541e-07
-7.19327e-07
-2.9851e-07
-4.54562e-07
-2.64764e-07
-2.26722e-07
-2.27841e-07
-3.83531e-08
-1.88372e-07
1.0874e-07
-1.47097e-07
2.13619e-07
-1.04883e-07
2.76401e-07
-6.27831e-08
2.98517e-07
-2.21153e-08
2.83151e-07
1.53715e-08
2.35905e-07
4.72553e-08
1.6584e-07
7.0067e-08
8.72548e-08
7.85787e-08
2.25443e-08
6.47102e-08
2.25492e-08
5.40258e-08
-8.87469e-08
1.12583e-07
-1.12563e-07
1.18411e-07
-4.23675e-08
3.90993e-08
7.83493e-08
-1.4175e-07
2.22488e-07
-4.29473e-07
3.7323e-07
-8.2231e-07
5.20387e-07
-1.31412e-06
6.58099e-07
-1.89632e-06
7.83186e-07
-2.55911e-06
8.94153e-07
-3.2922e-06
9.90567e-07
-4.08535e-06
1.07264e-06
-4.92862e-06
1.14094e-06
-5.81258e-06
1.19624e-06
-6.72833e-06
1.23938e-06
-7.66754e-06
1.27119e-06
-8.6224e-06
1.29241e-06
-9.58557e-06
1.30373e-06
-1.05501e-05
1.30567e-06
-1.15093e-05
1.29868e-06
-1.24568e-05
1.28306e-06
-1.33862e-05
1.25903e-06
-1.42915e-05
1.2267e-06
-1.51665e-05
1.18611e-06
-1.6005e-05
1.13727e-06
-1.6801e-05
1.08016e-06
-1.75482e-05
1.01474e-06
-1.82407e-05
9.41025e-07
-1.88723e-05
8.59047e-07
-1.94371e-05
7.68925e-07
-1.99292e-05
6.70863e-07
-2.03431e-05
5.65171e-07
-2.06737e-05
4.52283e-07
-2.0916e-05
3.3277e-07
-2.10658e-05
2.07344e-07
-2.11196e-05
7.68707e-08
-2.10745e-05
-5.76335e-08
-2.09283e-05
-1.95003e-07
-2.06802e-05
-3.33931e-07
-2.033e-05
-4.72977e-07
-1.9879e-05
-6.10589e-07
-1.93294e-05
-7.45121e-07
-1.86849e-05
-8.74855e-07
-1.79502e-05
-9.98035e-07
-1.71315e-05
-1.1129e-06
-1.62362e-05
-1.2177e-06
-1.52729e-05
-1.31077e-06
-1.42512e-05
-1.39053e-06
-1.31821e-05
-1.45554e-06
-1.2077e-05
-1.50455e-06
-1.09486e-05
-1.53651e-06
-9.80962e-06
-1.5506e-06
-8.67364e-06
-1.54628e-06
-7.55416e-06
-1.5233e-06
-6.46471e-06
-1.48173e-06
-5.41851e-06
-1.42194e-06
-4.42828e-06
-1.34463e-06
-3.50598e-06
-1.25085e-06
-2.66254e-06
-1.14195e-06
-1.90766e-06
-1.01965e-06
-1.24952e-06
-8.8598e-07
-6.94515e-07
-7.43372e-07
-2.46955e-07
-5.94653e-07
9.13187e-08
-4.43153e-07
3.21388e-07
-2.92851e-07
4.47856e-07
-1.48584e-07
4.79725e-07
-1.65029e-08
4.31484e-07
9.54918e-08
3.24592e-07
1.7696e-07
1.89075e-07
2.14096e-07
6.44029e-08
1.89371e-07
8.69511e-08
3.74181e-08
-1.2615e-07
4.34532e-08
-1.18596e-07
-4.31281e-08
4.4208e-08
-2.58611e-07
2.93822e-07
-6.22617e-07
5.86488e-07
-1.14226e-06
8.92882e-07
-1.81582e-06
1.19395e-06
-2.63564e-06
1.47792e-06
-3.59035e-06
1.73788e-06
-4.66641e-06
1.97021e-06
-5.84925e-06
2.17341e-06
-7.12398e-06
2.34737e-06
-8.47589e-06
2.49284e-06
-9.89072e-06
2.61107e-06
-1.13549e-05
2.70352e-06
-1.28553e-05
2.77167e-06
-1.43799e-05
2.81696e-06
-1.59168e-05
2.84067e-06
-1.7455e-05
2.84386e-06
-1.89837e-05
2.8274e-06
-2.04926e-05
2.79192e-06
-2.19715e-05
2.73789e-06
-2.34103e-05
2.66557e-06
-2.47994e-05
2.57513e-06
-2.61287e-05
2.46662e-06
-2.73886e-05
2.34006e-06
-2.85693e-05
2.19549e-06
-2.96613e-05
2.03299e-06
-3.0655e-05
1.85274e-06
-3.15412e-05
1.6551e-06
-3.23109e-05
1.44058e-06
-3.29557e-05
1.20994e-06
-3.34676e-05
9.64184e-07
-3.38394e-05
7.04597e-07
-3.40648e-05
4.32767e-07
-3.41386e-05
1.5059e-07
-3.40565e-05
-1.39728e-07
-3.38158e-05
-4.35681e-07
-3.34152e-05
-7.34471e-07
-3.28552e-05
-1.03304e-06
-3.21377e-05
-1.32811e-06
-3.12666e-05
-1.61619e-06
-3.02477e-05
-1.8937e-06
-2.90888e-05
-2.15695e-06
-2.77995e-05
-2.40225e-06
-2.63912e-05
-2.62599e-06
-2.48773e-05
-2.82469e-06
-2.32727e-05
-2.99506e-06
-2.15941e-05
-3.13415e-06
-1.98593e-05
-3.23935e-06
-1.80873e-05
-3.30849e-06
-1.6298e-05
-3.33992e-06
-1.45118e-05
-3.33252e-06
-1.27493e-05
-3.28581e-06
-1.1031e-05
-3.19995e-06
-9.37723e-06
-3.07576e-06
-7.80711e-06
-2.91475e-06
-6.3388e-06
-2.71916e-06
-4.98885e-06
-2.4919e-06
-3.77186e-06
-2.23664e-06
-2.70006e-06
-1.95778e-06
-1.78292e-06
-1.66051e-06
-1.02667e-06
-1.3509e-06
-4.33792e-07
-1.03603e-06
-2.35739e-09
-7.24283e-07
2.74723e-07
-4.25661e-07
4.10516e-07
-1.52298e-07
4.25277e-07
8.07234e-08
3.47662e-07
2.5458e-07
2.15893e-07
3.45885e-07
7.86907e-08
3.26574e-07
1.65635e-07
1.95222e-09
-1.28103e-07
-7.88699e-08
-3.77772e-08
-2.97586e-07
2.62914e-07
-6.87921e-07
6.84166e-07
-1.26822e-06
1.16679e-06
-2.04475e-06
1.66941e-06
-3.01473e-06
2.16393e-06
-4.16889e-06
2.63208e-06
-5.49365e-06
3.06263e-06
-6.97265e-06
3.44921e-06
-8.58806e-06
3.78881e-06
-1.03214e-05
4.08069e-06
-1.21541e-05
4.32557e-06
-1.4068e-05
4.52502e-06
-1.60456e-05
4.68109e-06
-1.80699e-05
4.79597e-06
-2.01248e-05
4.8718e-06
-2.21946e-05
4.91051e-06
-2.42645e-05
4.91379e-06
-2.63201e-05
4.88299e-06
-2.83474e-05
4.81917e-06
-3.03325e-05
4.72307e-06
-3.22622e-05
4.5952e-06
-3.41229e-05
4.43588e-06
-3.59016e-05
4.24529e-06
-3.75851e-05
4.02357e-06
-3.91605e-05
3.7709e-06
-4.06151e-05
3.48753e-06
-4.19362e-05
3.17393e-06
-4.31119e-05
2.83078e-06
-4.41305e-05
2.45912e-06
-4.49809e-05
2.06034e-06
-4.56529e-05
1.63627e-06
-4.61375e-05
1.18918e-06
-4.64266e-05
7.21862e-07
-4.65136e-05
2.37587e-07
-4.63935e-05
-2.59856e-07
-4.6063e-05
-7.6619e-07
-4.55208e-05
-1.27667e-06
-4.47677e-05
-1.78614e-06
-4.38067e-05
-2.28906e-06
-4.26433e-05
-2.77962e-06
-4.12852e-05
-3.25179e-06
-3.97427e-05
-3.69945e-06
-3.80285e-05
-4.11646e-06
-3.61577e-05
-4.4968e-06
-3.41477e-05
-4.8347e-06
-3.2018e-05
-5.12475e-06
-2.97901e-05
-5.36204e-06
-2.74872e-05
-5.54226e-06
-2.51339e-05
-5.66184e-06
-2.27557e-05
-5.71805e-06
-2.03791e-05
-5.70909e-06
-1.80308e-05
-5.63417e-06
-1.57371e-05
-5.49359e-06
-1.35241e-05
-5.28875e-06
-1.14166e-05
-5.02225e-06
-9.43797e-06
-4.69783e-06
-7.60939e-06
-4.32048e-06
-5.94967e-06
-3.89637e-06
-4.47449e-06
-3.43296e-06
-3.19598e-06
-2.93902e-06
-2.12209e-06
-2.42479e-06
-1.25601e-06
-1.90212e-06
-5.95488e-07
-1.38481e-06
-1.3208e-07
-8.89075e-07
1.4973e-07
-4.34113e-07
2.73422e-07
-4.2971e-08
2.71485e-07
2.56526e-07
1.8643e-07
4.30943e-07
7.22607e-08
4.40748e-07
2.37895e-07
-4.20359e-08
-8.6069e-08
-2.30016e-07
1.50209e-07
-6.06604e-07
6.39498e-07
-1.19839e-06
1.27596e-06
-2.01915e-06
1.98754e-06
-3.07204e-06
2.7223e-06
-4.35188e-06
3.44377e-06
-5.84724e-06
4.12744e-06
-7.54225e-06
4.75764e-06
-9.41809e-06
5.32506e-06
-1.14542e-05
5.82493e-06
-1.36292e-05
6.25566e-06
-1.59214e-05
6.61774e-06
-1.83093e-05
6.91297e-06
-2.07721e-05
7.1439e-06
-2.32895e-05
7.31336e-06
-2.58419e-05
7.42418e-06
-2.84104e-05
7.47898e-06
-3.09766e-05
7.48006e-06
-3.3523e-05
7.42932e-06
-3.6032e-05
7.32824e-06
-3.84869e-05
7.17794e-06
-4.08709e-05
6.97919e-06
-4.31676e-05
6.73253e-06
-4.53606e-05
6.43834e-06
-4.7434e-05
6.09695e-06
-4.93718e-05
5.70874e-06
-5.11586e-05
5.27429e-06
-5.27791e-05
4.79442e-06
-5.42187e-05
4.27036e-06
-5.54634e-05
3.7038e-06
-5.65e-05
3.09699e-06
-5.73165e-05
2.45278e-06
-5.79021e-05
1.77473e-06
-5.82473e-05
1.06709e-06
-5.83446e-05
3.34851e-07
-5.81881e-05
-4.1628e-07
-5.77744e-05
-1.17988e-06
-5.71023e-05
-1.94886e-06
-5.61728e-05
-2.71555e-06
-5.49902e-05
-3.47174e-06
-5.3561e-05
-4.20882e-06
-5.18948e-05
-4.91792e-06
-5.00043e-05
-5.59e-06
-4.79047e-05
-6.21604e-06
-4.56143e-05
-6.78721e-06
-4.3154e-05
-7.29505e-06
-4.05471e-05
-7.73162e-06
-3.78194e-05
-8.08973e-06
-3.49986e-05
-8.36308e-06
-3.2114e-05
-8.54645e-06
-2.91962e-05
-8.63585e-06
-2.62766e-05
-8.62865e-06
-2.33871e-05
-8.52371e-06
-2.05592e-05
-8.3215e-06
-1.78238e-05
-8.02412e-06
-1.52106e-05
-7.63541e-06
-1.27475e-05
-7.16095e-06
-1.04599e-05
-6.60813e-06
-8.37011e-06
-5.98613e-06
-6.49703e-06
-5.30604e-06
-4.85523e-06
-4.58083e-06
-3.45442e-06
-3.82559e-06
-2.29884e-06
-3.0577e-06
-1.38651e-06
-2.29714e-06
-7.08577e-07
-1.567e-06
-2.48558e-07
-8.94129e-07
1.84218e-08
-3.09948e-07
1.26431e-07
1.48513e-07
1.19632e-07
4.37729e-07
5.37015e-08
5.06681e-07
2.91602e-07
-8.94438e-08
3.37056e-09
-3.95404e-07
4.5617e-07
-9.45291e-07
1.18939e-06
-1.75571e-06
2.08637e-06
-2.83347e-06
3.06529e-06
-4.17681e-06
4.06563e-06
-5.77687e-06
5.04383e-06
-7.61928e-06
5.96985e-06
-9.68554e-06
6.8239e-06
-1.19544e-05
7.59388e-06
-1.44027e-05
8.27325e-06
-1.70065e-05
8.85947e-06
-1.97415e-05
9.35272e-06
-2.25835e-05
9.75495e-06
-2.55087e-05
1.00691e-05
-2.84939e-05
1.02986e-05
-3.15168e-05
1.0447e-05
-3.45552e-05
1.05175e-05
-3.75882e-05
1.0513e-05
-4.05948e-05
1.0436e-05
-4.3555e-05
1.02884e-05
-4.64488e-05
1.00717e-05
-4.92566e-05
9.78706e-06
-5.19593e-05
9.43521e-06
-5.45378e-05
9.0168e-06
-5.69732e-05
8.53243e-06
-5.92473e-05
7.98279e-06
-6.13419e-05
7.36886e-06
-6.32394e-05
6.69199e-06
-6.49231e-05
5.95405e-06
-6.63769e-05
5.15757e-06
-6.75857e-05
4.30583e-06
-6.85359e-05
3.40297e-06
-6.92152e-05
2.45402e-06
-6.96131e-05
1.46497e-06
-6.9721e-05
4.4281e-07
-6.95328e-05
-6.04532e-07
-6.90445e-05
-1.66817e-06
-6.8255e-05
-2.73833e-06
-6.71661e-05
-3.80447e-06
-6.57825e-05
-4.85536e-06
-6.41121e-05
-5.87923e-06
-6.2166e-05
-6.86396e-06
-5.99588e-05
-7.79724e-06
-5.7508e-05
-8.66682e-06
-5.48345e-05
-9.46067e-06
-5.19623e-05
-1.01673e-05
-4.8918e-05
-1.07759e-05
-4.57309e-05
-1.12768e-05
-4.24326e-05
-1.16613e-05
-3.90566e-05
-1.19225e-05
-3.56377e-05
-1.20547e-05
-3.22118e-05
-1.20546e-05
-2.88151e-05
-1.19204e-05
-2.54836e-05
-1.16529e-05
-2.22528e-05
-1.12549e-05
-1.91565e-05
-1.07317e-05
-1.62267e-05
-1.00908e-05
-1.34924e-05
-9.34235e-06
-1.09797e-05
-8.49891e-06
-8.71012e-06
-7.57559e-06
-6.70085e-06
-6.59009e-06
-4.96357e-06
-5.56288e-06
-3.50391e-06
-4.51735e-06
-2.32084e-06
-3.48021e-06
-1.40599e-06
-2.48186e-06
-7.43018e-07
-1.5571e-06
-3.07074e-07
-7.45889e-07
-6.41698e-08
-9.43941e-08
2.94722e-08
3.44078e-07
2.83487e-08
5.07803e-07
3.19956e-07
-1.37669e-07
1.41037e-07
-5.66452e-07
8.84947e-07
-1.29782e-06
1.92076e-06
-2.33688e-06
3.12543e-06
-3.68195e-06
4.41035e-06
-5.32495e-06
5.70863e-06
-7.25228e-06
6.97116e-06
-9.44581e-06
8.16338e-06
-1.1884e-05
9.26208e-06
-1.45428e-05
1.02527e-05
-1.73967e-05
1.11272e-05
-2.04193e-05
1.1882e-05
-2.35838e-05
1.25172e-05
-2.68636e-05
1.30348e-05
-3.02326e-05
1.34381e-05
-3.36649e-05
1.3731e-05
-3.71357e-05
1.39177e-05
-4.06204e-05
1.40022e-05
-4.40952e-05
1.39878e-05
-4.75368e-05
1.38776e-05
-5.09223e-05
1.3674e-05
-5.42294e-05
1.33788e-05
-5.7436e-05
1.29936e-05
-6.05201e-05
1.25194e-05
-6.34604e-05
1.19571e-05
-6.62357e-05
1.13077e-05
-6.88252e-05
1.05723e-05
-7.12086e-05
9.75231e-06
-7.33664e-05
8.84976e-06
-7.52796e-05
7.8673e-06
-7.69305e-05
6.80846e-06
-7.83024e-05
5.67773e-06
-7.93801e-05
4.48068e-06
-8.01502e-05
3.22405e-06
-8.0601e-05
1.9158e-06
-8.07233e-05
5.65134e-07
-8.05103e-05
-8.17517e-07
-7.99579e-05
-2.22053e-06
-7.90651e-05
-3.63119e-06
-7.78338e-05
-5.03577e-06
-7.62695e-05
-6.41969e-06
-7.4381e-05
-7.76773e-06
-7.21807e-05
-9.06421e-06
-6.96847e-05
-1.02932e-05
-6.69126e-05
-1.14389e-05
-6.38874e-05
-1.24859e-05
-6.06356e-05
-1.34191e-05
-5.71866e-05
-1.42249e-05
-5.3573e-05
-1.48904e-05
-4.98295e-05
-1.54048e-05
-4.59933e-05
-1.57587e-05
-4.21029e-05
-1.59451e-05
-3.81981e-05
-1.59594e-05
-3.43192e-05
-1.57994e-05
-3.05061e-05
-1.5466e-05
-2.67983e-05
-1.49628e-05
-2.32336e-05
-1.42964e-05
-1.98477e-05
-1.34767e-05
-1.66734e-05
-1.25166e-05
-1.37398e-05
-1.14325e-05
-1.10717e-05
-1.02437e-05
-8.68885e-06
-8.97299e-06
-6.60509e-06
-7.64663e-06
-4.828e-06
-6.29444e-06
-3.35806e-06
-4.95014e-06
-2.18816e-06
-3.65176e-06
-1.3031e-06
-2.44218e-06
-6.79098e-07
-1.36989e-06
-2.83524e-07
-4.8997e-07
-7.44853e-08
1.35041e-07
-5.50006e-10
4.33865e-07
3.19406e-07
-1.85468e-07
3.26507e-07
-7.38265e-07
1.43773e-06
-1.65439e-06
2.83688e-06
-2.92688e-06
4.39792e-06
-4.54464e-06
6.02812e-06
-6.49236e-06
7.65635e-06
-8.7508e-06
9.2296e-06
-1.12974e-05
1.071e-05
-1.41071e-05
1.20718e-05
-1.71529e-05
1.32985e-05
-2.04067e-05
1.43809e-05
-2.38395e-05
1.53148e-05
-2.74224e-05
1.61002e-05
-3.11267e-05
1.67391e-05
-3.49239e-05
1.72352e-05
-3.87861e-05
1.75932e-05
-4.2686e-05
1.78177e-05
-4.65971e-05
1.79132e-05
-5.04931e-05
1.78838e-05
-5.43486e-05
1.7733e-05
-5.81384e-05
1.74637e-05
-6.18377e-05
1.70782e-05
-6.54223e-05
1.65782e-05
-6.88682e-05
1.59652e-05
-7.21515e-05
1.52404e-05
-7.52491e-05
1.44053e-05
-7.81382e-05
1.34613e-05
-8.07965e-05
1.24106e-05
-8.32025e-05
1.12557e-05
-8.53356e-05
1.00004e-05
-8.71763e-05
8.64921e-06
-8.87066e-05
7.208e-06
-8.99099e-05
5.68396e-06
-9.07716e-05
4.08571e-06
-9.12791e-05
2.42337e-06
-9.14225e-05
7.08549e-07
-9.11944e-05
-1.04561e-06
-9.05905e-05
-2.82452e-06
-8.96094e-05
-4.61226e-06
-8.82535e-05
-6.39169e-06
-8.65285e-05
-8.14465e-06
-8.44441e-05
-9.85217e-06
-8.20136e-05
-1.14947e-05
-7.92542e-05
-1.30525e-05
-7.61872e-05
-1.4506e-05
-7.28374e-05
-1.58357e-05
-6.92333e-05
-1.70232e-05
-6.54069e-05
-1.80513e-05
-6.13933e-05
-1.89041e-05
-5.72302e-05
-1.95679e-05
-5.29578e-05
-2.00311e-05
-4.86181e-05
-2.02848e-05
-4.42543e-05
-2.03231e-05
-3.99104e-05
-2.01434e-05
-3.56302e-05
-1.97463e-05
-3.14567e-05
-1.91362e-05
-2.74317e-05
-1.83214e-05
-2.35946e-05
-1.73138e-05
-1.99815e-05
-1.61297e-05
-1.66252e-05
-1.47889e-05
-1.35534e-05
-1.33155e-05
-1.07887e-05
-1.17376e-05
-8.34787e-06
-1.00875e-05
-6.24061e-06
-8.40171e-06
-4.46956e-06
-6.72118e-06
-3.02957e-06
-5.09175e-06
-1.90731e-06
-3.56444e-06
-1.08098e-06
-2.19621e-06
-5.20208e-07
-1.05075e-06
-1.86009e-07
-1.99154e-07
-3.10402e-08
2.78894e-07
2.88363e-07
-2.32202e-07
5.58719e-07
-9.08084e-07
2.11361e-06
-2.00903e-06
3.93782e-06
-3.51597e-06
5.90485e-06
-5.40803e-06
7.92017e-06
-7.66205e-06
9.91037e-06
-1.02526e-05
1.18201e-05
-1.31522e-05
1.36096e-05
-1.63317e-05
1.52513e-05
-1.97608e-05
1.67277e-05
-2.34088e-05
1.80288e-05
-2.72442e-05
1.91503e-05
-3.12359e-05
2.00919e-05
-3.5353e-05
2.08562e-05
-3.95653e-05
2.14474e-05
-4.38427e-05
2.18706e-05
-4.81561e-05
2.21311e-05
-5.24769e-05
2.2234e-05
-5.6777e-05
2.21839e-05
-6.10289e-05
2.19849e-05
-6.52055e-05
2.16403e-05
-6.928e-05
2.11528e-05
-7.32262e-05
2.05244e-05
-7.70181e-05
1.97571e-05
-8.06301e-05
1.88524e-05
-8.4037e-05
1.78122e-05
-8.72142e-05
1.66385e-05
-9.01377e-05
1.53341e-05
-9.27843e-05
1.39023e-05
-9.51318e-05
1.23479e-05
-9.71594e-05
1.06767e-05
-9.88474e-05
8.89602e-06
-0.000100178
7.01474e-06
-0.000101136
5.04351e-06
-0.000101707
2.99475e-06
-0.000101881
8.82672e-07
-0.00010165
-1.27672e-06
-0.000101009
-3.4657e-06
-9.99565e-05
-5.66495e-06
-9.84945e-05
-7.85371e-06
-9.66291e-05
-1.001e-05
-9.43704e-05
-1.21109e-05
-9.17324e-05
-1.41327e-05
-8.87333e-05
-1.60517e-05
-8.53952e-05
-1.7844e-05
-8.17447e-05
-1.94862e-05
-7.78119e-05
-2.0956e-05
-7.36308e-05
-2.22324e-05
-6.92386e-05
-2.32962e-05
-6.46759e-05
-2.41306e-05
-5.99855e-05
-2.47215e-05
-5.52124e-05
-2.50578e-05
-5.04033e-05
-2.51323e-05
-4.56055e-05
-2.49412e-05
-4.08663e-05
-2.44854e-05
-3.62326e-05
-2.37699e-05
-3.17498e-05
-2.28042e-05
-2.74609e-05
-2.16027e-05
-2.3406e-05
-2.01846e-05
-1.96211e-05
-1.85737e-05
-1.61376e-05
-1.6799e-05
-1.29813e-05
-1.48939e-05
-1.01717e-05
-1.28971e-05
-7.72168e-06
-1.08518e-05
-5.63637e-06
-8.80649e-06
-3.91322e-06
-6.81489e-06
-2.54141e-06
-4.93624e-06
-1.5018e-06
-3.23583e-06
-7.66917e-07
-1.78563e-06
-3.01281e-07
-6.64787e-07
-6.20204e-08
3.96338e-08
2.26339e-07
-2.77596e-07
8.36315e-07
-1.07438e-06
2.91039e-06
-2.35807e-06
5.2215e-06
-4.09783e-06
7.64461e-06
-6.26292e-06
1.00853e-05
-8.82205e-06
1.24695e-05
-1.17432e-05
1.47413e-05
-1.49935e-05
1.68599e-05
-1.85396e-05
1.87974e-05
-2.23476e-05
2.05357e-05
-2.63838e-05
2.20649e-05
-3.06144e-05
2.33808e-05
-3.5006e-05
2.44835e-05
-3.95257e-05
2.5376e-05
-4.41414e-05
2.60631e-05
-4.88215e-05
2.65507e-05
-5.35349e-05
2.68445e-05
-5.82515e-05
2.69505e-05
-6.29413e-05
2.68738e-05
-6.75752e-05
2.66189e-05
-7.21244e-05
2.61895e-05
-7.65605e-05
2.55888e-05
-8.08553e-05
2.48193e-05
-8.49814e-05
2.38831e-05
-8.89113e-05
2.27823e-05
-9.26182e-05
2.15192e-05
-9.60759e-05
2.00963e-05
-9.92589e-05
1.85171e-05
-0.000102142
1.67859e-05
-0.000104703
1.49084e-05
-0.000106918
1.28918e-05
-0.000108767
1.07449e-05
-0.00011023
8.47845e-06
-0.000111292
6.10525e-06
-0.000111938
3.64007e-06
-0.000112155
1.09986e-06
-0.000111935
-1.4964e-06
-0.000111273
-4.12769e-06
-0.000110167
-6.77115e-06
-0.000108618
-9.40222e-06
-0.000106633
-1.19949e-05
-0.000104222
-1.45222e-05
-0.000101399
-1.69561e-05
-9.8182e-05
-1.92684e-05
-9.45951e-05
-2.14309e-05
-9.06653e-05
-2.3416e-05
-8.64243e-05
-2.5197e-05
-8.19077e-05
-2.67491e-05
-7.71547e-05
-2.80493e-05
-7.22079e-05
-2.90774e-05
-6.7113e-05
-2.98164e-05
-6.19177e-05
-3.02531e-05
-5.66717e-05
-3.03783e-05
-5.14256e-05
-3.01873e-05
-4.62306e-05
-2.96805e-05
-4.11369e-05
-2.88635e-05
-3.6194e-05
-2.77471e-05
-3.14487e-05
-2.6348e-05
-2.69448e-05
-2.46884e-05
-2.27224e-05
-2.27962e-05
-1.88164e-05
-2.07049e-05
-1.52564e-05
-1.84539e-05
-1.20655e-05
-1.6088e-05
-9.25959e-06
-1.36577e-05
-6.84724e-06
-1.12188e-05
-4.82891e-06
-8.83323e-06
-3.19685e-06
-6.5683e-06
-1.93506e-06
-4.49762e-06
-1.01941e-06
-2.70128e-06
-4.18184e-07
-1.26601e-06
-9.29361e-08
-2.85613e-07
1.334e-07
-3.21528e-07
1.15784e-06
-1.23629e-06
3.82516e-06
-2.69927e-06
6.68449e-06
-4.66834e-06
9.61368e-06
-7.10302e-06
1.25199e-05
-9.96383e-06
1.53303e-05
-1.32119e-05
1.79894e-05
-1.6809e-05
2.04569e-05
-2.07169e-05
2.27053e-05
-2.48983e-05
2.47172e-05
-2.93163e-05
2.64829e-05
-3.39344e-05
2.7999e-05
-3.87173e-05
2.92664e-05
-4.36301e-05
3.02888e-05
-4.86389e-05
3.10719e-05
-5.37104e-05
3.16222e-05
-5.88122e-05
3.19463e-05
-6.39124e-05
3.20508e-05
-6.89799e-05
3.19413e-05
-7.3984e-05
3.16229e-05
-7.88943e-05
3.10998e-05
-8.3681e-05
3.03755e-05
-8.83146e-05
2.94529e-05
-9.2766e-05
2.83344e-05
-9.70063e-05
2.70227e-05
-0.000101007
2.55202e-05
-0.000104741
2.38304e-05
-0.000108182
2.19573e-05
-0.000111302
1.99061e-05
-0.000114077
1.76836e-05
-0.000116484
1.52984e-05
-0.0001185
1.27609e-05
-0.000120105
1.00837e-05
-0.000121282
7.28173e-06
-0.000122014
4.37228e-06
-0.000122289
1.37505e-06
-0.000122098
-1.68788e-06
-0.000121433
-4.79211e-06
-0.000120293
-7.91111e-06
-0.000118679
-1.10164e-05
-0.000116596
-1.40779e-05
-0.000114054
-1.70642e-05
-0.000111067
-1.99428e-05
-0.000107655
-2.26809e-05
-0.00010384
-2.52457e-05
-9.96509e-05
-2.7605e-05
-9.51202e-05
-2.97277e-05
-9.02848e-05
-3.15845e-05
-8.51856e-05
-3.31485e-05
-7.98673e-05
-3.43957e-05
-7.43776e-05
-3.53061e-05
-6.87672e-05
-3.58635e-05
-6.30886e-05
-3.60568e-05
-5.7396e-05
-3.58799e-05
-5.17438e-05
-3.53327e-05
-4.61863e-05
-3.44209e-05
-4.07769e-05
-3.31566e-05
-3.55664e-05
-3.15585e-05
-3.06031e-05
-2.96517e-05
-2.5931e-05
-2.74683e-05
-2.15894e-05
-2.50466e-05
-1.76117e-05
-2.24316e-05
-1.40252e-05
-1.96746e-05
-1.08496e-05
-1.68333e-05
-8.09707e-06
-1.39713e-05
-5.77179e-06
-1.11585e-05
-3.86947e-06
-8.47061e-06
-2.37762e-06
-5.98948e-06
-1.2757e-06
-3.8032e-06
-5.35789e-07
-2.00592e-06
-1.23584e-07
-6.97818e-07
9.81476e-09
-3.63954e-07
1.52178e-06
-1.39334e-06
4.85455e-06
-3.03124e-06
8.32238e-06
-5.22474e-06
1.18072e-05
-7.92392e-06
1.52191e-05
-1.10812e-05
1.84876e-05
-1.46509e-05
2.15591e-05
-1.85889e-05
2.4395e-05
-2.28526e-05
2.69691e-05
-2.74008e-05
2.92653e-05
-3.21932e-05
3.12753e-05
-3.7191e-05
3.29968e-05
-4.23565e-05
3.44319e-05
-4.76531e-05
3.55854e-05
-5.30452e-05
3.64639e-05
-5.84979e-05
3.7075e-05
-6.39777e-05
3.74261e-05
-6.94512e-05
3.75243e-05
-7.48861e-05
3.73762e-05
-8.02504e-05
3.69872e-05
-8.55125e-05
3.6362e-05
-9.06414e-05
3.55044e-05
-9.56062e-05
3.44178e-05
-0.000100377
3.31049e-05
-0.000104923
3.15687e-05
-0.000109215
2.98124e-05
-0.000113224
2.78397e-05
-0.000116922
2.56554e-05
-0.000120282
2.32658e-05
-0.000123277
2.06786e-05
-0.000125882
1.79038e-05
-0.000128075
1.49534e-05
-0.000129833
1.1842e-05
-0.000131138
8.58655e-06
-0.000131973
5.20692e-06
-0.000132323
1.72561e-06
-0.000132179
-1.83216e-06
-0.000131532
-5.43859e-06
-0.00013038
-9.06339e-06
-0.000128723
-1.26741e-05
-0.000126564
-1.62363e-05
-0.000123914
-1.97141e-05
-0.000120787
-2.30704e-05
-0.0001172
-2.62675e-05
-0.000113178
-2.92678e-05
-0.000108749
-3.20342e-05
-0.000103946
-3.45308e-05
-9.88066e-05
-3.67235e-05
-9.33739e-05
-3.85812e-05
-8.76939e-05
-4.00757e-05
-8.18167e-05
-4.11833e-05
-7.57953e-05
-4.18849e-05
-6.96854e-05
-4.21667e-05
-6.35443e-05
-4.2021e-05
-5.74303e-05
-4.14467e-05
-5.14017e-05
-4.04495e-05
-4.5516e-05
-3.90424e-05
-3.98285e-05
-3.72459e-05
-3.4392e-05
-3.50882e-05
-2.92553e-05
-3.2605e-05
-2.44622e-05
-2.98397e-05
-2.00508e-05
-2.68429e-05
-1.60527e-05
-2.36727e-05
-1.24922e-05
-2.03938e-05
-9.38569e-06
-1.70779e-05
-6.74122e-06
-1.3803e-05
-4.55851e-06
-1.06533e-05
-2.82884e-06
-7.71915e-06
-1.53541e-06
-5.09663e-06
-6.53989e-07
-2.88734e-06
-1.53989e-07
-1.19782e-06
-1.44174e-07
-4.04863e-07
1.92665e-06
-1.54524e-06
5.99492e-06
-3.35302e-06
1.01302e-05
-5.76508e-06
1.42192e-05
-8.72239e-06
1.81764e-05
-1.21694e-05
2.19346e-05
-1.60538e-05
2.54434e-05
-2.03257e-05
2.86669e-05
-2.49378e-05
3.15812e-05
-2.98448e-05
3.41723e-05
-3.50036e-05
3.64341e-05
-4.03725e-05
3.83658e-05
-4.59118e-05
3.99712e-05
-5.15829e-05
4.12565e-05
-5.73488e-05
4.22298e-05
-6.31733e-05
4.28995e-05
-6.90214e-05
4.32742e-05
-7.48588e-05
4.33618e-05
-8.06521e-05
4.31694e-05
-8.63682e-05
4.27032e-05
-9.19745e-05
4.19683e-05
-9.74389e-05
4.09688e-05
-0.00010273
3.97085e-05
-0.000107815
3.81905e-05
-0.000112665
3.64181e-05
-0.000117247
3.43949e-05
-0.000121533
3.21252e-05
-0.000125492
2.96147e-05
-0.000129096
2.68702e-05
-0.000132319
2.39008e-05
-0.000135132
2.07176e-05
-0.000137513
1.73344e-05
-0.000139439
1.37673e-05
-0.000140888
1.00357e-05
-0.000141843
6.16193e-06
-0.000142288
2.17119e-06
-0.000142212
-1.90815e-06
-0.000141606
-6.04481e-06
-0.000140465
-1.02048e-05
-0.000138787
-1.43514e-05
-0.000136578
-1.84461e-05
-0.000133844
-2.24481e-05
-0.000130598
-2.63157e-05
-0.00012686
-3.00061e-05
-0.000122651
-3.34765e-05
-0.000118001
-3.66846e-05
-0.000112942
-3.95894e-05
-0.000107514
-4.21518e-05
-0.000101759
-4.43358e-05
-9.57262e-05
-4.61088e-05
-8.94669e-05
-4.74427e-05
-8.30367e-05
-4.8315e-05
-7.64944e-05
-4.8709e-05
-6.99006e-05
-4.86148e-05
-6.33175e-05
-4.80298e-05
-5.68076e-05
-4.69594e-05
-5.04328e-05
-4.54171e-05
-4.42536e-05
-4.34251e-05
-3.83275e-05
-4.10143e-05
-3.27085e-05
-3.8224e-05
-2.74457e-05
-3.51026e-05
-2.25822e-05
-3.17064e-05
-1.81548e-05
-2.81001e-05
-1.41926e-05
-2.4356e-05
-1.07167e-05
-2.05538e-05
-7.73981e-06
-1.67799e-05
-5.26579e-06
-1.31273e-05
-3.28997e-06
-9.69496e-06
-1.79935e-06
-6.58725e-06
-7.73253e-07
-3.91344e-06
-1.84328e-07
-1.78674e-06
-3.28501e-07
-4.44246e-07
2.3709e-06
-1.69175e-06
7.24242e-06
-3.66389e-06
1.21023e-05
-6.28787e-06
1.68432e-05
-9.4959e-06
2.13845e-05
-1.32248e-05
2.56636e-05
-1.74156e-05
2.96342e-05
-2.20129e-05
3.32641e-05
-2.69646e-05
3.65329e-05
-3.22218e-05
3.94294e-05
-3.77378e-05
4.19501e-05
-4.34686e-05
4.40966e-05
-4.93723e-05
4.58748e-05
-5.54085e-05
4.72927e-05
-6.15387e-05
4.83599e-05
-6.77255e-05
4.90863e-05
-7.39329e-05
4.94816e-05
-8.01257e-05
4.95545e-05
-8.62692e-05
4.9313e-05
-9.23298e-05
4.87638e-05
-9.82739e-05
4.79124e-05
-0.000104069
4.67636e-05
-0.000109681
4.53212e-05
-0.00011508
4.35888e-05
-0.000120232
4.15701e-05
-0.000125106
3.92689e-05
-0.000129671
3.66903e-05
-0.000133896
3.38403e-05
-0.000137753
3.07268e-05
-0.000141212
2.73598e-05
-0.000144246
2.37517e-05
-0.000146829
1.99177e-05
-0.000148938
1.58758e-05
-0.00015055
1.16475e-05
-0.000151645
7.25734e-06
-0.000152207
2.73348e-06
-0.000152223
-1.89271e-06
-0.000151681
-6.58652e-06
-0.000150576
-1.13102e-05
-0.000148904
-1.60229e-05
-0.000146669
-2.06817e-05
-0.000143876
-2.52411e-05
-0.000140537
-2.96542e-05
-0.00013667
-3.38733e-05
-0.000132296
-3.785e-05
-0.000127444
-4.15366e-05
-0.000122147
-4.48865e-05
-0.000116444
-4.78551e-05
-0.000110379
-5.04011e-05
-0.000104
-5.24868e-05
-9.73635e-05
-5.40798e-05
-9.05255e-05
-5.5153e-05
-8.35481e-05
-5.56864e-05
-7.64956e-05
-5.56673e-05
-6.94341e-05
-5.50914e-05
-6.24305e-05
-5.39629e-05
-5.55519e-05
-5.22958e-05
-4.88637e-05
-5.01133e-05
-4.24292e-05
-4.74488e-05
-3.63079e-05
-4.43453e-05
-3.05547e-05
-4.08558e-05
-2.52185e-05
-3.70425e-05
-2.03418e-05
-3.29768e-05
-1.59591e-05
-2.87387e-05
-1.20969e-05
-2.4416e-05
-8.77268e-06
-2.01041e-05
-5.99508e-06
-1.5905e-05
-3.76364e-06
-1.19264e-05
-2.0692e-06
-8.28169e-06
-8.9445e-07
-5.0882e-06
-2.14878e-07
-2.46632e-06
-5.43377e-07
-4.82083e-07
2.85298e-06
-1.83268e-06
8.59301e-06
-3.96326e-06
1.42329e-05
-6.79182e-06
1.96718e-05
-1.02423e-05
2.48349e-05
-1.42442e-05
2.96654e-05
-1.8732e-05
3.4122e-05
-2.3645e-05
3.81771e-05
-2.89266e-05
4.18145e-05
-3.45238e-05
4.50266e-05
-4.0387e-05
4.78133e-05
-4.64697e-05
5.01793e-05
-5.27276e-05
5.21328e-05
-5.91191e-05
5.36841e-05
-6.56039e-05
5.48448e-05
-7.21438e-05
5.56262e-05
-7.87015e-05
5.60393e-05
-8.52412e-05
5.60941e-05
-9.17275e-05
5.57993e-05
-9.81258e-05
5.51621e-05
-0.000104402
5.41888e-05
-0.000110523
5.28844e-05
-0.000116455
5.1253e-05
-0.000122165
4.92987e-05
-0.00012762
4.70252e-05
-0.000132788
4.4437e-05
-0.000137637
4.15394e-05
-0.000142136
3.83391e-05
-0.000146254
3.48446e-05
-0.000149961
3.1067e-05
-0.000153229
2.70196e-05
-0.00015603
2.27192e-05
-0.00015834
1.81854e-05
-0.000160134
1.34417e-05
-0.000161392
8.51505e-06
-0.000162094
3.43603e-06
-0.000162226
-1.76088e-06
-0.000161775
-7.03764e-06
-0.000160733
-1.23527e-05
-0.000159094
-1.76613e-05
-0.00015686
-2.29158e-05
-0.000154035
-2.80661e-05
-0.000150629
-3.30601e-05
-0.000146658
-3.78446e-05
-0.000142142
-4.23656e-05
-0.000137109
-4.65696e-05
-0.000131592
-5.04039e-05
-0.000125629
-5.38182e-05
-0.000119265
-5.67652e-05
-0.00011255
-5.92018e-05
-0.000105539
-6.10899e-05
-9.82943e-05
-6.23981e-05
-9.08787e-05
-6.3102e-05
-8.33605e-05
-6.31856e-05
-7.581e-05
-6.26419e-05
-6.8299e-05
-6.14739e-05
-6.08997e-05
-5.96951e-05
-5.36835e-05
-5.73296e-05
-4.67194e-05
-5.44128e-05
-4.00735e-05
-5.09913e-05
-3.3807e-05
-4.71224e-05
-2.79752e-05
-4.28742e-05
-2.26269e-05
-3.83251e-05
-1.78028e-05
-3.35628e-05
-1.35351e-05
-2.86837e-05
-9.84683e-06
-2.37924e-05
-6.75162e-06
-1.90002e-05
-4.25351e-06
-1.44245e-05
-2.34724e-06
-1.0188e-05
-1.01873e-06
-6.4167e-06
-2.45985e-07
-3.23907e-06
-7.89361e-07
-5.18335e-07
3.37131e-06
-1.9678e-06
1.00425e-05
-4.25051e-06
1.65156e-05
-7.27577e-06
2.2697e-05
-1.09596e-05
2.85188e-05
-1.52245e-05
3.39304e-05
-1.9999e-05
3.88965e-05
-2.52169e-05
4.33951e-05
-3.08173e-05
4.74148e-05
-3.67435e-05
5.09528e-05
-4.29429e-05
5.40128e-05
-4.93665e-05
5.66028e-05
-5.5968e-05
5.87343e-05
-6.27041e-05
6.04202e-05
-6.95334e-05
6.16741e-05
-7.64166e-05
6.25094e-05
-8.33157e-05
6.29384e-05
-9.01939e-05
6.29724e-05
-9.70155e-05
6.26208e-05
-0.000103745
6.1892e-05
-0.000110349
6.07924e-05
-0.000116792
5.93275e-05
-0.000123041
5.75019e-05
-0.000129062
5.53197e-05
-0.000134822
5.27851e-05
-0.000140287
4.99027e-05
-0.000145426
4.66782e-05
-0.000150206
4.31188e-05
-0.000154595
3.92337e-05
-0.000158563
3.50347e-05
-0.000162079
3.05362e-05
-0.000165116
2.5756e-05
-0.000167646
2.07156e-05
-0.000169644
1.544e-05
-0.000171088
9.95843e-06
-0.000171956
4.30398e-06
-0.000172231
-1.48605e-06
-0.000171898
-7.37038e-06
-0.000170947
-1.33038e-05
-0.000169371
-1.92375e-05
-0.000167167
-2.51194e-05
-0.000164339
-3.08945e-05
-0.000160893
-3.65055e-05
-0.000156844
-4.18934e-05
-0.000152211
-4.69986e-05
-0.00014702
-5.17611e-05
-0.000141302
-5.6122e-05
-0.000135095
-6.00247e-05
-0.000128445
-6.34152e-05
-0.000121403
-6.62443e-05
-0.000114025
-6.84681e-05
-0.000106374
-7.00493e-05
-9.85166e-05
-7.09589e-05
-9.05255e-05
-7.11767e-05
-8.24749e-05
-7.06925e-05
-7.44417e-05
-6.95071e-05
-6.65039e-05
-6.76329e-05
-5.87388e-05
-6.50946e-05
-5.12225e-05
-6.19291e-05
-4.40277e-05
-5.81861e-05
-3.72226e-05
-5.39274e-05
-3.087e-05
-4.92268e-05
-2.50255e-05
-4.41696e-05
-1.97366e-05
-3.88517e-05
-1.5042e-05
-3.33783e-05
-1.09707e-05
-2.78637e-05
-7.54175e-06
-2.24291e-05
-4.76398e-06
-1.72023e-05
-2.63617e-06
-1.23158e-05
-1.14745e-06
-7.90542e-06
-2.78042e-07
-4.10848e-06
-1.0674e-06
-5.52946e-07
3.92426e-06
-2.09687e-06
1.15864e-05
-4.52501e-06
1.89437e-05
-7.73849e-06
2.59105e-05
-1.16459e-05
3.24262e-05
-1.61631e-05
3.84476e-05
-2.12128e-05
4.39461e-05
-2.67238e-05
4.89061e-05
-3.26309e-05
5.33219e-05
-3.8874e-05
5.71959e-05
-4.53975e-05
6.05363e-05
-5.21499e-05
6.33553e-05
-5.90834e-05
6.56678e-05
-6.61528e-05
6.74897e-05
-7.33159e-05
6.88372e-05
-8.05322e-05
6.97257e-05
-8.77631e-05
7.01693e-05
-9.49713e-05
7.01805e-05