/*--------------------------------*- C++ -*----------------------------------*\
  =========                 |
  \\      /  F ield         | OpenFOAM: The Open Source CFD Toolbox
   \\    /   O peration     | Website:  https://openfoam.org
    \\  /    A nd           | Version:  dev
     \\/     M anipulation  |
\*---------------------------------------------------------------------------*/
FoamFile
{
    format      ascii;
    class       volScalarField;
    location    "42.75";
    object      Ux;
}
// * * * * * * * * * * * * * * * * * * * * * * * * * * * * * * * * * * * * * //

dimensions      [0 1 -1 0 0 0 0];

internalField   nonuniform List<scalar> 
5184
(
1.23909e-05
4.52761e-05
8.04163e-05
9.60705e-05
8.22408e-05
3.65391e-05
-4.0492e-05
-0.000146834
-0.000279689
-0.000436004
-0.000612659
-0.000806619
-0.00101501
-0.00123517
-0.00146464
-0.00170116
-0.00194265
-0.0021872
-0.00243303
-0.00267846
-0.00292186
-0.00316169
-0.00339642
-0.00362451
-0.00384445
-0.00405468
-0.00425366
-0.00443981
-0.00461155
-0.0047673
-0.0049055
-0.00502463
-0.00512323
-0.00519991
-0.00525341
-0.00528263
-0.00528661
-0.00526463
-0.00521619
-0.00514106
-0.0050393
-0.00491129
-0.00475773
-0.00457967
-0.00437853
-0.00415606
-0.00391435
-0.00365583
-0.00338324
-0.00309956
-0.00280805
-0.00251213
-0.00221538
-0.00192144
-0.001634
-0.00135669
-0.00109305
-0.000846463
-0.000620067
-0.000416717
-0.00023891
-8.87238e-05
3.22527e-05
0.000123006
0.000183205
0.000213353
0.000215038
0.000191316
0.000147215
9.0832e-05
3.66381e-05
6.22645e-06
2.08938e-05
6.57307e-05
9.48432e-05
7.29474e-05
-1.87997e-05
-0.000187217
-0.000432893
-0.000752612
-0.00114083
-0.00159075
-0.00209504
-0.00264624
-0.00323704
-0.00386046
-0.00450987
-0.00517908
-0.00586229
-0.00655405
-0.00724923
-0.00794293
-0.00863047
-0.00930728
-0.00996889
-0.0106109
-0.0112288
-0.0118183
-0.012375
-0.0128943
-0.0133721
-0.0138038
-0.0141853
-0.0145124
-0.0147813
-0.0149883
-0.0151302
-0.015204
-0.0152076
-0.015139
-0.0149971
-0.0147816
-0.0144929
-0.0141321
-0.0137015
-0.013204
-0.0126436
-0.0120251
-0.0113544
-0.010638
-0.00988336
-0.00909853
-0.00829223
-0.00747365
-0.00665232
-0.00583798
-0.00504042
-0.00426931
-0.00353404
-0.00284352
-0.00220605
-0.00162909
-0.00111913
-0.000681466
-0.000320011
-3.7047e-05
0.00016706
0.000294233
0.000349225
0.000340312
0.000279995
0.000186134
8.64039e-05
1.96855e-05
1.7664e-05
4.14081e-05
1.97059e-05
-8.38936e-05
-0.000290179
-0.0006079
-0.00103832
-0.00157763
-0.00221866
-0.00295222
-0.00376803
-0.00465538
-0.00560353
-0.00660203
-0.00764082
-0.00871033
-0.00980148
-0.0109056
-0.0120147
-0.0131206
-0.014216
-0.0152934
-0.0163455
-0.0173653
-0.0183457
-0.0192796
-0.0201599
-0.0209798
-0.0217323
-0.0224107
-0.0230083
-0.023519
-0.0239368
-0.0242561
-0.0244721
-0.0245807
-0.0245782
-0.0244624
-0.0242316
-0.0238856
-0.0234251
-0.0228524
-0.0221708
-0.0213852
-0.020502
-0.0195286
-0.0184741
-0.0173487
-0.0161637
-0.0149316
-0.0136657
-0.01238
-0.0110892
-0.00980799
-0.00855133
-0.0073339
-0.00616996
-0.00507305
-0.00405572
-0.00312923
-0.00230334
-0.00158592
-0.00098272
-0.000496971
-0.000128979
0.000124328
0.000270051
0.000320043
0.00029145
0.000207512
0.000102503
2.49879e-05
8.85532e-06
-6.96361e-06
-0.000107523
-0.000322329
-0.00066963
-0.00115784
-0.00178771
-0.00255446
-0.00344956
-0.00446197
-0.0055792
-0.00678804
-0.00807509
-0.00942708
-0.0108311
-0.0122747
-0.0137461
-0.0152337
-0.0167266
-0.0182144
-0.0196867
-0.0211336
-0.0225453
-0.0239122
-0.0252247
-0.0264735
-0.027649
-0.028742
-0.0297435
-0.0306445
-0.0314364
-0.0321111
-0.0326609
-0.0330789
-0.0333587
-0.0334951
-0.0334839
-0.0333221
-0.0330079
-0.0325413
-0.0319235
-0.0311575
-0.0302482
-0.0292019
-0.028027
-0.0267335
-0.0253331
-0.0238391
-0.0222664
-0.0206311
-0.0189504
-0.0172424
-0.015526
-0.0138202
-0.0121445
-0.0105175
-0.00895786
-0.00748285
-0.00610866
-0.0048498
-0.00371874
-0.00272561
-0.00187773
-0.00117923
-0.000630581
-0.00022807
3.67837e-05
0.000177884
0.00021497
0.000174217
9.30827e-05
2.40393e-05
-2.11723e-06
-6.72738e-05
-0.000264108
-0.000609826
-0.00111693
-0.00179164
-0.00263296
-0.00363451
-0.00478617
-0.00607522
-0.00748729
-0.00900714
-0.0106192
-0.0123078
-0.0140578
-0.0158542
-0.0176828
-0.0195296
-0.0213814
-0.023225
-0.0250481
-0.0268381
-0.0285831
-0.030271
-0.0318902
-0.033429
-0.0348759
-0.0362195
-0.0374488
-0.0385529
-0.0395217
-0.0403452
-0.0410144
-0.041521
-0.0418576
-0.042018
-0.0419976
-0.0417928
-0.0414018
-0.0408248
-0.0400635
-0.0391217
-0.0380054
-0.0367225
-0.0352831
-0.0336992
-0.0319849
-0.0301563
-0.0282311
-0.0262286
-0.0241693
-0.0220749
-0.0199678
-0.0178708
-0.0158069
-0.0137987
-0.0118681
-0.0100359
-0.00832134
-0.00674177
-0.00531214
-0.00404459
-0.00294797
-0.00202744
-0.00128393
-0.000713668
-0.00030766
-5.11242e-05
7.6826e-05
0.000103705
6.75543e-05
1.96758e-05
-1.36934e-05
-0.000132845
-0.000435889
-0.000924809
-0.00160424
-0.00247675
-0.0035385
-0.00478078
-0.00619149
-0.00775612
-0.00945853
-0.0112816
-0.013208
-0.01522
-0.0173004
-0.0194322
-0.0215991
-0.0237851
-0.0259745
-0.0281525
-0.0303041
-0.0324151
-0.0344712
-0.0364584
-0.038363
-0.0401713
-0.0418701
-0.043446
-0.0448862
-0.0461784
-0.0473107
-0.0482718
-0.0490513
-0.04964
-0.0500295
-0.0502129
-0.0501849
-0.0499418
-0.0494817
-0.0488049
-0.0479136
-0.0468125
-0.0455083
-0.0440102
-0.0423299
-0.0404811
-0.0384801
-0.0363451
-0.0340964
-0.0317559
-0.029347
-0.0268945
-0.0244239
-0.0219613
-0.0195327
-0.0171641
-0.0148805
-0.0127056
-0.0106616
-0.00876837
-0.00704324
-0.00550026
-0.00414992
-0.00299858
-0.00204801
-0.00129493
-0.000730566
-0.000340171
-0.00010278
9.24913e-06
3.25387e-05
1.36298e-05
-2.51883e-05
-0.00020005
-0.00061421
-0.00125319
-0.00211254
-0.00319009
-0.00447829
-0.0059654
-0.00763693
-0.00947632
-0.0114656
-0.0135859
-0.015818
-0.0181427
-0.020541
-0.022994
-0.0254836
-0.0279919
-0.0305015
-0.0329956
-0.0354574
-0.0378708
-0.0402196
-0.0424882
-0.0446608
-0.0467222
-0.0486572
-0.050451
-0.0520893
-0.0535581
-0.0548443
-0.0559354
-0.0568198
-0.0574872
-0.0579286
-0.0581364
-0.0581047
-0.0578296
-0.0573092
-0.0565439
-0.0555362
-0.0542912
-0.0528167
-0.0511229
-0.0492225
-0.0471311
-0.0448663
-0.0424485
-0.0398999
-0.0372449
-0.0345095
-0.0317209
-0.0289075
-0.0260981
-0.0233218
-0.0206074
-0.0179827
-0.0154743
-0.0131071
-0.0109034
-0.00888279
-0.00706139
-0.00545144
-0.00406078
-0.00289241
-0.00194404
-0.00120771
-0.000669481
-0.000309123
-9.97908e-05
-7.68047e-06
6.86827e-06
-3.63456e-05
-0.000267002
-0.000793946
-0.00158604
-0.00262912
-0.00391564
-0.00543363
-0.00716777
-0.00910076
-0.0112137
-0.0134867
-0.015899
-0.0184299
-0.0210585
-0.0237641
-0.0265264
-0.0293256
-0.0321423
-0.0349575
-0.0377526
-0.0405094
-0.0432099
-0.0458365
-0.0483717
-0.0507984
-0.0530997
-0.055259
-0.05726
-0.0590869
-0.0607246
-0.0621585
-0.0633752
-0.0643621
-0.0651079
-0.0656028
-0.0658387
-0.0658093
-0.0655102
-0.0649395
-0.0640974
-0.0629869
-0.0616135
-0.0599853
-0.0581136
-0.0560119
-0.0536971
-0.0511883
-0.0485073
-0.0456783
-0.0427277
-0.0396836
-0.0365756
-0.0334345
-0.0302919
-0.0271794
-0.0241285
-0.0211698
-0.0183326
-0.0156443
-0.0131299
-0.0108112
-0.00870651
-0.00683013
-0.00519164
-0.00379565
-0.0026413
-0.00172201
-0.00102521
-0.000532051
-0.000217173
-5.04365e-05
-7.79684e-08
-4.70702e-05
-0.000332721
-0.000972095
-0.00191772
-0.00314559
-0.00464233
-0.00639113
-0.00837269
-0.0105665
-0.0129512
-0.0155045
-0.0182041
-0.0210275
-0.0239522
-0.0269562
-0.0300178
-0.0331157
-0.0362291
-0.0393376
-0.0424213
-0.0454604
-0.0484356
-0.0513277
-0.0541181
-0.0567881
-0.0593193
-0.061694
-0.0638945
-0.0659038
-0.0677055
-0.0692842
-0.0706251
-0.0717149
-0.0725414
-0.0730941
-0.0733641
-0.0733447
-0.0730313
-0.0724214
-0.0715154
-0.0703161
-0.0688292
-0.0670635
-0.0650305
-0.0627448
-0.0602238
-0.057488
-0.0545606
-0.0514673
-0.048236
-0.044897
-0.041482
-0.038024
-0.034557
-0.0311152
-0.0277327
-0.0244428
-0.0212775
-0.0182669
-0.0154385
-0.0128167
-0.0104223
-0.00827161
-0.0063765
-0.00474349
-0.00337362
-0.0022621
-0.00139821
-0.000764991
-0.00033899
-9.41696e-05
-6.93889e-06
-5.7351e-05
-0.000396727
-0.00114692
-0.00224472
-0.00365635
-0.0053625
-0.00734122
-0.00956893
-0.0120217
-0.0146753
-0.0175053
-0.0204874
-0.0235973
-0.0268113
-0.0301058
-0.0334579
-0.0368451
-0.0402453
-0.0436369
-0.0469987
-0.0503097
-0.0535495
-0.0566976
-0.0597341
-0.0626391
-0.0653931
-0.0679771
-0.0703723
-0.0725606
-0.0745245
-0.0762475
-0.0777141
-0.0789098
-0.0798218
-0.0804387
-0.080751
-0.0807514
-0.0804346
-0.079798
-0.0788416
-0.0775681
-0.0759833
-0.0740958
-0.0719176
-0.0694638
-0.0667525
-0.063805
-0.0606455
-0.0573011
-0.0538013
-0.0501779
-0.0464647
-0.0426968
-0.0389105
-0.0351426
-0.0314297
-0.0278079
-0.024312
-0.0209747
-0.0178265
-0.0148945
-0.012202
-0.00976809
-0.00760699
-0.00572758
-0.00413314
-0.00282112
-0.00178302
-0.00100407
-0.000463025
-0.000138061
-1.35986e-05
-6.72031e-05
-0.00045879
-0.00131742
-0.00256481
-0.0041577
-0.0060708
-0.00827694
-0.0107481
-0.0134567
-0.0163756
-0.0194779
-0.0227374
-0.0261281
-0.0296248
-0.0332026
-0.0368374
-0.0405056
-0.044184
-0.04785
-0.0514812
-0.0550558
-0.0585521
-0.0619487
-0.0652245
-0.0683586
-0.0713305
-0.0741201
-0.0767077
-0.079074
-0.0812007
-0.0830703
-0.0846663
-0.0859734
-0.0869778
-0.0876674
-0.0880321
-0.0880637
-0.0877563
-0.0871068
-0.0861147
-0.0847823
-0.0831152
-0.0811219
-0.0788144
-0.0762079
-0.073321
-0.0701757
-0.0667969
-0.0632128
-0.0594542
-0.0555544
-0.0515492
-0.0474756
-0.0433722
-0.0392782
-0.0352331
-0.0312757
-0.0274436
-0.0237727
-0.0202965
-0.0170449
-0.0140445
-0.0113172
-0.00887986
-0.00674424
-0.00491622
-0.00339577
-0.00217695
-0.00124743
-0.000588265
-0.000181785
-2.00307e-05
-7.66497e-05
-0.000518804
-0.00148299
-0.00287655
-0.00464709
-0.00676344
-0.00919318
-0.0119038
-0.014864
-0.0180436
-0.0214133
-0.0249447
-0.0286102
-0.0323831
-0.0362373
-0.0401476
-0.0440894
-0.0480385
-0.0519713
-0.0558647
-0.0596959
-0.0634422
-0.0670815
-0.0705916
-0.073951
-0.077138
-0.0801316
-0.0829113
-0.0854569
-0.0877492
-0.0897696
-0.0915009
-0.0929268
-0.0940328
-0.0948057
-0.0952346
-0.0953105
-0.0950268
-0.0943795
-0.0933674
-0.0919924
-0.0902593
-0.0881765
-0.0857556
-0.0830118
-0.0799637
-0.0766337
-0.0730474
-0.0692336
-0.0652244
-0.0610545
-0.0567613
-0.0523839
-0.0479632
-0.0435409
-0.0391591
-0.0348598
-0.0306837
-0.02667
-0.0228553
-0.0192731
-0.0159532
-0.0129207
-0.010196
-0.00779359
-0.00572248
-0.0039855
-0.00257947
-0.00149469
-0.000714554
-0.00022534
-2.62613e-05
-8.57132e-05
-0.000576718
-0.00164325
-0.00317896
-0.00512269
-0.00743756
-0.010086
-0.013031
-0.0162376
-0.0196725
-0.0233038
-0.0271011
-0.0310351
-0.0350777
-0.0392016
-0.0433805
-0.0475889
-0.0518019
-0.0559949
-0.0601442
-0.0642261
-0.0682173
-0.0720949
-0.075836
-0.0794181
-0.082819
-0.0860169
-0.0889903
-0.0917182
-0.0941806
-0.0963581
-0.0982325
-0.0997866
-0.101005
-0.101873
-0.10238
-0.102515
-0.10227
-0.101642
-0.100627
-0.0992265
-0.0974448
-0.0952894
-0.0927715
-0.0899059
-0.0867111
-0.0832094
-0.0794268
-0.0753927
-0.0711402
-0.0667053
-0.0621268
-0.057446
-0.0527059
-0.0479511
-0.0432264
-0.0385769
-0.0340469
-0.0296789
-0.0255134
-0.0215876
-0.0179349
-0.0145843
-0.0115595
-0.00887868
-0.00655413
-0.00459184
-0.00299166
-0.00174658
-0.000842338
-0.000268949
-3.23488e-05
-9.44097e-05
-0.000632497
-0.00179792
-0.00347129
-0.00558309
-0.00809095
-0.0109523
-0.0141257
-0.0175725
-0.0212562
-0.0251427
-0.0291994
-0.0333952
-0.0377007
-0.0420874
-0.0465282
-0.0509966
-0.0554669
-0.0599141
-0.0643137
-0.0686413
-0.0728732
-0.0769858
-0.0809555
-0.0847594
-0.0883744
-0.091778
-0.094948
-0.0978628
-0.100501
-0.102844
-0.104871
-0.106564
-0.107907
-0.108884
-0.109484
-0.109694
-0.109506
-0.108914
-0.107914
-0.106507
-0.104695
-0.102485
-0.0998874
-0.0969162
-0.0935895
-0.0899294
-0.0859618
-0.0817167
-0.0772279
-0.0725324
-0.0676707
-0.0626859
-0.0576234
-0.0525304
-0.0474549
-0.0424454
-0.0375498
-0.0328146
-0.0282842
-0.024
-0.0199996
-0.016316
-0.0129771
-0.0100049
-0.00741537
-0.00521797
-0.00341578
-0.00200462
-0.000972495
-0.00031298
-3.83709e-05
-0.000102747
-0.000686096
-0.00194676
-0.00375291
-0.0060271
-0.00872169
-0.0117893
-0.0151842
-0.0188641
-0.0227897
-0.0269241
-0.0312328
-0.0356832
-0.0402444
-0.0448869
-0.0495826
-0.0543044
-0.0590259
-0.0637215
-0.0683661
-0.0729352
-0.0774042
-0.0817491
-0.0859461
-0.0899714
-0.0938016
-0.0974135
-0.100784
-0.103892
-0.106714
-0.10923
-0.11142
-0.113264
-0.114745
-0.115848
-0.116556
-0.116859
-0.116746
-0.11621
-0.115245
-0.11385
-0.112028
-0.109782
-0.107123
-0.104063
-0.100621
-0.096816
-0.0926755
-0.0882292
-0.0835112
-0.0785598
-0.0734167
-0.068127
-0.0627384
-0.0573008
-0.0518658
-0.0464852
-0.0412109
-0.0360939
-0.0311828
-0.0265238
-0.022159
-0.0181261
-0.0144575
-0.0111794
-0.00831191
-0.00586827
-0.003855
-0.0022709
-0.0011062
-0.000357906
-4.44178e-05
-0.000110725
-0.000737454
-0.00208949
-0.00402321
-0.0064536
-0.00932805
-0.0125946
-0.0162033
-0.0201085
-0.0242679
-0.0286423
-0.0331951
-0.0378922
-0.0427014
-0.0475923
-0.0525358
-0.0575041
-0.0624705
-0.0674088
-0.0722936
-0.0770998
-0.0818027
-0.0863779
-0.0908011
-0.0950482
-0.0990953
-0.102919
-0.106495
-0.109801
-0.112815
-0.115515
-0.117879
-0.119888
-0.121522
-0.122765
-0.123601
-0.124015
-0.123996
-0.123536
-0.122627
-0.121266
-0.119454
-0.117193
-0.114492
-0.111363
-0.107821
-0.103887
-0.0995868
-0.0949499
-0.0900109
-0.0848087
-0.0793865
-0.0737911
-0.0680727
-0.062284
-0.05648
-0.0507164
-0.0450496
-0.0395349
-0.0342262
-0.0291744
-0.024427
-0.0200267
-0.0160109
-0.0124107
-0.0092506
-0.006548
-0.00431315
-0.00254793
-0.00124486
-0.00040427
-5.05875e-05
-0.000118337
-0.000786489
-0.00222584
-0.00428156
-0.00686151
-0.00990835
-0.0133657
-0.0171799
-0.0213017
-0.0256862
-0.0302918
-0.0350801
-0.0400154
-0.0450643
-0.0501955
-0.0553792
-0.0605871
-0.0657918
-0.0709669
-0.0760867
-0.0811259
-0.0860596
-0.0908629
-0.0955115
-0.0999809
-0.104247
-0.108285
-0.112073
-0.115585
-0.118799
-0.121692
-0.124243
-0.12643
-0.128233
-0.129634
-0.130614
-0.13116
-0.131256
-0.130893
-0.130062
-0.128757
-0.126978
-0.124724
-0.122003
-0.118823
-0.115201
-0.111155
-0.106709
-0.101894
-0.0967435
-0.0912971
-0.0855991
-0.0796981
-0.0736467
-0.0675006
-0.0613182
-0.0551596
-0.0490855
-0.0431566
-0.0374319
-0.0319681
-0.0268183
-0.0220309
-0.0176487
-0.0137083
-0.0102391
-0.00726312
-0.00479453
-0.00283853
-0.00139001
-0.000452662
-5.69823e-05
-0.00012557
-0.000833094
-0.00235547
-0.00452728
-0.00724967
-0.0104609
-0.0141004
-0.0181108
-0.0224399
-0.0270399
-0.0318672
-0.0368816
-0.0420458
-0.0473256
-0.0526885
-0.0581042
-0.0635439
-0.0689799
-0.0743856
-0.0797351
-0.0850027
-0.0901636
-0.0951929
-0.100066
-0.104758
-0.109245
-0.113502
-0.117505
-0.12123
-0.124653
-0.127751
-0.130501
-0.13288
-0.134867
-0.136443
-0.137588
-0.138285
-0.138518
-0.138275
-0.137545
-0.13632
-0.134596
-0.132373
-0.129654
-0.126447
-0.122765
-0.118625
-0.114052
-0.109072
-0.103721
-0.0980389
-0.0920701
-0.085865
-0.0794785
-0.0729694
-0.0663998
-0.0598341
-0.0533381
-0.0469778
-0.0408181
-0.0349218
-0.0293483
-0.0241523
-0.0193829
-0.0150824
-0.0112858
-0.00802004
-0.00530376
-0.00314572
-0.00154331
-0.000503701
-6.37074e-05
-0.000132407
-0.000877144
-0.00247801
-0.00475966
-0.00761691
-0.0109839
-0.0147962
-0.018993
-0.0235192
-0.0283244
-0.0333631
-0.0385932
-0.0439765
-0.0494772
-0.0550626
-0.0607015
-0.0663647
-0.0720244
-0.0776538
-0.0832268
-0.0887179
-0.0941021
-0.0993545
-0.10445
-0.109365
-0.114074
-0.118553
-0.122777
-0.126721
-0.130362
-0.133674
-0.136635
-0.13922
-0.141408
-0.143176
-0.144505
-0.145374
-0.145766
-0.145666
-0.145061
-0.143941
-0.142299
-0.140132
-0.13744
-0.13423
-0.13051
-0.126298
-0.121615
-0.116488
-0.110951
-0.105043
-0.0988105
-0.0923049
-0.0855831
-0.078707
-0.0717424
-0.0647583
-0.0578259
-0.0510168
-0.0444024
-0.0380523
-0.0320327
-0.0264053
-0.021226
-0.0165436
-0.0123993
-0.00882548
-0.00584572
-0.00347267
-0.00170647
-0.000558031
-7.08695e-05
-0.000138825
-0.000918496
-0.00259307
-0.0049779
-0.00796195
-0.0114755
-0.0154507
-0.0198234
-0.0245356
-0.029535
-0.0347738
-0.0402088
-0.0458001
-0.0515114
-0.0573089
-0.0631613
-0.069039
-0.0749139
-0.0807592
-0.0865489
-0.0922576
-0.0978603
-0.103332
-0.108649
-0.113786
-0.118718
-0.12342
-0.127869
-0.132039
-0.135904
-0.139441
-0.142624
-0.145429
-0.147832
-0.149811
-0.151341
-0.152403
-0.152977
-0.153045
-0.15259
-0.151601
-0.150067
-0.147982
-0.145345
-0.142156
-0.138425
-0.134165
-0.129394
-0.124139
-0.118432
-0.112313
-0.105827
-0.0990264
-0.0919715
-0.0847263
-0.0773607
-0.0699483
-0.0625656
-0.0552908
-0.0482021
-0.0413763
-0.0348872
-0.0288041
-0.0231906
-0.0181028
-0.0135885
-0.00968636
-0.00642541
-0.00382264
-0.00188126
-0.000616305
-7.85761e-05
-0.000144799
-0.000956989
-0.0027002
-0.00518117
-0.00828349
-0.0119339
-0.0160613
-0.0205986
-0.0254853
-0.0306668
-0.0360939
-0.0417216
-0.0475093
-0.0534196
-0.0594182
-0.0654734
-0.0715554
-0.0776362
-0.0836888
-0.0896874
-0.0956067
-0.101422
-0.107109
-0.112643
-0.117999
-0.123154
-0.128082
-0.132758
-0.137157
-0.141254
-0.145023
-0.14844
-0.151477
-0.154111
-0.156316
-0.158068
-0.159344
-0.160121
-0.16038
-0.160102
-0.15927
-0.157872
-0.155898
-0.153343
-0.150206
-0.146491
-0.142208
-0.137375
-0.132015
-0.126159
-0.119844
-0.113118
-0.106033
-0.0986499
-0.0910364
-0.083266
-0.0754172
-0.0675721
-0.0598156
-0.0522331
-0.0449095
-0.0379268
-0.0313628
-0.0252893
-0.0197707
-0.0148623
-0.0106097
-0.0070479
-0.00419894
-0.00206948
-0.000679187
-8.69354e-05
-0.0001503
-0.000992455
-0.00279895
-0.00536864
-0.00858019
-0.0123572
-0.0166255
-0.0213154
-0.0263641
-0.0317151
-0.0373176
-0.0431253
-0.0490966
-0.0551934
-0.061381
-0.0676274
-0.0739025
-0.0801785
-0.0864284
-0.0926268
-0.0987486
-0.104769
-0.110665
-0.116411
-0.121984
-0.127359
-0.132512
-0.137417
-0.142049
-0.146382
-0.150391
-0.154049
-0.15733
-0.160208
-0.162655
-0.164646
-0.166155
-0.167159
-0.167633
-0.167556
-0.16691
-0.165677
-0.163844
-0.161402
-0.158346
-0.154677
-0.150403
-0.145536
-0.140097
-0.134115
-0.127627
-0.120678
-0.113321
-0.105619
-0.0976414
-0.0894656
-0.0811748
-0.0728571
-0.0646042
-0.0565096
-0.0486664
-0.0411657
-0.0340947
-0.0275344
-0.0215581
-0.0162296
-0.0116024
-0.00771831
-0.00460489
-0.00227292
-0.000747346
-9.60565e-05
-0.0001553
-0.00102472
-0.00288884
-0.00553941
-0.00885068
-0.0127434
-0.0171407
-0.0219706
-0.0271681
-0.0326751
-0.0384392
-0.0444131
-0.0505544
-0.0568243
-0.0631876
-0.0696122
-0.0760681
-0.0825274
-0.0889635
-0.0953511
-0.101666
-0.107883
-0.11398
-0.119932
-0.125716
-0.131307
-0.136682
-0.141815
-0.146681
-0.151254
-0.155508
-0.159415
-0.162949
-0.166081
-0.168785
-0.171031
-0.172793
-0.174043
-0.174756
-0.174907
-0.174473
-0.173434
-0.171773
-0.169476
-0.166535
-0.162946
-0.158712
-0.153843
-0.148356
-0.142277
-0.135641
-0.12849
-0.12088
-0.112872
-0.104539
-0.0959613
-0.0872264
-0.0784287
-0.0696672
-0.0610433
-0.0526596
-0.0446169
-0.0370124
-0.0299374
-0.0234753
-0.0176992
-0.0126715
-0.00844168
-0.00504382
-0.00249339
-0.000821453
-0.000106049
-0.000159768
-0.0010536
-0.00296941
-0.00569264
-0.00909364
-0.0130907
-0.0176045
-0.022561
-0.0278934
-0.033542
-0.0394531
-0.0455786
-0.0518751
-0.0583035
-0.0648282
-0.071417
-0.0780399
-0.0846692
-0.0912787
-0.0978435
-0.104339
-0.110743
-0.117031
-0.123181
-0.129168
-0.13497
-0.140562
-0.14592
-0.151019
-0.155832
-0.160332
-0.164494
-0.168287
-0.171684
-0.174655
-0.177171
-0.179203
-0.18072
-0.181694
-0.182097
-0.181903
-0.181088
-0.17963
-0.177512
-0.17472
-0.171247
-0.16709
-0.162255
-0.156754
-0.150611
-0.143856
-0.136532
-0.128691
-0.120396
-0.111721
-0.102749
-0.0935722
-0.0842908
-0.0750111
-0.0658434
-0.0568998
-0.0482916
-0.0401273
-0.0325093
-0.025532
-0.0192795
-0.0138236
-0.00922303
-0.00551903
-0.00273271
-0.000902181
-0.000117023
-0.000163675
-0.00107894
-0.00304022
-0.00582751
-0.0093078
-0.0133972
-0.0180145
-0.0230835
-0.0285362
-0.0343112
-0.040354
-0.0466154
-0.0530515
-0.0596226
-0.0662932
-0.0730307
-0.0798054
-0.0865899
-0.0933584
-0.100086
-0.10675
-0.113328
-0.119795
-0.126131
-0.132312
-0.138316
-0.144119
-0.149696
-0.155023
-0.160073
-0.164821
-0.169238
-0.173295
-0.176963
-0.180212
-0.183009
-0.185325
-0.187126
-0.188382
-0.189062
-0.189134
-0.188573
-0.187351
-0.185446
-0.18284
-0.17952
-0.175478
-0.170716
-0.165241
-0.159071
-0.152234
-0.144769
-0.136727
-0.128169
-0.119171
-0.109818
-0.100206
-0.0904419
-0.0806386
-0.0709154
-0.0613947
-0.0521992
-0.0434492
-0.0352597
-0.0277375
-0.0209783
-0.0150653
-0.0100672
-0.00603377
-0.00299266
-0.000990202
-0.000129092
-0.000166994
-0.00110058
-0.00310086
-0.00594326
-0.009492
-0.0136614
-0.0183684
-0.0235355
-0.029093
-0.0349786
-0.0411367
-0.0475175
-0.0540763
-0.0607734
-0.0675729
-0.0744424
-0.0813524
-0.0882756
-0.0951869
-0.102062
-0.108879
-0.115615
-0.122248
-0.128757
-0.13512
-0.141314
-0.147317
-0.153104
-0.158652
-0.163935
-0.168925
-0.173596
-0.177918
-0.181861
-0.185392
-0.188481
-0.191092
-0.193194
-0.19475
-0.195727
-0.196092
-0.195812
-0.194858
-0.193201
-0.190819
-0.187692
-0.183808
-0.179162
-0.173755
-0.167602
-0.160724
-0.153156
-0.144948
-0.136159
-0.126863
-0.117149
-0.107116
-0.0968749
-0.086547
-0.0762606
-0.0661487
-0.0563461
-0.0469861
-0.0381973
-0.0300998
-0.0228031
-0.0164028
-0.0109789
-0.00659121
-0.00327501
-0.00108619
-0.000142367
-0.0001697
-0.00111838
-0.00315096
-0.00603924
-0.0096452
-0.0138817
-0.0186644
-0.0239143
-0.0295607
-0.0355403
-0.0417967
-0.0482793
-0.0549431
-0.0617482
-0.0686585
-0.0756418
-0.0826688
-0.0897127
-0.0967487
-0.103754
-0.110706
-0.117583
-0.124365
-0.131031
-0.13756
-0.14393
-0.150119
-0.156105
-0.161864
-0.167369
-0.172596
-0.177515
-0.182099
-0.186315
-0.190132
-0.193517
-0.196433
-0.198846
-0.200718
-0.202013
-0.202693
-0.202723
-0.202068
-0.200694
-0.198574
-0.195682
-0.192
-0.187515
-0.182225
-0.176135
-0.169262
-0.161638
-0.153306
-0.144323
-0.134764
-0.124715
-0.11428
-0.103575
-0.0927281
-0.0818758
-0.0711627
-0.0607363
-0.0507438
-0.0413287
-0.0326262
-0.0247606
-0.0178417
-0.0119626
-0.00719443
-0.00358149
-0.0011908
-0.000156965
-0.000171773
-0.00113222
-0.00319024
-0.00611491
-0.00976659
-0.014057
-0.0189009
-0.024218
-0.0299368
-0.0359931
-0.0423298
-0.0488958
-0.055646
-0.0625399
-0.0695417
-0.0766191
-0.0837433
-0.0908879
-0.0980288
-0.105144
-0.112211
-0.11921
-0.126122
-0.132926
-0.139602
-0.146131
-0.15249
-0.158659
-0.164613
-0.170328
-0.175779
-0.180938
-0.185776
-0.190262
-0.194362
-0.198044
-0.20127
-0.204002
-0.206203
-0.207832
-0.208849
-0.209213
-0.208886
-0.20783
-0.20601
-0.203396
-0.199961
-0.195687
-0.190564
-0.18459
-0.177776
-0.170147
-0.16174
-0.15261
-0.142827
-0.132479
-0.121671
-0.110522
-0.0991669
-0.087752
-0.0764327
-0.0653698
-0.0547254
-0.0446589
-0.0353225
-0.0268567
-0.0193873
-0.0130226
-0.00784638
-0.00391381
-0.00130472
-0.000173002
-0.000173199
-0.00114203
-0.00321849
-0.00616992
-0.00985559
-0.0141866
-0.0190766
-0.0244449
-0.030219
-0.0363342
-0.0427327
-0.0493631
-0.0561798
-0.0631424
-0.0702149
-0.0773655
-0.0845655
-0.0917892
-0.0990131
-0.106216
-0.113376
-0.120475
-0.127494
-0.134415
-0.141217
-0.147883
-0.154392
-0.160723
-0.166855
-0.172763
-0.178423
-0.183807
-0.188888
-0.193633
-0.198011
-0.201987
-0.205522
-0.208579
-0.211116
-0.213091
-0.214461
-0.215183
-0.215212
-0.214506
-0.213024
-0.21073
-0.20759
-0.203579
-0.198677
-0.192876
-0.186179
-0.178602
-0.170177
-0.160953
-0.150997
-0.140394
-0.129249
-0.117684
-0.105841
-0.0938743
-0.0819499
-0.0702427
-0.0589308
-0.0481907
-0.0381927
-0.029096
-0.0210443
-0.0141626
-0.00854988
-0.00427361
-0.00142858
-0.000190598
-0.000173968
-0.00114778
-0.00323562
-0.00620407
-0.00991192
-0.0142698
-0.0191911
-0.0245942
-0.0304063
-0.036562
-0.0430031
-0.049678
-0.0565406
-0.0635506
-0.0706721
-0.0778734
-0.0851263
-0.0924057
-0.0996887
-0.106954
-0.114184
-0.121358
-0.12846
-0.135471
-0.142375
-0.149154
-0.155788
-0.162259
-0.168545
-0.174625
-0.180473
-0.186065
-0.191371
-0.196363
-0.201007
-0.205267
-0.209107
-0.212487
-0.215364
-0.217694
-0.219431
-0.220528
-0.220937
-0.220612
-0.219505
-0.217572
-0.214775
-0.211078
-0.206455
-0.200888
-0.19437
-0.186911
-0.178532
-0.169277
-0.159206
-0.1484
-0.136965
-0.125023
-0.112721
-0.100221
-0.0876998
-0.0753468
-0.0633565
-0.051924
-0.0412394
-0.0314823
-0.0228165
-0.0153862
-0.00930753
-0.00466247
-0.00156305
-0.000209874
-0.000174082
-0.00114946
-0.00324167
-0.00621745
-0.00993567
-0.0143069
-0.0192442
-0.0246658
-0.0304982
-0.0366757
-0.0431399
-0.0498385
-0.0567257
-0.0637609
-0.0709083
-0.0781366
-0.085418
-0.0927278
-0.100044
-0.107347
-0.114618
-0.12184
-0.128996
-0.136071
-0.143049
-0.149912
-0.156644
-0.163227
-0.169641
-0.175866
-0.181879
-0.187654
-0.193165
-0.198383
-0.203276
-0.207808
-0.211942
-0.215639
-0.218853
-0.221541
-0.223653
-0.225141
-0.225951
-0.226032
-0.225333
-0.223804
-0.221396
-0.218067
-0.213781
-0.208511
-0.202241
-0.194969
-0.186708
-0.177491
-0.167373
-0.156429
-0.14476
-0.13249
-0.119767
-0.106762
-0.0936611
-0.0806683
-0.0679948
-0.0558558
-0.0444628
-0.0340177
-0.024707
-0.0166963
-0.0101217
-0.00508191
-0.00170876
-0.000230955
-0.000173547
-0.00114714
-0.0032368
-0.00621038
-0.00992732
-0.0142984
-0.0192367
-0.0246602
-0.0304952
-0.0366758
-0.0431429
-0.0498444
-0.056734
-0.0637713
-0.0709206
-0.0781508
-0.0854347
-0.0927482
-0.10007
-0.107382
-0.114665
-0.121905
-0.129086
-0.136193
-0.143213
-0.15013
-0.156928
-0.163591
-0.170103
-0.176442
-0.182589
-0.18852
-0.194209
-0.199629
-0.204748
-0.209533
-0.213946
-0.217946
-0.221491
-0.224534
-0.227025
-0.228911
-0.230138
-0.230649
-0.230388
-0.229298
-0.227325
-0.224416
-0.220528
-0.215621
-0.20967
-0.20266
-0.194595
-0.185496
-0.175407
-0.164397
-0.152562
-0.140023
-0.126931
-0.113459
-0.0998059
-0.0861877
-0.0728338
-0.0599798
-0.0478606
-0.0367027
-0.0267176
-0.0180954
-0.0109946
-0.0055333
-0.00186632
-0.000253966
-0.000172385
-0.00114095
-0.00322139
-0.00618351
-0.00988784
-0.0142457
-0.0191702
-0.0245794
-0.0303994
-0.0365639
-0.0430138
-0.0496967
-0.0565661
-0.0635816
-0.0707078
-0.0779138
-0.0851729
-0.0924616
-0.0997597
-0.107049
-0.114314
-0.121539
-0.128711
-0.135818
-0.142845
-0.14978
-0.156609
-0.163318
-0.169892
-0.176311
-0.182559
-0.188612
-0.194448
-0.200039
-0.205357
-0.210369
-0.215038
-0.219325
-0.223187
-0.226576
-0.229441
-0.231729
-0.233382
-0.234341
-0.234543
-0.233927
-0.23243
-0.229993
-0.226561
-0.222085
-0.216526
-0.209858
-0.202072
-0.193176
-0.183203
-0.172212
-0.16029
-0.147554
-0.134153
-0.120266
-0.106098
-0.0918793
-0.0778559
-0.0642856
-0.0514278
-0.039536
-0.0288492
-0.0195851
-0.0119278
-0.00601794
-0.00203633
-0.000279036
-0.000170626
-0.00113109
-0.00319596
-0.00613782
-0.00981873
-0.0141506
-0.019047
-0.0244261
-0.0302137
-0.0363434
-0.0427559
-0.0493984
-0.0562246
-0.0631939
-0.0702711
-0.0774256
-0.0846313
-0.0918654
-0.0991085
-0.106344
-0.113556
-0.120732
-0.12786
-0.134928
-0.141926
-0.148841
-0.155663
-0.162379
-0.168975
-0.175436
-0.181746
-0.187884
-0.193829
-0.199557
-0.205041
-0.210249
-0.215146
-0.219695
-0.223853
-0.227572
-0.230803
-0.23349
-0.235573
-0.23699
-0.237675
-0.237561
-0.236579
-0.234661
-0.231742
-0.227762
-0.222671
-0.216428
-0.209008
-0.200408
-0.190646
-0.179767
-0.167848
-0.154999
-0.141365
-0.127126
-0.112494
-0.0977102
-0.0830385
-0.0687586
-0.0551563
-0.0425139
-0.0311011
-0.0211665
-0.0129229
-0.00653695
-0.00221935
-0.000306294
-0.000168313
-0.00111784
-0.00316127
-0.0060747
-0.00972208
-0.0140161
-0.0188709
-0.0242044
-0.0299428
-0.0360192
-0.0423741
-0.0489546
-0.0557142
-0.0626124
-0.069614
-0.076689
-0.0838116
-0.0909599
-0.0981153
-0.105262
-0.112386
-0.119477
-0.126522
-0.133513
-0.140441
-0.147296
-0.154069
-0.160749
-0.167325
-0.173785
-0.180114
-0.186294
-0.192308
-0.198133
-0.203743
-0.20911
-0.214202
-0.218983
-0.22341
-0.227438
-0.231017
-0.234091
-0.236601
-0.238481
-0.239662
-0.240073
-0.239638
-0.238281
-0.235929
-0.23251
-0.22796
-0.222225
-0.215265
-0.207059
-0.197608
-0.186944
-0.17513
-0.162265
-0.148487
-0.133973
-0.11894
-0.10364
-0.0883524
-0.0733794
-0.0590343
-0.0456305
-0.0334713
-0.0228395
-0.0139807
-0.00709128
-0.00241591
-0.000335872
-0.000165505
-0.00110155
-0.00311831
-0.00599598
-0.00960065
-0.0138459
-0.0186463
-0.02392
-0.0295929
-0.0355981
-0.0418758
-0.0483727
-0.0550423
-0.061844
-0.068743
-0.0757095
-0.0827184
-0.0897485
-0.0967821
-0.103805
-0.110804
-0.117769
-0.124692
-0.131565
-0.138381
-0.145131
-0.15181
-0.15841
-0.16492
-0.171332
-0.177634
-0.183811
-0.189847
-0.195723
-0.201416
-0.206902
-0.212149
-0.217123
-0.221786
-0.226094
-0.229998
-0.233442
-0.236367
-0.238707
-0.240389
-0.241339
-0.241476
-0.240718
-0.238981
-0.236183
-0.232247
-0.227103
-0.220696
-0.212985
-0.203955
-0.193618
-0.182021
-0.169247
-0.155427
-0.14073
-0.125375
-0.109621
-0.0937621
-0.0781235
-0.0630462
-0.048877
-0.0359558
-0.0246031
-0.0151017
-0.00768167
-0.00262647
-0.000367899
-0.000162277
-0.0010827
-0.00306834
-0.00590394
-0.00945792
-0.0136448
-0.0183793
-0.0235799
-0.0291722
-0.0350891
-0.0412702
-0.0476623
-0.0542186
-0.0608985
-0.0676674
-0.074496
-0.0813596
-0.088238
-0.0951146
-0.101976
-0.108811
-0.115612
-0.12237
-0.129081
-0.135739
-0.14234
-0.148878
-0.155348
-0.161745
-0.16806
-0.174284
-0.180408
-0.186416
-0.192295
-0.198023
-0.203579
-0.208936
-0.214062
-0.218922
-0.223474
-0.227671
-0.23146
-0.234781
-0.237569
-0.23975
-0.241246
-0.241973
-0.241842
-0.240762
-0.238639
-0.235385
-0.230913
-0.225151
-0.21804
-0.209543
-0.199651
-0.188392
-0.175832
-0.162083
-0.14731
-0.131726
-0.115595
-0.0992247
-0.0829604
-0.0671722
-0.0522418
-0.0385486
-0.0264552
-0.0162857
-0.00830862
-0.00285148
-0.000402506
-0.000158719
-0.00106186
-0.0030129
-0.00580144
-0.00929821
-0.0134184
-0.0180772
-0.0231929
-0.0286907
-0.0345031
-0.0405694
-0.046836
-0.0532559
-0.0597886
-0.0663997
-0.0730604
-0.0797466
-0.0864391
-0.0931223
-0.0997841
-0.106415
-0.113009
-0.119559
-0.126063
-0.132517
-0.13892
-0.145268
-0.151559
-0.15779
-0.163956
-0.170051
-0.176068
-0.181997
-0.187824
-0.193536
-0.199111
-0.204528