/*--------------------------------*- C++ -*----------------------------------*\
  =========                 |
  \\      /  F ield         | OpenFOAM: The Open Source CFD Toolbox
   \\    /   O peration     | Website:  https://openfoam.org
    \\  /    A nd           | Version:  dev
     \\/     M anipulation  |
\*---------------------------------------------------------------------------*/
FoamFile
{
    format      ascii;
    class       volScalarField;
    location    "42.75";
    object      Uy;
}
// * * * * * * * * * * * * * * * * * * * * * * * * * * * * * * * * * * * * * //

dimensions      [0 1 -1 0 0 0 0];

internalField   nonuniform List<scalar> 
5184
(
-1.26513e-05
-2.08587e-05
-1.72387e-05
-8.19487e-06
2.6688e-06
1.36187e-05
2.38497e-05
3.30562e-05
4.11163e-05
4.80351e-05
5.38767e-05
5.87267e-05
6.26768e-05
6.58171e-05
6.82324e-05
6.99986e-05
7.11801e-05
7.18297e-05
7.19877e-05
7.16837e-05
7.09372e-05
6.97586e-05
6.81511e-05
6.61116e-05
6.36328e-05
6.07048e-05
5.73172e-05
5.34604e-05
4.91272e-05
4.43148e-05
3.90255e-05
3.32687e-05
2.70615e-05
2.043e-05
1.34099e-05
6.04696e-06
-1.60277e-06
-9.47275e-06
-1.74865e-05
-2.55579e-05
-3.35927e-05
-4.14892e-05
-4.91402e-05
-5.64347e-05
-6.326e-05
-6.9504e-05
-7.50581e-05
-7.98193e-05
-8.36929e-05
-8.65952e-05
-8.84556e-05
-8.92189e-05
-8.88469e-05
-8.73198e-05
-8.4637e-05
-8.08181e-05
-7.59023e-05
-6.99486e-05
-6.30351e-05
-5.52577e-05
-4.67306e-05
-3.75865e-05
-2.79802e-05
-1.80942e-05
-8.15387e-06
1.546e-06
1.05806e-05
1.83122e-05
2.37275e-05
2.51362e-05
1.98552e-05
6.24521e-06
-4.58101e-05
-6.56725e-05
-4.05489e-05
7.63689e-06
6.56879e-05
0.000126013
0.000184332
0.000238396
0.000287062
0.000329883
0.000366824
0.000398076
0.000423949
0.000444809
0.000461032
0.000472979
0.000480973
0.000485288
0.000486148
0.000483725
0.000478139
0.000469468
0.00045775
0.000442994
0.000425188
0.00040431
0.000380333
0.000353242
0.000323036
0.000289743
0.000253424
0.00021418
0.000172163
0.000127574
8.06748e-05
3.17833e-05
-1.8721e-05
-7.03997e-05
-0.000122758
-0.000175247
-0.000227274
-0.000278205
-0.00032738
-0.000374119
-0.000417737
-0.000457559
-0.000492931
-0.000523241
-0.000547925
-0.00056649
-0.000578523
-0.000583704
-0.000581817
-0.00057276
-0.000556548
-0.00053332
-0.00050334
-0.000466998
-0.00042481
-0.000377417
-0.000325586
-0.000270222
-0.000212388
-0.000153336
-9.45763e-05
-3.79879e-05
1.39669e-05
5.79809e-05
8.94576e-05
0.000101903
8.65514e-05
3.64986e-05
-8.12974e-05
-9.50415e-05
-1.91451e-05
0.000105935
0.00025469
0.000410667
0.000563546
0.000707189
0.000838146
0.000954705
0.00105627
0.00114294
0.00121522
0.00127385
0.00131964
0.00135342
0.00137595
0.00138792
0.00138987
0.00138227
0.00136543
0.00133958
0.00130485
0.0012613
0.00120894
0.00114776
0.00107775
0.000998924
0.000911348
0.00081516
0.000710592
0.00059799
0.000477826
0.000350717
0.000217428
7.88835e-05
-6.3836e-05
-0.000209494
-0.000356707
-0.000503957
-0.000649608
-0.000791925
-0.000929106
-0.00105931
-0.00118068
-0.0012914
-0.00138971
-0.00147397
-0.00154268
-0.00159452
-0.00162839
-0.00164346
-0.00163916
-0.00161523
-0.00157175
-0.00150911
-0.00142807
-0.00132973
-0.00121553
-0.00108728
-0.000947158
-0.00079773
-0.000642005
-0.000483517
-0.000326467
-0.000175945
-3.82691e-05
7.85404e-05
0.000164184
0.000205493
0.000186355
9.04223e-05
-9.77706e-05
-7.31885e-05
8.47637e-05
0.000318392
0.000590193
0.000874531
0.00115437
0.00141891
0.00166168
0.00187915
0.00206976
0.00223325
0.00237019
0.00248161
0.00256879
0.00263305
0.00267568
0.00269783
0.00270048
0.00268441
0.00265024
0.00259838
0.0025291
0.00244257
0.00233885
0.002218
0.00208008
0.00192518
0.00175352
0.00156545
0.00136149
0.00114238
0.000909096
0.000662874
0.00040523
0.000137967
-0.000136824
-0.000416774
-0.000699245
-0.000981359
-0.00126003
-0.00153199
-0.00179387
-0.00204223
-0.00227362
-0.00248464
-0.00267206
-0.00283281
-0.00296412
-0.00306358
-0.00312915
-0.00315929
-0.00315299
-0.00310979
-0.00302985
-0.00291395
-0.00276352
-0.00258066
-0.00236814
-0.0021294
-0.0018686
-0.00159065
-0.00130125
-0.00100708
-0.000715963
-0.000437174
-0.000181859
3.63668e-05
0.000200784
0.000290991
0.000282686
0.000147337
-8.44537e-05
2.08459e-05
0.000295453
0.000668122
0.00109103
0.00153025
0.00196233
0.0023718
0.00274892
0.00308805
0.00338643
0.00364323
0.00385891
0.00403471
0.00417229
0.00427348
0.00434006
0.00437368
0.00437577
0.0043475
0.00428978
0.00420326
0.00408842
0.00394553
0.0037748
0.00357638
0.00335045
0.0030973
0.00281736
0.0025113
0.00218007
0.00182494
0.00144756
0.00104998
0.00063469
0.000204606
-0.000236908
-0.000686063
-0.00113867
-0.00159017
-0.00203569
-0.00247011
-0.00288814
-0.00328439
-0.00365349
-0.00399014
-0.0042893
-0.00454623
-0.00475661
-0.00491668
-0.00502332
-0.00507415
-0.00506758
-0.00500294
-0.00488049
-0.00470148
-0.00446821
-0.00418398
-0.00385318
-0.00348127
-0.00307484
-0.00264162
-0.00219062
-0.00173223
-0.00127853
-0.000843563
-0.000443824
-9.88796e-05
0.000167928
0.000328858
0.000351166
0.00019422
-3.75734e-05
0.000197341
0.000626971
0.00117055
0.00177211
0.00239077
0.00299745
0.00357237
0.00410265
0.00458053
0.00500194
0.00536538
0.00567109
0.00592043
0.0061154
0.00625824
0.00635126
0.00639657
0.00639605
0.00635127
0.00626345
0.00613354
0.0059622
0.0057499
0.00549699
0.00520381
0.00487072
0.00449825
0.00408718
0.00363859
0.00315397
0.00263528
0.002085
0.00150619
0.000902478
0.000278134
-0.000361978
-0.0010124
-0.00166713
-0.00231965
-0.00296304
-0.00359002
-0.00419308
-0.00476462
-0.00529703
-0.00578287
-0.006215
-0.00658676
-0.00689207
-0.00712565
-0.00728309
-0.00736103
-0.00735727
-0.00727085
-0.00710216
-0.00685299
-0.00652658
-0.00612765
-0.00566244
-0.00513875
-0.0045659
-0.00395489
-0.00331843
-0.00267112
-0.00202969
-0.00141334
-0.000844212
-0.000348003
4.53061e-05
0.000300765
0.000377557
0.000224625
4.4064e-05
0.000461304
0.00108724
0.00183509
0.00264297
0.00346461
0.00426637
0.00502478
0.00572423
0.00635503
0.00691185
0.00739253
0.00779707
0.00812692
0.00838434
0.008572
0.00869262
0.00874882
0.00874289
0.0086768
0.00855211
0.00837004
0.00813148
0.00783713
0.00748754
0.00708324
0.00662488
0.00611331
0.0055497
0.00493568
0.00427339
0.00356561
0.00281579
0.00202815
0.00120767
0.000360134
-0.000507889
-0.00138906
-0.00227533
-0.00315802
-0.00402787
-0.00487523
-0.00569015
-0.00646251
-0.00718226
-0.00783956
-0.00842496
-0.00892965
-0.00934559
-0.00966577
-0.00988438
-0.00999694
-0.0100005
-0.00989384
-0.00967739
-0.00935352
-0.00892652
-0.00840264
-0.00779017
-0.00709942
-0.00634278
-0.00553477
-0.00469215
-0.00383401
-0.00298206
-0.0021609
-0.00139847
-0.000726629
-0.000181881
0.000193955
0.000352752
0.000235118
0.000160455
0.000814607
0.00168005
0.00266676
0.003709
0.00475671
0.00577285
0.00673112
0.0076137
0.00840933
0.00911165
0.00971795
0.0102281
0.0106435
0.0109668
0.0112009
0.0113492
0.0114146
0.0113998
0.0113072
0.0111387
0.0108958
0.0105797
0.0101911
0.00973108
0.00920026
0.00859965
0.00793049
0.00719445
0.00639376
0.00553135
0.0046109
0.00363699
0.00261511
0.00155175
0.000454365
-0.000668594
-0.00180773
-0.00295277
-0.00409264
-0.00521561
-0.0063094
-0.00736139
-0.00835879
-0.00928885
-0.0101391
-0.0108976
-0.0115532
-0.0120957
-0.0125162
-0.0128073
-0.0129632
-0.0129802
-0.0128566
-0.012593
-0.0121923
-0.0116597
-0.0110033
-0.0102335
-0.00936312
-0.00840796
-0.00738627
-0.00631904
-0.00523012
-0.00414637
-0.00309795
-0.00211867
-0.0012465
-0.000524266
-1.86184e-07
0.000271181
0.000223989
0.000310966
0.00125716
0.00240637
0.00366741
0.00497253
0.00626934
0.00751857
0.008692
0.00977029
0.0107411
0.0115973
0.0123359
0.0129566
0.0134612
0.0138524
0.0141337
0.0143087
0.0143808
0.0143533
0.0142288
0.0140095
0.0136972
0.0132934
0.0127992
0.0122157
0.0115439
0.0107852
0.00994132
0.00901442
0.00800744
0.00692416
0.00576929
0.00454862
0.00326905
0.00193866
0.000566737
-0.000836258
-0.00225872
-0.003688
-0.00511049
-0.00651176
-0.00787677
-0.00919005
-0.0104359
-0.0115987
-0.0126633
-0.0136148
-0.0144397
-0.0151253
-0.0156607
-0.0160367
-0.0162462
-0.0162844
-0.0161492
-0.015841
-0.0153633
-0.0147225
-0.0139282
-0.012993
-0.0119326
-0.0107662
-0.00951584
-0.00820702
-0.00686846
-0.00553233
-0.00423444
-0.00301448
-0.00191648
-0.000989318
-0.000287187
0.000129732
0.00019059
0.000494691
0.00178774
0.00326531
0.00483669
0.00643353
0.00800251
0.00950325
0.0109065
0.0121922
0.0133474
0.0143647
0.015241
0.0159762
0.0165723
0.0170324
0.0173605
0.0175606
0.0176366
0.0175921
0.01743
0.0171531
0.0167633
0.0162623
0.0156515
0.0149324
0.0141063
0.0131749
0.0121404
0.0110056
0.00977429
0.00845106
0.00704174
0.0055534
0.00399443
0.00237463
0.000705187
-0.00100131
-0.00273095
-0.00446857
-0.00619787
-0.00790162
-0.00956185
-0.0111601
-0.0126775
-0.0140955
-0.0153958
-0.0165609
-0.0175741
-0.0184204
-0.0190865
-0.0195614
-0.0198363
-0.0199053
-0.0197656
-0.0194174
-0.0188648
-0.018115
-0.0171793
-0.0160725
-0.0148133
-0.0134242
-0.0119314
-0.0103648
-0.00875819
-0.00714917
-0.00557924
-0.00409401
-0.00274348
-0.00158242
-0.000670593
-7.32117e-05
0.000134839
0.000710594
0.00240442
0.00425479
0.00617261
0.00809022
0.00995448
0.011725
0.0133725
0.0148767
0.0162247
0.0174094
0.018428
0.0192806
0.0199697
0.020499
0.020873
0.0210961
0.0211727
0.0211067
0.0209017
0.0205604
0.0200852
0.0194781
0.0187407
0.0178748
0.016882
0.0157644
0.0145249
0.0131668
0.0116945
0.0101139
0.00843171
0.00665644
0.00479802
0.00286801
0.000879571
-0.00115251
-0.0032119
-0.00528084
-0.00734027
-0.00937001
-0.011349
-0.0132556
-0.0150679
-0.0167639
-0.0183221
-0.0197218
-0.0209436
-0.0219696
-0.0227839
-0.0233734
-0.0237273
-0.0238386
-0.0237034
-0.0233219
-0.0226981
-0.0218404
-0.0207615
-0.0194785
-0.0180129
-0.0163907
-0.0146422
-0.012802
-0.0109089
-0.00900609
-0.00714079
-0.00536458
-0.00373339
-0.00230777
-0.00115285
-0.000338489
5.69033e-05
0.000957599
0.00310492
0.00537193
0.00767209
0.00993944
0.0121221
0.0141805
0.0160863
0.0178197
0.0193687
0.0207266
0.0218912
0.0228636
0.0236467
0.0242451
0.0246635
0.0249072
0.024981
0.0248893
0.0246359
0.024224
0.0236562
0.0229347
0.0220615
0.0210385
0.0198679
0.0185521
0.0170943
0.0154988
0.0137707
0.0119167
0.00994491
0.00786505
0.00568866
0.0034291
0.00110155
-0.00127695
-0.00368762
-0.00611002
-0.00852223
-0.010901
-0.0132222
-0.0154608
-0.0175914
-0.0195888
-0.021428
-0.023085
-0.024537
-0.0257632
-0.026745
-0.0274665
-0.0279153
-0.0280824
-0.027963
-0.0275566
-0.0268674
-0.0259046
-0.0246823
-0.0232197
-0.0215412
-0.0196762
-0.0176591
-0.0155294
-0.013331
-0.0111127
-0.00892762
-0.00683329
-0.00489169
-0.0031691
-0.00173596
-0.000666665
-4.30002e-05
0.00123462
0.00388667
0.0066133
0.00933121
0.011977
0.0145009
0.0168653
0.0190433
0.0210165
0.022774
0.0243105
0.0256249
0.026719
0.0275968
0.0282636
0.028725
0.0289869
0.0290546
0.028933
0.0286262
0.0281379
0.0274708
0.0266276
0.0256103
0.0244212
0.0230627
0.0215378
0.0198503
0.0180048
0.0160074
0.0138657
0.011589
0.00918845
0.00667705
0.00406999
0.00138448
-0.00136019
-0.00414274
-0.00694003
-0.00972721
-0.012478
-0.0151648
-0.0177593
-0.0202325
-0.0225556
-0.0247
-0.0266382
-0.0283437
-0.0297926
-0.0309631
-0.0318365
-0.0323981
-0.0326368
-0.0325466
-0.032126
-0.0313792
-0.0303159
-0.0289514
-0.027307
-0.0254098
-0.0232928
-0.0209946
-0.0185592
-0.016036
-0.0134795
-0.0109488
-0.00850763
-0.00622406
-0.00417024
-0.00242201
-0.00105839
-0.000164738
0.00154055
0.00474699
0.00797508
0.0111454
0.0141979
0.0170858
0.019774
0.0222378
0.0244611
0.0264348
0.0281552
0.0296225
0.0308402
0.0318132
0.0325479
0.0330508
0.0333285
0.033387
0.0332317
0.0328671
0.0322971
0.031525
0.0305534
0.0293848
0.0280217
0.0264668
0.0247234
0.0227958
0.0206893
0.0184108
0.0159687
0.0133735
0.0106376
0.00777557
0.0048044
0.00174328
-0.00138627
-0.00456048
-0.00775348
-0.0109375
-0.014083
-0.0171591
-0.0201339
-0.0229748
-0.0256491
-0.0281244
-0.0303693
-0.0323537
-0.0340498
-0.0354324
-0.03648
-0.0371746
-0.0375033
-0.037458
-0.0370362
-0.0362417
-0.0350842
-0.0335804
-0.0317532
-0.0296325
-0.0272547
-0.0246625
-0.0219049
-0.0190366
-0.016118
-0.0132144
-0.0103959
-0.00773682
-0.00531553
-0.00321348
-0.00151463
-0.000308347
0.00187429
0.00568302
0.00945315
0.0131097
0.0165965
0.0198706
0.0229001
0.0256633
0.028147
0.0303443
0.0322536
0.0338773
0.0352202
0.036289
0.0370911
0.0376342
0.0379256
0.0379722
0.0377798
0.0373535
0.0366975
0.0358153
0.0347099
0.0333839
0.0318401
0.0300814
0.0281116
0.0259352
0.0235584
0.0209884
0.0182349
0.0153091
0.0122248
0.00899803
0.00564747
0.00219427
-0.00133785
-0.0049227
-0.00853169
-0.0121341
-0.0156971
-0.0191865
-0.0225667
-0.0258012
-0.0288534
-0.0316868
-0.0342658
-0.0365563
-0.0385265
-0.0401474
-0.0413938
-0.0422446
-0.0426841
-0.0427021
-0.0422946
-0.0414643
-0.0402211
-0.0385823
-0.0365727
-0.0342245
-0.0315775
-0.0286786
-0.0255816
-0.0223471
-0.0190411
-0.0157356
-0.0125074
-0.00943729
-0.00661019
-0.00411359
-0.0020369
-0.000474095
0.00223471
0.0066918
0.0110431
0.0152185
0.0191666
0.0228485
0.0262364
0.0293125
0.0320666
0.0344948
0.0365983
0.0383816
0.0398517
0.0410169
0.0418861
0.0424683
0.0427717
0.0428041
0.0425719
0.0420808
0.0413352
0.040339
0.0390953
0.0376071
0.0358772
0.0339089
0.0317062
0.029274
0.026619
0.0237491
0.0206745
0.0174077
0.0139635
0.0103594
0.00661557
0.00275505
-0.00119634
-0.00520999
-0.00925466
-0.0132967
-0.0173001
-0.021227
-0.0250383
-0.0286934
-0.0321515
-0.0353718
-0.0383143
-0.0409404
-0.043214
-0.0451018
-0.0465745
-0.0476075
-0.0481817
-0.0482842
-0.0479089
-0.0470574
-0.0457392
-0.0439717
-0.0417814
-0.0392026
-0.0362785
-0.0330602
-0.0296064
-0.0259833
-0.0222635
-0.0185254
-0.0148529
-0.0113341
-0.00806053
-0.00512648
-0.00262734
-0.000662517
0.00262066
0.00777021
0.0127402
0.017466
0.0219013
0.026012
0.0297753
0.0331772
0.0362115
0.038878
0.0411808
0.0431272
0.0447264
0.045989
0.0469254
0.047546
0.0478603
0.0478768
0.0476028
0.0470444
0.0462066
0.0450934
0.0437082
0.0420542
0.0401343
0.0379519
0.0355114
0.0328181
0.0298787
0.026702
0.0232987
0.0196822
0.0158682
0.0118756
0.00772603
0.00344421
-0.000942006
-0.00540174
-0.00990116
-0.0144037
-0.0188702
-0.0232593
-0.0275278
-0.0316314
-0.0355247
-0.0391624
-0.0424998
-0.0454935
-0.0481024
-0.0502885
-0.0520181
-0.0532623
-0.053998
-0.0542092
-0.0538873
-0.0530319
-0.0516516
-0.0497639
-0.0473962
-0.044585
-0.0413767
-0.0378263
-0.0339978
-0.0299631
-0.0258014
-0.0215983
-0.017445
-0.0134373
-0.00967421
-0.00625732
-0.00328882
-0.000874444
0.00303092
0.008915
0.0145396
0.0198459
0.0247933
0.0293532
0.0335079
0.0372484
0.0405728
0.0434848
0.0459921
0.0481051
0.0498358
0.0511969
0.0522009
0.0528597
0.0531842
0.0531839
0.0528668
0.0522397
0.051308
0.0500759
0.0485472
0.0467251
0.0446126
0.0422134
0.0395319
0.0365735
0.0333455
0.0298568
0.0261188
0.0221456
0.0179538
0.0135632
0.00899688
0.00428118
-0.000554233
-0.00547633
-0.0104488
-0.0154322
-0.0203844
-0.0252603
-0.030013
-0.0345938
-0.0389529
-0.0430402
-0.0468057
-0.0502011
-0.0531798
-0.0556988
-0.0577189
-0.0592065
-0.0601342
-0.0604818
-0.0602375
-0.0593985
-0.0579719
-0.0559748
-0.053435
-0.0503912
-0.0468922
-0.0429975
-0.038776
-0.0343058
-0.029673
-0.0249706
-0.0202978
-0.0157586
-0.0114603
-0.00751247
-0.00402502
-0.00111102
0.00346424
0.0101227
0.0164359
0.0223514
0.0278347
0.0328633
0.0374251
0.0415165
0.0451405
0.0483052
0.0510223
0.0533057
0.0551703
0.0566315
0.0577039
0.0584013
0.0587359
0.0587185
0.0583579
0.0576615
0.0566351
0.0552835
0.0536105
0.0516193
0.0493133
0.0466959
0.0437717
0.0405463
0.037027
0.033223
0.0291463
0.0248111
0.0202351
0.0154388
0.0104465
0.00528589
-1.1725e-05
-0.0054113
-0.0108742
-0.0163583
-0.0218183
-0.0272057
-0.0324697
-0.0375572
-0.0424137
-0.0469841
-0.0512132
-0.0550467
-0.0584326
-0.0613217
-0.0636693
-0.0654362
-0.0665896
-0.0671049
-0.0669661
-0.0661673
-0.0647134
-0.0626204
-0.0599163
-0.0566411
-0.0528465
-0.0485958
-0.0439632
-0.0390329
-0.0338984
-0.0286606
-0.0234274
-0.0183115
-0.0134294
-0.00889952
-0.00484045
-0.00137372
0.00391929
0.0113898
0.0184237
0.0249755
0.0310173
0.0365331
0.041517
0.0459711
0.049904
0.0533286
0.0562608
0.0587184
0.0607197
0.0622829
0.063425
0.0641618
0.0645071
0.0644729
0.0640691
0.0633037
0.0621832
0.0607125
0.0588956
0.0567358
0.0542366
0.0514014
0.0482345
0.0447418
0.0409304
0.0368098
0.032392
0.0276917
0.022727
0.0175192
0.0120934
0.00647847
0.000707189
-0.00518361
-0.0111532
-0.0171568
-0.0231461
-0.0290694
-0.0348719
-0.0404961
-0.0458827
-0.0509712
-0.0557008
-0.0600112
-0.063844
-0.0671437
-0.0698592
-0.0719447
-0.0733617
-0.0740797
-0.0740783
-0.0733472
-0.0718885
-0.0697165
-0.0668586
-0.0633557
-0.059262
-0.0546446
-0.0495828
-0.0441675
-0.0384996
-0.0326887
-0.0268518
-0.0211113
-0.0155937
-0.0104274
-0.0057405
-0.00166435
0.00439465
0.0127123
0.020497
0.0277106
0.0343322
0.0403527
0.0457729
0.0506012
0.054852
0.0585433
0.061696
0.0643318
0.0664728
0.0681402
0.0693537
0.0701312
0.0704885
0.0704386
0.0699928
0.0691598
0.0679464
0.0663581
0.064399
0.0620726
0.059382
0.0563307
0.052923
0.0491644
0.045062
0.0406253
0.0358661
0.0307995
0.0254437
0.0198205
0.0139556
0.00787886
0.00162422
-0.00476994
-0.0112609
-0.0178017
-0.0243411
-0.0308241
-0.037192
-0.043383
-0.0493328
-0.0549755
-0.0602442
-0.0650722
-0.0693944
-0.0731481
-0.0762751
-0.0787225
-0.0804447
-0.0814051
-0.0815769
-0.0809455
-0.0795085
-0.0772779
-0.0742799
-0.0705558
-0.0661616
-0.0611681
-0.0556599
-0.0497344
-0.0435005
-0.037077
-0.0305909
-0.0241751
-0.0179671
-0.0121062
-0.00673144
-0.00198504
0.00488884
0.0140862
0.0226497
0.0305487
0.0377699
0.0443115
0.0501815
0.0553949
0.0599721
0.0639371
0.0673154
0.0701336
0.0724175
0.0741916
0.0754787
0.0762989
0.0766697
0.0766061
0.0761201
0.0752216
0.0739178
0.0722146
0.0701162
0.0676262
0.0647476
0.0614836
0.0578384
0.0538171
0.0494267
0.0446762
0.0395776
0.0341455
0.0283982
0.0223578
0.0160504
0.00950642
0.00276073
-0.00414704
-0.0111725
-0.0182666
-0.0253755
-0.032441
-0.0394006
-0.0461883
-0.0527347
-0.0589683
-0.064816
-0.0702042
-0.0750605
-0.0793145
-0.0829
-0.0857563
-0.0878298
-0.0890762
-0.0894622
-0.0889666
-0.0875826
-0.0853182
-0.0821977
-0.0782619
-0.0735685
-0.0681914
-0.0622204
-0.0557597
-0.0489267
-0.0418498
-0.0346666
-0.0275219
-0.020565
-0.0139475
-0.00782042
-0.00233828
0.00540027
0.0155071
0.0248751
0.0334814
0.0413205
0.0483986
0.0547309
0.0603396
0.0652516
0.0694966
0.0731059
0.0761106
0.0785407
0.0804245
0.0817875
0.0826526
0.0830394
0.0829644
0.082441
0.0814798
0.0800889
0.0782745
0.0760409
0.0733916
0.0703297
0.066858
0.0629803
0.0587013
0.0540276
0.0489678
0.0435334
0.0377388
0.031602
0.025145
0.0183939
0.0113795
0.00413727
-0.00329217
-0.0108631
-0.0185247
-0.0262208
-0.0338901
-0.0414668
-0.0488804
-0.0560567
-0.0629182
-0.0693855
-0.0753778
-0.0808149
-0.0856182
-0.0897127
-0.0930286
-0.0955035
-0.0970847
-0.0977303
-0.0974122
-0.0961172
-0.0938486
-0.0906276
-0.0864938
-0.0815056
-0.0757399
-0.0692913
-0.0622711
-0.0548053
-0.0470327
-0.0391028
-0.0311725
-0.0234047
-0.0159641
-0.00901552
-0.0027269
0.00592726
0.0169707
0.0271663
0.0364998
0.0449737
0.0526022
0.0594085
0.065422
0.0706765
0.075208
0.0790533
0.0822486
0.0848284
0.0868247
0.0882665
0.0891792
0.0895847
0.0895013
0.0889437
0.0879236
0.0864498
0.0845287
0.082165
0.0793621
0.0761227
0.0724496
0.068346
0.063816
0.0588656
0.0535028
0.0477385
0.0415865
0.0350644
0.0281936
0.0210002
0.0135148
0.00577312
-0.00218356
-0.0103086
-0.0185496
-0.0268483
-0.0351411
-0.0433585
-0.051426
-0.0592644
-0.0667907
-0.0739186
-0.08056
-0.0866263
-0.0920302
-0.0966869
-0.100517
-0.103448
-0.105417
-0.106373
-0.10628
-0.105115
-0.102878
-0.0995833
-0.0952697
-0.0899951
-0.0838388
-0.0769
-0.069297
-0.0611649
-0.0526536
-0.0439248
-0.0351495
-0.0265047
-0.0181703
-0.0103257
-0.00315406
0.00646806
0.0184721
0.0295162
0.0395945
0.0487183
0.0569101
0.064201
0.0706282
0.0762324
0.0810562
0.0851424
0.0885324
0.0912654
0.0933774
0.0949008
0.0958641
0.0962914
0.096203
0.095615
0.0945403
0.0929884
0.0909661
0.0884783
0.0855284
0.0821189
0.078252
0.0739304
0.0691576
0.0639389
0.0582815
0.0521952
0.0456933
0.0387924
0.0315133
0.0238813
0.0159269
0.00768573
-0.000800942
-0.00948578
-0.0183153
-0.0272297
-0.0361629
-0.0450425
-0.0537901
-0.0623217
-0.0705485
-0.0783777
-0.0857135
-0.0924586
-0.0985161
-0.103791
-0.108193
-0.111639
-0.114055
-0.115378
-0.115561
-0.114576
-0.11241
-0.109075
-0.104605
-0.0990577
-0.0925126
-0.0850739
-0.0768665
-0.0680352
-0.0587412
-0.0491599
-0.039477
-0.0298855
-0.0205815
-0.0117608
-0.00362328
0.00702081
0.0200063
0.031917
0.042756
0.0525431
0.0613096
0.0690947
0.0759434
0.0819039
0.0870256
0.0913572
0.0949458
0.0978353
0.100066
0.101674
0.102691
0.103144
0.103054
0.10244
0.101315
0.0996907
0.0975734
0.0949684
0.091879
0.0883075
0.0842557
0.0797255
0.0747198
0.0692428
0.0633008
0.0569027
0.0500604
0.0427896
0.0351102
0.0270464
0.0186281
0.00989017
0.000873881
-0.00837335
-0.0177974
-0.0273373
-0.0369249
-0.0464853
-0.0559366
-0.0651903
-0.074152
-0.0827222
-0.0907973
-0.0982712
-0.105037
-0.110989
-0.116024
-0.120048
-0.122973
-0.124725
-0.125245
-0.124492
-0.122446
-0.11911
-0.114514
-0.108712
-0.101785
-0.0938397
-0.0850089
-0.0754464
-0.0653258
-0.0548367
-0.044181
-0.0335689
-0.0232145
-0.0133316
-0.0041384
0.00758359
0.0215683
0.034361
0.0459741
0.0564362
0.0657872
0.074075
0.0813524
0.0876753
0.0930997
0.097681
0.101472
0.104521
0.106874
0.10857
0.109643
0.110124
0.110037
0.109402
0.108232
0.106541
0.104335
0.10162
0.0983997
0.0946754
0.0904486
0.0857204
0.0804929
0.0747693
0.0685546
0.0618566
0.0546858
0.0470565
0.0389873
0.0305013
0.021627
0.0123985
0.00285643
-0.0069522
-0.0169731
-0.0271445
-0.037397
-0.0476535
-0.0578289
-0.0678306
-0.077559
-0.0869081
-0.0957664
-0.104019
-0.111548
-0.118236
-0.123969
-0.128637
-0.132139
-0.134388
-0.135309
-0.13485
-0.132979
-0.12969
-0.125004
-0.118973
-0.111676
-0.103223
-0.0937531
-0.0834294
-0.0724384
-0.060985
-0.0492885
-0.0375781
-0.0260873
-0.0150498
-0.00470364
0.00815441
0.0231525
0.03684
0.0492384
0.0603853
0.0703295
0.0791271
0.0868394
0.0935297
0.0992613
0.104096
0.108092
0.111304
0.113781
0.115568
0.116701
0.117214
0.117134
0.116481
0.115272
0.11352
0.111233
0.108416
0.105073
0.101206
0.096815
0.0919005
0.0864637
0.0805065
0.0740327
0.0670486
0.0595632
0.0515892
0.0431435
0.0342477
0.0249287
0.0152193
0.00515892
-0.00520622
-0.0158222
-0.0266271
-0.0375508
-0.0485144
-0.0594303
-0.0702023
-0.080726
-0.090889
-0.100572
-0.109652
-0.117999
-0.125485
-0.131981
-0.137363
-0.141515
-0.144333
-0.145728
-0.145632
-0.143998
-0.14081
-0.13608
-0.129852
-0.122204
-0.113248
-0.103127
-0.0920147
-0.0801105
-0.0676356
-0.0548281
-0.0419376
-0.029219
-0.0169276
-0.00532352
0.00873122
0.0247537
0.0393458
0.0525385
0.0643781
0.0749222
0.0842358
0.092388
0.0994501
0.105492
0.110583
0.114788
0.118165
0.120769
0.122648
0.123845
0.124393
0.124323
0.123657
0.122414
0.120607
0.118246
0.115336
0.11188
0.10788
0.103336
0.0982478
0.092615
0.0864386
0.0797208
0.0724662
0.0646823
0.0563797
0.0475735
0.0382833
0.0285341
0.018357
0.00778964
-0.00312291
-0.0143278
-0.0257635
-0.0373597
-0.0490366
-0.0607047
-0.0722648
-0.083608
-0.0946163
-0.105164
-0.115116
-0.124336
-0.132679
-0.140006
-0.146174
-0.151053
-0.154519
-0.156466
-0.156808
-0.155484
-0.15246
-0.147739
-0.141355
-0.133383
-0.123934
-0.113156
-0.101232
-0.0883737
-0.0748202
-0.0608294
-0.0466731
-0.03263
-0.0189786
-0.00600295
0.00931195
0.0263662
0.0418701
0.0558635
0.0684017
0.0795512
0.0893853
0.0979815
0.105419
0.111775
0.117124
0.121539
0.125083
0.127816
0.12979
0.131052
0.131638
0.131581
0.130907
0.129635
0.127779
0.125351
0.122355
0.118796
0.114674
0.109989
0.10474
0.0989261
0.0925458
0.0856004
0.0780926
0.0700279
0.061415
0.0522668
0.0426005
0.032439
0.0218111
0.0107524
-0.000694051
-0.0124768
-0.0245355
-0.0368004
-0.0491914
-0.0616178
-0.0739782
-0.08616
-0.0980403
-0.109486
-0.120355
-0.130497
-0.139759
-0.147982
-0.155012
-0.160696
-0.164893
-0.167477
-0.168342
-0.167406
-0.164621
-0.159972
-0.153484
-0.145224
-0.1353
-0.123865
-0.11111
-0.0972592
-0.0825703
-0.0673225
-0.0518116
-0.0363415
-0.0212167
-0.00674713
0.00989452
0.0279846
0.0444044
0.0592027
0.0724436
0.0842021
0.09456
0.103603
0.111418
0.118089
0.123699
0.128325
0.132037
0.1349
0.136971
0.138299
0.138925
0.138885
0.138205
0.136909
0.13501
0.132521
0.129449
0.125795
0.121562
0.116749
0.111353
0.105372
0.0988038
0.0916483
0.083906
0.0755802
0.0666775
0.0572081
0.0471871
0.0366344
0.0255763
0.0140458
0.00208366
-0.0102609
-0.0229294
-0.0358533
-0.048953
-0.0621376
-0.0753042
-0.0883376
-0.101111
-0.113484
-0.125307
-0.13642
-0.146657
-0.155844
-0.163808
-0.17038
-0.175396
-0.178707
-0.180185
-0.179728
-0.177264
-0.172761
-0.16623
-0.157728
-0.147358
-0.135274
-0.121674
-0.106797
-0.0909177
-0.0743383
-0.0573804
-0.0403758
-0.0236568
-0.00756163
0.0104768
0.0296033
0.0469403
0.0625454
0.076491
0.0888604
0.0997439
0.109235
0.117428
0.124416
0.130287
0.135124
0.139005
0.141998
0.144166
0.145561
0.146229
0.146207
0.145526
0.144208
0.142272
0.139729
0.136586
0.132848
0.128515
0.123584
0.118055
0.111923
0.105184
0.097837
0.0898799
0.0813142
0.0721439
0.0623768
0.0520248
0.0411053
0.0296413
0.017663
0.00520806
-0.00767706
-0.0209363
-0.0345032
-0.0482997
-0.0622355
-0.0762072
-0.090098
-0.103777
-0.117101
-0.12991
-0.142037
-0.153301
-0.163516
-0.172489
-0.180031
-0.185956
-0.190091
-0.192281
-0.192399
-0.19035
-0.186079
-0.179578
-0.170891
-0.160114
-0.147398
-0.132948
-0.117016
-0.0998933
-0.0819077
-0.063408
-0.0447559
-0.0263144
-0.00845232
0.0110569
0.0312171
0.0494698
0.0658811
0.0805314
0.0935122
0.104922
0.114861
0.123433
0.130736
0.136867
0.141916
0.145964
0.149087
0.15135
0.152812
0.153522
0.15352
0.152838
0.151503
0.149533
0.146942
0.143737
0.139922
0.135498
0.130463
0.124814
0.118546
0.111654
0.104134
0.0959832
0.0872001
0.0777862
0.0677466
0.0570902
0.0458311
0.0339892
0.0215911
0.00867099
-0.00472804
-0.0185532
-0.0327407
-0.0472151
-0.0618875
-0.0766554
-0.0914013
-0.105992
-0.120281
-0.134102
-0.147278
-0.159618
-0.170919
-0.180973
-0.189568
-0.196494
-0.201552
-0.20456
-0.20536
-0.20383
-0.199887
-0.193503
-0.184701
-0.173567
-0.160248
-0.144952
-0.127941
-0.109527
-0.0900613
-0.0699229
-0.0495057
-0.0292059
-0.00942543
0.0116328
0.0328206
0.0519851
0.0691998
0.0845529
0.0981435
0.110077
0.120464
0.129413
0.13703
0.143419
0.148676
0.15289
0.15614
0.158498
0.160026
0.160776
0.160793
0.160113
0.158762
0.156762
0.154126
0.150864
0.146981
0.142476
0.137349
0.131593
0.125205
0.118177
0.110504
0.10218
0.0932029
0.0835708
0.0732858
0.0623539
0.0507855
0.038597
0.025811
0.0124579
-0.00142308
-0.0157832
-0.0305623
-0.0456882
-0.0610748
-0.0766215
-0.0922115
-0.107711
-0.12297
-0.137819
-0.152072
-0.165528
-0.17797
-0.189172
-0.198901
-0.206921
-0.213005
-0.21694
-0.218537
-0.217639
-0.214135
-0.207966
-0.199135
-0.187709
-0.173828
-0.157699
-0.139595
-0.119846
-0.098829
-0.0769538
-0.0546493
-0.032348
-0.0104874
0.0122026
0.0344092
0.0544788
0.072492
0.088544
0.102741
0.115197
0.126027
0.13535
0.143278
0.149922
0.155384
0.159759
0.163133
0.165582
0.167172
0.167961
0.167997
0.167316
0.16595
0.163921
0.161245
0.157932
0.153987
0.149411
0.1442
0.138351
0.131857
0.124711
0.116904
0.10843
0.099283
0.0894592
0.0789577
0.0677809
0.055936
0.0434352
0.0302971
0.0165478
0.00222185
-0.0126364
-0.0279714
-0.0437151
-0.0597853
-0.0760844
-0.092498
-0.108893
-0.125118
-0.141001
-0.156349
-0.170953
-0.184582
-0.196993
-0.207931
-0.217137
-0.224351
-0.229329
-0.231844
-0.231704
-0.22876
-0.22292
-0.214158
-0.20252
-0.188132
-0.171198
-0.151997
-0.130877
-0.10824
-0.0845291
-0.0602114
-0.0357579
-0.0116452
0.0127648
0.0359784
0.0569442
0.0757489
0.0924942
0.107293
0.120266
0.131536
0.141227
0.149461
0.156355
0.162016
0.166547
0.170039
0.172574
0.174223
0.175047
0.175097
0.174414
0.173033
0.170976
0.168261
0.164901
0.160899
0.156259
0.150976
0.145046
0.138461
0.131212
0.123291
0.114689
0.105397
0.0954084
0.0847202
0.0733311
0.0612445
0.0484686
0.0350176
0.0209128
0.00618384
-0.00913007
-0.0249787
-0.041299
-0.0580138
-0.07503
-0.0922367
-0.109503
-0.126679
-0.14359
-0.160041
-0.175813
-0.190666
-0.204339
-0.216558
-0.227036
-0.235484
-0.241621
-0.245182
-0.245933
-0.243683
-0.238301
-0.229725
-0.217971
-0.203148
-0.185449
-0.165159
-0.14264
-0.11832
-0.0926765
-0.0662166
-0.0394535
-0.0129057
0.0133178
0.0375244
0.0593754
0.0789628
0.0963938
0.111788
0.125271
0.136974
0.147028
0.155561
0.162696
0.16855
0.17323
0.176833
0.179447
0.181147
0.182
0.18206
0.181372
0.179972
0.177886
0.175134
0.171728
0.167675
0.162976
0.15763
0.151629
0.144967
0.137633
0.129617
0.120908
0.111496
0.101371
0.0905266
0.0789591
0.0666675
0.0536561
0.0399343
0.0255185
0.010433
-0.00528882
-0.0216025
-0.0384511
-0.0557634
-0.0734521
-0.0914111
-0.109515
-0.127614
-0.145536
-0.163084
-0.180033
-0.196134
-0.211112
-0.224673
-0.236504
-0.246287
-0.253701
-0.258439
-0.260223
-0.258814
-0.254032
-0.245773
-0.23402
-0.21885
-0.200446
-0.179089
-0.155154
-0.129094
-0.101423
-0.0726895
-0.0434527
-0.0142764
0.0138605
0.0390441
0.0617676
0.0821272
0.100235
0.116215
0.130201
0.142328
0.152736
0.161559
0.168927
0.174964
0.179783
0.183488
0.186171
0.187915
0.188788
0.188851
0.188152
0.186729
0.184611
0.18182
0.17837
0.174268
0.169517
0.164114
0.158054
0.151327
0.143923
0.13583
0.127036
0.117528
0.107295
0.0963264
0.0846151
0.0721567
0.0589512
0.0450033
0.0303242
0.0149324
-0.00114459
-0.017869
-0.0351907
-0.0530455
-0.0713529
-0.0900136
-0.108907
-0.127891
-0.146793
-0.165419
-0.18354
-0.2009
-0.217213
-0.232167
-0.245425
-0.256636
-0.265442
-0.271492
-0.274456
-0.274043
-0.270019
-0.262229
-0.250609
-0.235203
-0.21617
-0.193785
-0.16843
-0.140583
-0.110793
-0.0796541
-0.0477736
-0.0157648
0.014392
0.0405352
0.0641171
0.0852371
0.104011
0.120567
0.135045
0.147587
0.158338
0.167439
0.175029
0.181236
0.186182
0.189977
0.192718
0.194494
0.195378
0.195435
0.194717
0.193264
0.19111
0.188277
0.184782
0.180633
0.175833
0.17038
0.164268
0.157488
0.150029
0.141878
0.13302
0.123441
0.113127
0.102065
0.0902453
0.0776593
0.0643025
0.0501752
0.0352831
0.0196389
0.00326359
-0.0138121
-0.0315455
-0.0498804
-0.0687441
-0.0880457