/*--------------------------------*- C++ -*----------------------------------*\
  =========                 |
  \\      /  F ield         | OpenFOAM: The Open Source CFD Toolbox
   \\    /   O peration     | Website:  https://openfoam.org
    \\  /    A nd           | Version:  dev
     \\/     M anipulation  |
\*---------------------------------------------------------------------------*/
FoamFile
{
    format      ascii;
    class       volScalarField;
    location    "36";
    object      p;
}
// * * * * * * * * * * * * * * * * * * * * * * * * * * * * * * * * * * * * * //

dimensions      [0 2 -2 0 0 0 0];

internalField   nonuniform List<scalar> 
5184
(
1.64118e-06
-9.77774e-06
-9.56262e-05
-0.000248523
-0.000447965
-0.00067667
-0.0009204
-0.00116718
-0.00140788
-0.00163533
-0.00184413
-0.00203026
-0.00219076
-0.00232355
-0.00242714
-0.00250055
-0.00254308
-0.0025543
-0.00253394
-0.00248183
-0.00239788
-0.00228208
-0.00213447
-0.0019552
-0.0017445
-0.00150275
-0.00123048
-0.000928461
-0.000597671
-0.000239385
0.000144811
0.000552992
0.000982866
0.00143176
0.00189661
0.00237397
0.00286002
0.0033506
0.00384123
0.00432717
0.00480347
0.00526506
0.00570681
0.00612365
0.00651061
0.00686299
0.00717642
0.00744697
0.00767127
0.00784658
0.0079709
0.00804301
0.00806258
0.00803016
0.00794726
0.00781631
0.00764073
0.00742481
0.00717378
0.00689369
0.00659141
0.00627454
0.00595141
0.00563096
0.00532277
0.0050369
0.00478387
0.00457429
0.00441813
0.00432385
0.00429694
0.00432425
1.53026e-05
2.85281e-06
-7.17394e-05
-0.000199516
-0.000364795
-0.000555101
-0.000759501
-0.000968386
-0.00117383
-0.00136944
-0.00155018
-0.00171213
-0.00185232
-0.00196853
-0.0020591
-0.00212284
-0.0021589
-0.00216666
-0.00214571
-0.00209574
-0.0020166
-0.00190818
-0.00177051
-0.00160368
-0.00140792
-0.00118359
-0.000931228
-0.000651558
-0.000345542
-1.43966e-05
0.000340371
0.000716943
0.00111317
0.00152656
0.00195428
0.00239313
0.0028396
0.00328988
0.00373985
0.00418521
0.00462145
0.00504397
0.00544812
0.00582932
0.00618312
0.00650528
0.00679191
0.00703952
0.00724513
0.00740635
0.00752145
0.00758946
0.00761017
0.0075842
0.00751303
0.00739899
0.00724526
0.00705586
0.00683558
0.00658998
0.00632531
0.00604845
0.00576684
0.00548839
0.00522144
0.00497454
0.00475638
0.00457533
0.00443867
0.00435236
0.00432379
0.00435142
0.000102029
7.73068e-05
1.95954e-06
-0.000115595
-0.000263326
-0.000431598
-0.000611703
-0.000795801
-0.000977191
-0.00115031
-0.00131066
-0.00145464
-0.00157944
-0.00168291
-0.00176338
-0.00181961
-0.00185068
-0.0018559
-0.00183477
-0.00178694
-0.00171215
-0.00161027
-0.00148125
-0.00132517
-0.00114221
-0.000932696
-0.000697115
-0.00043615
-0.000150698
0.000158098
0.000488826
0.000839783
0.00120896
0.00159403
0.00199233
0.00240091
0.00281649
0.00323551
0.00365416
0.00406844
0.00447416
0.00486707
0.00524286
0.00559729
0.00592626
0.00622586
0.00649251
0.00672301
0.00691466
0.00706528
0.00717333
0.00723797
0.00725908
0.00723731
0.00717411
0.0070717
0.0069331
0.00676208
0.00656314
0.00634142
0.00610271
0.00585329
0.00559992
0.00534973
0.00511009
0.00488844
0.00469229
0.00452869
0.00440365
0.00432241
0.00429462
0.00432526
0.000257096
0.000205688
0.000117875
-1.09332e-06
-0.000143549
-0.000301716
-0.00046847
-0.000637441
-0.000803085
-0.000960713
-0.00110645
-0.00123717
-0.00135035
-0.00144404
-0.00151671
-0.00156716
-0.00159451
-0.00159806
-0.00157727
-0.00153177
-0.00146126
-0.00136556
-0.00124458
-0.00109834
-0.000926957
-0.000730707
-0.000510011
-0.000265476
2.08589e-06
0.000291628
0.000601848
0.000931168
0.00127772
0.00163932
0.0020135
0.00239748
0.00278817
0.00318225
0.00357612
0.003966
0.00434796
0.00471798
0.00507199
0.00540599
0.0057161
0.00599863
0.0062502
0.0064678
0.00664888
0.00679141
0.00689395
0.00695573
0.00697667
0.00695742
0.00689938
0.0068047
0.00667625
0.00651761
0.00633302
0.00612733
0.00590591
0.00567463
0.00543967
0.00520755
0.00498491
0.00477842
0.00459471
0.00444005
0.00431988
0.00423923
0.00420819
0.00423344
0.000461881
0.000373282
0.000264678
0.000136965
-7.40823e-06
-0.000162275
-0.000321867
-0.000481182
-0.000635809
-0.000781949
-0.000916417
-0.0010366
-0.00114039
-0.00122611
-0.0012924
-0.00133823
-0.00136277
-0.00136537
-0.0013455
-0.00130278
-0.00123687
-0.00114757
-0.00103472
-0.000898291
-0.000738333
-0.000555041
-0.000348752
-0.000119977
0.000130573
0.000401967
0.000693028
0.00100231
0.0013281
0.00166837
0.00202081
0.00238282
0.0027515
0.00312369
0.00349601
0.00386487
0.00422651
0.00457711
0.00491277
0.00522968
0.00552411
0.00579252
0.00603168
0.00623867
0.00641106
0.00654689
0.00664478
0.006704
0.00672447
0.00670682
0.0066524
0.00656326
0.00644216
0.0062925
0.00611831
0.00592416
0.0057151
0.00549659
0.00527438
0.00505442
0.00484276
0.00464543
0.00446834
0.00431712
0.00419674
0.00411195
0.00407156
0.0040814
0.000700225
0.000568204
0.000433035
0.000290985
0.000139043
-1.80156e-05
-0.000175586
-0.000329925
-0.000477699
-0.000615981
-0.000742298
-0.000854602
-0.000951219
-0.0010308
-0.00109226
-0.00113472
-0.00115749
-0.00115997
-0.0011417
-0.00110228
-0.00104138
-0.000958737
-0.000854161
-0.000727537
-0.000578852
-0.000408203
-0.000215829
-2.13032e-06
0.000232303
0.000486669
0.000759927
0.00105078
0.00135765
0.00167869
0.00201174
0.00235435
0.00270381
0.00305711
0.00341102
0.0037621
0.00410676
0.00444129
0.00476195
0.00506501
0.00534686
0.00560404
0.0058334
0.00603208
0.00619768
0.00632827
0.00642249
0.0064796
0.0064995
0.00648277
0.00643069
0.00634523
0.00622903
0.00608534
0.005918
0.00573137
0.0055302
0.00531964
0.00510503
0.0048919
0.00468578
0.00449219
0.00431643
0.00416358
0.00403818
0.00394465
0.00388946
0.0038764
0.000958344
0.000779581
0.000614039
0.000453491
0.000289562
0.000125862
-3.39858e-05
-0.000187381
-0.00033199
-0.000465725
-0.000586812
-0.000693781
-0.000785423
-0.000860756
-0.000918976
-0.000959424
-0.000981545
-0.000984861
-0.000968954
-0.00093345
-0.000878013
-0.000802348
-0.000706209
-0.000589412
-0.000451853
-0.00029353
-0.000114567
8.47602e-05
0.000303995
0.000542475
0.000799308
0.00107335
0.00136318
0.00166709
0.00198309
0.00230888
0.00264189
0.00297925
0.00331787
0.00365441
0.0039854
0.00430721
0.00461618
0.00490864
0.00518101
0.0054299
0.00565212
0.00584486
0.00600567
0.00613263
0.00622432
0.00627997
0.00629941
0.00628316
0.00623243
0.0061491
0.00603567
0.00589529
0.00573164
0.00554886
0.00535152
0.00514446
0.00493275
0.00472153
0.00451596
0.00432109
0.00414179
0.00398261
0.0038478
0.00374139
0.00366708
0.00362608
0.00122411
0.000997273
0.000799098
0.000617193
0.000438072
0.000264375
9.88925e-05
-5.68032e-05
-0.000201303
-0.000333311
-0.000451731
-0.000555661
-0.000644367
-0.000717246
-0.000773797
-0.000813591
-0.000836243
-0.000841393
-0.000828693
-0.000797799
-0.000748375
-0.000680094
-0.000592654
-0.000485792
-0.000359309
-0.000213091
-4.71361e-05
0.000138414
0.000343248
0.000566855
0.000808499
0.00106719
0.00134167
0.00163038
0.00193149
0.00224283
0.00256195
0.00288612
0.00321233
0.00353736
0.00385777
0.00417
0.00447041
0.00475536
0.00502126
0.00526468
0.00548241
0.00567157
0.00582967
0.00595469
0.00604516
0.0061002
0.00611956
0.00610369
0.00605368
0.00597132
0.00585901
0.00571976
0.00555713
0.00537511
0.00517808
0.00497069
0.00475775
0.00454415
0.00433473
0.00413419
0.00394702
0.0037774
0.00362933
0.00350654
0.00340977
0.0033376
0.00148726
0.00121213
0.000980151
0.000775056
0.000578518
0.000392373
0.000218702
5.81488e-05
-8.87303e-05
-0.000221378
-0.000339343
-0.000442277
-0.000529912
-0.000602025
-0.000658424
-0.000698917
-0.000723299
-0.000731332
-0.000722748
-0.000697236
-0.00065446
-0.000594059
-0.000515673
-0.000418954
-0.0003036
-0.000169374
-1.6142e-05
0.000156103
0.000347203
0.00055681
0.000784348
0.00102899
0.00128964
0.0015649
0.00185307
0.00215212
0.00245972
0.00277323
0.00308974
0.00340606
0.00371882
0.00402446
0.00431933
0.00459975
0.00486209
0.00510285
0.00531872
0.00550673
0.00566427
0.00578921
0.00587995
0.00593549
0.00595546
0.00594018
0.00589065
0.00580851
0.0056961
0.00555629
0.00539252
0.00520868
0.005009
0.00479797
0.00458025
0.00436051
0.00414337
0.0039333
0.00373449
0.00355083
0.00338617
0.00324406
0.00312231
0.00301697
0.0017388
0.00141588
0.0011497
0.000920349
0.000704931
0.000504602
0.00032084
0.000153441
2.1784e-06
-0.000133081
-0.000252493
-0.000356242
-0.000444504
-0.000517434
-0.000575139
-0.000617667
-0.000644988
-0.000656994
-0.000653489
-0.000634201
-0.000598788
-0.000546854
-0.000477972
-0.000391707
-0.000287641
-0.000165411
-2.47343e-05
0.00013455
0.00031245
0.000508785
0.000723151
0.000954892
0.00120307
0.00146645
0.00174345
0.0020322
0.00233046
0.00263569
0.00294502
0.00325532
0.00356321
0.00386513
0.00415737
0.0044362
0.00469789
0.0049388
0.00515552
0.00534491
0.00550421
0.00563111
0.00572385
0.00578128
0.00580286
0.00578875
0.00573983
0.00565761
0.0055443
0.00540269
0.0052361
0.00504833
0.00484351
0.00462604
0.00440044
0.00417127
0.00394303
0.00372001
0.00350623
0.00330537
0.00312126
0.00295736
0.00280871
0.00266899
0.0019708
0.00160103
0.00130077
0.00104667
0.000811489
0.000595813
0.000400584
0.000224827
6.75878e-05
-7.19092e-05
-0.000194394
-0.000300549
-0.00039098
-0.0004662
-0.000526608
-0.000572479
-0.000603958
-0.000621054
-0.000623646
-0.000611491
-0.000584237
-0.000541448
-0.000482625
-0.000407232
-0.000314733
-0.000204624
-7.64697e-05
7.00584e-05
0.000235142
0.000418778
0.000620742
0.000840552
0.00107744
0.00133032
0.00159778
0.00187803
0.00216897
0.00246811
0.00277265
0.00307946
0.00338517
0.00368615
0.00397865
0.0042588
0.00452275
0.00476671
0.00498708
0.00518053
0.00534409
0.00547524
0.005572
0.00563301
0.00565754
0.00564557
0.0055978
0.0055156
0.00540105
0.00525684
0.0050862
0.00489285
0.00468086
0.00445457
0.00421845
0.00397701
0.00373467
0.00349568
0.00326397
0.00304311
0.00283703
0.00264924
0.00247217
0.00229724
0.00217612
0.00176069
0.00142683
0.00114791
0.000892543
0.000660803
0.000453161
0.000267924
0.000103462
-4.16033e-05
-0.000168539
-0.0002785
-0.000372496
-0.000451379
-0.000515822
-0.000566319
-0.000603175
-0.000626509
-0.000636263
-0.000632217
-0.000614004
-0.000581135
-0.000533031
-0.00046905
-0.000388525
-0.000290804
-0.000175286
-4.14674e-05
0.000111018
0.000282355
0.000472507
0.000681176
0.000907767
0.00115136
0.00141068
0.00168407
0.00196952
0.00226462
0.0025666
0.00287236
0.00317846
0.00348124
0.00377683
0.00406123
0.00433042
0.00458041
0.00480738
0.00500775
0.0051783
0.00531625
0.00541936
0.005486
0.00551521
0.00550674
0.00546109
0.00537946
0.00526378
0.00511662
0.00494115
0.00474101
0.00452025
0.00428319
0.0040343
0.00377811
0.00351905
0.00326141
0.00300911
0.00276576
0.00253547
0.00232192
0.00211508
0.00190428
0.00234819
0.00188849
0.00152177
0.00121826
0.000942622
0.000694453
0.000473789
0.000278267
0.00010562
-4.60943e-05
-0.000178651
-0.000293649
-0.000392477
-0.000476304
-0.000546062
-0.000602443
-0.000645898
-0.000676645
-0.000694679
-0.00069979
-0.000691585
-0.000669515
-0.00063291
-0.00058101
-0.00051301
-0.000428096
-0.000325495
-0.000204513
-6.45915e-05
9.46546e-05
0.000273386
0.000471499
0.000688582
0.000923883
0.00117628
0.00144425
0.00172587
0.00201882
0.00232034
0.00262734
0.00293634
0.0032436
0.00354511
0.00383672
0.0041142
0.00437333
0.00461002
0.0048204
0.00500095
0.00514857
0.00526071
0.00533541
0.00537144
0.00536827
0.00532616
0.0052461
0.00512986
0.00497988
0.00479924
0.00459155
0.00436084
0.00411145
0.00384793
0.00357485
0.00329677
0.00301807
0.0027428
0.00247466
0.00221809
0.00197704
0.00173915
0.00149175
0.00248094
0.00197846
0.00157981
0.00125218
0.000956439
0.000691743
0.000457716
0.000251357
6.97953e-05
-8.94474e-05
-0.000228623
-0.000349748
-0.000454568
-0.000544545
-0.000620848
-0.000684352
-0.000735639
-0.000775009
-0.000802496
-0.000817887
-0.000820753
-0.000810472
-0.000786273
-0.000747268
-0.000692501
-0.000620986
-0.000531763
-0.000423942
-0.000296754
-0.000149605
1.78786e-05
0.000205797
0.000413935
0.000641721
0.000888193
0.00115197
0.00143124
0.00172373
0.00202675
0.00233718
0.0026515
0.00296586
0.00327613
0.00357796
0.00386689
0.00413842
0.00438815
0.00461189
0.00480575
0.00496625
0.00509048
0.00517611
0.00522155
0.00522596
0.00518929
0.00511231
0.00499656
0.00484437
0.0046587
0.00444313
0.0042017
0.00393883
0.00365914
0.00336738
0.00306825
0.00276634
0.00246589
0.00217083
0.001886
0.00161577
0.00134549
0.00106059
0.00256865
0.00202498
0.00159546
0.00124435
0.000928887
0.000647776
0.000400252
0.000182701
-8.32275e-06
-0.000175809
-0.000322462
-0.00045069
-0.000562573
-0.000659846
-0.000743894
-0.000815753
-0.000876121
-0.000925363
-0.000963538
-0.000990418
-0.00100552
-0.00100814
-0.000997397
-0.000972258
-0.000931605
-0.00087427
-0.000799093
-0.000704971
-0.000590916
-0.000456106
-0.000299945
-0.00012211
7.73955e-05
0.000298195
0.000539502
0.000800085
0.00107825
0.00137181
0.00167811
0.00199403
0.002316
0.00264007
0.00296194
0.00327705
0.00358068
0.00386805
0.00413438
0.0043751
0.0045859
0.00476289
0.0049027
0.00500259
0.00506054
0.00507531
0.00504653
0.00497466
0.004861
0.00470771
0.00451763
0.00429432
0.00404185
0.00376471
0.00346768
0.00315572
0.00283377
0.0025067
0.00217903
0.001855
0.00153999
0.00123883
0.000934705
0.000611106
0.0026059
0.00202273
0.00156352
0.00118972
0.000855048
0.000557792
0.000296795
6.78522e-05
-0.00013304
-0.000309358
-0.000464238
-0.00060046
-0.000720413
-0.000826084
-0.000919055
-0.00100051
-0.00107123
-0.00113164
-0.00118181
-0.00122148
-0.0012501
-0.00126688
-0.00127079
-0.00126066
-0.00123519
-0.00119303
-0.00113279
-0.00105315
-0.000952874
-0.000830913
-0.00068642
-0.000518834
-0.000327929
-0.000113866
0.000122763
0.000380895
0.000658969
0.000954903
0.00126609
0.00158942
0.00192126
0.00225757
0.00259387
0.00292539
0.00324711
0.00355392
0.00384065
0.00410228
0.00433404
0.00453154
0.00469091
0.00480889
0.00488297
0.00491148
0.0048936
0.00482945
0.00472005
0.00456731
0.00437399
0.00414357
0.00388015
0.00358837
0.00327319
0.00293981
0.0025935
0.00223948
0.00188267
0.0015277
0.00118054
0.000846641
0.000506996
0.000143157
0.00258754
0.00196665
0.00147902
0.00108343
0.000730192
0.000417184
0.000142861
-9.75593e-05
-0.000308618
-0.000494264
-0.000658041
-0.000803082
-0.000932066
-0.00104721
-0.00115028
-0.00124258
-0.00132497
-0.00139792
-0.00146147
-0.00151533
-0.00155888
-0.0015912
-0.00161113
-0.00161735
-0.00160835
-0.00158258
-0.00153842
-0.0014743
-0.00138874
-0.00128043
-0.00114825
-0.000991395
-0.000809371
-0.000602106
-0.000369971
-0.000113838
0.00016489
0.000464253
0.000781719
0.00111419
0.001458
0.001809
0.00216255
0.00251364
0.00285696
0.00318699
0.00349817
0.00378497
0.0040421
0.00426459
0.00444798
0.00458845
0.00468291
0.00472912
0.0047258
0.00467263
0.00457026
0.00442037
0.00422552
0.00398914
0.00371538
0.003409
0.0030752
0.00271948
0.00234751
0.00196495
0.00157715
0.00118925
0.00080795
0.000439372
6.22817e-05
-0.000343746
0.00250868
0.00185192
0.00133727
0.000920855
0.000549789
0.000221517
-6.58948e-05
-0.000317792
-0.000539239
-0.000734638
-0.000907927
-0.00106257
-0.00120152
-0.00132721
-0.00144157
-0.00154599
-0.00164142
-0.00172832
-0.00180674
-0.00187632
-0.00193633
-0.00198575
-0.00202327
-0.00204736
-0.00205635
-0.00204843
-0.00202176
-0.0019745
-0.0019049
-0.00181136
-0.00169249
-0.00154717
-0.00137466
-0.0011746
-0.000947124
-0.000692871
-0.000413058
-0.000109497
0.000215379
0.000558511
0.000916227
0.00128427
0.00165785
0.0020317
0.0024002
0.00275743
0.00309736
0.00341392
0.00370121
0.00395365
0.0041661
0.00433406
0.00445377
0.00452236
0.00453795
0.00449971
0.00440786
0.00426375
0.00406974
0.00382915
0.00354616
0.00322569
0.00287319
0.00249453
0.00209583
0.00168325
0.00126272
0.00083993
0.000422391
1.70206e-05
-0.000399722
-0.000850325
0.00236465
0.001674
0.00113377
0.000697606
0.000309524
-3.34535e-05
-0.000333649
-0.000596961
-0.000828963
-0.0010345
-0.00121788
-0.00138289
-0.00153273
-0.00167004
-0.00179688
-0.00191476
-0.00202465
-0.00212702
-0.00222189
-0.00230882
-0.00238699
-0.00245524
-0.00251208
-0.00255582
-0.00258455
-0.00259623
-0.00258874
-0.00255999
-0.00250792
-0.00243063
-0.00232641
-0.00219385
-0.00203187
-0.00183982
-0.00161754
-0.00136542
-0.00108446
-0.000776264
-0.000443147
-8.80876e-05
0.000285248
0.000672534
0.00106882
0.00146862
0.00186596
0.00225452
0.00262773
0.00297897
0.00330168
0.00358953
0.00383664
0.00403773
0.00418827
0.00428464
0.00432427
0.00430569
0.00422862
0.00409398
0.00390386
0.00366145
0.00337094
0.00303739
0.00266655
0.00226469
0.00183844
0.00139455
0.000939594
0.000479926
2.39655e-05
-0.000420491
-0.000879401
-0.00137743
0.00215104
0.00142858
0.00086432
0.000409531
5.30945e-06
-0.000351757
-0.000664381
-0.000939004
-0.00118169
-0.00139772
-0.00159175
-0.00176788
-0.00192956
-0.00207958
-0.00222015
-0.00235285
-0.00247869
-0.00259813
-0.00271114
-0.0028172
-0.00291538
-0.00300436
-0.0030825
-0.00314787
-0.00319835
-0.00323164
-0.00324537
-0.00323711
-0.00320451
-0.00314532
-0.00305752
-0.00293931
-0.0027893
-0.00260649
-0.0023904
-0.00214111
-0.00185933
-0.00154646
-0.00120463
-0.000836702
-0.000446294
-3.77766e-05
0.000383776
0.000812637
0.00124251
0.00166663
0.00207791
0.00246907
0.00283282
0.00316206
0.00345005
0.0036906
0.00387831
0.00400868
0.0040783
0.00408497
0.00402778
0.00390714
0.00372476
0.00348365
0.00318798
0.00284295
0.0024546
0.00202966
0.00157532
0.00109902
0.000608026
0.000109473
-0.000387206
-0.000873241
-0.00137716
-0.00192593
0.00186369
0.00111162
0.00052496
5.27435e-05
-0.00036669
-0.000737185
-0.00106185
-0.00134765
-0.00160114
-0.001828
-0.00203325
-0.00222126
-0.0023957
-0.00255956
-0.00271514
-0.00286409
-0.00300745
-0.00314566
-0.00327862
-0.00340573
-0.00352592
-0.00363773
-0.00373933
-0.00382857
-0.0039031
-0.00396033
-0.0039976
-0.00401217
-0.00400136
-0.00396255
-0.00389334
-0.00379157
-0.00365544
-0.00348358
-0.00327513
-0.00302982
-0.00274805
-0.00243092
-0.00208032
-0.00169896
-0.00129036
-0.000858897
-0.000409735
5.11892e-05
0.000517255
0.000981259
0.00143554
0.00187215
0.00228301
0.00266013
0.00299582
0.00328288
0.00351489
0.00368633
0.00379282
0.00383129
0.00380002
0.00369881
0.00352892
0.00329307
0.00299535
0.00264107
0.0022366
0.00178913
0.0013065
0.000796873
0.000268343
-0.000271111
-0.000810916
-0.00134122
-0.00189331
-0.00249665
0.00149872
0.000719371
0.000112027
-0.000376366
-0.000810038
-0.00119327
-0.00152956
-0.00182639
-0.00209078
-0.00232881
-0.00254583
-0.0027465
-0.00293469
-0.00311354
-0.00328546
-0.00345216
-0.00361468
-0.00377344
-0.00392828
-0.00407849
-0.00422287
-0.0043598
-0.00448724
-0.00460284
-0.00470397
-0.00478777
-0.00485127
-0.0048914
-0.00490508
-0.00488935
-0.00484137
-0.00475858
-0.00463875
-0.00448006
-0.00428125
-0.00404162
-0.00376119
-0.00344071
-0.00308179
-0.0026869
-0.00225941
-0.00180363
-0.0013248
-0.000829009
-0.000323189
0.000185017
0.000687372
0.0011752
0.00163959
0.00207158
0.0024624
0.00280376
0.00308803
0.00330854
0.00345977
0.00353758
0.00353934
0.00346405
0.00331237
0.00308666
0.00279084
0.00243031
0.00201173
0.00154281
0.00103205
0.000488452
-7.89963e-05
-0.000661357
-0.0012468
-0.00182427
-0.00242804
-0.00309025
0.00105259
0.00024839
-0.000377839
-0.000881099
-0.001328
-0.00172324
-0.00207072
-0.00237842
-0.00265382
-0.00290336
-0.00313273
-0.00334684
-0.00354977
-0.0037448
-0.00393444
-0.00412043
-0.00430384
-0.00448504
-0.00466379
-0.00483929
-0.0050102
-0.00517472
-0.00533061
-0.0054753
-0.00560587
-0.00571919
-0.00581195
-0.00588071
-0.00592203
-0.00593251
-0.00590889
-0.00584813
-0.00574754
-0.00560482
-0.0054182
-0.00518653
-0.00490937
-0.00458705
-0.00422081
-0.00381282
-0.00336622
-0.00288522
-0.00237502
-0.00184185
-0.00129291
-0.000736267
-0.000180733
0.000364268
0.000888917
0.00138321
0.00183723
0.00224139
0.00258675
0.00286529
0.00307017
0.00319599
0.003239
0.00319724
0.00307062
0.00286098
0.00257199
0.00220906
0.00177912
0.00129041
0.000752144
0.000174235
-0.00043334
-0.00106058
-0.00169425
-0.00232198
-0.00298125
-0.00370712
0.000522052
-0.000304425
-0.00094766
-0.00146443
-0.0019235
-0.00233001
-0.00268824
-0.00300665
-0.00329315
-0.00355455
-0.00379686
-0.00402522
-0.0042439
-0.00445633
-0.0046651
-0.004872
-0.00507808
-0.00528368
-0.00548849
-0.0056916
-0.00589152
-0.00608628
-0.00627344
-0.00645017
-0.0066133
-0.00675939
-0.00688477
-0.00698564
-0.00705814
-0.00709842
-0.00710277
-0.00706762
-0.00698977
-0.00686638
-0.00669514
-0.00647434
-0.00620301
-0.00588101
-0.00550909
-0.00508905
-0.00462373
-0.00411712
-0.00357434
-0.00300168
-0.00240656
-0.00179742
-0.00118366
-0.000575453
1.64295e-05
0.000580873
0.00110668
0.00158287
0.001999
0.00234552
0.00261406
0.00279775
0.00289148
0.00289211
0.00279863
0.00261218
0.00233603
0.00197553
0.00153784
0.00103168
0.00046708
-0.000145103
-0.000793791
-0.0014678
-0.00215234
-0.0028336
-0.00355254
-0.00434736
-9.57334e-05
-0.00094181
-0.0016001
-0.00212898
-0.00259915
-0.00301616
-0.00338468
-0.00371363
-0.00401132
-0.00428494
-0.00454077
-0.0047842
-0.00501967
-0.00525075
-0.00548009
-0.00570954
-0.00594013
-0.00617218
-0.00640528
-0.00663841
-0.00686996
-0.00709777
-0.0073192
-0.00753117
-0.00773022
-0.00791261
-0.0080743
-0.00821112
-0.00831875
-0.00839289
-0.00842929
-0.00842388
-0.00837284
-0.00827275
-0.0081207
-0.00791434
-0.00765212
-0.00733327
-0.00695804
-0.00652771
-0.00604472
-0.00551275
-0.00493677
-0.00432303
-0.00367908
-0.00301371
-0.00233686
-0.00165945
-0.000993235
-0.000350502
0.000256173
0.000814275
0.0013117
0.00173715
0.00208049
0.00233314
0.00248838
0.00254165
0.00249074
0.0023359
0.00207985
0.00172774
0.00128686
0.000766449
0.000177308
-0.000468646
-0.00115914
-0.00188169
-0.00261978
-0.00335797
-0.00414104
-0.00501058
-0.000803219
-0.00166611
-0.00233743
-0.00287698
-0.00335714
-0.00378387
-0.00416221
-0.00450153
-0.00481052
-0.0050967
-0.00536664
-0.00562594
-0.00587925
-0.00613022
-0.0063816
-0.00663526
-0.00689225
-0.00715281
-0.0074165
-0.00768218
-0.00794808
-0.00821188
-0.00847073
-0.00872131
-0.00895988
-0.00918237
-0.00938438
-0.00956131
-0.00970842
-0.00982089
-0.00989392
-0.00992287
-0.00990329
-0.0098311
-0.0097027
-0.00951507
-0.00926593
-0.00895386
-0.00857844
-0.00814035
-0.00764152
-0.00708522
-0.00647611
-0.00582033
-0.00512547
-0.00440059
-0.00365611
-0.00290369
-0.00215604
-0.0014267
-0.000729693
-7.92077e-05
0.000510815
0.00102711
0.00145755
0.00179154
0.00202047
0.00213806
0.00214064
0.00202729
0.00179999
0.00146348
0.00102512
0.000494581
-0.000116529
-0.000795183
-0.00152781
-0.00230047
-0.00309476
-0.00389343
-0.00474539
-0.00569589
-0.00160242
-0.00247924
-0.00316153
-0.00371026
-0.00419929
-0.00463495
-0.00502263
-0.00537212
-0.00569249
-0.00599157
-0.00627619
-0.00655217
-0.00682432
-0.00709642
-0.00737129
-0.00765083
-0.00793609
-0.00822728
-0.00852388
-0.00882466
-0.00912771
-0.00943054
-0.00973009
-0.0100228
-0.0103047
-0.0105713
-0.0108179
-0.0110394
-0.0112307
-0.0113864
-0.0115011
-0.0115695
-0.0115866
-0.0115475
-0.0114479
-0.0112839
-0.0110526
-0.0107518
-0.0103801
-0.00993762
-0.00942565
-0.00884687
-0.00820554
-0.00750755
-0.00676042
-0.00597336
-0.00515721
-0.00432429
-0.0034883
-0.002664
-0.00186696
-0.00111316
-0.000418549
0.000201433
0.000732368
0.00116138
0.00147763
0.00167279
0.00174136
0.00168099
0.0014926
0.00118036
0.000751497
0.00021606
-0.000413554
-0.00112316
-0.00189776
-0.00272186
-0.00357492
-0.00443769
-0.00536356
-0.00640174
-0.00249488
-0.00338269
-0.00407382
-0.00463024
-0.00512699
-0.00557075
-0.00596728
-0.00632674
-0.00665854
-0.00697082
-0.00727066
-0.00756409
-0.00785607
-0.00815049
-0.00845025
-0.0087573
-0.00907268
-0.00939658
-0.00972841
-0.0100668
-0.0104099
-0.0107548
-0.0110984
-0.0114369
-0.011766
-0.0120809
-0.0123765
-0.0126474
-0.0128879
-0.013092
-0.0132538
-0.0133673
-0.0134267
-0.0134265
-0.0133615
-0.0132269
-0.013019
-0.0127345
-0.0123714
-0.0119288
-0.0114073
-0.0108089
-0.0101372
-0.00939772
-0.00859781
-0.0077467
-0.0068555
-0.00593716
-0.00500626
-0.00407883
-0.00317201
-0.00230366
-0.00149192
-0.000754611
-0.000108712
0.000430281
0.000848947
0.0011365
0.00128528
0.00129109
0.00115348
0.000875751
0.000464831
-6.90079e-05
-0.000712611
-0.00145059
-0.00226646
-0.00314294
-0.0040572
-0.00498774
-0.00599279
-0.0071258
-0.00348166
-0.00437746
-0.00507529
-0.00563788
-0.00614119
-0.00659223
-0.00699709
-0.00736628
-0.00770954
-0.00803527
-0.00835081
-0.00866238
-0.00897509
-0.00929294
-0.00961893
-0.00995503
-0.0103023
-0.0106609
-0.0110302
-0.0114088
-0.0117946
-0.0121848
-0.0125758
-0.0129638
-0.013344
-0.0137116
-0.0140609
-0.014386
-0.0146808
-0.0149389
-0.0151535
-0.0153182
-0.0154262
-0.0154711
-0.015447
-0.0153482
-0.0151698
-0.0149078
-0.0145589
-0.0141215
-0.0135951
-0.0129808
-0.0122816
-0.0115025
-0.0106503
-0.00973418
-0.00876545
-0.00775749
-0.00672572
-0.00568737
-0.00466118
-0.00366697
-0.00272517
-0.00185624
-0.00107998
-0.000414835
0.000122778
0.00051921
0.000764163
0.000851199
0.00077807
0.000546871
0.000163956
-0.000360346
-0.00101221
-0.00177503
-0.00263072
-0.00356011
-0.00453776
-0.00553972
-0.00662942
-0.00786486
-0.00456331
-0.00546408
-0.00616644
-0.00673369
-0.00724239
-0.00769986
-0.00811251
-0.00849115
-0.00884582
-0.0091852
-0.00951684
-0.00984714
-0.0101814
-0.0105237
-0.0108771
-0.0112436
-0.0116244
-0.0120197
-0.0124286
-0.0128498
-0.013281
-0.0137194
-0.0141612
-0.0146022
-0.0150376
-0.0154621
-0.0158698
-0.0162542
-0.0166088
-0.0169265
-0.0172001
-0.0174221
-0.0175852
-0.0176821
-0.0177058
-0.0176498
-0.0175079
-0.017275
-0.016947
-0.0165209
-0.0159951
-0.0153699
-0.0146473
-0.0138313
-0.0129286
-0.0119477
-0.0109
-0.0097992
-0.00866142
-0.00750503
-0.00635029
-0.00521906
-0.00413416
-0.00311886
-0.00219605
-0.00138751
-0.000713045
-0.000189641
0.000169271
0.000354486
0.000361501
0.000190778
-0.000152254
-0.000657451
-0.00131044
-0.00209344
-0.00298667
-0.0039689
-0.00501184
-0.00608879
-0.00726877
-0.00861462
-0.00573984
-0.00664257
-0.00734734
-0.00791773
-0.00843065
-0.00889369
-0.00931353
-0.00970129
-0.0100673
-0.0104204
-0.0107684
-0.0111179
-0.0114742
-0.0118418
-0.0122237
-0.0126219
-0.0130377
-0.0134712
-0.0139218
-0.0143878
-0.014867
-0.0153563
-0.015852
-0.0163497
-0.0168442
-0.0173299
-0.0178005
-0.0182493
-0.0186691
-0.0190523
-0.0193909
-0.0196769
-0.019902
-0.020058
-0.0201369
-0.020131
-0.0200332
-0.0198371
-0.0195372
-0.0191294
-0.018611
-0.0179808
-0.0172399
-0.0163914
-0.0154409
-0.0143968
-0.0132699
-0.0120743
-0.0108265
-0.0095458
-0.00825407
-0.00697509
-0.0057342
-0.00455759
-0.00347154
-0.00250146
-0.00167098
-0.00100097
-0.00050852
-0.000206187
-0.000101295
-0.000195528
-0.000484814
-0.000959519
-0.00160493
-0.00240212
-0.0033296
-0.0043639
-0.00547362
-0.00662897
-0.00790497
-0.00936961
-0.00701072
-0.00791247
-0.00861754
-0.00918959
-0.00970556
-0.0101733
-0.0105997
-0.0109962
-0.0113732
-0.01174
-0.0121045
-0.0124734
-0.0128524
-0.0132458
-0.0136569
-0.0140879
-0.0145399
-0.0150131
-0.0155069
-0.0160197
-0.0165492
-0.0170921
-0.0176447
-0.0182022
-0.0187595
-0.0193105
-0.0198486
-0.0203668
-0.0208571
-0.0213115
-0.0217215
-0.022078
-0.0223721
-0.0225945
-0.0227362
-0.0227884
-0.0227427
-0.0225915
-0.0223279
-0.0219464
-0.0214428
-0.0208147
-0.0200619
-0.0191863
-0.0181924
-0.0170879
-0.0158832
-0.0145921
-0.0132315
-0.0118216
-0.0103854
-0.00894879
-0.00753949
-0.00618679
-0.00492052
-0.00377011
-0.00276345
-0.00192577
-0.00127847
-0.000838107
-0.000615466
-0.000615
-0.000834529
-0.00126535
-0.00189267
-0.00269659
-0.00365384
-0.00473861
-0.00591604
-0.00715296
-0.00853079
-0.0101229
-0.00837489
-0.00927282
-0.00997617
-0.0105484
-0.0110663
-0.0115378
-0.0119701
-0.0123748
-0.0127625
-0.0131428
-0.0135236
-0.0139121
-0.0143138
-0.0147334
-0.0151742
-0.0156385
-0.0161275
-0.0166416
-0.01718
-0.0177412
-0.0183228
-0.0189217
-0.0195337
-0.0201542
-0.0207776
-0.0213977
-0.0220076
-0.0225997
-0.0231658
-0.0236972
-0.0241845
-0.0246182
-0.0249882
-0.0252845
-0.0254969
-0.0256153
-0.0256302
-0.0255324
-0.0253138
-0.0249672
-0.024487
-0.0238692
-0.0231119
-0.0222159
-0.0211844
-0.0200239
-0.0187442
-0.0173586
-0.0158841
-0.0143414
-0.0127548
-0.0111517
-0.0095624
-0.00801933
-0.00655601
-0.00520616
-0.00400235
-0.00297475
-0.0021497
-0.00154846
-0.00118605
-0.00107039
-0.00120185
-0.0015732
-0.00216996
-0.00297143
-0.00395262
-0.00508522
-0.00633065
-0.00765197
-0.00913741
-0.010866
-0.00983077
-0.0107222
-0.0114219
-0.011993
-0.0125116
-0.012986
-0.0134234
-0.0138356
-0.0142336
-0.0146268
-0.0150237
-0.0154314
-0.0158557
-0.0163015
-0.0167721
-0.01727
-0.0177965
-0.018352
-0.018936
-0.0195468
-0.0201821
-0.0208386
-0.0215123
-0.0221982
-0.0228908
-0.0235834
-0.024269
-0.0249394
-0.0255861
-0.0261997
-0.0267703
-0.0272875
-0.0277404
-0.028118
-0.0284088
-0.0286018
-0.0286858
-0.0286504
-0.0284859
-0.0281835
-0.0277357
-0.0271371
-0.0263841
-0.0254757
-0.0244137
-0.0232032
-0.0218529
-0.0203755
-0.0187878
-0.0171106
-0.015369
-0.0135922
-0.0118127
-0.0100659
-0.00838921
-0.00682088
-0.00539856
-0.00415787
-0.00313078
-0.00234403
-0.00181769
-0.00156402
-0.00158671
-0.00188065
-0.00243218
-0.00322011
-0.00421784
-0.00539447
-0.00670738
-0.0081155
-0.00971423
-0.0115886
-0.0113762
-0.0122586
-0.012953
-0.0135216
-0.0140399
-0.0145161
-0.0149578
-0.0153768
-0.0157843
-0.0161899
-0.0166021
-0.0170284
-0.0174748
-0.0179461
-0.0184462
-0.0189774
-0.0195414
-0.0201386
-0.0207684
-0.0214294
-0.0221193
-0.0228348
-0.0235718
-0.0243253
-0.0250894
-0.0258575
-0.0266221
-0.0273748
-0.0281064
-0.0288072
-0.0294665
-0.0300732
-0.0306156
-0.0310814
-0.0314584
-0.031734
-0.0318958
-0.0319319
-0.0318309
-0.0315822
-0.0311768
-0.0306071
-0.0298679
-0.0289561
-0.0278719
-0.0266189
-0.0252043
-0.0236398
-0.0219413
-0.0201298
-0.018231
-0.016275
-0.0142965
-0.0123341
-0.0104287
-0.00862341
-0.00696122
-0.00548375
-0.00422924
-0.00323075
-0.00251433
-0.00209752
-0.00198825
-0.00218436
-0.00267365
-0.00343485
-0.00443995
-0.00565543
-0.00703434
-0.00853106
-0.0102486
-0.0122782
-0.0130087
-0.0138799
-0.0145672
-0.0151322
-0.0156491
-0.0161263
-0.0165713
-0.0169962
-0.0174121
-0.017829
-0.0182556
-0.0186994
-0.0191668
-0.0196628
-0.0201913
-0.0207552
-0.0213559
-0.0219942
-0.0226697
-0.023381
-0.0241258
-0.0249009