/*--------------------------------*- C++ -*----------------------------------*\
  =========                 |
  \\      /  F ield         | OpenFOAM: The Open Source CFD Toolbox
   \\    /   O peration     | Website:  https://openfoam.org
    \\  /    A nd           | Version:  dev
     \\/     M anipulation  |
\*---------------------------------------------------------------------------*/
FoamFile
{
    format      ascii;
    class       surfaceScalarField;
    location    "36";
    object      phi;
}
// * * * * * * * * * * * * * * * * * * * * * * * * * * * * * * * * * * * * * //

dimensions      [0 3 -1 0 0 0 0];

internalField   nonuniform List<scalar> 
10224
(
3.38075e-08
-3.48834e-08
8.78774e-08
-5.40696e-08
1.24451e-07
-3.65694e-08
1.25424e-07
-9.69985e-10
8.37977e-08
4.16259e-08
-1.69962e-09
8.54956e-08
-1.29239e-07
1.27539e-07
-2.95518e-07
1.6628e-07
-4.96474e-07
2.00958e-07
-7.27806e-07
2.31334e-07
-9.85244e-07
2.57438e-07
-1.2647e-06
2.79451e-07
-1.56232e-06
2.97624e-07
-1.87456e-06
3.12241e-07
-2.19814e-06
3.23586e-07
-2.53007e-06
3.31927e-07
-2.86757e-06
3.375e-07
-3.20807e-06
3.40505e-07
-3.54918e-06
3.41105e-07
-3.8886e-06
3.3942e-07
-4.22413e-06
3.35538e-07
-4.55364e-06
3.29511e-07
-4.87501e-06
3.21363e-07
-5.1861e-06
3.11097e-07
-5.4848e-06
2.98701e-07
-5.76896e-06
2.84154e-07
-6.03639e-06
2.67435e-07
-6.28492e-06
2.48525e-07
-6.51234e-06
2.27422e-07
-6.71647e-06
2.04138e-07
-6.89519e-06
1.78712e-07
-7.0464e-06
1.51213e-07
-7.16814e-06
1.21741e-07
-7.25858e-06
9.04366e-08
-7.31606e-06
5.74798e-08
-7.33915e-06
2.30933e-08
-7.32669e-06
-1.24568e-08
-7.27783e-06
-4.88616e-08
-7.19206e-06
-8.57718e-08
-7.06926e-06
-1.228e-07
-6.90973e-06
-1.59526e-07
-6.71423e-06
-1.95501e-07
-6.48398e-06
-2.30254e-07
-6.22068e-06
-2.63302e-07
-5.92652e-06
-2.94156e-07
-5.60419e-06
-3.22334e-07
-5.25681e-06
-3.47372e-07
-4.88798e-06
-3.6883e-07
-4.50168e-06
-3.86307e-07
-4.10223e-06
-3.99449e-07
-3.69427e-06
-4.07957e-07
-3.28267e-06
-4.11604e-07
-2.87243e-06
-4.10234e-07
-2.46866e-06
-4.03772e-07
-2.07643e-06
-3.92228e-07
-1.70074e-06
-3.75697e-07
-1.34637e-06
-3.54365e-07
-1.01787e-06
-3.28505e-07
-7.19384e-07
-2.9848e-07
-4.54642e-07
-2.6474e-07
-2.26818e-07
-2.27823e-07
-3.84593e-08
-1.8836e-07
1.08629e-07
-1.47089e-07
2.13511e-07
-1.04881e-07
2.76301e-07
-6.2787e-08
2.98433e-07
-2.21265e-08
2.83085e-07
1.53516e-08
2.35856e-07
4.72296e-08
1.65808e-07
7.00446e-08
8.72388e-08
7.85652e-08
2.25398e-08
6.4703e-08
2.25502e-08
5.39249e-08
-8.8808e-08
1.12467e-07
-1.12614e-07
1.18293e-07
-4.23955e-08
3.89978e-08
7.83292e-08
-1.41831e-07
2.2246e-07
-4.2952e-07
3.73188e-07
-8.22307e-07
5.20327e-07
-1.31404e-06
6.58018e-07
-1.89617e-06
7.83082e-07
-2.55886e-06
8.94029e-07
-3.29185e-06
9.90428e-07
-4.08488e-06
1.07248e-06
-4.92803e-06
1.14077e-06
-5.81185e-06
1.19607e-06
-6.72747e-06
1.2392e-06
-7.66654e-06
1.271e-06
-8.62125e-06
1.29222e-06
-9.58428e-06
1.30353e-06
-1.05486e-05
1.30547e-06
-1.15077e-05
1.29848e-06
-1.2455e-05
1.28287e-06
-1.33844e-05
1.25884e-06
-1.42895e-05
1.22651e-06
-1.51643e-05
1.18593e-06
-1.60027e-05
1.1371e-06
-1.67986e-05
1.08e-06
-1.75457e-05
1.01459e-06
-1.82381e-05
9.40887e-07
-1.88696e-05
8.58924e-07
-1.94343e-05
7.68819e-07
-1.99263e-05
6.70774e-07
-2.03402e-05
5.65101e-07
-2.06707e-05
4.52234e-07
-2.0913e-05
3.32741e-07
-2.10629e-05
2.07338e-07
-2.11167e-05
7.68878e-08
-2.10715e-05
-5.75933e-08
-2.09255e-05
-1.9494e-07
-2.06774e-05
-3.33844e-07
-2.03273e-05
-4.72868e-07
-1.98764e-05
-6.10458e-07
-1.93269e-05
-7.44968e-07
-1.86825e-05
-8.74683e-07
-1.79479e-05
-9.97846e-07
-1.71294e-05
-1.11269e-06
-1.62343e-05
-1.21748e-06
-1.52711e-05
-1.31054e-06
-1.42496e-05
-1.39029e-06
-1.31807e-05
-1.4553e-06
-1.20758e-05
-1.50431e-06
-1.09475e-05
-1.53627e-06
-9.80872e-06
-1.55036e-06
-8.6729e-06
-1.54605e-06
-7.55359e-06
-1.52309e-06
-6.46428e-06
-1.48153e-06
-5.41822e-06
-1.42176e-06
-4.42811e-06
-1.34447e-06
-3.50591e-06
-1.2507e-06
-2.66257e-06
-1.14183e-06
-1.90776e-06
-1.01955e-06
-1.24967e-06
-8.85904e-07
-6.94709e-07
-7.43321e-07
-2.4717e-07
-5.94626e-07
9.10979e-08
-4.43149e-07
3.21176e-07
-2.92867e-07
4.47665e-07
-1.48617e-07
4.79569e-07
-1.65483e-08
4.31371e-07
9.54364e-08
3.2452e-07
1.76903e-07
1.89035e-07
2.14048e-07
6.43888e-08
1.89339e-07
8.69421e-08
3.73656e-08
-1.2617e-07
4.33665e-08
-1.18615e-07
-4.32207e-08
4.41895e-08
-2.58684e-07
2.93793e-07
-6.22647e-07
5.86425e-07
-1.14223e-06
8.92775e-07
-1.8157e-06
1.1938e-06
-2.63541e-06
1.47772e-06
-3.58997e-06
1.73765e-06
-4.66588e-06
1.96994e-06
-5.84854e-06
2.1731e-06
-7.12308e-06
2.34703e-06
-8.47479e-06
2.49248e-06
-9.8894e-06
2.61069e-06
-1.13533e-05
2.70311e-06
-1.28536e-05
2.77125e-06
-1.43779e-05
2.81654e-06
-1.59146e-05
2.84024e-06
-1.74525e-05
2.84343e-06
-1.8981e-05
2.82696e-06
-2.04896e-05
2.7915e-06
-2.19683e-05
2.73747e-06
-2.34069e-05
2.66517e-06
-2.47957e-05
2.57474e-06
-2.61249e-05
2.46624e-06
-2.73846e-05
2.33971e-06
-2.85652e-05
2.19516e-06
-2.9657e-05
2.03269e-06
-3.06505e-05
1.85248e-06
-3.15366e-05
1.65488e-06
-3.23062e-05
1.4404e-06
-3.29509e-05
1.2098e-06
-3.34627e-05
9.64082e-07
-3.38345e-05
7.0454e-07
-3.406e-05
4.32759e-07
-3.41337e-05
1.50632e-07
-3.40517e-05
-1.39636e-07
-3.38111e-05
-4.35538e-07
-3.34106e-05
-7.34279e-07
-3.28507e-05
-1.0328e-06
-3.21333e-05
-1.32782e-06
-3.12624e-05
-1.61586e-06
-3.02438e-05
-1.89333e-06
-2.90851e-05
-2.15654e-06
-2.7796e-05
-2.40181e-06
-2.63879e-05
-2.62552e-06
-2.48743e-05
-2.82419e-06
-2.327e-05
-2.99455e-06
-2.15917e-05
-3.13363e-06
-1.98572e-05
-3.23883e-06
-1.80855e-05
-3.30797e-06
-1.62964e-05
-3.33941e-06
-1.45104e-05
-3.33203e-06
-1.27482e-05
-3.28535e-06
-1.10302e-05
-3.19951e-06
-9.3766e-06
-3.07535e-06
-7.80668e-06
-2.91439e-06
-6.33855e-06
-2.71884e-06
-4.98875e-06
-2.49163e-06
-3.77188e-06
-2.23642e-06
-2.70018e-06
-1.95761e-06
-1.78311e-06
-1.66038e-06
-1.02691e-06
-1.35082e-06
-4.34049e-07
-1.03601e-06
-2.61088e-09
-7.24303e-07
2.74487e-07
-4.25716e-07
4.10315e-07
-1.52378e-07
4.25127e-07
8.06286e-08
3.47564e-07
2.54478e-07
2.15837e-07
3.45785e-07
7.86702e-08
3.26503e-07
1.6561e-07
1.92446e-09
-1.28091e-07
-7.89184e-08
-3.77684e-08
-2.97624e-07
2.62895e-07
-6.87928e-07
6.84096e-07
-1.26816e-06
1.16665e-06
-2.04458e-06
1.66921e-06
-3.01443e-06
2.16365e-06
-4.16843e-06
2.63173e-06
-5.49298e-06
3.06221e-06
-6.97176e-06
3.44872e-06
-8.58692e-06
3.78826e-06
-1.032e-05
4.08009e-06
-1.21524e-05
4.32492e-06
-1.40661e-05
4.52434e-06
-1.60433e-05
4.68038e-06
-1.80673e-05
4.79524e-06
-2.01218e-05
4.87105e-06
-2.21913e-05
4.90976e-06
-2.4261e-05
4.91303e-06
-2.63162e-05
4.88224e-06
-2.83432e-05
4.81842e-06
-3.0328e-05
4.72234e-06
-3.22573e-05
4.59449e-06
-3.41178e-05
4.4352e-06
-3.58962e-05
4.24465e-06
-3.75795e-05
4.02297e-06
-3.91547e-05
3.77034e-06
-4.0609e-05
3.48703e-06
-4.193e-05
3.17348e-06
-4.31055e-05
2.8304e-06
-4.41239e-05
2.45881e-06
-4.49742e-05
2.0601e-06
-4.56462e-05
1.6361e-06
-4.61308e-05
1.1891e-06
-4.64199e-05
7.21857e-07
-4.65069e-05
2.37667e-07
-4.63869e-05
-2.5969e-07
-4.60565e-05
-7.65937e-07
-4.55144e-05
-1.27633e-06
-4.47615e-05
-1.78572e-06
-4.38008e-05
-2.28856e-06
-4.26376e-05
-2.77904e-06
-4.12798e-05
-3.25115e-06
-3.97376e-05
-3.69874e-06
-3.80237e-05
-4.1157e-06
-3.61532e-05
-4.49599e-06
-3.41435e-05
-4.83386e-06
-3.20142e-05
-5.12388e-06
-2.97867e-05
-5.36115e-06
-2.74841e-05
-5.54137e-06
-2.51312e-05
-5.66095e-06
-2.27534e-05
-5.71718e-06
-2.03772e-05
-5.70825e-06
-1.80291e-05
-5.63337e-06
-1.57358e-05
-5.49283e-06
-1.35231e-05
-5.28806e-06
-1.14159e-05
-5.02162e-06
-9.43745e-06
-4.69727e-06
-7.60908e-06
-4.31999e-06
-5.94953e-06
-3.89597e-06
-4.4745e-06
-3.43264e-06
-3.19609e-06
-2.93879e-06
-2.12228e-06
-2.42463e-06
-1.25624e-06
-1.90204e-06
-5.95735e-07
-1.3848e-06
-1.32317e-07
-8.89131e-07
1.49523e-07
-4.3422e-07
2.73259e-07
-4.31106e-08
2.7137e-07
2.5637e-07
1.86371e-07
4.30794e-07
7.22419e-08
4.40637e-07
2.37849e-07
-4.20459e-08
-8.6045e-08
-2.30028e-07
1.50218e-07
-6.06583e-07
6.39453e-07
-1.19831e-06
1.27582e-06
-2.01896e-06
1.9873e-06
-3.0717e-06
2.72195e-06
-4.35135e-06
3.4433e-06
-5.84649e-06
4.12687e-06
-7.54124e-06
4.75696e-06
-9.4168e-06
5.32428e-06
-1.14526e-05
5.82406e-06
-1.36272e-05
6.25472e-06
-1.5919e-05
6.61673e-06
-1.83066e-05
6.91191e-06
-2.0769e-05
7.1428e-06
-2.3286e-05
7.31223e-06
-2.5838e-05
7.42303e-06
-2.84061e-05
7.47782e-06
-3.09719e-05
7.4789e-06
-3.35179e-05
7.42817e-06
-3.60265e-05
7.32711e-06
-3.8481e-05
7.17683e-06
-4.08647e-05
6.97812e-06
-4.3161e-05
6.73151e-06
-4.53537e-05
6.43737e-06
-4.74268e-05
6.09604e-06
-4.93643e-05
5.70791e-06
-5.11508e-05
5.27353e-06
-5.27711e-05
4.79375e-06
-5.42105e-05
4.26979e-06
-5.5455e-05
3.70334e-06
-5.64916e-05
3.09663e-06
-5.7308e-05
2.45254e-06
-5.78935e-05
1.77461e-06
-5.82387e-05
1.0671e-06
-5.83361e-05
3.34984e-07
-5.81797e-05
-4.16018e-07
-5.77662e-05
-1.17949e-06
-5.70942e-05
-1.94834e-06
-5.6165e-05
-2.7149e-06
-5.49826e-05
-3.47097e-06
-5.35537e-05
-4.20795e-06
-5.18879e-05
-4.91694e-06
-4.99977e-05
-5.58893e-06
-4.78985e-05
-6.21489e-06
-4.56085e-05
-6.78599e-06
-4.31486e-05
-7.29377e-06
-4.05422e-05
-7.7303e-06
-3.78149e-05
-8.08839e-06
-3.49946e-05
-8.36173e-06
-3.21104e-05
-8.54511e-06
-2.91931e-05
-8.63453e-06
-2.62739e-05
-8.62737e-06
-2.33848e-05
-8.52249e-06
-2.05573e-05
-8.32035e-06
-1.78223e-05
-8.02306e-06
-1.52095e-05
-7.63444e-06
-1.27467e-05
-7.16008e-06
-1.04593e-05
-6.60738e-06
-8.36975e-06
-5.9855e-06
-6.49686e-06
-5.30553e-06
-4.8552e-06
-4.58044e-06
-3.4545e-06
-3.82533e-06
-2.29899e-06
-3.05755e-06
-1.3867e-06
-2.29709e-06
-7.08782e-07
-1.56705e-06
-2.48746e-07
-8.94252e-07
1.82644e-08
-3.10122e-07
1.26317e-07
1.48314e-07
1.19576e-07
4.37539e-07
5.36862e-08
5.06533e-07
2.91536e-07
-8.94412e-08
3.39472e-09
-3.95377e-07
4.56156e-07
-9.45205e-07
1.18928e-06
-1.75552e-06
2.08614e-06
-2.83313e-06
3.06491e-06
-4.17626e-06
4.06509e-06
-5.77609e-06
5.04313e-06
-7.61821e-06
5.96899e-06
-9.68415e-06
6.8229e-06
-1.19526e-05
7.59275e-06
-1.44006e-05
8.272e-06
-1.7004e-05
8.85811e-06
-1.97385e-05
9.35128e-06
-2.258e-05
9.75344e-06
-2.55048e-05
1.00675e-05
-2.84896e-05
1.0297e-05
-3.15119e-05
1.04453e-05
-3.45499e-05
1.05158e-05
-3.75823e-05
1.05113e-05
-4.05885e-05
1.04343e-05
-4.35482e-05
1.02868e-05
-4.64415e-05
1.00702e-05
-4.9249e-05
9.78556e-06
-5.19512e-05
9.43377e-06
-5.45293e-05
9.01544e-06
-5.69644e-05
8.53116e-06
-5.92381e-05
7.98163e-06
-6.13324e-05
7.36781e-06
-6.32297e-05
6.69106e-06
-6.49132e-05
5.95326e-06
-6.63668e-05
5.15693e-06
-6.75755e-05
4.30535e-06
-6.85256e-05
3.40265e-06
-6.92049e-05
2.45387e-06
-6.96028e-05
1.465e-06
-6.97108e-05
4.43013e-07
-6.95227e-05
-6.0415e-07
-6.90345e-05
-1.66761e-06
-6.82453e-05
-2.7376e-06
-6.71566e-05
-3.80357e-06
-6.57733e-05
-4.85429e-06
-6.41033e-05
-5.87801e-06
-6.21576e-05
-6.86259e-06
-5.99508e-05
-7.79575e-06
-5.75005e-05
-8.66521e-06
-5.48275e-05
-9.45897e-06
-5.19557e-05
-1.01655e-05
-4.89119e-05
-1.07741e-05
-4.57254e-05
-1.12749e-05
-4.24277e-05
-1.16595e-05
-3.90522e-05
-1.19206e-05
-3.56338e-05
-1.20529e-05
-3.22084e-05
-1.20528e-05
-2.88121e-05
-1.19187e-05
-2.54812e-05
-1.16513e-05
-2.22508e-05
-1.12534e-05
-1.91549e-05
-1.07303e-05
-1.62254e-05
-1.00896e-05
-1.34915e-05
-9.34127e-06
-1.0979e-05
-8.498e-06
-8.7097e-06
-7.57484e-06
-6.70063e-06
-6.58951e-06
-4.9635e-06
-5.56246e-06
-3.50396e-06
-4.51709e-06
-2.32096e-06
-3.48009e-06
-1.40613e-06
-2.48187e-06
-7.43165e-07
-1.55721e-06
-3.07205e-07
-7.46079e-07
-6.4267e-08
-9.46239e-08
2.942e-08
3.43852e-07
2.83343e-08
5.07622e-07
3.19872e-07
-1.37657e-07
1.41052e-07
-5.66386e-07
8.84885e-07
-1.29766e-06
1.92056e-06
-2.33657e-06
3.12506e-06
-3.68144e-06
4.40978e-06
-5.32419e-06
5.70784e-06
-7.25122e-06
6.97016e-06
-9.4444e-06
8.16217e-06
-1.18822e-05
9.26069e-06
-1.45406e-05
1.02511e-05
-1.7394e-05
1.11254e-05
-2.04161e-05
1.18802e-05
-2.35801e-05
1.25153e-05
-2.68594e-05
1.30327e-05
-3.02278e-05
1.34359e-05
-3.36596e-05
1.37288e-05
-3.71298e-05
1.39155e-05
-4.06139e-05
1.4e-05
-4.40882e-05
1.39856e-05
-4.75292e-05
1.38754e-05
-5.09143e-05
1.36718e-05
-5.42208e-05
1.33768e-05
-5.74269e-05
1.29916e-05
-6.05106e-05
1.25175e-05
-6.34504e-05
1.19553e-05
-6.62253e-05
1.1306e-05
-6.88144e-05
1.05707e-05
-7.11975e-05
9.75093e-06
-7.3355e-05
8.84855e-06
-7.5268e-05
7.86628e-06
-7.69187e-05
6.80763e-06
-7.82905e-05
5.67711e-06
-7.93681e-05
4.48027e-06
-8.01381e-05
3.22387e-06
-8.05889e-05
1.91585e-06
-8.07114e-05
5.65422e-07
-8.04985e-05
-8.16993e-07
-7.99463e-05
-2.21978e-06
-7.90537e-05
-3.6302e-06
-7.78227e-05
-5.03456e-06
-7.62588e-05
-6.41827e-06
-7.43707e-05
-7.76611e-06
-7.21709e-05
-9.0624e-06
-6.96754e-05
-1.02912e-05
-6.69038e-05
-1.14368e-05
-6.38791e-05
-1.24836e-05
-6.06278e-05
-1.34168e-05
-5.71795e-05
-1.42225e-05
-5.35664e-05
-1.4888e-05
-4.98236e-05
-1.54023e-05
-4.5988e-05
-1.57562e-05
-4.20982e-05
-1.59427e-05
-3.8194e-05
-1.5957e-05
-3.43155e-05
-1.57972e-05
-3.0503e-05
-1.54639e-05
-2.67957e-05
-1.49608e-05
-2.32315e-05
-1.42945e-05
-1.9846e-05
-1.3475e-05
-1.66721e-05
-1.25152e-05
-1.37389e-05
-1.14312e-05
-1.10711e-05
-1.02426e-05
-8.6884e-06
-8.97216e-06
-6.60484e-06
-7.64602e-06
-4.82789e-06
-6.29403e-06
-3.35806e-06
-4.94992e-06
-2.18823e-06
-3.6517e-06
-1.30319e-06
-2.44225e-06
-6.79191e-07
-1.37007e-06
-2.83596e-07
-4.90216e-07
-7.45303e-08
1.34786e-07
-5.64475e-10
4.33657e-07
3.1931e-07
-1.85448e-07
3.26502e-07
-7.38163e-07
1.4376e-06
-1.65416e-06
2.83656e-06
-2.92645e-06
4.39735e-06
-4.54396e-06
6.02729e-06
-6.49137e-06
7.65525e-06
-8.74945e-06
9.22824e-06
-1.12957e-05
1.07084e-05
-1.41049e-05
1.20699e-05
-1.71502e-05
1.32964e-05
-2.04034e-05
1.43786e-05
-2.38357e-05
1.53124e-05
-2.7418e-05
1.60976e-05
-3.11217e-05
1.67364e-05
-3.49182e-05
1.72325e-05
-3.87798e-05
1.75904e-05
-4.26791e-05
1.78149e-05
-4.65895e-05
1.79104e-05
-5.0485e-05
1.7881e-05
-5.43398e-05
1.77303e-05
-5.8129e-05
1.7461e-05
-6.18278e-05
1.70755e-05
-6.54118e-05
1.65756e-05
-6.88572e-05
1.59628e-05
-7.214e-05
1.52382e-05
-7.52372e-05
1.44032e-05
-7.81259e-05
1.34594e-05
-8.07838e-05
1.24089e-05
-8.31895e-05
1.12542e-05
-8.53223e-05
9.99912e-06
-8.71629e-05
8.64818e-06
-8.8693e-05
7.20723e-06
-8.98962e-05
5.68347e-06
-9.07578e-05
4.08551e-06
-9.12654e-05
2.42346e-06
-9.14089e-05
7.08936e-07
-9.1181e-05
-1.04492e-06
-9.05773e-05
-2.82354e-06
-8.95965e-05
-4.61099e-06
-8.82409e-05
-6.39015e-06
-8.65163e-05
-8.14284e-06
-8.44323e-05
-9.8501e-06
-8.20023e-05
-1.14924e-05
-7.92435e-05
-1.305e-05
-7.61771e-05
-1.45033e-05
-7.28279e-05
-1.58328e-05
-6.92244e-05
-1.70202e-05
-6.53987e-05
-1.80482e-05
-6.13857e-05
-1.8901e-05
-5.72232e-05
-1.95647e-05
-5.29515e-05
-2.00279e-05
-4.86125e-05
-2.02817e-05
-4.42494e-05
-2.03201e-05
-3.9906e-05
-2.01405e-05
-3.56264e-05
-1.97435e-05
-3.14535e-05
-1.91336e-05
-2.74291e-05
-1.8319e-05
-2.35924e-05
-1.73117e-05
-1.99798e-05
-1.61278e-05
-1.66238e-05
-1.47872e-05
-1.35524e-05
-1.33141e-05
-1.0788e-05
-1.17365e-05
-8.3474e-06
-1.00867e-05
-6.24033e-06
-8.40111e-06
-4.46942e-06
-6.72082e-06
-3.02953e-06
-5.09159e-06
-1.90733e-06
-3.56446e-06
-1.08103e-06
-2.19637e-06
-5.20251e-07
-1.05099e-06
-1.86042e-07
-1.99422e-07
-3.10533e-08
2.78669e-07
2.88259e-07
-2.32173e-07
5.58677e-07
-9.07948e-07
2.11338e-06
-2.00872e-06
3.93732e-06
-3.51541e-06
5.90405e-06
-5.40717e-06
7.91904e-06
-7.66082e-06
9.90891e-06
-1.02509e-05
1.18184e-05
-1.315e-05
1.36075e-05
-1.6329e-05
1.52489e-05
-1.97576e-05
1.67251e-05
-2.34049e-05
1.80259e-05
-2.72397e-05
1.91472e-05
-3.12307e-05
2.00887e-05
-3.53472e-05
2.08529e-05
-3.95587e-05
2.1444e-05
-4.38355e-05
2.18671e-05
-4.81482e-05
2.21276e-05
-5.24683e-05
2.22305e-05
-5.67677e-05
2.21804e-05
-6.10189e-05
2.19815e-05
-6.51948e-05
2.16369e-05
-6.92688e-05
2.11495e-05
-7.32144e-05
2.05213e-05
-7.70057e-05
1.97541e-05
-8.06172e-05
1.88496e-05
-8.40236e-05
1.78096e-05
-8.72003e-05
1.66362e-05
-9.01234e-05
1.53319e-05
-9.27697e-05
1.39005e-05
-9.5117e-05
1.23464e-05
-9.71443e-05
1.06755e-05
-9.88322e-05
8.89511e-06
-0.000100163
7.01417e-06
-0.000101121
5.04329e-06
-0.000101692
2.99489e-06
-0.000101866
8.83172e-07
-0.000101635
-1.27586e-06
-0.000100994
-3.46448e-06
-9.9942e-05
-5.66337e-06
-9.84804e-05
-7.85179e-06
-9.66155e-05
-1.00077e-05
-9.43573e-05
-1.21083e-05
-9.17198e-05
-1.41299e-05
-8.87212e-05
-1.60486e-05
-8.53838e-05
-1.78407e-05
-8.17339e-05
-1.94827e-05
-7.78018e-05
-2.09524e-05
-7.36214e-05
-2.22287e-05
-6.923e-05
-2.32924e-05
-6.46679e-05
-2.41268e-05
-5.99782e-05
-2.47176e-05
-5.5206e-05
-2.5054e-05
-5.03975e-05
-2.51285e-05
-4.56004e-05
-2.49377e-05
-4.08618e-05
-2.4482e-05
-3.62288e-05
-2.37667e-05
-3.17466e-05
-2.28012e-05
-2.74583e-05
-2.16e-05
-2.34038e-05
-2.01822e-05
-1.96194e-05
-1.85716e-05
-1.61363e-05
-1.67972e-05
-1.29803e-05
-1.48925e-05
-1.0171e-05
-1.28959e-05
-7.72121e-06
-1.08509e-05
-5.63609e-06
-8.80594e-06
-3.91307e-06
-6.8146e-06
-2.54135e-06
-4.93618e-06
-1.50179e-06
-3.23593e-06
-7.66929e-07
-1.78585e-06
-3.01298e-07
-6.65051e-07
-6.20301e-08
3.94015e-08
2.26229e-07
-2.77552e-07
8.3623e-07
-1.07421e-06
2.91003e-06
-2.35768e-06
5.2208e-06
-4.09715e-06
7.64352e-06
-6.26188e-06
1.00838e-05
-8.82058e-06
1.24676e-05
-1.17412e-05
1.4739e-05
-1.4991e-05
1.68573e-05
-1.85365e-05
1.87944e-05
-2.23439e-05
2.05325e-05
-2.63794e-05
2.20614e-05
-3.06092e-05
2.33771e-05
-3.50001e-05
2.44796e-05
-3.95191e-05
2.53719e-05
-4.41341e-05
2.6059e-05
-4.88133e-05
2.65464e-05
-5.3526e-05
2.68403e-05
-5.82418e-05
2.69462e-05
-6.29309e-05
2.68695e-05
-6.75641e-05
2.66147e-05
-7.21126e-05
2.61854e-05
-7.65479e-05
2.55849e-05
-8.08422e-05
2.48155e-05
-8.49676e-05
2.38795e-05
-8.88969e-05
2.2779e-05
-9.26033e-05
2.1516e-05
-9.60606e-05
2.00934e-05
-9.92432e-05
1.85145e-05
-0.000102126
1.67837e-05
-0.000104687
1.49065e-05
-0.000106901
1.28903e-05
-0.00010875
1.07438e-05
-0.000110214
8.47779e-06
-0.000111275
6.10501e-06
-0.000111921
3.64026e-06
-0.000112138
1.10048e-06
-0.000111919
-1.49534e-06
-0.000111257
-4.1262e-06
-0.000110151
-6.76924e-06
-0.000108603
-9.39991e-06
-0.000106618
-1.19922e-05
-0.000104208
-1.45191e-05
-0.000101385
-1.69527e-05
-9.81687e-05
-1.92647e-05
-9.45824e-05
-2.14269e-05
-9.06533e-05
-2.34118e-05
-8.64131e-05
-2.51926e-05
-8.18972e-05
-2.67446e-05
-7.71449e-05
-2.80446e-05
-7.2199e-05
-2.90727e-05
-6.71048e-05
-2.98118e-05
-6.19103e-05
-3.02485e-05
-5.66651e-05
-3.03738e-05
-5.14198e-05
-3.0183e-05
-4.62254e-05
-2.96764e-05
-4.11325e-05
-2.88596e-05
-3.61902e-05
-2.77435e-05
-3.14455e-05
-2.63447e-05
-2.69422e-05
-2.46855e-05
-2.27202e-05
-2.27936e-05
-1.88148e-05
-2.07027e-05
-1.52552e-05
-1.84521e-05
-1.20645e-05
-1.60866e-05
-9.25892e-06
-1.36566e-05
-6.84679e-06
-1.12181e-05
-4.82863e-06
-8.83276e-06
-3.1967e-06
-6.5681e-06
-1.93499e-06
-4.49764e-06
-1.01939e-06
-2.70145e-06
-4.18185e-07
-1.26626e-06
-9.2941e-08
-2.85841e-07
1.33289e-07
-3.21471e-07
1.1577e-06
-1.23608e-06
3.82465e-06
-2.69882e-06
6.68353e-06
-4.66755e-06
9.61225e-06
-7.1018e-06
1.2518e-05
-9.96213e-06
1.53279e-05
-1.32097e-05
1.79865e-05
-1.68061e-05
2.04537e-05
-2.07134e-05
2.27017e-05
-2.48941e-05
2.47132e-05
-2.93113e-05
2.64786e-05
-3.39287e-05
2.79945e-05
-3.87107e-05
2.92616e-05
-4.36227e-05
3.02839e-05
-4.86306e-05
3.10669e-05
-5.37013e-05
3.16171e-05
-5.88023e-05
3.19412e-05
-6.39017e-05
3.20457e-05
-6.89684e-05
3.19362e-05
-7.39717e-05
3.16179e-05
-7.88813e-05
3.1095e-05
-8.36673e-05
3.03708e-05
-8.83002e-05
2.94484e-05
-9.27509e-05
2.83302e-05
-9.69906e-05
2.70187e-05
-0.000100991
2.55166e-05
-0.000104725
2.38271e-05
-0.000108165
2.19543e-05
-0.000111284
1.99035e-05
-0.000114059
1.76815e-05
-0.000116466
1.52967e-05
-0.000118482
1.27597e-05
-0.000120087
1.0083e-05
-0.000121263
7.28148e-06
-0.000121996
4.37253e-06
-0.000122271
1.37581e-06
-0.00012208
-1.68661e-06
-0.000121415
-4.79034e-06
-0.000120276
-7.90886e-06
-0.000118662
-1.10137e-05
-0.00011658
-1.40747e-05
-0.000114038
-1.70606e-05
-0.000111052
-1.99388e-05
-0.00010764
-2.26765e-05
-0.000103826
-2.52411e-05
-9.96378e-05
-2.76001e-05
-9.51079e-05
-2.97225e-05
-9.02733e-05
-3.15792e-05
-8.51749e-05
-3.3143e-05
-7.98573e-05
-3.43903e-05
-7.43685e-05
-3.53006e-05
-6.87589e-05
-3.58581e-05
-6.30812e-05
-3.60515e-05
-5.73893e-05
-3.58748e-05
-5.17379e-05
-3.53278e-05
-4.61812e-05
-3.44163e-05
-4.07725e-05
-3.31523e-05
-3.55627e-05
-3.15545e-05
-3.06e-05
-2.96482e-05
-2.59284e-05
-2.74651e-05
-2.15873e-05
-2.50438e-05
-1.76101e-05
-2.24293e-05
-1.4024e-05
-1.96727e-05
-1.08487e-05
-1.68318e-05
-8.09646e-06
-1.39703e-05
-5.77138e-06
-1.11578e-05
-3.86923e-06
-8.47025e-06
-2.37749e-06
-5.98938e-06
-1.27564e-06
-3.80329e-06
-5.35773e-07
-2.00612e-06
-1.23583e-07
-6.98029e-07
9.70525e-09
-3.63889e-07
1.52159e-06
-1.3931e-06
4.85386e-06
-3.03071e-06
8.32114e-06
-5.22383e-06
1.18054e-05
-7.92254e-06
1.52167e-05
-1.10793e-05
1.84847e-05
-1.46483e-05
2.15556e-05
-1.85857e-05
2.4391e-05
-2.28487e-05
2.69647e-05
-2.7396e-05
2.92605e-05
-3.21876e-05
3.12702e-05
-3.71846e-05
3.29915e-05
-4.23493e-05
3.44263e-05
-4.7645e-05
3.55796e-05
-5.30361e-05
3.6458e-05
-5.8488e-05
3.7069e-05
-6.39669e-05
3.74201e-05
-6.94395e-05
3.75183e-05
-7.48736e-05
3.73703e-05
-8.0237e-05
3.69814e-05
-8.54983e-05
3.63563e-05
-9.06265e-05
3.5499e-05
-9.55906e-05
3.44126e-05
-0.00010036
3.31e-05
-0.000104906
3.15641e-05
-0.000109197
2.98082e-05
-0.000113206
2.78358e-05
-0.000116904
2.5652e-05
-0.000120263
2.32628e-05
-0.000123258
2.06762e-05
-0.000125863
1.79019e-05
-0.000128055
1.4952e-05
-0.000129814
1.18412e-05
-0.000131118
8.58629e-06
-0.000131953
5.20724e-06
-0.000132304
1.72652e-06
-0.00013216
-1.83068e-06
-0.000131514
-5.43653e-06
-0.000130362
-9.06077e-06
-0.000128704
-1.26709e-05
-0.000126547
-1.62326e-05
-0.000123897
-1.97099e-05
-0.00012077
-2.30657e-05
-0.000117184
-2.62625e-05
-0.000113163
-2.92625e-05
-0.000108734
-3.20285e-05
-0.000103932
-3.45248e-05
-9.8794e-05
-3.67174e-05
-9.33621e-05
-3.85749e-05
-8.7683e-05
-4.00694e-05
-8.18066e-05
-4.1177e-05
-7.57862e-05
-4.18786e-05
-6.96771e-05
-4.21605e-05
-6.35369e-05
-4.2015e-05
-5.74238e-05
-4.1441e-05
-5.1396e-05
-4.0444e-05
-4.5511e-05
-3.90373e-05
-3.98242e-05
-3.72412e-05
-3.43884e-05
-3.5084e-05
-2.92523e-05
-3.26013e-05
-2.44597e-05
-2.98364e-05
-2.00489e-05
-2.68401e-05
-1.60513e-05
-2.36704e-05
-1.24911e-05
-2.0392e-05
-9.3849e-06
-1.70765e-05
-6.74068e-06
-1.3802e-05
-4.55817e-06
-1.06528e-05
-2.82865e-06
-7.7189e-06
-1.53531e-06
-5.09662e-06
-6.53956e-07
-2.88748e-06
-1.53983e-07
-1.198e-06
-1.44277e-07
-4.04791e-07
1.92638e-06
-1.54496e-06
5.99403e-06
-3.35242e-06
1.01286e-05
-5.76406e-06
1.4217e-05
-8.72084e-06
1.81735e-05
-1.21673e-05
2.19311e-05
-1.60509e-05
2.54393e-05
-2.03221e-05
2.86622e-05
-2.49334e-05
3.1576e-05
-2.98396e-05
3.41667e-05
-3.49975e-05
3.64281e-05
-4.03655e-05
3.83595e-05
-4.59039e-05
3.99646e-05
-5.15741e-05
4.12498e-05
-5.7339e-05
4.22229e-05
-6.31625e-05
4.28926e-05
-6.90097e-05
4.32672e-05
-7.48462e-05
4.33549e-05
-8.06386e-05
4.31626e-05
-8.63538e-05
4.26966e-05
-9.19593e-05
4.19618e-05
-9.74229e-05
4.09626e-05
-0.000102713
3.97025e-05
-0.000107798
3.81849e-05
-0.000112646
3.64129e-05
-0.000117228
3.43901e-05
-0.000121513
3.21209e-05
-0.000125472
2.96108e-05
-0.000129076
2.68669e-05
-0.000132298
2.3898e-05
-0.000135112
2.07155e-05
-0.000137492
1.73328e-05
-0.000139418
1.37664e-05
-0.000140867
1.00355e-05
-0.000141822
6.16232e-06
-0.000142268
2.17224e-06
-0.000142192
-1.90643e-06
-0.000141586
-6.04244e-06
-0.000140445
-1.02018e-05
-0.000138768
-1.43478e-05
-0.000136559
-1.84419e-05
-0.000133825
-2.24434e-05
-0.000130581
-2.63104e-05
-0.000126843
-3.00003e-05
-0.000122635
-3.34703e-05
-0.000117985
-3.66781e-05
-0.000112928
-3.95826e-05
-0.0001075
-4.21448e-05
-0.000101747
-4.43286e-05
-9.57144e-05
-4.61015e-05
-8.94559e-05
-4.74355e-05
-8.30267e-05
-4.83078e-05
-7.64853e-05
-4.87019e-05
-6.98924e-05
-4.86079e-05
-6.33102e-05
-4.80232e-05
-5.68011e-05
-4.69531e-05
-5.04272e-05
-4.54112e-05
-4.42488e-05
-4.34197e-05
-3.83234e-05
-4.10093e-05
-3.27051e-05
-3.82196e-05
-2.74429e-05
-3.50986e-05
-2.258e-05
-3.1703e-05
-1.81531e-05
-2.80973e-05
-1.41913e-05
-2.43537e-05
-1.07158e-05
-2.0552e-05
-7.73914e-06
-1.67787e-05
-5.26535e-06
-1.31266e-05
-3.28971e-06
-9.69454e-06
-1.79922e-06
-6.58711e-06
-7.73201e-07
-3.9135e-06
-1.84316e-07
-1.78688e-06
-3.28593e-07
-4.44167e-07
2.37055e-06
-1.69144e-06
7.2413e-06
-3.66323e-06
1.21004e-05
-6.28673e-06
1.68405e-05
-9.4942e-06
2.1381e-05
-1.32225e-05
2.56594e-05
-1.74125e-05
2.96293e-05
-2.2009e-05
3.32587e-05
-2.69599e-05
3.65269e-05
-3.22161e-05
3.9423e-05
-3.77312e-05
4.19432e-05
-4.34611e-05
4.40894e-05
-4.93637e-05
4.58673e-05
-5.53989e-05
4.7285e-05
-6.15281e-05
4.83521e-05
-6.7714e-05
4.90784e-05
-7.39204e-05
4.94737e-05
-8.01122e-05
4.95466e-05
-8.62548e-05
4.93053e-05
-9.23145e-05
4.87562e-05
-9.82577e-05
4.79051e-05
-0.000104052
4.67565e-05
-0.000109664
4.53144e-05
-0.000115061
4.35825e-05
-0.000120212
4.15641e-05
-0.000125086
3.92635e-05
-0.00012965
3.66854e-05
-0.000133875
3.38359e-05
-0.000137732
3.07231e-05
-0.00014119
2.73567e-05
-0.000144224
2.37493e-05
-0.000146807
1.99159e-05
-0.000148916
1.58748e-05
-0.000150527
1.16472e-05
-0.000151623
7.2578e-06
-0.000152185
2.73468e-06
-0.000152201
-1.89077e-06
-0.00015166
-6.58385e-06
-0.000150555
-1.13068e-05
-0.000148884
-1.60189e-05
-0.000146649
-2.06769e-05
-0.000143856
-2.52357e-05
-0.000140518
-2.96483e-05
-0.000136652
-3.38669e-05
-0.000132279
-3.78431e-05
-0.000127428
-4.15293e-05
-0.000122132
-4.48788e-05
-0.000116429
-4.78472e-05
-0.000110365
-5.0393e-05
-0.000103988
-5.24786e-05
-9.73516e-05
-5.40715e-05
-9.05146e-05
-5.51448e-05
-8.35382e-05
-5.56783e-05
-7.64867e-05
-5.56595e-05
-6.94261e-05
-5.50838e-05
-6.24234e-05
-5.39557e-05
-5.55457e-05
-5.2289e-05
-4.88583e-05
-5.0107e-05
-4.24246e-05
-4.7443e-05
-3.6304e-05
-4.43401e-05
-3.05515e-05
-4.08512e-05
-2.5216e-05
-3.70385e-05
-2.03398e-05
-3.29734e-05
-1.59576e-05
-2.87359e-05
-1.20957e-05
-2.44139e-05
-8.77187e-06
-2.01026e-05
-5.99454e-06
-1.59039e-05
-3.76332e-06
-1.19258e-05
-2.06903e-06
-8.2814e-06
-8.9438e-07
-5.08815e-06
-2.14861e-07
-2.4664e-06
-5.43453e-07
-4.81994e-07
2.85254e-06
-1.83234e-06
8.59165e-06
-3.96254e-06
1.42306e-05
-6.79059e-06
1.96686e-05
-1.02405e-05
2.48309e-05
-1.42416e-05
2.96605e-05
-1.87287e-05
3.41164e-05
-2.36408e-05
3.81708e-05
-2.89214e-05
4.18075e-05
-3.45177e-05
4.50192e-05
-4.03799e-05
4.78054e-05
-4.64616e-05
5.0171e-05
-5.27185e-05
5.21242e-05
-5.91089e-05
5.36754e-05
-6.55927e-05
5.48359e-05
-7.21315e-05
5.56173e-05
-7.86883e-05
5.60304e-05
-8.52269e-05
5.60853e-05
-9.17122e-05
5.57906e-05
-9.81097e-05
5.51536e-05
-0.000104385
5.41806e-05
-0.000110505
5.28764e-05
-0.000116436
5.12455e-05
-0.000122145
4.92916e-05
-0.0001276
4.70186e-05
-0.000132767
4.4431e-05
-0.000137616
4.15339e-05
-0.000142114
3.83342e-05
-0.000146231
3.48404e-05
-0.000149938
3.10635e-05
-0.000153206
2.70169e-05
-0.000156007
2.27173e-05
-0.000158317
1.81843e-05
-0.000160111
1.34414e-05
-0.000161369
8.51556e-06
-0.000162071
3.43738e-06
-0.000162204
-1.75871e-06
-0.000161753
-7.03466e-06
-0.000160711
-1.23489e-05
-0.000159073
-1.76568e-05
-0.000156839
-2.29106e-05
-0.000154015
-2.80601e-05
-0.000150609
-3.30535e-05
-0.000146639
-3.78374e-05
-0.000142124
-4.23579e-05
-0.000137092
-4.65614e-05
-0.000131575
-5.03954e-05
-0.000125613
-5.38094e-05
-0.00011925
-5.67562e-05
-0.000112536
-5.91926e-05
-0.000105527
-6.10807e-05
-9.82826e-05
-6.23889e-05
-9.0868e-05
-6.30929e-05
-8.33508e-05
-6.31767e-05
-7.58013e-05
-6.26333e-05
-6.82912e-05
-6.14657e-05
-6.08929e-05
-5.96873e-05
-5.36775e-05
-5.73224e-05
-4.67143e-05
-5.44062e-05
-4.00692e-05
-5.09853e-05
-3.38034e-05
-4.7117e-05
-2.79723e-05
-4.28696e-05
-2.26246e-05
-3.83212e-05
-1.7801e-05
-3.35595e-05
-1.35338e-05
-2.86811e-05
-9.84588e-06
-2.37904e-05
-6.75099e-06
-1.89988e-05
-4.25312e-06
-1.44236e-05
-2.34703e-06
-1.01875e-05
-1.01865e-06
-6.41653e-06
-2.45964e-07
-3.23908e-06
-7.89417e-07
-5.18238e-07
3.37078e-06
-1.96744e-06
1.00409e-05
-4.24973e-06
1.65129e-05
-7.27444e-06
2.26933e-05
-1.09576e-05
2.85141e-05
-1.52218e-05
3.39247e-05
-1.99954e-05
3.889e-05
-2.52125e-05
4.33878e-05
-3.08119e-05
4.74069e-05
-3.6737e-05
5.09444e-05
-4.29354e-05
5.40038e-05
-4.93579e-05
5.65935e-05
-5.59584e-05
5.87247e-05
-6.26934e-05
6.04104e-05
-6.95216e-05
6.16642e-05
-7.64037e-05
6.24994e-05
-8.33018e-05
6.29284e-05
-9.0179e-05
6.29625e-05
-9.69995e-05
6.26111e-05
-0.000103728
6.18825e-05
-0.000110331
6.07832e-05
-0.000116773
5.93187e-05
-0.000123021
5.74935e-05
-0.000129041
5.53118e-05
-0.000134801
5.27778e-05
-0.000140266
4.9896e-05
-0.000145404
4.66721e-05
-0.000150183
4.31134e-05
-0.000154572
3.92291e-05
-0.000158539
3.50309e-05
-0.000162055
3.05332e-05
-0.000165092
2.57539e-05
-0.000167622
2.07144e-05
-0.00016962
1.54397e-05
-0.000171064
9.95901e-06
-0.000171932
4.30547e-06
-0.000172207
-1.48366e-06
-0.000171874
-7.3671e-06
-0.000170924
-1.32997e-05
-0.000169348
-1.92325e-05
-0.000167145
-2.51136e-05
-0.000164317
-3.08879e-05
-0.000160872
-3.64982e-05
-0.000156824
-4.18855e-05
-0.000152192
-4.69901e-05
-0.000147002
-5.17521e-05
-0.000141284
-5.61126e-05
-0.000135079
-6.00149e-05
-0.00012843
-6.34052e-05
-0.000121388
-6.62341e-05
-0.000114011
-6.84578e-05
-0.000106361
-7.00391e-05
-9.85051e-05
-7.09488e-05
-9.0515e-05
-7.11668e-05
-8.24655e-05
-7.06829e-05
-7.44333e-05
-6.94979e-05
-6.64964e-05
-6.76242e-05
-5.87323e-05
-6.50865e-05
-5.12169e-05
-6.19216e-05
-4.40229e-05
-5.81793e-05
-3.72187e-05
-5.39213e-05
-3.08668e-05
-4.92215e-05
-2.50229e-05
-4.4165e-05
-1.97346e-05
-3.88478e-05
-1.50405e-05
-3.33752e-05
-1.09696e-05
-2.78613e-05
-7.54101e-06
-2.24274e-05
-4.76353e-06
-1.72011e-05
-2.63593e-06
-1.23151e-05
-1.14735e-06
-7.90511e-06
-2.78018e-07
-4.10841e-06
-1.06743e-06
-5.52843e-07
3.92363e-06
-2.09648e-06
1.15845e-05
-4.52418e-06
1.89406e-05
-7.73708e-06
2.59062e-05
-1.16438e-05
3.24208e-05
-1.61602e-05
3.84411e-05
-2.1209e-05
4.39387e-05
-2.6719e-05
4.88979e-05
-3.26251e-05
5.3313e-05
-3.88672e-05
5.71864e-05
-4.53896e-05
6.05262e-05
-5.21409e-05
6.33449e-05
-5.90733e-05
6.5657e-05
-6.61416e-05
6.74788e-05
-7.33036e-05
6.88261e-05
-8.05188e-05
6.97146e-05
-8.77486e-05
7.01582e-05
-9.49557e-05
7.01696e-05
-0.000102104
6.97593e-05
-0.000109158
6.89363e-05
-0.000116082