/*--------------------------------*- C++ -*----------------------------------*\
  =========                 |
  \\      /  F ield         | OpenFOAM: The Open Source CFD Toolbox
   \\    /   O peration     | Website:  https://openfoam.org
    \\  /    A nd           | Version:  dev
     \\/     M anipulation  |
\*---------------------------------------------------------------------------*/
FoamFile
{
    format      ascii;
    class       volVectorField;
    location    "36";
    object      U;
}
// * * * * * * * * * * * * * * * * * * * * * * * * * * * * * * * * * * * * * //

dimensions      [0 1 -1 0 0 0 0];

internalField   nonuniform List<vector> 
5184
(
(1.23248e-05 -1.27135e-05 0)
(4.51714e-05 -2.08938e-05 0)
(8.03475e-05 -1.72517e-05 0)
(9.60176e-05 -8.19877e-06 0)
(8.2195e-05 2.66775e-06 0)
(3.6499e-05 1.36178e-05 0)
(-4.05226e-05 2.38474e-05 0)
(-0.00014685 3.30514e-05 0)
(-0.00027969 4.11102e-05 0)
(-0.000435985 4.80295e-05 0)
(-0.000612615 5.38711e-05 0)
(-0.000806545 5.87199e-05 0)
(-0.00101491 6.26684e-05 0)
(-0.00123504 6.58079e-05 0)
(-0.00146447 6.82229e-05 0)
(-0.00170095 6.9989e-05 0)
(-0.00194241 7.11704e-05 0)
(-0.00218693 7.18196e-05 0)
(-0.00243272 7.19774e-05 0)
(-0.0026781 7.16734e-05 0)
(-0.00292147 7.0927e-05 0)
(-0.00316127 6.97487e-05 0)
(-0.00339596 6.81413e-05 0)
(-0.00362402 6.6102e-05 0)
(-0.00384392 6.36234e-05 0)
(-0.00405412 6.06959e-05 0)
(-0.00425307 5.73088e-05 0)
(-0.00443919 5.34526e-05 0)
(-0.00461091 4.91202e-05 0)
(-0.00476664 4.43085e-05 0)
(-0.00490482 3.90202e-05 0)
(-0.00502393 3.32644e-05 0)
(-0.00512251 2.70584e-05 0)
(-0.00519918 2.04281e-05 0)
(-0.00525269 1.34092e-05 0)
(-0.0052819 6.04743e-06 0)
(-0.00528589 -1.60106e-06 0)
(-0.00526392 -9.46969e-06 0)
(-0.0052155 -1.74819e-05 0)
(-0.00514038 -2.55519e-05 0)
(-0.00503865 -3.35854e-05 0)
(-0.00491066 -4.14808e-05 0)
(-0.00475713 -4.91308e-05 0)
(-0.00457911 -5.64242e-05 0)
(-0.00437801 -6.32484e-05 0)
(-0.00415558 -6.94915e-05 0)
(-0.00391391 -7.50448e-05 0)
(-0.00365543 -7.98056e-05 0)
(-0.00338288 -8.36792e-05 0)
(-0.00309925 -8.65816e-05 0)
(-0.00280779 -8.84421e-05 0)
(-0.00251192 -8.92054e-05 0)
(-0.0022152 -8.88336e-05 0)
(-0.00192131 -8.7307e-05 0)
(-0.0016339 -8.46253e-05 0)
(-0.00135663 -8.08078e-05 0)
(-0.00109303 -7.58935e-05 0)
(-0.000846469 -6.99414e-05 0)
(-0.000620098 -6.30291e-05 0)
(-0.000416767 -5.5253e-05 0)
(-0.000238974 -4.67272e-05 0)
(-8.87978e-05 -3.75844e-05 0)
(3.21736e-05 -2.79793e-05 0)
(0.000122926 -1.80945e-05 0)
(0.000183129 -8.15557e-06 0)
(0.000213286 1.5423e-06 0)
(0.000214984 1.05747e-05 0)
(0.000191274 1.83048e-05 0)
(0.000147186 2.37211e-05 0)
(9.0815e-05 2.51323e-05 0)
(3.6632e-05 1.98522e-05 0)
(6.22632e-06 6.24504e-06 0)
(2.08499e-05 -4.58978e-05 0)
(6.56421e-05 -6.57282e-05 0)
(9.47563e-05 -4.05728e-05 0)
(7.28673e-05 7.62603e-06 0)
(-1.88674e-05 6.56784e-05 0)
(-0.000187265 0.000126 0)
(-0.000432911 0.000184311 0)
(-0.000752587 0.000238367 0)
(-0.00114075 0.000287023 0)
(-0.00159061 0.000329839 0)
(-0.00209483 0.000366776 0)
(-0.00264595 0.000398021 0)
(-0.00323666 0.000423889 0)
(-0.00385998 0.000444745 0)
(-0.00450929 0.000460965 0)
(-0.00517841 0.00047291 0)
(-0.00586151 0.000480902 0)
(-0.00655317 0.000485216 0)
(-0.00724824 0.000486075 0)
(-0.00794184 0.000483652 0)
(-0.00862927 0.000478067 0)
(-0.00930598 0.000469397 0)
(-0.00996748 0.000457681 0)
(-0.0106094 0.000442928 0)
(-0.0112272 0.000425125 0)
(-0.0118166 0.000404249 0)
(-0.0123732 0.000380277 0)
(-0.0128925 0.00035319 0)
(-0.0133702 0.00032299 0)
(-0.0138018 0.000289703 0)
(-0.0141832 0.00025339 0)
(-0.0145103 0.000214153 0)
(-0.0147792 0.000172143 0)
(-0.0149862 0.000127563 0)
(-0.015128 8.06718e-05 0)
(-0.0152019 3.17889e-05 0)
(-0.0152054 -1.87069e-05 0)
(-0.0151369 -7.0377e-05 0)
(-0.0149951 -0.000122726 0)
(-0.0147796 -0.000175207 0)
(-0.0144909 -0.000227225 0)
(-0.0141303 -0.000278148 0)
(-0.0136997 -0.000327316 0)
(-0.0132023 -0.000374048 0)
(-0.012642 -0.00041766 0)
(-0.0120237 -0.000457477 0)
(-0.0113531 -0.000492845 0)
(-0.0106368 -0.000523152 0)
(-0.00988227 -0.000547834 0)
(-0.00909757 -0.000566399 0)
(-0.00829139 -0.000578433 0)
(-0.00747294 -0.000583615 0)
(-0.00665173 -0.000581731 0)
(-0.00583751 -0.000572678 0)
(-0.00504006 -0.000556472 0)
(-0.00426906 -0.000533251 0)
(-0.00353388 -0.000503279 0)
(-0.00284344 -0.000466946 0)
(-0.00220604 -0.000424766 0)
(-0.00162914 -0.000377381 0)
(-0.00111923 -0.000325559 0)
(-0.000681596 -0.000270205 0)
(-0.000320161 -0.00021238 0)
(-3.72066e-05 -0.000153336 0)
(0.000166901 -9.45841e-05 0)
(0.000294086 -3.80031e-05 0)
(0.000349099 1.39449e-05 0)
(0.000340215 5.79539e-05 0)
(0.000279928 8.94318e-05 0)
(0.000186094 0.000101883 0)
(8.63863e-05 8.6539e-05 0)
(1.9683e-05 3.64964e-05 0)
(1.76419e-05 -8.133e-05 0)
(4.13525e-05 -9.50668e-05 0)
(1.96375e-05 -1.9161e-05 0)
(-8.39567e-05 0.00010592 0)
(-0.00029022 0.000254662 0)
(-0.000607903 0.000410619 0)
(-0.00103827 0.000563477 0)
(-0.00157751 0.000707099 0)
(-0.00221845 0.000838034 0)
(-0.0029519 0.000954574 0)
(-0.00376759 0.00105612 0)
(-0.0046548 0.00114278 0)
(-0.00560281 0.00121505 0)
(-0.00660116 0.00127366 0)
(-0.00763979 0.00131944 0)
(-0.00870914 0.00135322 0)
(-0.00980011 0.00137574 0)
(-0.0109041 0.00138771 0)
(-0.0120129 0.00138966 0)
(-0.0131187 0.00138206 0)
(-0.0142139 0.00136522 0)
(-0.0152912 0.00133938 0)
(-0.0163432 0.00130465 0)
(-0.0173628 0.00126111 0)
(-0.018343 0.00120876 0)
(-0.0192767 0.00114759 0)
(-0.020157 0.00107759 0)
(-0.0209767 0.000998778 0)
(-0.0217291 0.000911218 0)
(-0.0224074 0.000815048 0)
(-0.023005 0.000710499 0)
(-0.0235156 0.000597916 0)
(-0.0239333 0.000477774 0)
(-0.0242526 0.000350687 0)
(-0.0244686 0.000217422 0)
(-0.0245772 7.89022e-05 0)
(-0.0245748 -6.37924e-05 0)
(-0.024459 -0.000209426 0)
(-0.0242283 -0.000356615 0)
(-0.0238823 -0.000503841 0)
(-0.0234219 -0.000649467 0)
(-0.0228493 -0.000791762 0)
(-0.0221679 -0.000928923 0)
(-0.0213825 -0.00105911 0)
(-0.0204994 -0.00118046 0)
(-0.0195262 -0.00129117 0)
(-0.0184719 -0.00138947 0)
(-0.0173466 -0.00147372 0)
(-0.0161618 -0.00154242 0)
(-0.0149299 -0.00159426 0)
(-0.0136642 -0.00162814 0)
(-0.0123788 -0.00164321 0)
(-0.0110882 -0.00163892 0)
(-0.00980713 -0.001615 0)
(-0.00855064 -0.00157153 0)
(-0.00733337 -0.00150892 0)
(-0.00616959 -0.0014279 0)
(-0.00507282 -0.00132958 0)
(-0.0040556 -0.0012154 0)
(-0.00312921 -0.00108717 0)
(-0.00230339 -0.000947075 0)
(-0.00158604 -0.000797673 0)
(-0.000982879 -0.000641974 0)
(-0.000497153 -0.00048351 0)
(-0.000129167 -0.000326482 0)
(0.000124148 -0.000175977 0)
(0.000269891 -3.83144e-05 0)
(0.000319916 7.84871e-05 0)
(0.00029136 0.000164128 0)
(0.000207457 0.000205441 0)
(0.000102478 0.000186319 0)
(2.49823e-05 9.04108e-05 0)
(8.84424e-06 -9.77707e-05 0)
(-6.99459e-06 -7.31885e-05 0)
(-0.000107559 8.47541e-05 0)
(-0.00032235 0.000318361 0)
(-0.000669616 0.000590128 0)
(-0.00115776 0.000874425 0)
(-0.00178754 0.00115422 0)
(-0.00255419 0.00141872 0)
(-0.00344916 0.00166145 0)
(-0.00446141 0.00187889 0)
(-0.00557847 0.00206946 0)
(-0.00678713 0.00223293 0)
(-0.00807399 0.00236984 0)
(-0.00942577 0.00248124 0)
(-0.0108296 0.0025684 0)
(-0.012273 0.00263265 0)
(-0.0137441 0.00267527 0)
(-0.0152314 0.00269742 0)
(-0.0167242 0.00270006 0)
(-0.0182117 0.002684 0)
(-0.0196837 0.00264983 0)
(-0.0211304 0.00259798 0)
(-0.0225419 0.00252871 0)
(-0.0239086 0.00244219 0)
(-0.025221 0.0023385 0)
(-0.0264695 0.00221767 0)
(-0.0276448 0.00207977 0)
(-0.0287377 0.0019249 0)
(-0.029739 0.00175327 0)
(-0.0306399 0.00156524 0)
(-0.0314317 0.00136131 0)
(-0.0321064 0.00114224 0)
(-0.0326561 0.000909 0)
(-0.033074 0.000662822 0)
(-0.0333538 0.000405224 0)
(-0.0334903 0.000138009 0)
(-0.0334791 -0.000136736 0)
(-0.0333174 -0.000416638 0)
(-0.0330033 -0.000699062 0)
(-0.0325368 -0.00098113 0)
(-0.0319191 -0.00125975 0)
(-0.0311533 -0.00153168 0)
(-0.0302441 -0.00179352 0)
(-0.0291981 -0.00204184 0)
(-0.0280234 -0.0022732 0)
(-0.0267301 -0.0024842 0)
(-0.02533 -0.00267159 0)
(-0.0238363 -0.00283233 0)
(-0.0222638 -0.00296363 0)
(-0.0206287 -0.00306308 0)
(-0.0189483 -0.00312866 0)
(-0.0172406 -0.00315881 0)
(-0.0155244 -0.00315253 0)
(-0.0138189 -0.00310935 0)
(-0.0121434 -0.00302944 0)
(-0.0105167 -0.00291356 0)
(-0.00895722 -0.00276317 0)
(-0.0074824 -0.00258035 0)
(-0.00610837 -0.00236787 0)
(-0.00484964 -0.00212918 0)
(-0.0037187 -0.00186844 0)
(-0.00272566 -0.00159053 0)
(-0.00187784 -0.00130117 0)
(-0.00117939 -0.00100705 0)
(-0.000630759 -0.000715971 0)
(-0.000228248 -0.000437216 0)
(3.66209e-05 -0.000181928 0)
(0.000177749 3.62811e-05 0)
(0.00021487 0.000200689 0)
(0.000174155 0.000290901 0)
(9.3057e-05 0.000282622 0)
(2.40341e-05 0.000147312 0)
(-2.12222e-06 -8.44385e-05 0)
(-6.72855e-05 2.08566e-05 0)
(-0.00026411 0.000295435 0)
(-0.000609795 0.000668055 0)
(-0.00111684 0.0010909 0)
(-0.00179146 0.00153006 0)
(-0.00263266 0.00196207 0)
(-0.00363406 0.00237147 0)
(-0.00478555 0.00274853 0)
(-0.00607439 0.00308761 0)
(-0.00748625 0.00338593 0)
(-0.00900586 0.00364269 0)
(-0.0106176 0.00385833 0)
(-0.012306 0.0040341 0)
(-0.0140557 0.00417165 0)
(-0.0158519 0.00427282 0)
(-0.0176801 0.00433939 0)
(-0.0195267 0.004373 0)
(-0.0213781 0.00437509 0)
(-0.0232215 0.00434683 0)
(-0.0250442 0.00428911 0)
(-0.026834 0.00420262 0)
(-0.0285787 0.00408779 0)
(-0.0302664 0.00394493 0)
(-0.0318854 0.00377423 0)
(-0.0334239 0.00357584 0)
(-0.0348705 0.00334996 0)
(-0.036214 0.00309685 0)
(-0.0374431 0.00281696 0)
(-0.0385471 0.00251096 0)
(-0.0395157 0.00217979 0)
(-0.0403392 0.00182472 0)
(-0.0410083 0.00144741 0)
(-0.0415148 0.00104991 0)
(-0.0418514 0.000634689 0)
(-0.0420119 0.00020468 0)
(-0.0419915 -0.000236758 0)
(-0.0417868 -0.000685837 0)
(-0.0413959 -0.00113837 0)
(-0.040819 -0.00158979 0)
(-0.0400579 -0.00203524 0)
(-0.0391163 -0.0024696 0)
(-0.0380003 -0.00288757 0)
(-0.0367176 -0.00328377 0)
(-0.0352784 -0.00365281 0)
(-0.0336948 -0.00398942 0)
(-0.0319809 -0.00428855 0)
(-0.0301526 -0.00454545 0)
(-0.0282278 -0.00475582 0)
(-0.0262255 -0.00491589 0)
(-0.0241665 -0.00502254 0)
(-0.0220725 -0.00507337 0)
(-0.0199657 -0.00506683 0)
(-0.017869 -0.00500222 0)
(-0.0158055 -0.00487981 0)
(-0.0137975 -0.00470086 0)
(-0.0118672 -0.00446764 0)
(-0.0100352 -0.00418347 0)
(-0.00832082 -0.00385274 0)
(-0.00674143 -0.00348091 0)
(-0.00531195 -0.00307455 0)
(-0.00404452 -0.00264141 0)
(-0.002948 -0.00219047 0)
(-0.00202753 -0.00173216 0)
(-0.00128406 -0.00127852 0)
(-0.000713818 -0.000843605 0)
(-0.000307806 -0.000443909 0)
(-5.12514e-05 -9.8995e-05 0)
(7.67275e-05 0.000167799 0)
(0.000103644 0.000328735 0)
(6.75309e-05 0.000351072 0)
(1.96715e-05 0.00019418 0)
(-1.36944e-05 -3.75541e-05 0)
(-0.00013284 0.000197344 0)
(-0.000435855 0.000626923 0)
(-0.000924717 0.00117043 0)
(-0.00160406 0.00177189 0)
(-0.00247644 0.00239045 0)
(-0.00353803 0.00299704 0)
(-0.00478012 0.00357186 0)
(-0.00619061 0.00410205 0)
(-0.007755 0.00457986 0)
(-0.00945714 0.00500119 0)
(-0.01128 0.00536456 0)
(-0.013206 0.00567022 0)
(-0.0152177 0.00591952 0)
(-0.0172977 0.00611445 0)
(-0.0194293 0.00625727 0)
(-0.0215958 0.00635027 0)
(-0.0237814 0.00639557 0)
(-0.0259705 0.00639506 0)
(-0.0281481 0.00635028 0)
(-0.0302994 0.00626248 0)
(-0.03241 0.00613259 0)
(-0.0344658 0.00596128 0)
(-0.0364527 0.00574902 0)
(-0.038357 0.00549616 0)
(-0.0401651 0.00520303 0)
(-0.0418636 0.00487 0)
(-0.0434392 0.00449761 0)
(-0.0448793 0.00408661 0)
(-0.0461713 0.0036381 0)
(-0.0473034 0.00315357 0)
(-0.0482644 0.00263498 0)
(-0.0490439 0.0020848 0)
(-0.0496326 0.00150609 0)
(-0.050022 0.000902487 0)
(-0.0502055 0.000278252 0)
(-0.0501775 -0.00036175 0)
(-0.0499345 -0.00101206 0)
(-0.0494746 -0.00166668 0)
(-0.048798 -0.0023191 0)
(-0.0479069 -0.00296239 0)
(-0.046806 -0.00358927 0)
(-0.045502 -0.00419225 0)
(-0.0440043 -0.00476371 0)
(-0.0423243 -0.00529605 0)
(-0.0404759 -0.00578183 0)
(-0.0384752 -0.00621391 0)
(-0.0363406 -0.00658563 0)
(-0.0340922 -0.00689093 0)
(-0.0317521 -0.0071245 0)
(-0.0293436 -0.00728194 0)
(-0.0268915 -0.00735991 0)
(-0.0244213 -0.00735618 0)
(-0.021959 -0.00726981 0)
(-0.0195308 -0.00710118 0)
(-0.0171625 -0.00685208 0)
(-0.0148792 -0.00652574 0)
(-0.0127045 -0.0061269 0)
(-0.0106608 -0.0056618 0)
(-0.00876781 -0.0051382 0)
(-0.00704286 -0.00456546 0)
(-0.00550004 -0.00395455 0)
(-0.00414983 -0.0033182 0)
(-0.00299858 -0.00267098 0)
(-0.00204807 -0.00202964 0)
(-0.00129503 -0.00141336 0)
(-0.000730675 -0.000844301 0)
(-0.000340274 -0.000348138 0)
(-0.000102865 4.51495e-05 0)
(9.19543e-06 0.000300614 0)
(3.25165e-05 0.000377437 0)
(1.36257e-05 0.000224571 0)
(-2.51872e-05 4.40798e-05 0)
(-0.000200029 0.000461282 0)
(-0.000614139 0.00108714 0)
(-0.00125304 0.00183488 0)
(-0.00211226 0.00264263 0)
(-0.00318965 0.00346414 0)
(-0.00447764 0.00426576 0)
(-0.00596452 0.00502405 0)
(-0.00763578 0.00572338 0)
(-0.00947488 0.00635407 0)
(-0.0114638 0.00691079 0)
(-0.0135838 0.00739139 0)
(-0.0158156 0.00779586 0)
(-0.0181399 0.00812566 0)
(-0.0205377 0.00838303 0)
(-0.0229904 0.00857065 0)
(-0.0254795 0.00869126 0)
(-0.0279874 0.00874744 0)
(-0.0304967 0.00874152 0)
(-0.0329903 0.00867545 0)
(-0.0354518 0.00855078 0)
(-0.0378648 0.00836874 0)
(-0.0402133 0.00813023 0)
(-0.0424815 0.00783594 0)
(-0.0446537 0.00748641 0)
(-0.0467148 0.00708219 0)
(-0.0486495 0.00662392 0)
(-0.0504431 0.00611244 0)
(-0.0520812 0.00554894 0)
(-0.0535498 0.00493503 0)
(-0.0548359 0.00427286 0)
(-0.0559268 0.00356521 0)
(-0.0568112 0.00281553 0)
(-0.0574785 0.00202803 0)
(-0.0579199 0.0012077 0)
(-0.0581277 0.000360307 0)
(-0.0580961 -0.000507567 0)
(-0.0578212 -0.00138859 0)
(-0.057301 -0.00227472 0)
(-0.0565358 -0.00315726 0)
(-0.0555283 -0.00402698 0)
(-0.0542837 -0.00487422 0)
(-0.0528095 -0.00568901 0)
(-0.051116 -0.00646127 0)
(-0.049216 -0.00718093 0)
(-0.0471249 -0.00783815 0)
(-0.0448605 -0.00842349 0)
(-0.0424431 -0.00892813 0)
(-0.039895 -0.00934404 0)
(-0.0372404 -0.00966422 0)
(-0.0345054 -0.00988283 0)
(-0.0317172 -0.00999542 0)
(-0.0289042 -0.00999904 0)
(-0.0260953 -0.00989242 0)
(-0.0233194 -0.00967605 0)
(-0.0206053 -0.00935227 0)
(-0.017981 -0.00892537 0)
(-0.015473 -0.00840162 0)
(-0.013106 -0.00778927 0)
(-0.0109026 -0.00709865 0)
(-0.0088822 -0.00634214 0)
(-0.00706099 -0.00553428 0)
(-0.0054512 -0.00469179 0)
(-0.00406066 -0.00383378 0)
(-0.00289238 -0.00298194 0)
(-0.00194407 -0.00216089 0)
(-0.00120777 -0.00139854 0)
(-0.000669551 -0.000726767 0)
(-0.000309185 -0.000182056 0)
(-9.98338e-05 0.000193779 0)
(-7.70081e-06 0.00035261 0)
(6.864e-06 0.000235053 0)
(-3.6343e-05 0.00016046 0)
(-0.000266968 0.000814542 0)
(-0.000793836 0.00167987 0)
(-0.00158581 0.00266642 0)
(-0.00262874 0.0037085 0)
(-0.00391505 0.00475605 0)
(-0.00543279 0.00577202 0)
(-0.00716666 0.00673012 0)
(-0.00909933 0.00761255 0)
(-0.0112119 0.00840803 0)
(-0.0134845 0.00911024 0)
(-0.0158965 0.00971643 0)
(-0.018427 0.0102264 0)
(-0.0210551 0.0106418 0)
(-0.0237602 0.010965 0)
(-0.0265221 0.0111992 0)
(-0.0293209 0.0113474 0)
(-0.0321371 0.0114128 0)
(-0.0349519 0.011398 0)
(-0.0377465 0.0113055 0)
(-0.0405029 0.011137 0)
(-0.0432029 0.0108941 0)
(-0.0458291 0.010578 0)
(-0.048364 0.0101896 0)
(-0.0507903 0.00972961 0)
(-0.0530913 0.0091989 0)
(-0.0552503 0.00859841 0)
(-0.057251 0.00792937 0)
(-0.0590776 0.00719347 0)
(-0.0607151 0.00639294 0)
(-0.0621489 0.00553068 0)
(-0.0633654 0.0046104 0)
(-0.0643522 0.00363667 0)
(-0.065098 0.00261497 0)
(-0.0655929 0.0015518 0)
(-0.0658289 0.000454605 0)
(-0.0657995 -0.000668163 0)
(-0.0655006 -0.00180711 0)
(-0.0649301 -0.00295196 0)
(-0.0640882 -0.00409166 0)
(-0.062978 -0.00521445 0)
(-0.0616049 -0.00630808 0)
(-0.0599771 -0.00735992 0)
(-0.0581056 -0.00835718 0)
(-0.0560044 -0.00928713 0)
(-0.05369 -0.0101373 0)
(-0.0511816 -0.0108957 0)
(-0.0485011 -0.0115513 0)
(-0.0456726 -0.0120937 0)
(-0.0427225 -0.0125142 0)
(-0.0396788 -0.0128052 0)
(-0.0365713 -0.0129612 0)
(-0.0334307 -0.0129783 0)
(-0.0302885 -0.0128548 0)
(-0.0271765 -0.0125913 0)
(-0.024126 -0.0121906 0)
(-0.0211677 -0.0116582 0)
(-0.0183308 -0.011002 0)
(-0.0156429 -0.0102323 0)
(-0.0131288 -0.00936209 0)
(-0.0108103 -0.0084071 0)
(-0.00870591 -0.00738558 0)
(-0.00682972 -0.00631852 0)
(-0.00519138 -0.00522976 0)
(-0.0037955 -0.00414617 0)
(-0.00264124 -0.00309788 0)
(-0.00172201 -0.00211871 0)
(-0.00102524 -0.00124663 0)
(-0.000532088 -0.000524445 0)
(-0.000217202 -3.77337e-07 0)
(-5.04529e-05 0.000271023 0)
(-8.20935e-08 0.000223917 0)
(-4.70652e-05 0.00031095 0)
(-0.000332674 0.00125704 0)
(-0.000971947 0.00240607 0)
(-0.00191742 0.00366693 0)
(-0.00314509 0.00497183 0)
(-0.00464159 0.00626843 0)
(-0.0063901 0.00751744 0)
(-0.00837134 0.00869068 0)
(-0.0105648 0.00976878 0)
(-0.012949 0.0107394 0)
(-0.015502 0.0115955 0)
(-0.0182011 0.0123339 0)
(-0.021024 0.0129546 0)
(-0.0239483 0.013459 0)
(-0.0269518 0.0138502 0)
(-0.0300129 0.0141314 0)
(-0.0331103 0.0143064 0)
(-0.0362232 0.0143785 0)
(-0.0393312 0.014351 0)
(-0.0424143 0.0142265 0)
(-0.045453 0.0140073 0)
(-0.0484277 0.0136951 0)
(-0.0513194 0.0132914 0)
(-0.0541093 0.0127973 0)
(-0.0567789 0.0122139 0)
(-0.0593098 0.0115422 0)
(-0.0616841 0.0107837 0)
(-0.0638843 0.00993994 0)
(-0.0658934 0.00901321 0)
(-0.0676949 0.00800642 0)
(-0.0692734 0.00692334 0)
(-0.0706142 0.00576869 0)
(-0.0717039 0.00454823 0)
(-0.0725303 0.00326889 0)
(-0.073083 0.00193874 0)
(-0.0733531 0.000567053 0)
(-0.0733339 -0.000835704 0)
(-0.0730205 -0.00225794 0)
(-0.0724109 -0.00368699 0)
(-0.0715051 -0.00510925 0)
(-0.0703061 -0.00651031 0)
(-0.0688196 -0.00787512 0)
(-0.0670543 -0.00918821 0)
(-0.0650216 -0.0104339 0)
(-0.0627363 -0.0115966 0)
(-0.0602158 -0.012661 0)
(-0.0574805 -0.0136125 0)
(-0.0545536 -0.0144372 0)
(-0.0514608 -0.0151228 0)
(-0.0482301 -0.0156582 0)
(-0.0448916 -0.0160341 0)
(-0.041477 -0.0162437 0)
(-0.0380196 -0.016282 0)
(-0.0345531 -0.0161468 0)
(-0.0311117 -0.0158388 0)
(-0.0277297 -0.0153612 0)
(-0.0244403 -0.0147206 0)
(-0.0212754 -0.0139265 0)
(-0.0182652 -0.0129914 0)
(-0.0154371 -0.0119313 0)
(-0.0128156 -0.0107651 0)
(-0.0104214 -0.00951492 0)
(-0.00827101 -0.00820631 0)
(-0.00637609 -0.00686795 0)
(-0.00474323 -0.00553201 0)
(-0.00337347 -0.00423429 0)
(-0.00226203 -0.00301447 0)
(-0.00139819 -0.00191657 0)
(-0.000764997 -0.000989486 0)
(-0.000339003 -0.000287382 0)
(-9.41805e-05 0.000129565 0)
(-6.94238e-06 0.000190513 0)
(-5.7342e-05 0.000494647 0)
(-0.000396664 0.00178753 0)
(-0.00114674 0.00326488 0)
(-0.00224435 0.00483601 0)
(-0.00365575 0.0064326 0)
(-0.00536161 0.00800131 0)
(-0.00733999 0.0095018 0)
(-0.00956733 0.0109049 0)
(-0.0120197 0.0121903 0)
(-0.0146728 0.0133453 0)
(-0.0175024 0.0143624 0)
(-0.0204839 0.0152386 0)
(-0.0235934 0.0159736 0)
(-0.0268068 0.0165696 0)
(-0.0301008 0.0170297 0)
(-0.0334523 0.0173577 0)
(-0.0368389 0.0175578 0)
(-0.0402386 0.0176338 0)
(-0.0436296 0.0175893 0)
(-0.0469909 0.0174273 0)
(-0.0503014 0.0171504 0)
(-0.0535407 0.0167607 0)
(-0.0566884 0.0162598 0)
(-0.0597244 0.0156492 0)
(-0.062629 0.0149302 0)
(-0.0653826 0.0141042 0)
(-0.0679662 0.013173 0)
(-0.0703611 0.0121387 0)
(-0.0725491 0.0110042 0)
(-0.0745128 0.00977307 0)
(-0.0762357 0.00845009 0)
(-0.0777021 0.00704102 0)
(-0.0788977 0.00555295 0)
(-0.0798096 0.00399426 0)
(-0.0804265 0.00237475 0)
(-0.0807389 0.00070559 0)
(-0.0807394 -0.00100062 0)
(-0.0804228 -0.00272998 0)
(-0.0797865 -0.00446731 0)
(-0.0788303 -0.00619635 0)
(-0.0775571 -0.00789985 0)
(-0.0759726 -0.00955984 0)
(-0.0740856 -0.0111578 0)
(-0.0719078 -0.0126751 0)
(-0.0694544 -0.0140929 0)
(-0.0667436 -0.0153931 0)
(-0.0637966 -0.016558 0)
(-0.0606377 -0.0175711 0)
(-0.0572938 -0.0184173 0)
(-0.0537946 -0.0190835 0)
(-0.0501718 -0.0195584 0)
(-0.0464591 -0.0198333 0)
(-0.0426918 -0.0199024 0)
(-0.0389061 -0.0197627 0)
(-0.0351387 -0.0194147 0)
(-0.0314263 -0.0188622 0)
(-0.027805 -0.0181127 0)
(-0.0243095 -0.0171772 0)
(-0.0209726 -0.0160706 0)
(-0.0178248 -0.0148117 0)
(-0.0148931 -0.0134228 0)
(-0.0122009 -0.0119302 0)
(-0.0097673 -0.0103639 0)
(-0.00760641 -0.00875749 0)
(-0.00572718 -0.0071487 0)
(-0.00413289 -0.00557898 0)
(-0.00282098 -0.00409392 0)
(-0.00178295 -0.00274353 0)
(-0.00100404 -0.00158256 0)
(-0.000463022 -0.000670778 0)
(-0.000138066 -7.33795e-05 0)
(-1.36011e-05 0.000134759 0)
(-6.71908e-05 0.000710517 0)
(-0.000458712 0.00240411 0)
(-0.0013172 0.0042542 0)
(-0.00256437 0.00617172 0)
(-0.004157 0.00808901 0)
(-0.00606977 0.00995295 0)
(-0.00827552 0.0117232 0)
(-0.0107462 0.0133704 0)
(-0.0134544 0.0148743 0)
(-0.0163728 0.0162221 0)
(-0.0194746 0.0174066 0)
(-0.0227335 0.018425 0)
(-0.0261237 0.0192775 0)
(-0.0296197 0.0199665 0)
(-0.0331969 0.0204957 0)
(-0.0368312 0.0208696 0)
(-0.0404987 0.0210927 0)
(-0.0441766 0.0211693 0)
(-0.047842 0.0211034 0)
(-0.0514726 0.0208984 0)
(-0.0550467 0.0205572 0)
(-0.0585424 0.0200821 0)
(-0.0619385 0.0194751 0)
(-0.0652138 0.0187379 0)
(-0.0683475 0.0178721 0)
(-0.071319 0.0168795 0)
(-0.0741083 0.0157622 0)
(-0.0766955 0.0145229 0)
(-0.0790615 0.013165 0)
(-0.081188 0.0116931 0)
(-0.0830574 0.0101127 0)
(-0.0846532 0.00843088 0)
(-0.0859602 0.00665593 0)
(-0.0869646 0.00479785 0)
(-0.0876543 0.00286817 0)
(-0.088019 0.000880068 0)
(-0.0880507 -0.00115167 0)
(-0.0877435 -0.00321073 0)
(-0.0870943 -0.00527935 0)
(-0.0861024 -0.00733846 0)
(-0.0847704 -0.00936789 0)
(-0.0831036 -0.0113466 0)
(-0.0811107 -0.013253 0)
(-0.0788036 -0.015065 0)
(-0.0761976 -0.0167608 0)
(-0.0733113 -0.0183188 0)
(-0.0701665 -0.0197184 0)
(-0.0667883 -0.0209401 0)
(-0.0632048 -0.021966 0)
(-0.0594467 -0.0227803 0)
(-0.0555476 -0.0233697 0)
(-0.0515429 -0.0237238 0)
(-0.0474699 -0.0238351 0)
(-0.0433671 -0.0237 0)
(-0.0392738 -0.0233187 0)
(-0.0352292 -0.022695 0)
(-0.0312723 -0.0218376 0)
(-0.0274407 -0.0207589 0)
(-0.0237703 -0.0194762 0)
(-0.0202944 -0.0180109 0)
(-0.0170433 -0.016389 0)
(-0.0140432 -0.0146407 0)
(-0.0113162 -0.0128008 0)
(-0.00887911 -0.010908 0)
(-0.00674371 -0.00900545 0)
(-0.00491586 -0.00714039 0)
(-0.00339555 -0.00536438 0)
(-0.00217682 -0.00373337 0)
(-0.00124737 -0.00230787 0)
(-0.000588245 -0.00115301 0)
(-0.000181782 -0.000338649 0)
(-2.00318e-05 5.6823e-05 0)
(-7.66357e-05 0.000957483 0)
(-0.000518712 0.00310449 0)
(-0.00148273 0.00537115 0)
(-0.00287604 0.00767094 0)
(-0.00464628 0.0099379 0)
(-0.00676226 0.0121202 0)
(-0.00919158 0.0141783 0)
(-0.0119017 0.0160837 0)
(-0.0148614 0.0178169 0)
(-0.0180405 0.0193655 0)
(-0.0214096 0.0207232 0)
(-0.0249404 0.0218877 0)
(-0.0286053 0.0228599 0)
(-0.0323775 0.0236429 0)
(-0.0362311 0.0242411 0)
(-0.0401408 0.0246595 0)
(-0.0440819 0.0249032 0)
(-0.0480304 0.024977 0)
(-0.0519626 0.0248854 0)
(-0.0558554 0.024632 0)
(-0.059686 0.0242202 0)
(-0.0634317 0.0236525 0)
(-0.0670705 0.0229312 0)
(-0.0705801 0.0220582 0)
(-0.073939 0.0210355 0)
(-0.0771256 0.019865 0)
(-0.0801188 0.0185495 0)
(-0.0828981 0.0170921 0)
(-0.0854435 0.0154968 0)
(-0.0877355 0.0137691 0)
(-0.0897557 0.0119154 0)
(-0.0914869 0.00994397 0)
(-0.0929127 0.00786448 0)
(-0.0940186 0.00568847 0)
(-0.0947916 0.0034293 0)
(-0.0952205 0.00110215 0)
(-0.0952965 -0.00127596 0)
(-0.095013 -0.00368624 0)
(-0.0943659 -0.00610827 0)
(-0.0933542 -0.00852011 0)
(-0.0919795 -0.0108986 0)
(-0.0902468 -0.0132194 0)
(-0.0881644 -0.0154577 0)
(-0.085744 -0.0175881 0)
(-0.0830007 -0.0195852 0)
(-0.0799532 -0.0214242 0)
(-0.0766238 -0.023081 0)
(-0.073038 -0.0245329 0)
(-0.0692248 -0.025759 0)
(-0.0652162 -0.0267407 0)
(-0.061047 -0.0274623 0)
(-0.0567544 -0.0279111 0)
(-0.0523776 -0.0280783 0)
(-0.0479575 -0.027959 0)
(-0.0435359 -0.0275528 0)
(-0.0391547 -0.0268638 0)
(-0.034856 -0.0259013 0)
(-0.0306804 -0.0246792 0)
(-0.0266672 -0.0232169 0)
(-0.0228529 -0.0215387 0)
(-0.0192712 -0.019674 0)
(-0.0159516 -0.0176573 0)
(-0.0129195 -0.0155279 0)
(-0.010195 -0.0133299 0)
(-0.00779292 -0.0111119 0)
(-0.00572201 -0.00892704 0)
(-0.00398519 -0.00683297 0)
(-0.00257929 -0.00489157 0)
(-0.0014946 -0.00316914 0)
(-0.000714515 -0.00173609 0)
(-0.000225331 -0.000666808 0)
(-2.6261e-05 -4.30774e-05 0)
(-8.5698e-05 0.00123445 0)
(-0.000576615 0.00388611 0)
(-0.00164296 0.0066123 0)
(-0.00317839 0.00932976 0)
(-0.00512178 0.0119751 0)
(-0.00743624 0.0144986 0)
(-0.0100842 0.0168626 0)
(-0.0130287 0.0190402 0)
(-0.0162347 0.0210131 0)
(-0.019669 0.0227703 0)
(-0.0232997 0.0243066 0)
(-0.0270964 0.0256207 0)
(-0.0310298 0.0267146 0)
(-0.0350717 0.0275923 0)
(-0.0391949 0.028259 0)
(-0.0433731 0.0287204 0)
(-0.0475809 0.0289823 0)
(-0.0517931 0.02905 0)
(-0.0559855 0.0289284 0)
(-0.0601342 0.0286218 0)
(-0.0642154 0.0281335 0)
(-0.0682061 0.0274666 0)
(-0.0720831 0.0266236 0)
(-0.0758236 0.0256065 0)
(-0.0794053 0.0244177 0)
(-0.0828058 0.0230595 0)
(-0.0860032 0.0215349 0)
(-0.0889762 0.0198476 0)
(-0.0917039 0.0180025 0)
(-0.094166 0.0160055 0)
(-0.0963433 0.0138642 0)
(-0.0982175 0.011588 0)
(-0.0997715 0.00918781 0)
(-0.10099 0.00667685 0)
(-0.101858 0.00407024 0)
(-0.102365 0.00138518 0)
(-0.1025 -0.00135904 0)
(-0.102256 -0.00414115 0)
(-0.101627 -0.00693801 0)
(-0.100613 -0.00972477 0)
(-0.0992127 -0.0124751 0)
(-0.0974314 -0.0151616 0)
(-0.0952765 -0.0177557 0)
(-0.0927591 -0.0202286 0)
(-0.089894 -0.0225515 0)
(-0.0866998 -0.0246957 0)
(-0.0831987 -0.0266336 0)
(-0.0794166 -0.028339 0)
(-0.0753832 -0.0297878 0)
(-0.0711313 -0.0309582 0)
(-0.0666971 -0.0318316 0)
(-0.0621193 -0.0323932 0)
(-0.0574391 -0.0326321 0)
(-0.0526997 -0.0325419 0)
(-0.0479455 -0.0321216 0)
(-0.0432215 -0.031375 0)
(-0.0385726 -0.030312 0)
(-0.0340431 -0.0289478 0)
(-0.0296757 -0.0273037 0)
(-0.0255107 -0.0254069 0)
(-0.0215854 -0.0232902 0)
(-0.0179331 -0.0209924 0)
(-0.0145829 -0.0185574 0)
(-0.0115584 -0.0160346 0)
(-0.00887787 -0.0134784 0)
(-0.00655355 -0.010948 0)
(-0.00459145 -0.00850715 0)
(-0.00299142 -0.00622382 0)
(-0.00174645 -0.00417019 0)
(-0.00084228 -0.00242208 0)
(-0.000268932 -0.0010585 0)
(-3.23472e-05 -0.000164809 0)
(-9.43929e-05 0.00154033 0)
(-0.000632382 0.00474627 0)
(-0.0017976 0.00797384 0)
(-0.00347066 0.0111437 0)
(-0.00558208 0.0141956 0)
(-0.00808949 0.017083 0)
(-0.0109503 0.0197707 0)
(-0.0141232 0.0222341 0)
(-0.0175693 0.0244571 0)
(-0.0212525 0.0264305 0)
(-0.0251383 0.0281506 0)
(-0.0291943 0.0296177 0)
(-0.0333894 0.0308351 0)
(-0.0376941 0.031808 0)
(-0.0420802 0.0325426 0)
(-0.0465202 0.0330455 0)
(-0.0509879 0.0333232 0)
(-0.0554575 0.0333817 0)
(-0.0599041 0.0332264 0)
(-0.0643029 0.032862 0)
(-0.06863 0.0322922 0)
(-0.0728613 0.0315202 0)
(-0.0769732 0.0305488 0)
(-0.0809424 0.0293805 0)
(-0.0847458 0.0280177 0)
(-0.0883603 0.0264631 0)
(-0.0917635 0.02472 0)
(-0.0949331 0.0227928 0)
(-0.0978477 0.0206867 0)
(-0.100486 0.0184086 0)
(-0.102828 0.015967 0)
(-0.104855 0.0133723 0)
(-0.106548 0.0106369 0)
(-0.107891 0.00777537 0)
(-0.108869 0.0048047 0)
(-0.109468 0.00174408 0)
(-0.109678 -0.00138495 0)
(-0.109491 -0.00455866 0)
(-0.108899 -0.00775118 0)
(-0.107899 -0.0109347 0)
(-0.106492 -0.0140798 0)
(-0.104681 -0.0171555 0)
(-0.102471 -0.0201299 0)
(-0.0998742 -0.0229704 0)
(-0.0969035 -0.0256444 0)
(-0.0935774 -0.0281195 0)
(-0.0899178 -0.0303641 0)
(-0.0859509 -0.0323483 0)
(-0.0817065 -0.0340443 0)
(-0.0772183 -0.0354269 0)
(-0.0725235 -0.0364744 0)
(-0.0676625 -0.0371691 0)
(-0.0626784 -0.0374979 0)
(-0.0576166 -0.0374527 0)
(-0.0525243 -0.0370311 0)
(-0.0474495 -0.0362368 0)
(-0.0424407 -0.0350797 0)
(-0.0375456 -0.0335762 0)
(-0.032811 -0.0317493 0)
(-0.0282811 -0.0296291 0)
(-0.0239974 -0.0272516 0)
(-0.0199975 -0.0246599 0)
(-0.0163143 -0.0219027 0)
(-0.0129758 -0.0190348 0)
(-0.0100039 -0.0161166 0)
(-0.00741468 -0.0132134 0)
(-0.0052175 -0.0103952 0)
(-0.00341548 -0.00773644 0)
(-0.00200445 -0.00531538 0)
(-0.000972418 -0.00321349 0)
(-0.000312956 -0.00151471 0)
(-3.83682e-05 -0.000308409 0)
(-0.000102728 0.00187401 0)
(-0.00068597 0.00568213 0)
(-0.0019464 0.00945163 0)
(-0.00375222 0.0131076 0)
(-0.006026 0.0165938 0)
(-0.00872011 0.0198673 0)
(-0.0117872 0.0228963 0)
(-0.0151815 0.0256591 0)
(-0.0188608 0.0281423 0)
(-0.0227857 0.0303393 0)
(-0.0269194 0.0322483 0)
(-0.0312274 0.0338717 0)
(-0.035677 0.0352145 0)
(-0.0402374 0.0362831 0)
(-0.0448792 0.0370851 0)
(-0.0495742 0.0376281 0)
(-0.0542952 0.0379196 0)
(-0.0590159 0.0379661 0)
(-0.0637109 0.0377738 0)
(-0.0683548 0.0373477 0)
(-0.0729232 0.0366919 0)
(-0.0773916 0.0358099 0)
(-0.0817359 0.0347047 0)
(-0.0859323 0.0333791 0)
(-0.0899571 0.0318355 0)
(-0.0937868 0.0300772 0)
(-0.0973982 0.0281078 0)
(-0.100769 0.0259319 0)
(-0.103876 0.0235555 0)
(-0.106698 0.0209861 0)
(-0.109213 0.018233 0)
(-0.111403 0.0153078 0)
(-0.113247 0.012224 0)
(-0.114729 0.00899781 0)
(-0.115831 0.00564782 0)
(-0.11654 0.00219519 0)
(-0.116843 -0.00133637 0)
(-0.11673 -0.00492066 0)
(-0.116194 -0.00852911 0)
(-0.115229 -0.012131 0)
(-0.113835 -0.0156935 0)
(-0.112013 -0.0191825 0)
(-0.109768 -0.0225622 0)
(-0.107109 -0.0257963 0)
(-0.10405 -0.0288482 0)
(-0.100608 -0.0316813 0)
(-0.0968038 -0.03426 0)
(-0.0926639 -0.0365503 0)
(-0.0882183 -0.0385203 0)
(-0.083501 -0.0401411 0)
(-0.0785503 -0.0413875 0)
(-0.0734079 -0.0422384 0)
(-0.0681189 -0.042678 0)
(-0.062731 -0.0426961 0)
(-0.0572942 -0.0422888 0)
(-0.0518598 -0.0414588 0)
(-0.0464799 -0.0402159 0)
(-0.0412063 -0.0385775 0)
(-0.0360899 -0.0365683 0)
(-0.0311795 -0.0342205 0)
(-0.026521 -0.0315739 0)
(-0.0221567 -0.0286755 0)
(-0.0181243 -0.025579 0)
(-0.014456 -0.0223449 0)
(-0.0111783 -0.0190394 0)
(-0.0083111 -0.0157344 0)
(-0.00586771 -0.0125065 0)
(-0.00385465 -0.00943674 0)
(-0.00227069 -0.00660992 0)
(-0.00110611 -0.00411352 0)
(-0.000357876 -0.00203694 0)
(-4.44144e-05 -0.000474144 0)
(-0.000110704 0.00223437 0)
(-0.000737317 0.00669072 0)
(-0.00208911 0.0110413 0)
(-0.00402247 0.015216 0)
(-0.00645243 0.0191634 0)
(-0.00932637 0.0228447 0)
(-0.0125923 0.0262321 0)
(-0.0162004 0.0293076 0)
(-0.0201049 0.0320612 0)
(-0.0242636 0.0344891 0)
(-0.0286373 0.0365922 0)
(-0.0331893 0.0383753 0)
(-0.0378857 0.0398451 0)
(-0.0426941 0.0410102 0)
(-0.0475841 0.0418793 0)
(-0.0525269 0.0424614 0)
(-0.0574945 0.0427649 0)
(-0.0624601 0.0427974 0)
(-0.0673977 0.0425653 0)
(-0.0722817 0.0420743 0)
(-0.0770873 0.0413289 0)
(-0.0817895 0.0403329 0)
(-0.0863641 0.0390896 0)
(-0.0907867 0.0376017 0)
(-0.0950332 0.0358722 0)
(-0.0990798 0.0339043 0)