/*--------------------------------*- C++ -*----------------------------------*\
  =========                 |
  \\      /  F ield         | OpenFOAM: The Open Source CFD Toolbox
   \\    /   O peration     | Website:  https://openfoam.org
    \\  /    A nd           | Version:  dev
     \\/     M anipulation  |
\*---------------------------------------------------------------------------*/
FoamFile
{
    format      ascii;
    class       volScalarField;
    location    "36";
    object      Ux;
}
// * * * * * * * * * * * * * * * * * * * * * * * * * * * * * * * * * * * * * //

dimensions      [0 1 -1 0 0 0 0];

internalField   nonuniform List<scalar> 
5184
(
1.23248e-05
4.51714e-05
8.03475e-05
9.60176e-05
8.2195e-05
3.6499e-05
-4.05226e-05
-0.00014685
-0.00027969
-0.000435985
-0.000612615
-0.000806545
-0.00101491
-0.00123504
-0.00146447
-0.00170095
-0.00194241
-0.00218693
-0.00243272
-0.0026781
-0.00292147
-0.00316127
-0.00339596
-0.00362402
-0.00384392
-0.00405412
-0.00425307
-0.00443919
-0.00461091
-0.00476664
-0.00490482
-0.00502393
-0.00512251
-0.00519918
-0.00525269
-0.0052819
-0.00528589
-0.00526392
-0.0052155
-0.00514038
-0.00503865
-0.00491066
-0.00475713
-0.00457911
-0.00437801
-0.00415558
-0.00391391
-0.00365543
-0.00338288
-0.00309925
-0.00280779
-0.00251192
-0.0022152
-0.00192131
-0.0016339
-0.00135663
-0.00109303
-0.000846469
-0.000620098
-0.000416767
-0.000238974
-8.87978e-05
3.21736e-05
0.000122926
0.000183129
0.000213286
0.000214984
0.000191274
0.000147186
9.0815e-05
3.6632e-05
6.22632e-06
2.08499e-05
6.56421e-05
9.47563e-05
7.28673e-05
-1.88674e-05
-0.000187265
-0.000432911
-0.000752587
-0.00114075
-0.00159061
-0.00209483
-0.00264595
-0.00323666
-0.00385998
-0.00450929
-0.00517841
-0.00586151
-0.00655317
-0.00724824
-0.00794184
-0.00862927
-0.00930598
-0.00996748
-0.0106094
-0.0112272
-0.0118166
-0.0123732
-0.0128925
-0.0133702
-0.0138018
-0.0141832
-0.0145103
-0.0147792
-0.0149862
-0.015128
-0.0152019
-0.0152054
-0.0151369
-0.0149951
-0.0147796
-0.0144909
-0.0141303
-0.0136997
-0.0132023
-0.012642
-0.0120237
-0.0113531
-0.0106368
-0.00988227
-0.00909757
-0.00829139
-0.00747294
-0.00665173
-0.00583751
-0.00504006
-0.00426906
-0.00353388
-0.00284344
-0.00220604
-0.00162914
-0.00111923
-0.000681596
-0.000320161
-3.72066e-05
0.000166901
0.000294086
0.000349099
0.000340215
0.000279928
0.000186094
8.63863e-05
1.9683e-05
1.76419e-05
4.13525e-05
1.96375e-05
-8.39567e-05
-0.00029022
-0.000607903
-0.00103827
-0.00157751
-0.00221845
-0.0029519
-0.00376759
-0.0046548
-0.00560281
-0.00660116
-0.00763979
-0.00870914
-0.00980011
-0.0109041
-0.0120129
-0.0131187
-0.0142139
-0.0152912
-0.0163432
-0.0173628
-0.018343
-0.0192767
-0.020157
-0.0209767
-0.0217291
-0.0224074
-0.023005
-0.0235156
-0.0239333
-0.0242526
-0.0244686
-0.0245772
-0.0245748
-0.024459
-0.0242283
-0.0238823
-0.0234219
-0.0228493
-0.0221679
-0.0213825
-0.0204994
-0.0195262
-0.0184719
-0.0173466
-0.0161618
-0.0149299
-0.0136642
-0.0123788
-0.0110882
-0.00980713
-0.00855064
-0.00733337
-0.00616959
-0.00507282
-0.0040556
-0.00312921
-0.00230339
-0.00158604
-0.000982879
-0.000497153
-0.000129167
0.000124148
0.000269891
0.000319916
0.00029136
0.000207457
0.000102478
2.49823e-05
8.84424e-06
-6.99459e-06
-0.000107559
-0.00032235
-0.000669616
-0.00115776
-0.00178754
-0.00255419
-0.00344916
-0.00446141
-0.00557847
-0.00678713
-0.00807399
-0.00942577
-0.0108296
-0.012273
-0.0137441
-0.0152314
-0.0167242
-0.0182117
-0.0196837
-0.0211304
-0.0225419
-0.0239086
-0.025221
-0.0264695
-0.0276448
-0.0287377
-0.029739
-0.0306399
-0.0314317
-0.0321064
-0.0326561
-0.033074
-0.0333538
-0.0334903
-0.0334791
-0.0333174
-0.0330033
-0.0325368
-0.0319191
-0.0311533
-0.0302441
-0.0291981
-0.0280234
-0.0267301
-0.02533
-0.0238363
-0.0222638
-0.0206287
-0.0189483
-0.0172406
-0.0155244
-0.0138189
-0.0121434
-0.0105167
-0.00895722
-0.0074824
-0.00610837
-0.00484964
-0.0037187
-0.00272566
-0.00187784
-0.00117939
-0.000630759
-0.000228248
3.66209e-05
0.000177749
0.00021487
0.000174155
9.3057e-05
2.40341e-05
-2.12222e-06
-6.72855e-05
-0.00026411
-0.000609795
-0.00111684
-0.00179146
-0.00263266
-0.00363406
-0.00478555
-0.00607439
-0.00748625
-0.00900586
-0.0106176
-0.012306
-0.0140557
-0.0158519
-0.0176801
-0.0195267
-0.0213781
-0.0232215
-0.0250442
-0.026834
-0.0285787
-0.0302664
-0.0318854
-0.0334239
-0.0348705
-0.036214
-0.0374431
-0.0385471
-0.0395157
-0.0403392
-0.0410083
-0.0415148
-0.0418514
-0.0420119
-0.0419915
-0.0417868
-0.0413959
-0.040819
-0.0400579
-0.0391163
-0.0380003
-0.0367176
-0.0352784
-0.0336948
-0.0319809
-0.0301526
-0.0282278
-0.0262255
-0.0241665
-0.0220725
-0.0199657
-0.017869
-0.0158055
-0.0137975
-0.0118672
-0.0100352
-0.00832082
-0.00674143
-0.00531195
-0.00404452
-0.002948
-0.00202753
-0.00128406
-0.000713818
-0.000307806
-5.12514e-05
7.67275e-05
0.000103644
6.75309e-05
1.96715e-05
-1.36944e-05
-0.00013284
-0.000435855
-0.000924717
-0.00160406
-0.00247644
-0.00353803
-0.00478012
-0.00619061
-0.007755
-0.00945714
-0.01128
-0.013206
-0.0152177
-0.0172977
-0.0194293
-0.0215958
-0.0237814
-0.0259705
-0.0281481
-0.0302994
-0.03241
-0.0344658
-0.0364527
-0.038357
-0.0401651
-0.0418636
-0.0434392
-0.0448793
-0.0461713
-0.0473034
-0.0482644
-0.0490439
-0.0496326
-0.050022
-0.0502055
-0.0501775
-0.0499345
-0.0494746
-0.048798
-0.0479069
-0.046806
-0.045502
-0.0440043
-0.0423243
-0.0404759
-0.0384752
-0.0363406
-0.0340922
-0.0317521
-0.0293436
-0.0268915
-0.0244213
-0.021959
-0.0195308
-0.0171625
-0.0148792
-0.0127045
-0.0106608
-0.00876781
-0.00704286
-0.00550004
-0.00414983
-0.00299858
-0.00204807
-0.00129503
-0.000730675
-0.000340274
-0.000102865
9.19543e-06
3.25165e-05
1.36257e-05
-2.51872e-05
-0.000200029
-0.000614139
-0.00125304
-0.00211226
-0.00318965
-0.00447764
-0.00596452
-0.00763578
-0.00947488
-0.0114638
-0.0135838
-0.0158156
-0.0181399
-0.0205377
-0.0229904
-0.0254795
-0.0279874
-0.0304967
-0.0329903
-0.0354518
-0.0378648
-0.0402133
-0.0424815
-0.0446537
-0.0467148
-0.0486495
-0.0504431
-0.0520812
-0.0535498
-0.0548359
-0.0559268
-0.0568112
-0.0574785
-0.0579199
-0.0581277
-0.0580961
-0.0578212
-0.057301
-0.0565358
-0.0555283
-0.0542837
-0.0528095
-0.051116
-0.049216
-0.0471249
-0.0448605
-0.0424431
-0.039895
-0.0372404
-0.0345054
-0.0317172
-0.0289042
-0.0260953
-0.0233194
-0.0206053
-0.017981
-0.015473
-0.013106
-0.0109026
-0.0088822
-0.00706099
-0.0054512
-0.00406066
-0.00289238
-0.00194407
-0.00120777
-0.000669551
-0.000309185
-9.98338e-05
-7.70081e-06
6.864e-06
-3.6343e-05
-0.000266968
-0.000793836
-0.00158581
-0.00262874
-0.00391505
-0.00543279
-0.00716666
-0.00909933
-0.0112119
-0.0134845
-0.0158965
-0.018427
-0.0210551
-0.0237602
-0.0265221
-0.0293209
-0.0321371
-0.0349519
-0.0377465
-0.0405029
-0.0432029
-0.0458291
-0.048364
-0.0507903
-0.0530913
-0.0552503
-0.057251
-0.0590776
-0.0607151
-0.0621489
-0.0633654
-0.0643522
-0.065098
-0.0655929
-0.0658289
-0.0657995
-0.0655006
-0.0649301
-0.0640882
-0.062978
-0.0616049
-0.0599771
-0.0581056
-0.0560044
-0.05369
-0.0511816
-0.0485011
-0.0456726
-0.0427225
-0.0396788
-0.0365713
-0.0334307
-0.0302885
-0.0271765
-0.024126
-0.0211677
-0.0183308
-0.0156429
-0.0131288
-0.0108103
-0.00870591
-0.00682972
-0.00519138
-0.0037955
-0.00264124
-0.00172201
-0.00102524
-0.000532088
-0.000217202
-5.04529e-05
-8.20935e-08
-4.70652e-05
-0.000332674
-0.000971947
-0.00191742
-0.00314509
-0.00464159
-0.0063901
-0.00837134
-0.0105648
-0.012949
-0.015502
-0.0182011
-0.021024
-0.0239483
-0.0269518
-0.0300129
-0.0331103
-0.0362232
-0.0393312
-0.0424143
-0.045453
-0.0484277
-0.0513194
-0.0541093
-0.0567789
-0.0593098
-0.0616841
-0.0638843
-0.0658934
-0.0676949
-0.0692734
-0.0706142
-0.0717039
-0.0725303
-0.073083
-0.0733531
-0.0733339
-0.0730205
-0.0724109
-0.0715051
-0.0703061
-0.0688196
-0.0670543
-0.0650216
-0.0627363
-0.0602158
-0.0574805
-0.0545536
-0.0514608
-0.0482301
-0.0448916
-0.041477
-0.0380196
-0.0345531
-0.0311117
-0.0277297
-0.0244403
-0.0212754
-0.0182652
-0.0154371
-0.0128156
-0.0104214
-0.00827101
-0.00637609
-0.00474323
-0.00337347
-0.00226203
-0.00139819
-0.000764997
-0.000339003
-9.41805e-05
-6.94238e-06
-5.7342e-05
-0.000396664
-0.00114674
-0.00224435
-0.00365575
-0.00536161
-0.00733999
-0.00956733
-0.0120197
-0.0146728
-0.0175024
-0.0204839
-0.0235934
-0.0268068
-0.0301008
-0.0334523
-0.0368389
-0.0402386
-0.0436296
-0.0469909
-0.0503014
-0.0535407
-0.0566884
-0.0597244
-0.062629
-0.0653826
-0.0679662
-0.0703611
-0.0725491
-0.0745128
-0.0762357
-0.0777021
-0.0788977
-0.0798096
-0.0804265
-0.0807389
-0.0807394
-0.0804228
-0.0797865
-0.0788303
-0.0775571
-0.0759726
-0.0740856
-0.0719078
-0.0694544
-0.0667436
-0.0637966
-0.0606377
-0.0572938
-0.0537946
-0.0501718
-0.0464591
-0.0426918
-0.0389061
-0.0351387
-0.0314263
-0.027805
-0.0243095
-0.0209726
-0.0178248
-0.0148931
-0.0122009
-0.0097673
-0.00760641
-0.00572718
-0.00413289
-0.00282098
-0.00178295
-0.00100404
-0.000463022
-0.000138066
-1.36011e-05
-6.71908e-05
-0.000458712
-0.0013172
-0.00256437
-0.004157
-0.00606977
-0.00827552
-0.0107462
-0.0134544
-0.0163728
-0.0194746
-0.0227335
-0.0261237
-0.0296197
-0.0331969
-0.0368312
-0.0404987
-0.0441766
-0.047842
-0.0514726
-0.0550467
-0.0585424
-0.0619385
-0.0652138
-0.0683475
-0.071319
-0.0741083
-0.0766955
-0.0790615
-0.081188
-0.0830574
-0.0846532
-0.0859602
-0.0869646
-0.0876543
-0.088019
-0.0880507
-0.0877435
-0.0870943
-0.0861024
-0.0847704
-0.0831036
-0.0811107
-0.0788036
-0.0761976
-0.0733113
-0.0701665
-0.0667883
-0.0632048
-0.0594467
-0.0555476
-0.0515429
-0.0474699
-0.0433671
-0.0392738
-0.0352292
-0.0312723
-0.0274407
-0.0237703
-0.0202944
-0.0170433
-0.0140432
-0.0113162
-0.00887911
-0.00674371
-0.00491586
-0.00339555
-0.00217682
-0.00124737
-0.000588245
-0.000181782
-2.00318e-05
-7.66357e-05
-0.000518712
-0.00148273
-0.00287604
-0.00464628
-0.00676226
-0.00919158
-0.0119017
-0.0148614
-0.0180405
-0.0214096
-0.0249404
-0.0286053
-0.0323775
-0.0362311
-0.0401408
-0.0440819
-0.0480304
-0.0519626
-0.0558554
-0.059686
-0.0634317
-0.0670705
-0.0705801
-0.073939
-0.0771256
-0.0801188
-0.0828981
-0.0854435
-0.0877355
-0.0897557
-0.0914869
-0.0929127
-0.0940186
-0.0947916
-0.0952205
-0.0952965
-0.095013
-0.0943659
-0.0933542
-0.0919795
-0.0902468
-0.0881644
-0.085744
-0.0830007
-0.0799532
-0.0766238
-0.073038
-0.0692248
-0.0652162
-0.061047
-0.0567544
-0.0523776
-0.0479575
-0.0435359
-0.0391547
-0.034856
-0.0306804
-0.0266672
-0.0228529
-0.0192712
-0.0159516
-0.0129195
-0.010195
-0.00779292
-0.00572201
-0.00398519
-0.00257929
-0.0014946
-0.000714515
-0.000225331
-2.6261e-05
-8.5698e-05
-0.000576615
-0.00164296
-0.00317839
-0.00512178
-0.00743624
-0.0100842
-0.0130287
-0.0162347
-0.019669
-0.0232997
-0.0270964
-0.0310298
-0.0350717
-0.0391949
-0.0433731
-0.0475809
-0.0517931
-0.0559855
-0.0601342
-0.0642154
-0.0682061
-0.0720831
-0.0758236
-0.0794053
-0.0828058
-0.0860032
-0.0889762
-0.0917039
-0.094166
-0.0963433
-0.0982175
-0.0997715
-0.10099
-0.101858
-0.102365
-0.1025
-0.102256
-0.101627
-0.100613
-0.0992127
-0.0974314
-0.0952765
-0.0927591
-0.089894
-0.0866998
-0.0831987
-0.0794166
-0.0753832
-0.0711313
-0.0666971
-0.0621193
-0.0574391
-0.0526997
-0.0479455
-0.0432215
-0.0385726
-0.0340431
-0.0296757
-0.0255107
-0.0215854
-0.0179331
-0.0145829
-0.0115584
-0.00887787
-0.00655355
-0.00459145
-0.00299142
-0.00174645
-0.00084228
-0.000268932
-3.23472e-05
-9.43929e-05
-0.000632382
-0.0017976
-0.00347066
-0.00558208
-0.00808949
-0.0109503
-0.0141232
-0.0175693
-0.0212525
-0.0251383
-0.0291943
-0.0333894
-0.0376941
-0.0420802
-0.0465202
-0.0509879
-0.0554575
-0.0599041
-0.0643029
-0.06863
-0.0728613
-0.0769732
-0.0809424
-0.0847458
-0.0883603
-0.0917635
-0.0949331
-0.0978477
-0.100486
-0.102828
-0.104855
-0.106548
-0.107891
-0.108869
-0.109468
-0.109678
-0.109491
-0.108899
-0.107899
-0.106492
-0.104681
-0.102471
-0.0998742
-0.0969035
-0.0935774
-0.0899178
-0.0859509
-0.0817065
-0.0772183
-0.0725235
-0.0676625
-0.0626784
-0.0576166
-0.0525243
-0.0474495
-0.0424407
-0.0375456
-0.032811
-0.0282811
-0.0239974
-0.0199975
-0.0163143
-0.0129758
-0.0100039
-0.00741468
-0.0052175
-0.00341548
-0.00200445
-0.000972418
-0.000312956
-3.83682e-05
-0.000102728
-0.00068597
-0.0019464
-0.00375222
-0.006026
-0.00872011
-0.0117872
-0.0151815
-0.0188608
-0.0227857
-0.0269194
-0.0312274
-0.035677
-0.0402374
-0.0448792
-0.0495742
-0.0542952
-0.0590159
-0.0637109
-0.0683548
-0.0729232
-0.0773916
-0.0817359
-0.0859323
-0.0899571
-0.0937868
-0.0973982
-0.100769
-0.103876
-0.106698
-0.109213
-0.111403
-0.113247
-0.114729
-0.115831
-0.11654
-0.116843
-0.11673
-0.116194
-0.115229
-0.113835
-0.112013
-0.109768
-0.107109
-0.10405
-0.100608
-0.0968038
-0.0926639
-0.0882183
-0.083501
-0.0785503
-0.0734079
-0.0681189
-0.062731
-0.0572942
-0.0518598
-0.0464799
-0.0412063
-0.0360899
-0.0311795
-0.026521
-0.0221567
-0.0181243
-0.014456
-0.0111783
-0.0083111
-0.00586771
-0.00385465
-0.00227069
-0.00110611
-0.000357876
-4.44144e-05
-0.000110704
-0.000737317
-0.00208911
-0.00402247
-0.00645243
-0.00932637
-0.0125923
-0.0162004
-0.0201049
-0.0242636
-0.0286373
-0.0331893
-0.0378857
-0.0426941
-0.0475841
-0.0525269
-0.0574945
-0.0624601
-0.0673977
-0.0722817
-0.0770873
-0.0817895
-0.0863641
-0.0907867
-0.0950332
-0.0990798
-0.102903
-0.106479
-0.109785
-0.112799
-0.115498
-0.117862
-0.119871
-0.121505
-0.122748
-0.123584
-0.123998
-0.12398
-0.123519
-0.12261
-0.12125
-0.119438
-0.117178
-0.114478
-0.111349
-0.107807
-0.103874
-0.0995745
-0.0949383
-0.09
-0.0847986
-0.0793771
-0.0737825
-0.0680648
-0.0622769
-0.0564736
-0.0507107
-0.0450446
-0.0395306
-0.0342225
-0.0291713
-0.0244244
-0.0200246
-0.0160093
-0.0124094
-0.00924968
-0.00654736
-0.00431274
-0.00254769
-0.00124475
-0.000404234
-5.05833e-05
-0.000118315
-0.000786342
-0.00222543
-0.00428077
-0.00686026
-0.00990656
-0.0133633
-0.0171768
-0.0212979
-0.0256817
-0.0302865
-0.035074
-0.0400085
-0.0450567
-0.050187
-0.0553699
-0.060577
-0.0657809
-0.0709553
-0.0760744
-0.0811129
-0.0860459
-0.0908486
-0.0954966
-0.0999655
-0.104231
-0.108269
-0.112056
-0.115568
-0.118782
-0.121675
-0.124225
-0.126412
-0.128215
-0.129616
-0.130597
-0.131142
-0.131239
-0.130876
-0.130045
-0.128741
-0.126961
-0.124708
-0.121987
-0.118809
-0.115187
-0.111141
-0.106697
-0.101882
-0.0967321
-0.0912864
-0.0855892
-0.0796889
-0.0736383
-0.0674929
-0.0613113
-0.0551534
-0.0490801
-0.0431519
-0.0374279
-0.0319647
-0.0268154
-0.0220285
-0.0176469
-0.0137069
-0.0102381
-0.00726239
-0.00479405
-0.00283825
-0.00138988
-0.00045262
-5.69774e-05
-0.000125546
-0.000832939
-0.00235504
-0.00452646
-0.00724836
-0.010459
-0.0140979
-0.0181076
-0.0224359
-0.0270352
-0.0318617
-0.0368752
-0.0420387
-0.0473176
-0.0526797
-0.0580946
-0.0635335
-0.0689687
-0.0743737
-0.0797223
-0.0849893
-0.0901495
-0.0951782
-0.100051
-0.104742
-0.109229
-0.113485
-0.117488
-0.121213
-0.124635
-0.127733
-0.130482
-0.132862
-0.134849
-0.136425
-0.137569
-0.138266
-0.1385
-0.138257
-0.137527
-0.136303
-0.13458
-0.132357
-0.129638
-0.126432
-0.12275
-0.118611
-0.114038
-0.109059
-0.103709
-0.0980276
-0.0920596
-0.0858553
-0.0794696
-0.0729613
-0.0663925
-0.0598276
-0.0533323
-0.0469727
-0.0408137
-0.0349181
-0.0293452
-0.0241498
-0.0193809
-0.0150809
-0.0112847
-0.00801922
-0.00530323
-0.00314541
-0.00154316
-0.000503653
-6.37017e-05
-0.000132382
-0.000876983
-0.00247756
-0.0047588
-0.00761554
-0.0109819
-0.0147936
-0.0189897
-0.0235151
-0.0283195
-0.0333574
-0.0385867
-0.0439691
-0.049469
-0.0550535
-0.0606916
-0.066354
-0.0720129
-0.0776415
-0.0832137
-0.0887041
-0.0940876
-0.0993394
-0.104435
-0.109349
-0.114058
-0.118536
-0.122759
-0.126704
-0.130344
-0.133656
-0.136616
-0.139202
-0.141389
-0.143158
-0.144486
-0.145355
-0.145747
-0.145648
-0.145043
-0.143924
-0.142282
-0.140115
-0.137424
-0.134214
-0.130495
-0.126284
-0.121601
-0.116475
-0.110938
-0.105031
-0.0987995
-0.0922947
-0.0855737
-0.0786984
-0.0717346
-0.0647513
-0.0578196
-0.0510113
-0.0443977
-0.0380483
-0.0320294
-0.0264026
-0.0212238
-0.0165419
-0.012398
-0.00882458
-0.00584513
-0.00347232
-0.0017063
-0.000557975
-7.08627e-05
-0.000138799
-0.000918329
-0.00259261
-0.00497701
-0.00796054
-0.0114735
-0.015448
-0.01982
-0.0245314
-0.02953
-0.034768
-0.0402021
-0.0457925
-0.051503
-0.0572996
-0.0631512
-0.069028
-0.0749022
-0.0807467
-0.0865357
-0.0922436
-0.0978457
-0.103317
-0.108633
-0.113769
-0.118701
-0.123403
-0.127851
-0.13202
-0.135886
-0.139422
-0.142605
-0.14541
-0.147813
-0.149792
-0.151322
-0.152385
-0.152958
-0.153026
-0.152572
-0.151583
-0.15005
-0.147965
-0.145328
-0.14214
-0.13841
-0.13415
-0.12938
-0.124126
-0.118419
-0.1123
-0.105815
-0.0990158
-0.0919616
-0.0847173
-0.0773525
-0.0699409
-0.062559
-0.0552851
-0.0481971
-0.041372
-0.0348836
-0.0288012
-0.0231882
-0.0181009
-0.0135871
-0.00968537
-0.00642475
-0.00382225
-0.00188107
-0.000616242
-7.85682e-05
-0.000144772
-0.000956819
-0.00269973
-0.00518027
-0.00828206
-0.0119319
-0.0160586
-0.0205951
-0.025481
-0.0306618
-0.036088
-0.0417149
-0.0475016
-0.053411
-0.0594088
-0.0654632
-0.0715444
-0.0776243
-0.0836761
-0.0896739
-0.0955926
-0.101407
-0.107093
-0.112627
-0.117983
-0.123137
-0.128064
-0.13274
-0.137139
-0.141236
-0.145005
-0.148421
-0.151458
-0.154092
-0.156296
-0.158048
-0.159324
-0.160102
-0.160361
-0.160083
-0.159252
-0.157854
-0.155881
-0.153326
-0.150189
-0.146475
-0.142193
-0.137361
-0.132001
-0.126145
-0.119832
-0.113106
-0.106022
-0.0986396
-0.091027
-0.0832574
-0.0754094
-0.0675652
-0.0598095
-0.0522278
-0.0449049
-0.0379229
-0.0313596
-0.0252868
-0.0197687
-0.0148608
-0.0106086
-0.00704719
-0.00419851
-0.00206927
-0.000679118
-8.69265e-05
-0.000150274
-0.000992282
-0.00279846
-0.00536772
-0.00857873
-0.0123551
-0.0166227
-0.0213119
-0.0263598
-0.03171
-0.0373116
-0.0431185
-0.0490889
-0.0551848
-0.0613716
-0.0676171
-0.0738914
-0.0801665
-0.0864157
-0.0926133
-0.0987344
-0.104755
-0.11065
-0.116395
-0.121968
-0.127342
-0.132494
-0.137399
-0.14203
-0.146364
-0.150372
-0.15403
-0.157311
-0.160188
-0.162636
-0.164627
-0.166136
-0.16714
-0.167614
-0.167538
-0.166891
-0.165659
-0.163826
-0.161384
-0.158329
-0.154661
-0.150387
-0.145521
-0.140083
-0.134102
-0.127614
-0.120665
-0.113309
-0.105608
-0.0976316
-0.0894566
-0.0811667
-0.0728498
-0.0645978
-0.056504
-0.0486615
-0.0411616
-0.0340913
-0.0275317
-0.0215559
-0.016228
-0.0116013
-0.00771754
-0.00460443
-0.00227269
-0.00074727
-9.60465e-05
-0.000155273
-0.00102454
-0.00288835
-0.00553849
-0.00884922
-0.0127413
-0.017138
-0.021967
-0.0271638
-0.0326699
-0.0384332
-0.0444063
-0.0505466
-0.0568157
-0.0631782
-0.069602
-0.076057
-0.0825155
-0.0889508
-0.0953377
-0.101652
-0.107868
-0.113965
-0.119916
-0.125699
-0.13129
-0.136665
-0.141797
-0.146663
-0.151236
-0.155489
-0.159396
-0.16293
-0.166062
-0.168765
-0.171012
-0.172774
-0.174024
-0.174737
-0.174888
-0.174455
-0.173416
-0.171755
-0.169459
-0.166518
-0.16293
-0.158697
-0.153828
-0.148342
-0.142263
-0.135627
-0.128478
-0.120868
-0.112861
-0.104529
-0.095952
-0.087218
-0.0784212
-0.0696605
-0.0610375
-0.0526545
-0.0446126
-0.0370088
-0.0299345
-0.023473
-0.0176975
-0.0126702
-0.00844086
-0.00504332
-0.00249315
-0.000821371
-0.000106038
-0.000159741
-0.00105343
-0.00296893
-0.00569172
-0.00909219
-0.0130886
-0.0176018
-0.0225575
-0.0278891
-0.0335368
-0.0394472
-0.0455718
-0.0518674
-0.058295
-0.0648189
-0.0714068
-0.0780289
-0.0846574
-0.0912661
-0.0978302
-0.104325
-0.110728
-0.117016
-0.123165
-0.129152
-0.134953
-0.140545
-0.145903
-0.151001
-0.155813
-0.160314
-0.164475
-0.168268
-0.171665
-0.174636
-0.177153
-0.179184
-0.180701
-0.181675
-0.182079
-0.181885
-0.18107
-0.179613
-0.177495
-0.174704
-0.171231
-0.167074
-0.162239
-0.156739
-0.150597
-0.143843
-0.13652
-0.128679
-0.120385
-0.111711
-0.10274
-0.0935635
-0.084283
-0.0750042
-0.0658373
-0.0568945
-0.0482871
-0.0401235
-0.0325062
-0.0255296
-0.0192776
-0.0138223
-0.00922215
-0.0055185
-0.00273245
-0.000902093
-0.000117011
-0.000163648
-0.00107877
-0.00303974
-0.0058266
-0.00930637
-0.0133951
-0.0180118
-0.0230801
-0.0285319
-0.0343062
-0.0403481
-0.0466087
-0.0530439
-0.0596142
-0.0662839
-0.0730206
-0.0797946
-0.0865783
-0.0933461
-0.100073
-0.106737
-0.113313
-0.11978
-0.126116
-0.132296
-0.1383
-0.144102
-0.149679
-0.155005
-0.160056
-0.164803
-0.169219
-0.173277
-0.176945
-0.180193
-0.182991
-0.185306
-0.187108
-0.188364
-0.189044
-0.189117
-0.188555
-0.187333
-0.185429
-0.182823
-0.179503
-0.175463
-0.170701
-0.165226
-0.159057
-0.152221
-0.144756
-0.136715
-0.128158
-0.119161
-0.109808
-0.100197
-0.0904339
-0.0806314
-0.0709091
-0.0613892
-0.0521945
-0.0434453
-0.0352565
-0.0277349
-0.0209764
-0.0150639
-0.0100663
-0.0060332
-0.00299238
-0.000990107
-0.000129079
-0.000166968
-0.00110041
-0.00310039
-0.00594237
-0.00949059
-0.0136594
-0.0183658
-0.0235321
-0.0290888
-0.0349737
-0.041131
-0.0475109
-0.054069
-0.0607652
-0.0675639
-0.0744326
-0.0813418
-0.0882643
-0.0951749
-0.10205
-0.108866
-0.115601
-0.122234
-0.128742
-0.135104
-0.141298
-0.1473
-0.153087
-0.158635
-0.163918
-0.168908
-0.173579
-0.1779
-0.181843
-0.185374
-0.188463
-0.191075
-0.193176
-0.194732
-0.19571
-0.196075
-0.195795
-0.194841
-0.193185
-0.190803
-0.187676
-0.183793
-0.179147
-0.173741
-0.167588
-0.16071
-0.153144
-0.144936
-0.136148
-0.126853
-0.117139
-0.107107
-0.0968667
-0.0865397
-0.0762541
-0.0661431
-0.0563413
-0.0469821
-0.0381939
-0.0300972
-0.0228011
-0.0164013
-0.0109779
-0.00659061
-0.0032747
-0.00108609
-0.000142353
-0.000169675
-0.00111822
-0.00315051
-0.00603838
-0.00964384
-0.0138798
-0.0186618
-0.0239111
-0.0295567
-0.0355356
-0.0417911
-0.0482729
-0.054936
-0.0617403
-0.0686498
-0.0756323
-0.0826585
-0.0897017
-0.0967371
-0.103741
-0.110693
-0.11757
-0.124351
-0.131017
-0.137545
-0.143915
-0.150104
-0.156089
-0.161847
-0.167353
-0.172579
-0.177498
-0.182082
-0.186298
-0.190115
-0.193499
-0.196416
-0.198829
-0.200701
-0.201996
-0.202677
-0.202707
-0.202051
-0.200678
-0.198558
-0.195667
-0.191985
-0.187501
-0.18221
-0.176121
-0.169249
-0.161626
-0.153294
-0.144312
-0.134753
-0.124705
-0.114271
-0.103567
-0.0927206
-0.0818692
-0.0711569
-0.0607313
-0.0507397
-0.0413252
-0.0326235
-0.0247585
-0.0178402
-0.0119616
-0.0071938
-0.00358117
-0.0011907
-0.00015695
-0.000171749
-0.00113207
-0.0031898
-0.00611409
-0.00976528
-0.0140552
-0.0188984
-0.0242149
-0.0299329
-0.0359885
-0.0423244
-0.0488897
-0.0556391
-0.0625323
-0.0695333
-0.07661
-0.0837335
-0.0908774
-0.0980177
-0.105132
-0.112199
-0.119197
-0.126109
-0.132912
-0.139588
-0.146116
-0.152475
-0.158643
-0.164597
-0.170312
-0.175763
-0.180922
-0.18576
-0.190245
-0.194346
-0.198027
-0.201253
-0.203986
-0.206187
-0.207816
-0.208833
-0.209197
-0.20887
-0.207815
-0.205995
-0.203381
-0.199947
-0.195673
-0.19055
-0.184577
-0.177763
-0.170135
-0.161728
-0.152599
-0.142817
-0.13247
-0.121662
-0.110514
-0.0991594
-0.0877453
-0.0764268
-0.0653647
-0.0547211
-0.0446554
-0.0353196
-0.0268545
-0.0193857
-0.0130215
-0.00784572
-0.00391347
-0.0013046
-0.000172986
-0.000173176
-0.00114189
-0.00321808
-0.00616914
-0.00985435
-0.0141848
-0.0190743
-0.024442
-0.0302154
-0.0363299
-0.0427276
-0.0493573
-0.0561733
-0.0631351
-0.070207
-0.0773569
-0.0845562
-0.0917793
-0.0990026
-0.106204
-0.113364
-0.120463
-0.127482
-0.134402
-0.141204
-0.147869
-0.154378
-0.160709
-0.16684
-0.172748
-0.178408
-0.183792
-0.188873
-0.193618
-0.197996
-0.201971
-0.205507
-0.208563
-0.2111
-0.213076
-0.214446
-0.215168
-0.215197
-0.214491
-0.21301
-0.210716
-0.207576
-0.203565
-0.198664
-0.192863
-0.186166
-0.17859
-0.170166
-0.160942
-0.150987
-0.140384
-0.12924
-0.117676
-0.105834
-0.0938676
-0.081944
-0.0702376
-0.0589264
-0.0481871
-0.0381898
-0.0290938
-0.0210427
-0.0141615
-0.00854919
-0.00427326
-0.00142846
-0.000190581
-0.000173947
-0.00114764
-0.00323524
-0.00620335
-0.00991077
-0.0142682
-0.0191889
-0.0245915
-0.0304029
-0.0365579
-0.0429984
-0.0496725
-0.0565345
-0.0635438
-0.0706646
-0.0778653
-0.0851176
-0.0923964
-0.0996788
-0.106944
-0.114173
-0.121347
-0.128448
-0.135459
-0.142363
-0.149141
-0.155775
-0.162246
-0.168532
-0.174611
-0.180459
-0.186051
-0.191357
-0.196349
-0.200992
-0.205253
-0.209093
-0.212473
-0.21535
-0.21768
-0.219417
-0.220514
-0.220924
-0.220598
-0.219491
-0.217559
-0.214762
-0.211066
-0.206443
-0.200876
-0.194359
-0.186899
-0.178521
-0.169266
-0.159196
-0.148391
-0.136956
-0.125015
-0.112714
-0.100214
-0.0876938
-0.0753416
-0.0633521
-0.0519203
-0.0412365
-0.03148
-0.0228148
-0.015385
-0.00930682
-0.00466211
-0.00156293
-0.000209856
-0.000174062
-0.00114933
-0.00324132
-0.00621679
-0.00993461
-0.0143054
-0.0192422
-0.0246632
-0.030495
-0.036672
-0.0431355
-0.0498335
-0.0567201
-0.0637546
-0.0709015
-0.0781291
-0.0854099
-0.0927192
-0.100035
-0.107337
-0.114608
-0.121829
-0.128986
-0.13606
-0.143037
-0.1499
-0.156632
-0.163215
-0.169629
-0.175854
-0.181866
-0.187641
-0.193153
-0.19837
-0.203263
-0.207795
-0.21193
-0.215626
-0.218841
-0.221528
-0.223641
-0.225128
-0.225939
-0.22602
-0.225321
-0.223792
-0.221384
-0.218055
-0.21377
-0.2085
-0.20223
-0.194958
-0.186698
-0.177481
-0.167363
-0.15642
-0.144751
-0.132482
-0.11976
-0.106755
-0.0936552
-0.0806631
-0.0679904
-0.0558521
-0.0444598
-0.0340154
-0.0247052
-0.0166951
-0.010121
-0.00508153
-0.00170863
-0.000230936
-0.00017353
-0.00114703
-0.00323649
-0.00620978
-0.00992637
-0.0142971
-0.0192349
-0.0246579
-0.0304924
-0.0366724
-0.0431389
-0.0498398
-0.0567289
-0.0637656
-0.0709144
-0.0781441
-0.0854274
-0.0927404
-0.100062
-0.107373
-0.114656
-0.121895
-0.129076
-0.136183
-0.143203
-0.150119
-0.156917
-0.163581
-0.170092
-0.176431
-0.182578
-0.188509
-0.194198
-0.199618
-0.204737
-0.209522
-0.213934
-0.217935
-0.22148
-0.224523
-0.227014
-0.2289
-0.230127
-0.230638
-0.230377
-0.229287
-0.227314
-0.224406
-0.220517
-0.215611
-0.20966
-0.202651
-0.194585
-0.185486
-0.175398
-0.164389
-0.152554
-0.140016
-0.126924
-0.113453
-0.0998001
-0.0861826
-0.0728294
-0.0599761
-0.0478576
-0.0367004
-0.0267158
-0.0180942
-0.0109938
-0.00553292
-0.00186619
-0.000253946
-0.00017237
-0.00114085
-0.00322112
-0.00618298
-0.00988701
-0.0142445
-0.0191686
-0.0245773
-0.0303968
-0.0365609
-0.0430103
-0.0496926
-0.0565616
-0.0635766
-0.0707023
-0.0779078
-0.0851664
-0.0924547
-0.0997524
-0.107041
-0.114306
-0.121531
-0.128703
-0.135809
-0.142836
-0.149771
-0.1566
-0.163309
-0.169882
-0.176302
-0.182549
-0.188602
-0.194438
-0.20003
-0.205348
-0.210359
-0.215028
-0.219316
-0.223177
-0.226566
-0.229432
-0.23172
-0.233373
-0.234332
-0.234534
-0.233918
-0.232421
-0.229984
-0.226552
-0.222076
-0.216517
-0.20985
-0.202063
-0.193167
-0.183195
-0.172204
-0.160282
-0.147547
-0.134147
-0.12026
-0.106093
-0.0918744
-0.0778517
-0.064282
-0.0514249
-0.0395337
-0.0288474
-0.0195839
-0.0119271
-0.00601755
-0.00203619
-0.000279015
-0.000170614
-0.00113101
-0.00319573
-0.00613738
-0.00981803
-0.0141496
-0.0190457
-0.0244243
-0.0302115
-0.0363408
-0.0427528
-0.0493949
-0.0562206
-0.0631895
-0.0702662
-0.0774204
-0.0846256
-0.0918594
-0.0991022
-0.106337
-0.113549
-0.120725
-0.127853
-0.134921
-0.141918
-0.148833
-0.155655
-0.162371
-0.168967
-0.175428
-0.181737
-0.187875
-0.193821
-0.199549
-0.205033
-0.210241
-0.215138
-0.219687
-0.223845
-0.227565
-0.230795
-0.233482
-0.235565
-0.236982
-0.237668
-0.237554
-0.236571
-0.234653
-0.231734
-0.227754
-0.222663
-0.21642
-0.209001
-0.200401
-0.190638
-0.179759
-0.167841
-0.154992
-0.141359
-0.12712
-0.112489
-0.0977054
-0.0830344
-0.0687551
-0.0551534
-0.0425116
-0.0310994
-0.0211653
-0.0129221
-0.00653656
-0.00221921
-0.000306273
-0.000168304
-0.00111777
-0.00316109
-0.00607435
-0.00972151
-0.0140153
-0.0188697
-0.024203
-0.029941
-0.036017
-0.0423716
-0.0489517
-0.0557109
-0.0626087
-0.06961
-0.0766846
-0.0838069
-0.0909549
-0.09811
-0.105256
-0.112381
-0.119471
-0.126516
-0.133507
-0.140435
-0.14729
-0.154062
-0.160742
-0.167319
-0.173779
-0.180107
-0.186288
-0.192302
-0.198126
-0.203737
-0.209104
-0.214196
-0.218976
-0.223404
-0.227432
-0.231011
-0.234086
-0.236595
-0.238475
-0.239657
-0.240067
-0.239631
-0.238275
-0.235923
-0.232504
-0.227954
-0.222219
-0.215258
-0.207052
-0.197602
-0.186938
-0.175124
-0.162259
-0.148481
-0.133968
-0.118935
-0.103636
-0.0883485
-0.0733761
-0.0590315
-0.0456282
-0.0334696
-0.0228382
-0.01398
-0.00709088
-0.00241576
-0.00033585
-0.000165499
-0.00110151
-0.00311818
-0.00599571
-0.00960022
-0.0138453
-0.0186454
-0.0239189
-0.0295915
-0.0355964
-0.0418738
-0.0483704
-0.0550396
-0.0618411
-0.0687398
-0.075706
-0.0827146
-0.0897444
-0.0967779
-0.1038
-0.110799
-0.117765
-0.124688
-0.13156
-0.138376
-0.145126
-0.151805
-0.158405
-0.164915
-0.171328
-0.177629
-0.183806
-0.189842
-0.195718
-0.201412
-0.206897
-0.212144
-0.217119
-0.221782
-0.22609
-0.229994
-0.233438
-0.236363
-0.238703
-0.240385
-0.241335
-0.241472
-0.240714
-0.238977
-0.236178
-0.232242
-0.227098
-0.220691
-0.21298
-0.20395
-0.193613
-0.182015
-0.169242
-0.155421
-0.140725
-0.12537
-0.109616
-0.0937584
-0.0781203
-0.0630435
-0.0488749
-0.0359541
-0.0246019
-0.015101
-0.00768127
-0.00262633
-0.000367877
-0.000162273
-0.00108267
-0.00306826
-0.00590377
-0.00945764
-0.0136443
-0.0183787
-0.0235791
-0.0291712
-0.0350879
-0.0412688
-0.0476607
-0.0542167
-0.0608964
-0.0676651
-0.0744934
-0.0813568
-0.0882351
-0.0951115
-0.101973
-0.108808
-0.115608
-0.122367
-0.129078
-0.135736
-0.142336
-0.148875
-0.155345
-0.161741
-0.168056
-0.174281
-0.180405
-0.186414
-0.192292
-0.198021
-0.203577
-0.208934
-0.21406
-0.21892
-0.223472
-0.227669
-0.231458
-0.234779
-0.237567
-0.239748
-0.241244
-0.241971
-0.24184
-0.240759
-0.238636
-0.235381
-0.23091
-0.225147
-0.218036
-0.209538
-0.199647
-0.188388
-0.175827
-0.162079
-0.147306
-0.131722
-0.115591
-0.0992214
-0.0829574
-0.0671696
-0.0522397
-0.038547
-0.026454
-0.0162849
-0.00830823
-0.00285133
-0.000402483
-0.000158718
-0.00106185
-0.00301287
-0.00580136
-0.00929808
-0.0134182
-0.0180769
-0.0231924
-0.0286901
-0.0345024
-0.0405686
-0.046835
-0.0532547
-0.0597873
-0.0663983
-0.0730588
-0.0797449
-0.0864372
-0.0931203
-0.0997821
-0.106413
-0.113007
-0.119557
-0.126061
-0.132516
-0.138918
-0.145266
-0.151557
-0.157788
-0.163954
-0.17005
-0.176067
-0.181996
-0.187824
-0.193535
-0.199111
-0.204527
-0.209758
-0.214769