/*--------------------------------*- C++ -*----------------------------------*\
  =========                 |
  \\      /  F ield         | OpenFOAM: The Open Source CFD Toolbox
   \\    /   O peration     | Website:  https://openfoam.org
    \\  /    A nd           | Version:  dev
     \\/     M anipulation  |
\*---------------------------------------------------------------------------*/
FoamFile
{
    format      ascii;
    class       volScalarField;
    location    "36";
    object      Uy;
}
// * * * * * * * * * * * * * * * * * * * * * * * * * * * * * * * * * * * * * //

dimensions      [0 1 -1 0 0 0 0];

internalField   nonuniform List<scalar> 
5184
(
-1.27135e-05
-2.08938e-05
-1.72517e-05
-8.19877e-06
2.66775e-06
1.36178e-05
2.38474e-05
3.30514e-05
4.11102e-05
4.80295e-05
5.38711e-05
5.87199e-05
6.26684e-05
6.58079e-05
6.82229e-05
6.9989e-05
7.11704e-05
7.18196e-05
7.19774e-05
7.16734e-05
7.0927e-05
6.97487e-05
6.81413e-05
6.6102e-05
6.36234e-05
6.06959e-05
5.73088e-05
5.34526e-05
4.91202e-05
4.43085e-05
3.90202e-05
3.32644e-05
2.70584e-05
2.04281e-05
1.34092e-05
6.04743e-06
-1.60106e-06
-9.46969e-06
-1.74819e-05
-2.55519e-05
-3.35854e-05
-4.14808e-05
-4.91308e-05
-5.64242e-05
-6.32484e-05
-6.94915e-05
-7.50448e-05
-7.98056e-05
-8.36792e-05
-8.65816e-05
-8.84421e-05
-8.92054e-05
-8.88336e-05
-8.7307e-05
-8.46253e-05
-8.08078e-05
-7.58935e-05
-6.99414e-05
-6.30291e-05
-5.5253e-05
-4.67272e-05
-3.75844e-05
-2.79793e-05
-1.80945e-05
-8.15557e-06
1.5423e-06
1.05747e-05
1.83048e-05
2.37211e-05
2.51323e-05
1.98522e-05
6.24504e-06
-4.58978e-05
-6.57282e-05
-4.05728e-05
7.62603e-06
6.56784e-05
0.000126
0.000184311
0.000238367
0.000287023
0.000329839
0.000366776
0.000398021
0.000423889
0.000444745
0.000460965
0.00047291
0.000480902
0.000485216
0.000486075
0.000483652
0.000478067
0.000469397
0.000457681
0.000442928
0.000425125
0.000404249
0.000380277
0.00035319
0.00032299
0.000289703
0.00025339
0.000214153
0.000172143
0.000127563
8.06718e-05
3.17889e-05
-1.87069e-05
-7.0377e-05
-0.000122726
-0.000175207
-0.000227225
-0.000278148
-0.000327316
-0.000374048
-0.00041766
-0.000457477
-0.000492845
-0.000523152
-0.000547834
-0.000566399
-0.000578433
-0.000583615
-0.000581731
-0.000572678
-0.000556472
-0.000533251
-0.000503279
-0.000466946
-0.000424766
-0.000377381
-0.000325559
-0.000270205
-0.00021238
-0.000153336
-9.45841e-05
-3.80031e-05
1.39449e-05
5.79539e-05
8.94318e-05
0.000101883
8.6539e-05
3.64964e-05
-8.133e-05
-9.50668e-05
-1.9161e-05
0.00010592
0.000254662
0.000410619
0.000563477
0.000707099
0.000838034
0.000954574
0.00105612
0.00114278
0.00121505
0.00127366
0.00131944
0.00135322
0.00137574
0.00138771
0.00138966
0.00138206
0.00136522
0.00133938
0.00130465
0.00126111
0.00120876
0.00114759
0.00107759
0.000998778
0.000911218
0.000815048
0.000710499
0.000597916
0.000477774
0.000350687
0.000217422
7.89022e-05
-6.37924e-05
-0.000209426
-0.000356615
-0.000503841
-0.000649467
-0.000791762
-0.000928923
-0.00105911
-0.00118046
-0.00129117
-0.00138947
-0.00147372
-0.00154242
-0.00159426
-0.00162814
-0.00164321
-0.00163892
-0.001615
-0.00157153
-0.00150892
-0.0014279
-0.00132958
-0.0012154
-0.00108717
-0.000947075
-0.000797673
-0.000641974
-0.00048351
-0.000326482
-0.000175977
-3.83144e-05
7.84871e-05
0.000164128
0.000205441
0.000186319
9.04108e-05
-9.77707e-05
-7.31885e-05
8.47541e-05
0.000318361
0.000590128
0.000874425
0.00115422
0.00141872
0.00166145
0.00187889
0.00206946
0.00223293
0.00236984
0.00248124
0.0025684
0.00263265
0.00267527
0.00269742
0.00270006
0.002684
0.00264983
0.00259798
0.00252871
0.00244219
0.0023385
0.00221767
0.00207977
0.0019249
0.00175327
0.00156524
0.00136131
0.00114224
0.000909
0.000662822
0.000405224
0.000138009
-0.000136736
-0.000416638
-0.000699062
-0.00098113
-0.00125975
-0.00153168
-0.00179352
-0.00204184
-0.0022732
-0.0024842
-0.00267159
-0.00283233
-0.00296363
-0.00306308
-0.00312866
-0.00315881
-0.00315253
-0.00310935
-0.00302944
-0.00291356
-0.00276317
-0.00258035
-0.00236787
-0.00212918
-0.00186844
-0.00159053
-0.00130117
-0.00100705
-0.000715971
-0.000437216
-0.000181928
3.62811e-05
0.000200689
0.000290901
0.000282622
0.000147312
-8.44385e-05
2.08566e-05
0.000295435
0.000668055
0.0010909
0.00153006
0.00196207
0.00237147
0.00274853
0.00308761
0.00338593
0.00364269
0.00385833
0.0040341
0.00417165
0.00427282
0.00433939
0.004373
0.00437509
0.00434683
0.00428911
0.00420262
0.00408779
0.00394493
0.00377423
0.00357584
0.00334996
0.00309685
0.00281696
0.00251096
0.00217979
0.00182472
0.00144741
0.00104991
0.000634689
0.00020468
-0.000236758
-0.000685837
-0.00113837
-0.00158979
-0.00203524
-0.0024696
-0.00288757
-0.00328377
-0.00365281
-0.00398942
-0.00428855
-0.00454545
-0.00475582
-0.00491589
-0.00502254
-0.00507337
-0.00506683
-0.00500222
-0.00487981
-0.00470086
-0.00446764
-0.00418347
-0.00385274
-0.00348091
-0.00307455
-0.00264141
-0.00219047
-0.00173216
-0.00127852
-0.000843605
-0.000443909
-9.8995e-05
0.000167799
0.000328735
0.000351072
0.00019418
-3.75541e-05
0.000197344
0.000626923
0.00117043
0.00177189
0.00239045
0.00299704
0.00357186
0.00410205
0.00457986
0.00500119
0.00536456
0.00567022
0.00591952
0.00611445
0.00625727
0.00635027
0.00639557
0.00639506
0.00635028
0.00626248
0.00613259
0.00596128
0.00574902
0.00549616
0.00520303
0.00487
0.00449761
0.00408661
0.0036381
0.00315357
0.00263498
0.0020848
0.00150609
0.000902487
0.000278252
-0.00036175
-0.00101206
-0.00166668
-0.0023191
-0.00296239
-0.00358927
-0.00419225
-0.00476371
-0.00529605
-0.00578183
-0.00621391
-0.00658563
-0.00689093
-0.0071245
-0.00728194
-0.00735991
-0.00735618
-0.00726981
-0.00710118
-0.00685208
-0.00652574
-0.0061269
-0.0056618
-0.0051382
-0.00456546
-0.00395455
-0.0033182
-0.00267098
-0.00202964
-0.00141336
-0.000844301
-0.000348138
4.51495e-05
0.000300614
0.000377437
0.000224571
4.40798e-05
0.000461282
0.00108714
0.00183488
0.00264263
0.00346414
0.00426576
0.00502405
0.00572338
0.00635407
0.00691079
0.00739139
0.00779586
0.00812566
0.00838303
0.00857065
0.00869126
0.00874744
0.00874152
0.00867545
0.00855078
0.00836874
0.00813023
0.00783594
0.00748641
0.00708219
0.00662392
0.00611244
0.00554894
0.00493503
0.00427286
0.00356521
0.00281553
0.00202803
0.0012077
0.000360307
-0.000507567
-0.00138859
-0.00227472
-0.00315726
-0.00402698
-0.00487422
-0.00568901
-0.00646127
-0.00718093
-0.00783815
-0.00842349
-0.00892813
-0.00934404
-0.00966422
-0.00988283
-0.00999542
-0.00999904
-0.00989242
-0.00967605
-0.00935227
-0.00892537
-0.00840162
-0.00778927
-0.00709865
-0.00634214
-0.00553428
-0.00469179
-0.00383378
-0.00298194
-0.00216089
-0.00139854
-0.000726767
-0.000182056
0.000193779
0.00035261
0.000235053
0.00016046
0.000814542
0.00167987
0.00266642
0.0037085
0.00475605
0.00577202
0.00673012
0.00761255
0.00840803
0.00911024
0.00971643
0.0102264
0.0106418
0.010965
0.0111992
0.0113474
0.0114128
0.011398
0.0113055
0.011137
0.0108941
0.010578
0.0101896
0.00972961
0.0091989
0.00859841
0.00792937
0.00719347
0.00639294
0.00553068
0.0046104
0.00363667
0.00261497
0.0015518
0.000454605
-0.000668163
-0.00180711
-0.00295196
-0.00409166
-0.00521445
-0.00630808
-0.00735992
-0.00835718
-0.00928713
-0.0101373
-0.0108957
-0.0115513
-0.0120937
-0.0125142
-0.0128052
-0.0129612
-0.0129783
-0.0128548
-0.0125913
-0.0121906
-0.0116582
-0.011002
-0.0102323
-0.00936209
-0.0084071
-0.00738558
-0.00631852
-0.00522976
-0.00414617
-0.00309788
-0.00211871
-0.00124663
-0.000524445
-3.77337e-07
0.000271023
0.000223917
0.00031095
0.00125704
0.00240607
0.00366693
0.00497183
0.00626843
0.00751744
0.00869068
0.00976878
0.0107394
0.0115955
0.0123339
0.0129546
0.013459
0.0138502
0.0141314
0.0143064
0.0143785
0.014351
0.0142265
0.0140073
0.0136951
0.0132914
0.0127973
0.0122139
0.0115422
0.0107837
0.00993994
0.00901321
0.00800642
0.00692334
0.00576869
0.00454823
0.00326889
0.00193874
0.000567053
-0.000835704
-0.00225794
-0.00368699
-0.00510925
-0.00651031
-0.00787512
-0.00918821
-0.0104339
-0.0115966
-0.012661
-0.0136125
-0.0144372
-0.0151228
-0.0156582
-0.0160341
-0.0162437
-0.016282
-0.0161468
-0.0158388
-0.0153612
-0.0147206
-0.0139265
-0.0129914
-0.0119313
-0.0107651
-0.00951492
-0.00820631
-0.00686795
-0.00553201
-0.00423429
-0.00301447
-0.00191657
-0.000989486
-0.000287382
0.000129565
0.000190513
0.000494647
0.00178753
0.00326488
0.00483601
0.0064326
0.00800131
0.0095018
0.0109049
0.0121903
0.0133453
0.0143624
0.0152386
0.0159736
0.0165696
0.0170297
0.0173577
0.0175578
0.0176338
0.0175893
0.0174273
0.0171504
0.0167607
0.0162598
0.0156492
0.0149302
0.0141042
0.013173
0.0121387
0.0110042
0.00977307
0.00845009
0.00704102
0.00555295
0.00399426
0.00237475
0.00070559
-0.00100062
-0.00272998
-0.00446731
-0.00619635
-0.00789985
-0.00955984
-0.0111578
-0.0126751
-0.0140929
-0.0153931
-0.016558
-0.0175711
-0.0184173
-0.0190835
-0.0195584
-0.0198333
-0.0199024
-0.0197627
-0.0194147
-0.0188622
-0.0181127
-0.0171772
-0.0160706
-0.0148117
-0.0134228
-0.0119302
-0.0103639
-0.00875749
-0.0071487
-0.00557898
-0.00409392
-0.00274353
-0.00158256
-0.000670778
-7.33795e-05
0.000134759
0.000710517
0.00240411
0.0042542
0.00617172
0.00808901
0.00995295
0.0117232
0.0133704
0.0148743
0.0162221
0.0174066
0.018425
0.0192775
0.0199665
0.0204957
0.0208696
0.0210927
0.0211693
0.0211034
0.0208984
0.0205572
0.0200821
0.0194751
0.0187379
0.0178721
0.0168795
0.0157622
0.0145229
0.013165
0.0116931
0.0101127
0.00843088
0.00665593
0.00479785
0.00286817
0.000880068
-0.00115167
-0.00321073
-0.00527935
-0.00733846
-0.00936789
-0.0113466
-0.013253
-0.015065
-0.0167608
-0.0183188
-0.0197184
-0.0209401
-0.021966
-0.0227803
-0.0233697
-0.0237238
-0.0238351
-0.0237
-0.0233187
-0.022695
-0.0218376
-0.0207589
-0.0194762
-0.0180109
-0.016389
-0.0146407
-0.0128008
-0.010908
-0.00900545
-0.00714039
-0.00536438
-0.00373337
-0.00230787
-0.00115301
-0.000338649
5.6823e-05
0.000957483
0.00310449
0.00537115
0.00767094
0.0099379
0.0121202
0.0141783
0.0160837
0.0178169
0.0193655
0.0207232
0.0218877
0.0228599
0.0236429
0.0242411
0.0246595
0.0249032
0.024977
0.0248854
0.024632
0.0242202
0.0236525
0.0229312
0.0220582
0.0210355
0.019865
0.0185495
0.0170921
0.0154968
0.0137691
0.0119154
0.00994397
0.00786448
0.00568847
0.0034293
0.00110215
-0.00127596
-0.00368624
-0.00610827
-0.00852011
-0.0108986
-0.0132194
-0.0154577
-0.0175881
-0.0195852
-0.0214242
-0.023081
-0.0245329
-0.025759
-0.0267407
-0.0274623
-0.0279111
-0.0280783
-0.027959
-0.0275528
-0.0268638
-0.0259013
-0.0246792
-0.0232169
-0.0215387
-0.019674
-0.0176573
-0.0155279
-0.0133299
-0.0111119
-0.00892704
-0.00683297
-0.00489157
-0.00316914
-0.00173609
-0.000666808
-4.30774e-05
0.00123445
0.00388611
0.0066123
0.00932976
0.0119751
0.0144986
0.0168626
0.0190402
0.0210131
0.0227703
0.0243066
0.0256207
0.0267146
0.0275923
0.028259
0.0287204
0.0289823
0.02905
0.0289284
0.0286218
0.0281335
0.0274666
0.0266236
0.0256065
0.0244177
0.0230595
0.0215349
0.0198476
0.0180025
0.0160055
0.0138642
0.011588
0.00918781
0.00667685
0.00407024
0.00138518
-0.00135904
-0.00414115
-0.00693801
-0.00972477
-0.0124751
-0.0151616
-0.0177557
-0.0202286
-0.0225515
-0.0246957
-0.0266336
-0.028339
-0.0297878
-0.0309582
-0.0318316
-0.0323932
-0.0326321
-0.0325419
-0.0321216
-0.031375
-0.030312
-0.0289478
-0.0273037
-0.0254069
-0.0232902
-0.0209924
-0.0185574
-0.0160346
-0.0134784
-0.010948
-0.00850715
-0.00622382
-0.00417019
-0.00242208
-0.0010585
-0.000164809
0.00154033
0.00474627
0.00797384
0.0111437
0.0141956
0.017083
0.0197707
0.0222341
0.0244571
0.0264305
0.0281506
0.0296177
0.0308351
0.031808
0.0325426
0.0330455
0.0333232
0.0333817
0.0332264
0.032862
0.0322922
0.0315202
0.0305488
0.0293805
0.0280177
0.0264631
0.02472
0.0227928
0.0206867
0.0184086
0.015967
0.0133723
0.0106369
0.00777537
0.0048047
0.00174408
-0.00138495
-0.00455866
-0.00775118
-0.0109347
-0.0140798
-0.0171555
-0.0201299
-0.0229704
-0.0256444
-0.0281195
-0.0303641
-0.0323483
-0.0340443
-0.0354269
-0.0364744
-0.0371691
-0.0374979
-0.0374527
-0.0370311
-0.0362368
-0.0350797
-0.0335762
-0.0317493
-0.0296291
-0.0272516
-0.0246599
-0.0219027
-0.0190348
-0.0161166
-0.0132134
-0.0103952
-0.00773644
-0.00531538
-0.00321349
-0.00151471
-0.000308409
0.00187401
0.00568213
0.00945163
0.0131076
0.0165938
0.0198673
0.0228963
0.0256591
0.0281423
0.0303393
0.0322483
0.0338717
0.0352145
0.0362831
0.0370851
0.0376281
0.0379196
0.0379661
0.0377738
0.0373477
0.0366919
0.0358099
0.0347047
0.0333791
0.0318355
0.0300772
0.0281078
0.0259319
0.0235555
0.0209861
0.018233
0.0153078
0.012224
0.00899781
0.00564782
0.00219519
-0.00133637
-0.00492066
-0.00852911
-0.012131
-0.0156935
-0.0191825
-0.0225622
-0.0257963
-0.0288482
-0.0316813
-0.03426
-0.0365503
-0.0385203
-0.0401411
-0.0413875
-0.0422384
-0.042678
-0.0426961
-0.0422888
-0.0414588
-0.0402159
-0.0385775
-0.0365683
-0.0342205
-0.0315739
-0.0286755
-0.025579
-0.0223449
-0.0190394
-0.0157344
-0.0125065
-0.00943674
-0.00660992
-0.00411352
-0.00203694
-0.000474144
0.00223437
0.00669072
0.0110413
0.015216
0.0191634
0.0228447
0.0262321
0.0293076
0.0320612
0.0344891
0.0365922
0.0383753
0.0398451
0.0410102
0.0418793
0.0424614
0.0427649
0.0427974
0.0425653
0.0420743
0.0413289
0.0403329
0.0390896
0.0376017
0.0358722
0.0339043
0.031702
0.0292704
0.0266158
0.0237465
0.0206725
0.0174063
0.0139627
0.0103592
0.00661597
0.00275607
-0.0011947
-0.00520773
-0.0092518
-0.0132932
-0.0172961
-0.0212225
-0.0250333
-0.0286879
-0.0321456
-0.0353656
-0.0383078
-0.0409338
-0.0432072
-0.0450949
-0.0465675
-0.0476005
-0.0481748
-0.0482774
-0.0479024
-0.0470512
-0.0457333
-0.0439662
-0.0417763
-0.039198
-0.0362744
-0.0330566
-0.0296034
-0.0259808
-0.0222614
-0.0185239
-0.0148518
-0.0113333
-0.00806012
-0.00512631
-0.00262732
-0.000662549
0.00262024
0.00776894
0.0127381
0.0174631
0.0218976
0.0260077
0.0297703
0.0331716
0.0362055
0.0388715
0.041174
0.0431201
0.0447191
0.0459815
0.0469178
0.0475384
0.0478527
0.0478693
0.0475955
0.0470373
0.0461997
0.0450867
0.0437019
0.0420482
0.0401287
0.0379469
0.0355069
0.0328141
0.0298752
0.0266991
0.0232965
0.0196806
0.0158673
0.0118754
0.00772647
0.00344533
-0.000940204
-0.00539926
-0.00989803
-0.0143999
-0.0188658
-0.0232543
-0.0275224
-0.0316254
-0.0355183
-0.0391556
-0.0424927
-0.0454861
-0.0480948
-0.0502808
-0.0520104
-0.0532545
-0.0539904
-0.0542018
-0.0538801
-0.053025
-0.051645
-0.0497577
-0.0473904
-0.0445798
-0.041372
-0.0378222
-0.0339942
-0.0299601
-0.0257989
-0.0215964
-0.0174436
-0.0134363
-0.00967364
-0.00625704
-0.00328874
-0.000874457
0.00303043
0.00891352
0.0145371
0.0198426
0.0247891
0.0293483
0.0335023
0.0372421
0.040566
0.0434776
0.0459845
0.0480972
0.0498277
0.0511886
0.0521925
0.0528513
0.0531759
0.0531756
0.0528587
0.0522318
0.0513003
0.0500686
0.0485403
0.0467185
0.0446065
0.0422079
0.0395269
0.0365691
0.0333417
0.0298537
0.0261164
0.0221438
0.0179527
0.0135629
0.00899735
0.0042824
-0.000552278
-0.00547365
-0.0104454
-0.0154282
-0.0203796
-0.0252549
-0.0300071
-0.0345873
-0.0389459
-0.0430328
-0.046798
-0.050193
-0.0531716
-0.0556903
-0.0577104
-0.059198
-0.0601257
-0.0604735
-0.0602294
-0.0593908
-0.0579645
-0.0559679
-0.0534286
-0.0503853
-0.0468869
-0.0429928
-0.038772
-0.0343024
-0.0296701
-0.0249683
-0.0202961
-0.0157574
-0.0114595
-0.00751207
-0.00402487
-0.00111101
0.00346367
0.010121
0.0164331
0.0223477
0.02783
0.0328578
0.0374188
0.0415095
0.0451329
0.0482972
0.0510139
0.053297
0.0551614
0.0566224
0.0576947
0.0583921
0.0587268
0.0587094
0.058349
0.0576528
0.0566268
0.0552756
0.0536029
0.0516122
0.0493067
0.0466899
0.0437663
0.0405415
0.0370228
0.0332196
0.0291436
0.0248092
0.020234
0.0154385
0.010447
0.00528719
-9.62757e-06
-0.00540842
-0.0108705
-0.0163539
-0.0218132
-0.0271999
-0.0324632
-0.0375502
-0.0424062
-0.0469761
-0.0512048
-0.055038
-0.0584236
-0.0613125
-0.0636601
-0.0654269
-0.0665804
-0.0670958
-0.0669572
-0.0661588
-0.0647052
-0.0626127
-0.0599092
-0.0566345
-0.0528405
-0.0485905
-0.0439586
-0.039029
-0.0338951
-0.028658
-0.0234254
-0.01831
-0.0134284
-0.00889898
-0.00484022
-0.00137369
0.00391863
0.0113878
0.0184206
0.0249713
0.031012
0.0365269
0.04151
0.0459634
0.0498957
0.0533197
0.0562515
0.0587088
0.0607099
0.0622729
0.0634149
0.0641517
0.0644971
0.0644631
0.0640595
0.0632944
0.0621742
0.0607038
0.0588874
0.0567282
0.0542295
0.0513948
0.0482287
0.0447366
0.0409259
0.0368061
0.0323891
0.0276897
0.0227258
0.0175189
0.0120939
0.00647984
0.000709419
-0.00518054
-0.0111493
-0.0171521
-0.0231407
-0.0290633
-0.034865
-0.0404886
-0.0458746
-0.0509626
-0.0556917
-0.0600018
-0.0638343
-0.0671338
-0.0698491
-0.0719346
-0.0733516
-0.0740699
-0.0740686
-0.0733379
-0.0718796
-0.069708
-0.0668506
-0.0633484
-0.0592553
-0.0546386
-0.0495776
-0.044163
-0.0384958
-0.0326857
-0.0268494
-0.0211095
-0.0155925
-0.0104267
-0.00574018
-0.00166428
0.00439391
0.0127101
0.0204935
0.0277059
0.0343263
0.0403458
0.0457651
0.0505927
0.0548428
0.0585336
0.0616859
0.0643213
0.0664621
0.0681293
0.0693428
0.0701204
0.0704776
0.070428
0.0699824
0.0691497
0.0679367
0.0663488
0.0643902
0.0620643
0.0593743
0.0563237
0.0529167
0.0491588
0.0450572
0.0406213
0.0358631
0.0307973
0.0254424
0.0198201
0.0139562
0.0078803
0.00162657
-0.00476669
-0.0112568
-0.0177967
-0.0243353
-0.0308175
-0.0371847
-0.043375
-0.0493242
-0.0549663
-0.0602345
-0.0650621
-0.069384
-0.0731375
-0.0762643
-0.0787116
-0.0804339
-0.0813944
-0.0815665
-0.0809353
-0.0794988
-0.0772686
-0.0742712
-0.0705477
-0.0661542
-0.0611614
-0.055654
-0.0497293
-0.0434962
-0.0370735
-0.0305881
-0.024173
-0.0179657
-0.0121053
-0.00673101
-0.00198494
0.00488801
0.0140837
0.0226458
0.0305435
0.0377635
0.044304
0.050173
0.0553856
0.0599622
0.0639266
0.0673045
0.0701223
0.0724059
0.0741799
0.0754669
0.0762871
0.0766581
0.0765947
0.076109
0.0752107
0.0739074
0.0722046
0.0701068
0.0676173
0.0647394
0.0614762
0.0578317
0.0538112
0.0494216
0.044672
0.0395743
0.0341431
0.0283968
0.0223574
0.016051
0.00950792
0.00276318
-0.00414363
-0.0111682
-0.0182613
-0.0253694
-0.032434
-0.0393929
-0.0461798
-0.0527256
-0.0589586
-0.0648057
-0.0701935
-0.0750494
-0.0793031
-0.0828885
-0.0857446
-0.0878181
-0.0890647
-0.0894508
-0.0889556
-0.087572
-0.0853081
-0.0821882
-0.0782531
-0.0735603
-0.068184
-0.0622138
-0.055754
-0.0489218
-0.0418458
-0.0346635
-0.0275195
-0.0205633
-0.0139464
-0.00781989
-0.00233815
0.00539934
0.0155045
0.0248709
0.0334757
0.0413135
0.0483904
0.0547217
0.0603296
0.0652408
0.0694853
0.0730941
0.0760984
0.0785283
0.0804119
0.0817749
0.08264
0.083027
0.0829522
0.0824291
0.0814682
0.0800778
0.0782639
0.0760309
0.0733822
0.070321
0.0668501
0.0629731
0.058695
0.0540222
0.0489634
0.0435299
0.0377362
0.0316005
0.0251445
0.0183944
0.011381
0.00413982
-0.00328862
-0.0108586
-0.0185192
-0.0262144
-0.0338829
-0.0414587
-0.0488715
-0.0560471
-0.0629079
-0.0693746
-0.0753665
-0.0808032
-0.0856062
-0.0897004
-0.0930161
-0.0954911
-0.0970723
-0.0977181
-0.0974003
-0.0961057
-0.0938377
-0.0906173
-0.0864842
-0.0814967
-0.0757318
-0.0692841
-0.0622647
-0.0547999
-0.0470283
-0.0390992
-0.0311698
-0.0234027
-0.0159629
-0.00901487
-0.00272673
0.00592625
0.0169678
0.0271617
0.0364936
0.0449661
0.0525934
0.0593986
0.0654112
0.0706649
0.0751958
0.0790406
0.0822355
0.0848151
0.0868113
0.088253
0.0891658
0.0895714
0.0894883
0.088931
0.0879113
0.086438
0.0845174
0.0821543
0.0793521
0.0761135
0.0724412
0.0683384
0.0638093
0.0588598
0.0534981
0.0477348
0.0415839
0.0350628
0.0281931
0.0210007
0.0135163
0.00577575
-0.00217988
-0.0103039
-0.0185439
-0.0268417
-0.0351335
-0.04335
-0.0514167
-0.0592544
-0.0667799
-0.0739072
-0.0805481
-0.086614
-0.0920174
-0.0966739
-0.100504
-0.103435
-0.105404
-0.10636
-0.106267
-0.105103
-0.102866
-0.0995721
-0.0952592
-0.0899854
-0.0838299
-0.0768921
-0.06929
-0.0611589
-0.0526486
-0.0439207
-0.0351464
-0.0265025
-0.0181688
-0.0103249
-0.00315385
0.00646696
0.018469
0.0295112
0.0395879
0.0487102
0.0569007
0.0641905
0.0706166
0.07622
0.0810432
0.0851289
0.0885185
0.0912512
0.0933631
0.0948865
0.0958498
0.0962774
0.0961892
0.0956016
0.0945273
0.0929759
0.0909542
0.0884671
0.0855179
0.0821092
0.0782431
0.0739224
0.0691506
0.0639329
0.0582765
0.0521913
0.0456905
0.0387906
0.0315126
0.0238818
0.0159285
0.00768843
-0.000797155
-0.00948093
-0.0183094
-0.0272228
-0.0361551
-0.0450337
-0.0537804
-0.0623112
-0.0705373
-0.0783658
-0.085701
-0.0924457
-0.0985028
-0.103778
-0.10818
-0.111625
-0.114041
-0.115364
-0.115548
-0.114562
-0.112397
-0.109063
-0.104594
-0.0990471
-0.092503
-0.0850652
-0.0768588
-0.0680285
-0.0587356
-0.0491554
-0.0394735
-0.029883
-0.0205798
-0.0117599
-0.00362301
0.00701962
0.020003
0.0319116
0.0427488
0.0525344
0.0612995
0.0690834
0.0759311
0.0818908
0.0870118
0.0913429
0.0949311
0.0978204
0.100051
0.101659
0.102676
0.103129
0.10304
0.102426
0.101302
0.0996776
0.0975609
0.0949566
0.091868
0.0882974
0.0842464
0.0797172
0.0747125
0.0692365
0.0632956
0.0568986
0.0500574
0.0427878
0.0351095
0.0270469
0.0186297
0.00989292
0.000877762
-0.00836836
-0.0177913
-0.0273301
-0.0369168
-0.0464762
-0.0559266
-0.0651794
-0.0741403
-0.0827098
-0.0907843
-0.0982577
-0.105023
-0.110974
-0.11601
-0.120033
-0.122958
-0.12471
-0.12523
-0.124478
-0.122432
-0.119097
-0.114502
-0.1087
-0.101774
-0.0938302
-0.0850006
-0.0754392
-0.0653196
-0.0548316
-0.044177
-0.033566
-0.0232126
-0.0133306
-0.00413809
0.00758232
0.0215646
0.0343552
0.0459665
0.0564269
0.0657765
0.074063
0.0813394
0.0876614
0.0930851
0.0976658
0.101456
0.104505
0.106858
0.108554
0.109628
0.110109
0.110022
0.109387
0.108218
0.106527
0.104322
0.101608
0.0983882
0.0946648
0.0904389
0.0857117
0.0804853
0.0747627
0.0685492
0.0618523
0.0546826
0.0470545
0.0389865
0.0305017
0.0216286
0.0124013
0.00286039
-0.00694709
-0.0169668
-0.0271372
-0.0373887
-0.0476442
-0.0578186
-0.0678194
-0.077547
-0.0868953
-0.095753
-0.104005
-0.111533
-0.118221
-0.123954
-0.128622
-0.132124
-0.134373
-0.135294
-0.134835
-0.132965
-0.129676
-0.124991
-0.11896
-0.111664
-0.103213
-0.093744
-0.0834215
-0.0724316
-0.0609794
-0.0492841
-0.0375748
-0.0260851
-0.0150485
-0.00470327
0.00815305
0.0231487
0.0368339
0.0492304
0.0603755
0.0703181
0.0791145
0.0868257
0.0935151
0.0992459
0.10408
0.108076
0.111287
0.113765
0.115551
0.116685
0.117198
0.117118
0.116465
0.115257
0.113506
0.111219
0.108403
0.105061
0.101195
0.0968049
0.0918915
0.0864557
0.0804996
0.074027
0.0670441
0.0595599
0.0515871
0.0431427
0.0342481
0.0249303
0.0152222
0.00516294
-0.00520101
-0.0158158
-0.0266196
-0.0375422
-0.0485048
-0.0594197
-0.0701908
-0.0807136
-0.0908758
-0.100559
-0.109637
-0.117984
-0.125469
-0.131965
-0.137347
-0.141499
-0.144317
-0.145712
-0.145616
-0.143983
-0.140796
-0.136066
-0.129839
-0.122192
-0.113237
-0.103117
-0.0920061
-0.0801031
-0.0676295
-0.0548233
-0.0419339
-0.0292166
-0.0169263
-0.00532311
0.00872979
0.0247496
0.0393395
0.05253
0.0643678
0.0749103
0.0842225
0.0923736
0.0994347
0.105476
0.110567
0.114771
0.118148
0.120752
0.122631
0.123827
0.124376
0.124306
0.123641
0.122398
0.120592
0.118232
0.115322
0.111867
0.107869
0.103326
0.0982385
0.0926068
0.0864315
0.0797149
0.0724616
0.0646788
0.0563775
0.0475726
0.0382836
0.0285357
0.0183598
0.00779372
-0.00311762
-0.0143213
-0.0257559
-0.037351
-0.0490269
-0.0606939
-0.0722531
-0.0835954
-0.0946029
-0.105149
-0.115101
-0.12432
-0.132664
-0.139989
-0.146158
-0.151036
-0.154502
-0.156449
-0.156792
-0.155468
-0.152445
-0.147724
-0.141342
-0.133371
-0.123923
-0.113146
-0.101223
-0.0883658
-0.0748135
-0.0608241
-0.0466691
-0.0326272
-0.018977
-0.00600247
0.00931045
0.026362
0.0418634
0.0558546
0.068391
0.0795388
0.0893714
0.0979665
0.105403
0.111758
0.117107
0.121521
0.125065
0.127798
0.129772
0.131034
0.13162
0.131564
0.13089
0.129619
0.127764
0.125336
0.122341
0.118783
0.114662
0.109979
0.104731
0.0989176
0.0925385
0.0855943
0.0780878
0.0700244
0.0614128
0.0522658
0.0426009
0.0324406
0.021814
0.0107565
-0.000688695
-0.0124702
-0.0245278
-0.0367916
-0.0491815
-0.0616069
-0.0739662
-0.0861472
-0.0980266
-0.109471
-0.12034
-0.130482
-0.139743
-0.147966
-0.154995
-0.160678
-0.164876
-0.16746
-0.168325
-0.16739
-0.164605
-0.159957
-0.153469
-0.14521
-0.135288
-0.123854
-0.1111
-0.0972506
-0.0825631
-0.0673167
-0.0518072
-0.0363384
-0.0212149
-0.00674659
0.00989294
0.0279802
0.0443974
0.0591934
0.0724324
0.0841891
0.0945455
0.103587
0.111401
0.118072
0.123681
0.128306
0.132019
0.134882
0.136952
0.13828
0.138907
0.138867
0.138188
0.136892
0.134995
0.132506
0.129434
0.125782
0.12155
0.116738
0.111343
0.105363
0.0987964
0.0916421
0.0839011
0.0755766
0.0666752
0.0572072
0.0471874
0.036636
0.0255792
0.01405
0.00208908
-0.0102543
-0.0229216
-0.0358443
-0.048943
-0.0621265
-0.0752921
-0.0883246
-0.101097
-0.113469
-0.125291
-0.136404
-0.14664
-0.155827
-0.163791
-0.170362
-0.175378
-0.178689
-0.180168
-0.179711
-0.177247
-0.172745
-0.166215
-0.157713
-0.147345
-0.135262
-0.121663
-0.106788
-0.0909099
-0.074332
-0.0573756
-0.0403724
-0.0236548
-0.00756102
0.0104752
0.0295988
0.0469331
0.0625358
0.0764793
0.088847
0.099729
0.109219
0.117411
0.124398
0.130268
0.135105
0.138986
0.141979
0.144147
0.145542
0.14621
0.146189
0.145508
0.144191
0.142256
0.139714
0.136572
0.132835
0.128502
0.123573
0.118045
0.111914
0.105177
0.0978307
0.0898749
0.0813106
0.0721416
0.0623758
0.0520252
0.0411069
0.0296442
0.0176672
0.00521353
-0.00767037
-0.0209285
-0.0344942
-0.0482896
-0.0622243
-0.0761951
-0.0900849
-0.103763
-0.117086
-0.129895
-0.142021
-0.153285
-0.163499
-0.172472
-0.180013
-0.185938
-0.190073
-0.192263
-0.192382
-0.190333
-0.186062
-0.179562
-0.170876
-0.1601
-0.147386
-0.132937
-0.117006
-0.099885
-0.0819009
-0.0634028
-0.0447523
-0.0263123
-0.00845165
0.0110552
0.0312123
0.0494624
0.0658712
0.0805194
0.0934983
0.104906
0.114844
0.123415
0.130718
0.136848
0.141896
0.145944
0.149067
0.15133
0.152793
0.153503
0.153501
0.15282
0.151486
0.149517
0.146926
0.143722
0.139908
0.135485
0.130452
0.124804
0.118537
0.111646
0.104128
0.0959782
0.0871964
0.0777839
0.0677456
0.0570906
0.0458328
0.0339922
0.0215954
0.00867651
-0.00472131
-0.0185453
-0.0327317
-0.0472049
-0.0618763
-0.0766431
-0.0913881
-0.105978
-0.120266
-0.134086
-0.147262
-0.159601
-0.170902
-0.180955
-0.18955
-0.196476
-0.201534
-0.204542
-0.205342
-0.203812
-0.19987
-0.193486
-0.184685
-0.173552
-0.160235
-0.14494
-0.12793
-0.109518
-0.090054
-0.0699173
-0.0495017
-0.0292036
-0.00942469
0.011631
0.0328157
0.0519774
0.0691897
0.0845406
0.0981293
0.110062
0.120447
0.129394
0.137011
0.1434
0.148656
0.152869
0.156119
0.158477
0.160006
0.160757
0.160774
0.160094
0.158744
0.156745
0.15411
0.150849
0.146967
0.142464
0.137337
0.131583
0.125195
0.118169
0.110497
0.102175
0.0931992
0.0835685
0.0732849
0.0623543
0.0507873
0.0386
0.0258153
0.0124635
-0.0014163
-0.0157752
-0.0305532
-0.045678
-0.0610636
-0.0766092
-0.0921983
-0.107697
-0.122955
-0.137803
-0.152056
-0.165511
-0.177953
-0.189154
-0.198882
-0.206902
-0.212986
-0.216921
-0.218518
-0.217621
-0.214118
-0.207949
-0.199118
-0.187694
-0.173814
-0.157686
-0.139584
-0.119837
-0.0988213
-0.0769478
-0.0546451
-0.0323455
-0.0104866
0.0122009
0.0344042
0.054471
0.0724816
0.0885315
0.102727
0.115181
0.12601
0.135331
0.143259
0.149902
0.155364
0.159738
0.163112
0.165561
0.167152
0.167941
0.167977
0.167297
0.165932
0.163904
0.161229
0.157917
0.153973
0.149398
0.144189
0.138341
0.131848
0.124703
0.116898
0.108425
0.0992794
0.089457
0.0789568
0.0677814
0.0559378
0.0434383
0.0303015
0.0165534
0.00222869
-0.0126284
-0.0279623
-0.0437049
-0.0597741
-0.0760722
-0.0924848
-0.108879
-0.125103
-0.140985
-0.156333
-0.170936
-0.184564
-0.196975
-0.207913
-0.217118
-0.224332
-0.22931
-0.231825
-0.231685
-0.228742
-0.222903
-0.214141
-0.202504
-0.188117
-0.171184
-0.151985
-0.130867
-0.108231
-0.0845226
-0.0602069
-0.0357552
-0.0116443
0.012763
0.0359734
0.0569362
0.0757384
0.0924814
0.107278
0.120249
0.131518
0.141208
0.149442
0.156334
0.161995
0.166526
0.170018
0.172553
0.174202
0.175026
0.175077
0.174395
0.173014
0.170958
0.168245
0.164885
0.160885
0.156246
0.150964
0.145035
0.138452
0.131205
0.123285
0.114684
0.105393
0.0954062
0.0847194
0.0733317
0.0612464
0.0484718
0.0350221
0.0209185
0.00619072
-0.00912205
-0.0249695
-0.0412888
-0.0580026
-0.0750179
-0.0922236
-0.109489
-0.126664
-0.143575
-0.160025
-0.175796
-0.190648
-0.204321
-0.216539
-0.227017
-0.235465
-0.241602
-0.245163
-0.245914
-0.243665
-0.238283
-0.229707
-0.217955
-0.203133
-0.185435
-0.165147
-0.142629
-0.118311
-0.0926697
-0.0662118
-0.0394506
-0.0129048
0.013316
0.0375193
0.0593674
0.0789522
0.0963809
0.111773
0.125254
0.136956
0.147009
0.155541
0.162676
0.168529
0.173209
0.176812
0.179426
0.181126
0.18198
0.18204
0.181353
0.179953
0.177868
0.175117
0.171712
0.167661
0.162963
0.157618
0.151619
0.144958
0.137625
0.129611
0.120903
0.111492
0.101369
0.090526
0.0789598
0.0666696
0.0536594
0.0399388
0.0255243
0.0104399
-0.00528078
-0.0215933
-0.0384409
-0.0557523
-0.07344
-0.0913982
-0.109501
-0.127599
-0.145521
-0.163068
-0.180016
-0.196116
-0.211094
-0.224654
-0.236485
-0.246268
-0.253682
-0.25842
-0.260204
-0.258795
-0.254014
-0.245756
-0.234003
-0.218835
-0.200432
-0.179076
-0.155143
-0.129085
-0.101416
-0.0726843
-0.0434496
-0.0142754
0.0138587
0.039039
0.0617595
0.0821165
0.100222
0.1162
0.130184
0.14231
0.152717
0.161539
0.168907
0.174943
0.179762
0.183466
0.18615
0.187894
0.188768
0.188831
0.188133
0.18671
0.184593
0.181804
0.178355
0.174254
0.169504
0.164102
0.158043
0.151318
0.143916
0.135824
0.127032
0.117525
0.107293
0.0963258
0.0846159
0.0721589
0.0589546
0.0450079
0.03033
0.0149394
-0.00113651
-0.0178599
-0.0351806
-0.0530345
-0.0713409
-0.0900008
-0.108894
-0.127876
-0.146778
-0.165403
-0.183523
-0.200883
-0.217195
-0.232148
-0.245406
-0.256617
-0.265423
-0.271473
-0.274437
-0.274024
-0.270001
-0.262211
-0.250592
-0.235187
-0.216155
-0.193772
-0.168419
-0.140574
-0.110786
-0.0796486
-0.0477704
-0.0157637
0.0143902
0.0405301
0.064109
0.0852264
0.103998
0.120552
0.135028
0.147569
0.158318
0.167419
0.175008
0.181215
0.186161
0.189955
0.192697
0.194473
0.195358
0.195415
0.194697
0.193246
0.191092
0.188261
0.184767
0.180619
0.17582
0.170368
0.164258
0.15748
0.150022
0.141872
0.133015
0.123437
0.113125
0.102065
0.0902463
0.0776616
0.0643061
0.05018
0.0352891
0.019646
0.00327169
-0.013803
-0.0315355
-0.0498694