/*--------------------------------*- C++ -*----------------------------------*\
  =========                 |
  \\      /  F ield         | OpenFOAM: The Open Source CFD Toolbox
   \\    /   O peration     | Website:  https://openfoam.org
    \\  /    A nd           | Version:  dev
     \\/     M anipulation  |
\*---------------------------------------------------------------------------*/
FoamFile
{
    format      ascii;
    class       volScalarField;
    location    "26.55";
    object      p;
}
// * * * * * * * * * * * * * * * * * * * * * * * * * * * * * * * * * * * * * //

dimensions      [0 2 -2 0 0 0 0];

internalField   nonuniform List<scalar> 
5184
(
2.10182e-06
-9.00325e-06
-9.47659e-05
-0.000247585
-0.000446901
-0.000675448
-0.000918997
-0.0011656
-0.00140611
-0.00163339
-0.00184201
-0.00202796
-0.0021883
-0.00232092
-0.00242436
-0.00249762
-0.00254
-0.00255109
-0.00253059
-0.00247835
-0.00239428
-0.00227837
-0.00213067
-0.00195131
-0.00174055
-0.00149875
-0.00122645
-0.000924413
-0.00059362
-0.000235346
0.000148826
0.00055697
0.000986794
0.00143563
0.0019004
0.00237769
0.00286365
0.00335414
0.00384467
0.00433051
0.00480673
0.00526823
0.00570991
0.00612669
0.00651361
0.00686596
0.00717938
0.00744995
0.00767428
0.00784965
0.00797405
0.00804627
0.00806597
0.0080337
0.00795097
0.00782022
0.00764483
0.00742912
0.00717831
0.00689844
0.00659637
0.00627972
0.00595678
0.00563652
0.00532848
0.00504276
0.00478985
0.00458035
0.00442426
0.00433
0.00430307
0.00433035
1.60913e-05
3.67746e-06
-7.08794e-05
-0.000198585
-0.000363752
-0.000553916
-0.000758157
-0.00096688
-0.00117216
-0.00136761
-0.00154819
-0.00170998
-0.00185002
-0.00196607
-0.00205649
-0.00212009
-0.00215601
-0.00216363
-0.00214254
-0.00209245
-0.00201318
-0.00190466
-0.00176688
-0.00159997
-0.00140414
-0.00117975
-0.000927347
-0.000647648
-0.000341615
-1.04662e-05
0.000344294
0.000720847
0.00111705
0.0015304
0.00195806
0.00239685
0.00284326
0.00329347
0.00374337
0.00418866
0.00462483
0.00504728
0.00545138
0.00583254
0.0061863
0.00650845
0.00679509
0.00704272
0.00724837
0.00740965
0.00752484
0.00759295
0.00761378
0.00758795
0.00751694
0.00740307
0.00724952
0.00706031
0.00684023
0.00659483
0.00633035
0.00605368
0.00577224
0.00549397
0.00522716
0.00498039
0.00476234
0.00458135
0.00444475
0.00435845
0.00432988
0.0043575
0.000102839
7.81062e-05
2.79567e-06
-0.000114685
-0.000262312
-0.000430459
-0.000610421
-0.000794371
-0.00097561
-0.00114858
-0.00130878
-0.00145261
-0.00157727
-0.00168059
-0.00176092
-0.00181701
-0.00184794
-0.00185302
-0.00183176
-0.00178379
-0.00170888
-0.00160689
-0.00147777
-0.0013216
-0.00113857
-0.000928985
-0.000693353
-0.000432347
-0.000146865
0.000161948
0.000492683
0.000843637
0.0012128
0.00159784
0.00199612
0.00240466
0.00282019
0.00323915
0.00365775
0.00407197
0.00447764
0.0048705
0.00524625
0.00560065
0.0059296
0.00622919
0.00649585
0.00672639
0.00691808
0.00706876
0.00717689
0.00724164
0.00726286
0.00724123
0.00717817
0.00707592
0.00693749
0.00676665
0.00656789
0.00634637
0.00610783
0.00585858
0.00560537
0.00535533
0.00511583
0.0048943
0.00469825
0.00453471
0.00440973
0.00432852
0.0043007
0.00433133
0.000257833
0.000206426
0.000118661
-2.2669e-07
-0.000142582
-0.000300634
-0.000467259
-0.000636093
-0.000801597
-0.000959084
-0.00110468
-0.00123526
-0.0013483
-0.00144185
-0.00151438
-0.0015647
-0.0015919
-0.00159531
-0.00157439
-0.00152876
-0.00145813
-0.00136231
-0.00124123
-0.00109489
-0.000923423
-0.000727101
-0.000506343
-0.000261756
5.84667e-06
0.000295419
0.00060566
0.00093499
0.00128154
0.00164314
0.0020173
0.00240125
0.00279191
0.00318595
0.00357978
0.00396962
0.00435154
0.00472152
0.0050755
0.00540947
0.00571957
0.0060021
0.00625369
0.00647132
0.00665245
0.00679504
0.00689766
0.00695954
0.00698059
0.00696147
0.00690357
0.00680904
0.00668075
0.00652228
0.00633787
0.00613235
0.00591111
0.00567999
0.00544518
0.0052132
0.00499069
0.00478431
0.00460069
0.0044461
0.00432597
0.00424535
0.0042143
0.00423952
0.000462521
0.000373942
0.000265395
0.000137763
-6.51043e-06
-0.000161267
-0.000320739
-0.000479926
-0.000634422
-0.000780428
-0.000914763
-0.00103481
-0.00113847
-0.00122404
-0.0012902
-0.00133589
-0.00136029
-0.00136275
-0.00134275
-0.00129989
-0.00123386
-0.00114444
-0.00103148
-0.000894949
-0.000734901
-0.000551527
-0.000345166
-0.000116329
0.000134275
0.000405713
0.000696808
0.00100612
0.00133192
0.0016722
0.00202464
0.00238663
0.00275529
0.00312746
0.00349975
0.00386857
0.00423018
0.00458075
0.0049164
0.00523329
0.00552771
0.00579613
0.0060353
0.00624234
0.00641477
0.00655066
0.00664864
0.00670795
0.00672853
0.00671101
0.00665672
0.00656773
0.00644678
0.00629728
0.00612326
0.00592927
0.00572038
0.00550203
0.00527996
0.00506013
0.0048486
0.00465138
0.00447437
0.00432322
0.00420288
0.00411812
0.00407772
0.00408752
0.000700744
0.000568766
0.000433661
0.000291695
0.000139853
-1.70969e-05
-0.000174552
-0.00032877
-0.000476419
-0.000614573
-0.000740761
-0.000852934
-0.000949418
-0.00102886
-0.00109018
-0.0011325
-0.00115513
-0.00115747
-0.00113907
-0.00109951
-0.00103848
-0.000955716
-0.000851023
-0.000724291
-0.000575506
-0.000404766
-0.000212309
1.46446e-06
0.000235965
0.000490387
0.000763692
0.00105458
0.00136149
0.00168254
0.0020156
0.00235822
0.00270766
0.00306095
0.00341484
0.0037659
0.00411053
0.00444505
0.00476569
0.00506874
0.00535059
0.00560779
0.00583716
0.00603588
0.00620153
0.00633218
0.00642649
0.00648369
0.00650369
0.00648708
0.00643513
0.00634982
0.00623376
0.00609023
0.00592305
0.00573658
0.00553557
0.00532515
0.00511069
0.00489769
0.0046917
0.0044982
0.00432253
0.00416974
0.00404439
0.00395088
0.0038957
0.0038826
0.00095871
0.00078002
0.000614556
0.000454096
0.000290269
0.000126679
-3.30554e-05
-0.000186334
-0.000330821
-0.000464431
-0.000585391
-0.00069223
-0.000783739
-0.000858933
-0.000917012
-0.000957316
-0.000979293
-0.000982469
-0.000966424
-0.000930784
-0.000875214
-0.00079942
-0.000703157
-0.000586244
-0.000448576
-0.000290151
-0.000111093
8.83218e-05
0.000307636
0.000546186
0.000803079
0.00107717
0.00136704
0.00167098
0.001987
0.00231281
0.00264582
0.00298318
0.00332179
0.00365832
0.00398928
0.00431108
0.00462004
0.00491249
0.00518487
0.00543377
0.00565603
0.0058488
0.00600967
0.00613668
0.00622846
0.00628419
0.00630373
0.0062876
0.006237
0.0061538
0.00604052
0.0059003
0.00573679
0.00555417
0.00535698
0.00515007
0.00493849
0.00472741
0.00452196
0.00432719
0.00414797
0.00398886
0.0038541
0.00374773
0.00367342
0.00363239
0.0012243
0.000997567
0.000799489
0.000617682
0.000438667
0.000265082
9.9714e-05
-5.58653e-05
-0.000200246
-0.00033213
-0.000450423
-0.000554222
-0.000642792
-0.00071553
-0.000771936
-0.000811583
-0.000834089
-0.000839095
-0.000826253
-0.00079522
-0.000745658
-0.000677242
-0.000589669
-0.000482681
-0.000356079
-0.000209747
-4.36851e-05
0.000141965
0.000346892
0.000570583
0.000812299
0.00107105
0.00134558
0.00163434
0.00193547
0.00224684
0.00256597
0.00289015
0.00321636
0.00354137
0.00386177
0.004174
0.0044744
0.00475935
0.00502526
0.0052687
0.00548646
0.00567566
0.0058338
0.00595889
0.00604943
0.00610455
0.00612402
0.00610826
0.00605838
0.00597614
0.00586397
0.00572488
0.0055624
0.00538053
0.00518365
0.0049764
0.0047636
0.00455013
0.00434082
0.00414039
0.00395332
0.00378377
0.00363574
0.00351299
0.00341623
0.00334404
0.00148726
0.00121226
0.000980403
0.000775419
0.000578995
0.000392966
0.000219413
5.8978e-05
-8.77807e-05
-0.000220304
-0.000338141
-0.000440943
-0.000528438
-0.000600406
-0.000656656
-0.000696999
-0.00072123
-0.000729116
-0.000720385
-0.000694728
-0.000651806
-0.000591262
-0.000512734
-0.000415878
-0.000300392
-0.00016604
-1.26878e-05
0.000159671
0.000350878
0.000560581
0.000788204
0.00103292
0.00129364
0.00156895
0.00185715
0.00215623
0.00246386
0.00277738
0.00309389
0.00341022
0.00372297
0.0040286
0.00432347
0.00460389
0.00486624
0.00510702
0.00532292
0.00551097
0.00566856
0.00579355
0.00588436
0.00593998
0.00596005
0.00594488
0.00589547
0.00581347
0.00570119
0.00556153
0.00539791
0.00521421
0.00501468
0.0048038
0.00458621
0.0043666
0.00414958
0.00393961
0.0037409
0.00355731
0.00339272
0.00325064
0.00312891
0.00302358
0.00173861
0.00141585
0.00114981
0.000920583
0.00070529
0.000505084
0.000321444
0.000154167
3.02704e-06
-0.000132106
-0.000251388
-0.000355001
-0.00044312
-0.0005159
-0.000573451
-0.000615824
-0.000642991
-0.000654843
-0.000651185
-0.000631744
-0.000596176
-0.000544088
-0.000475054
-0.000388639
-0.000284428
-0.000162058
-2.1247e-05
0.000138165
0.000316185
0.00051263
0.000727095
0.000958922
0.00120717
0.00147061
0.00174767
0.00203645
0.00233474
0.00263999
0.00294933
0.00325963
0.00356752
0.00386944
0.00416168
0.00444052
0.00470221
0.00494314
0.00515989
0.00534931
0.00550865
0.00563561
0.00572842
0.00578592
0.00580759
0.00579359
0.00574478
0.0056627
0.00554953
0.00540805
0.00524161
0.00505399
0.00484932
0.00463199
0.00440653
0.00417749
0.00394936
0.00372645
0.00351277
0.00331199
0.00312795
0.0029641
0.00281548
0.00267578
0.00197042
0.00160084
0.00130073
0.00104677
0.000811734
0.000596189
0.000401088
0.000225458
6.83458e-05
-7.1021e-05
-0.000193372
-0.000299387
-0.000389672
-0.000464738
-0.000524986
-0.000570696
-0.000602014
-0.000618949
-0.00062138
-0.000609062
-0.000581643
-0.000538688
-0.000479698
-0.000404141
-0.000311483
-0.00020122
-7.29157e-05
7.37552e-05
0.000238973
0.000422733
0.000624809
0.000844719
0.00108169
0.00133464
0.00160215
0.00188246
0.00217343
0.00247259
0.00277715
0.00308397
0.00338968
0.00369066
0.00398316
0.00426331
0.00452727
0.00477124
0.00499163
0.00518511
0.0053487
0.0054799
0.00557673
0.00563781
0.00566243
0.00565056
0.0056029
0.00552083
0.00540641
0.00526234
0.00509185
0.00489864
0.0046868
0.00446065
0.00422467
0.00398335
0.00374114
0.00350227
0.00327066
0.00304989
0.00284389
0.00265616
0.00247912
0.00230423
0.00217555
0.00176035
0.00142667
0.0011479
0.000892683
0.000661085
0.000453578
0.000268473
0.000104143
-4.07875e-05
-0.000167585
-0.000277401
-0.000371247
-0.00044997
-0.000514248
-0.000564577
-0.000601264
-0.000624429
-0.000634012
-0.000629791
-0.0006114
-0.00057835
-0.000530065
-0.000465904
-0.000385204
-0.000287312
-0.000171628
-3.76508e-05
0.000114985
0.000286461
0.000476739
0.000685519
0.000912207
0.00115588
0.00141526
0.00168871
0.0019742
0.00226933
0.00257133
0.00287709
0.0031832
0.00348598
0.00378157
0.00406597
0.00433516
0.00458516
0.00481214
0.00501253
0.00518312
0.00532111
0.00542427
0.00549098
0.00552027
0.0055119
0.00546635
0.00538483
0.00526928
0.00512227
0.00494694
0.00474694
0.00452633
0.00428941
0.00404066
0.0037846
0.00352567
0.00326815
0.00301597
0.00277271
0.00254251
0.00232903
0.00212224
0.00191148
0.00234746
0.00188801
0.00152149
0.00121814
0.000942669
0.000694653
0.000474132
0.000278749
0.000106241
-4.5334e-05
-0.000177748
-0.000292596
-0.000391268
-0.00047493
-0.000544516
-0.000600721
-0.000643998
-0.000674565
-0.000692416
-0.000697339
-0.00068894
-0.000666673
-0.000629869
-0.000577773
-0.000509579
-0.000424477
-0.000321692
-0.000200535
-6.04467e-05
9.89539e-05
0.000277826
0.000476065
0.000693257
0.000928649
0.00118112
0.00144915
0.00173081
0.00202379
0.00232534
0.00263235
0.00294136
0.00324861
0.00355012
0.00384173
0.00411921
0.00437833
0.00461503
0.00482542
0.00500599
0.00515364
0.00526582
0.00534059
0.00537669
0.00537361
0.00533159
0.00525164
0.00513552
0.00498568
0.00480518
0.00459763
0.00436707
0.00411783
0.00385444
0.0035815
0.00330355
0.00302498
0.00274983
0.00248179
0.00222532
0.00198436
0.00174653
0.00149919
0.00248005
0.00197785
0.00157942
0.00125197
0.000956411
0.000691878
0.000458004
0.000251791
7.03738e-05
-8.87233e-05
-0.00022775
-0.000348721
-0.000453378
-0.000543183
-0.000619307
-0.000682626
-0.000733724
-0.000772902
-0.000800191
-0.000815379
-0.000818034
-0.000807538
-0.000783121
-0.0007439
-0.000688919
-0.000617197
-0.000527772
-0.000419756
-0.000292384
-0.000145063
2.25759e-05
0.000210634
0.000418893
0.000646783
0.000893339
0.00115718
0.00143649
0.00172902
0.00203207
0.00234251
0.00265684
0.0029712
0.00328147
0.00358329
0.0038722
0.00414372
0.00439345
0.00461718
0.00481104
0.00497157
0.00509583
0.00518151
0.00522701
0.0052315
0.00519492
0.00511803
0.00500241
0.00485034
0.00466481
0.00444938
0.0042081
0.00394537
0.00366582
0.0033742
0.00307521
0.00277343
0.00247311
0.00217816
0.00189344
0.00162329
0.0013531
0.00106828
0.00256763
0.00202428
0.00159499
0.00124409
0.000928806
0.000647868
0.000400504
0.000183108
-7.76438e-06
-0.000175099
-0.000321597
-0.000449665
-0.000561378
-0.000658471
-0.000742329
-0.000813993
-0.00087416
-0.000923196
-0.000961157
-0.000987815
-0.00100269
-0.00100507
-0.000994091
-0.000968715
-0.000927828
-0.000870264
-0.000794864
-0.000700527
-0.000586269
-0.000451271
-0.000294938
-0.000116948
8.26918e-05
0.000303607
0.000545008
0.000805666
0.00108388
0.00137748
0.00168381
0.00199974
0.00232172
0.00264578
0.00296764
0.00328274
0.00358635
0.00387369
0.00414
0.0043807
0.00459149
0.00476849
0.00490832
0.00500824
0.00506624
0.00508108
0.00505238
0.00498059
0.00486704
0.00471386
0.00452392
0.00430075
0.00404841
0.00377142
0.00347454
0.00316272
0.00284091
0.00251398
0.00218644
0.00186254
0.00154764
0.00124658
0.00094256
0.000619059
0.00260479
0.00202195
0.001563
0.00118942
0.00085494
0.000557866
0.000297038
6.82569e-05
-0.000132476
-0.000308636
-0.000463354
-0.000599408
-0.000719183
-0.000824665
-0.000917436
-0.00099868
-0.00106919
-0.00112938
-0.00117932
-0.00121875
-0.00124712
-0.00126363
-0.00126728
-0.00125689
-0.00123117
-0.00118875
-0.00112827
-0.00104839
-0.000947896
-0.000825728
-0.000681046
-0.000513291
-0.000322238
-0.000108047
0.000128688
0.000386905
0.000665042
0.00096102
0.00127224
0.00159557
0.00192742
0.00226372
0.0026
0.00293149
0.00325319
0.00355995
0.00384664
0.00410824
0.00433997
0.00453746
0.00469682
0.00481482
0.00488895
0.00491751
0.00489969
0.00483562
0.00472631
0.00457368
0.00438047
0.00415018
0.00388691
0.00359527
0.00328023
0.002947
0.00260084
0.00224697
0.0018903
0.00153545
0.00118842
0.000854641
0.00051511
0.000151386
0.00258637
0.00196583
0.00147848
0.00108312
0.000730085
0.000417269
0.000143123
-9.71285e-05
-0.000308022
-0.000493501
-0.000657108
-0.000801973
-0.00093077
-0.00104572
-0.00114857
-0.00124065
-0.00132281
-0.00139551
-0.00145882
-0.00151241
-0.00155569
-0.00158772
-0.00160738
-0.00161331
-0.00160403
-0.00157798
-0.00153355
-0.00146917
-0.00138338
-0.00127484
-0.00114245
-0.00098541
-0.000803224
-0.000595818
-0.000363566
-0.000107338
0.000171463
0.000470876
0.000788372
0.00112085
0.00146466
0.00181565
0.00216917
0.00252023
0.0028635
0.00319348
0.0035046
0.00379134
0.00404842
0.00427087
0.00445425
0.00459471
0.00468919
0.00473544
0.00473217
0.00467906
0.00457677
0.00442697
0.00423223
0.00399597
0.00372234
0.0034161
0.00308245
0.00272688
0.00235507
0.00197265
0.001585
0.00119725
0.000816078
0.00044763
7.06673e-05
-0.000335229
0.00250749
0.00185111
0.00133674
0.000920566
0.000549717
0.000221644
-6.55826e-05
-0.000317304
-0.000538578
-0.000733802
-0.000906913
-0.00106137
-0.00120012
-0.0013256
-0.00143973
-0.00154391
-0.00163909
-0.00172574
-0.00180388
-0.00187317
-0.00193288
-0.00198199
-0.0020192
-0.00204299
-0.00205167
-0.00204346
-0.00201649
-0.00196895
-0.00189908
-0.0018053
-0.0016862
-0.00154068
-0.00136799
-0.00116778
-0.000940171
-0.000685812
-0.000405918
-0.0001023
0.000222609
0.000565754
0.000923463
0.00129148
0.00166502
0.00203883
0.00240726
0.00276442
0.00310427
0.00342076
0.00370798
0.00396036
0.00417276
0.00434069
0.00446039
0.004529
0.00454463
0.00450643
0.00441465
0.00427061
0.00407669
0.00383621
0.00355334
0.00323301
0.00288065
0.00250215
0.00210361
0.00169118
0.0012708
0.000848168
0.000430778
2.55493e-05
-0.000391052
-0.000841507
0.00236348
0.00167323
0.0011333
0.000697376
0.00030952
-3.32497e-05
-0.000333253
-0.000596382
-0.000828204
-0.00103355
-0.00121675
-0.00138156
-0.0015312
-0.00166828
-0.00179488
-0.0019125
-0.00202212
-0.00212421
-0.00221878
-0.00230539
-0.00238324
-0.00245115
-0.00250766
-0.00255107
-0.00257946
-0.00259081
-0.00258301
-0.00255395
-0.00250159
-0.00242403
-0.00231957
-0.00218678
-0.0020246
-0.00183238
-0.00160997
-0.00135773
-0.00107668
-0.000768422
-0.000435267
-8.01944e-05
0.000293131
0.000680384
0.00107662
0.00147636
0.00187361
0.00226208
0.0026352
0.00298634
0.00330895
0.00359671
0.00384375
0.00404478
0.00419529
0.00429165
0.00433128
0.00431273
0.0042357
0.00410112
0.00391108
0.00366877
0.00337837
0.00304495
0.00267425
0.00227254
0.00184645
0.00140273
0.000947927
0.000488422
3.2622e-05
-0.000411681
-0.000870437
-0.0013683
0.00214993
0.00142789
0.000863936
0.000409401
5.41115e-06
-0.000351441
-0.000663867
-0.0009383
-0.0011808
-0.00139663
-0.00159047
-0.0017664
-0.00192784
-0.00207763
-0.00221794
-0.00235036
-0.0024759
-0.00259504
-0.00270772
-0.00281345
-0.00291127
-0.00299989
-0.00307766
-0.00314267
-0.00319279
-0.00322573
-0.00323911
-0.00323052
-0.0031976
-0.00313812
-0.00305005
-0.0029316
-0.00278137
-0.00259838
-0.00238213
-0.00213271
-0.00185083
-0.0015379
-0.00119603
-0.000828083
-0.00043769
-2.92132e-05
0.000392276
0.000821053
0.00125083
0.00167483
0.00208599
0.00247703
0.00284066
0.00316978
0.00345766
0.00369813
0.00388577
0.00401609
0.00408569
0.00409237
0.0040352
0.00391459
0.00373228
0.00349125
0.00319568
0.00285076
0.00246255
0.00203776
0.00158358
0.00110744
0.000616619
0.000118237
-0.000378271
-0.000864141
-0.00136789
-0.00191648
0.0018627
0.00111105
0.00052471
5.27529e-05
-0.000366444
-0.00073672
-0.00106118
-0.00134679
-0.00160008
-0.00182674
-0.00203178
-0.00221957
-0.00239378
-0.00255738
-0.00271268
-0.00286133
-0.00300438
-0.00314225
-0.00327485
-0.00340159
-0.0035214
-0.00363282
-0.00373402
-0.00382287
-0.003897
-0.00395385
-0.00399075
-0.00400497
-0.00399381
-0.00395468
-0.00388517
-0.00378314
-0.00364677
-0.00347471
-0.00326609
-0.00302064
-0.00273875
-0.00242155
-0.00207091
-0.00168954
-0.00128096
-0.000849543
-0.000400458
6.0365e-05
0.00052631
0.000990177
0.00144431
0.00188077
0.00229148
0.00266845
0.003004
0.00329094
0.00352284
0.0036942
0.00380064
0.00383907
0.0038078
0.00370661
0.00353676
0.00330097
0.00300333
0.00264916
0.00224481
0.00179749
0.00131502
0.00080556
0.000277204
-0.000262071
-0.000801696
-0.00133183
-0.00188374
-0.00248688
0.0014979
0.000718975
0.000111956
-0.000376173
-0.000809604
-0.00119261
-0.00152869
-0.00182532
-0.00208951
-0.00232733
-0.00254414
-0.00274457
-0.00293251
-0.00311108
-0.0032827
-0.00344908
-0.00361126
-0.00376966
-0.00392411
-0.00407392
-0.00421789
-0.00435439
-0.0044814
-0.00459657
-0.00469728
-0.00478067
-0.00484377
-0.00488351
-0.00489683
-0.00488074
-0.00483244
-0.00474936
-0.00462926
-0.00447035
-0.00427135
-0.00403157
-0.00375102
-0.00343046
-0.0030715
-0.00267659
-0.00224913
-0.00179341
-0.00131467
-0.000818995
-0.000313319
0.000194725
0.000696904
0.00118455
0.00164875
0.00208056
0.00247122
0.00281241
0.00309654
0.00331692
0.00346806
0.0035458
0.00354752
0.00347221
0.00332056
0.00309488
0.00279913
0.00243869
0.00202023
0.00155144
0.00104084
0.000497411
-6.98583e-05
-0.000652033
-0.00123729
-0.00181458
-0.00241815
-0.00308015
0.00105199
0.000248219
-0.000377682
-0.000880677
-0.00132733
-0.00172235
-0.00206962
-0.00237712
-0.0026523
-0.00290163
-0.00313077
-0.00334463
-0.00354729
-0.00374203
-0.00393134
-0.00411699
-0.00430003
-0.00448083
-0.00465917
-0.00483424
-0.0050047
-0.00516876
-0.00532419
-0.00546842
-0.00559853
-0.00571141
-0.00580373
-0.00587208
-0.005913
-0.0059231
-0.00589912
-0.00583805
-0.00573717
-0.00559419
-0.00540736
-0.00517553
-0.00489823
-0.00457583
-0.00420954
-0.00380154
-0.00335498
-0.00287405
-0.00236395
-0.00183092
-0.00128215
-0.000725691
-0.000170364
0.000374421
0.00089885
0.00139293
0.00184673
0.00225069
0.00259587
0.00287424
0.00307898
0.00320469
0.00324762
0.00320581
0.00307918
0.00286956
0.00258061
0.00221775
0.00178792
0.00129933
0.000761218
0.000183477
-0.000423918
-0.00105096
-0.00168444
-0.00231198
-0.00297105
-0.0036967
0.000521732
-0.000304319
-0.000947227
-0.00146373
-0.00192257
-0.00232885
-0.00268686
-0.00300506
-0.00329134
-0.00355252
-0.00379459
-0.00402268
-0.00424108
-0.0044532
-0.00466162
-0.00486815
-0.00507383
-0.00527901
-0.00548337
-0.00568601
-0.00588545
-0.00607972
-0.00626638
-0.00644262
-0.00660526
-0.00675087
-0.00687578
-0.0069762
-0.00704826
-0.00708814
-0.0070921
-0.00705661
-0.00697844
-0.00685478
-0.0066833
-0.00646231
-0.00619084
-0.00586874
-0.00549677
-0.00507673
-0.00461145
-0.00410492
-0.00356226
-0.00298976
-0.00239482
-0.0017859
-0.00117237
-0.000564419
2.72046e-05
0.000591389
0.00111694
0.00159288
0.00200879
0.00235509
0.00262344
0.00280697
0.00290058
0.00290113
0.0028076
0.00262113
0.002345
0.00198455
0.00154695
0.00104091
0.000476449
-0.000135571
-0.000784078
-0.00145789
-0.00214224
-0.00282329
-0.00354202
-0.0043366
-9.57209e-05
-0.000941375
-0.00159934
-0.00212796
-0.00259789
-0.00301468
-0.00338298
-0.00371171
-0.00400919
-0.00428257
-0.00453815
-0.00478129
-0.00501647
-0.00524721
-0.00547618
-0.00570523
-0.0059354
-0.00616698
-0.0063996
-0.00663224
-0.00686328
-0.00709056
-0.00731146
-0.00752289
-0.00772143
-0.00790329
-0.00806448
-0.00820081
-0.00830797
-0.00838167
-0.00841766
-0.00841186
-0.00836048
-0.0082601
-0.00810778
-0.00790122
-0.00763883
-0.00731989
-0.0069446
-0.00651426
-0.00603132
-0.00549945
-0.0049236
-0.00431004
-0.00366629
-0.00300116
-0.00232458
-0.00164746
-0.000981543
-0.000339113
0.000267262
0.000825072
0.00132222
0.00174741
0.00209051
0.00234295
0.00249802
0.00255115
0.00250015
0.00234525
0.0020892
0.00173711
0.0012963
0.00077599
0.000186982
-0.000458815
-0.00114913
-0.00187148
-0.00260938
-0.00334736
-0.00413021
-0.00499949
-0.00080282
-0.0016653
-0.00233631
-0.00287559
-0.00335552
-0.00378203
-0.00416015
-0.00449924
-0.00480801
-0.00509394
-0.00536362
-0.00562263
-0.00587561
-0.00612622
-0.00637721
-0.00663045
-0.00688697
-0.00714705
-0.00741023
-0.00767537
-0.00794072
-0.00820396
-0.00846225
-0.00871226
-0.00895027
-0.0091722
-0.00937367
-0.00955008
-0.00969668
-0.00980867
-0.00988126
-0.00990979
-0.00988984
-0.00981733
-0.00968865
-0.0095008
-0.00925148
-0.0089393
-0.00856381
-0.00812572
-0.00762694
-0.00707074
-0.00646179
-0.0058062
-0.00511157
-0.00438696
-0.00364277
-0.00289067
-0.00214336
-0.00141437
-0.000717707
-6.75662e-05
0.000522124
0.00103811
0.00146825
0.00180198
0.00203068
0.00214809
0.00215053
0.00203709
0.00180974
0.00147323
0.00103491
0.000504452
-0.00010654
-0.000785046
-0.0015175
-0.00228997
-0.00308405
-0.00388251
-0.00473423
-0.00568447
-0.00160158
-0.002478
-0.00315998
-0.00370847
-0.00419727
-0.0046327
-0.00502016
-0.00536943
-0.00568956
-0.00598838
-0.00627272
-0.0065484
-0.00682021
-0.00709193
-0.00736638
-0.00764547
-0.00793023
-0.00822091
-0.00851696
-0.00881717
-0.00911963
-0.00942187
-0.00972082
-0.0100129
-0.0102942
-0.0105602
-0.0108062
-0.0110272
-0.0112179
-0.0113731
-0.0114873
-0.0115553
-0.011572
-0.0115325
-0.0114326
-0.0112685
-0.011037
-0.010736
-0.0103642
-0.00992175
-0.00940982
-0.00883115
-0.00818999
-0.00749221
-0.00674533
-0.00595856
-0.00514273
-0.00431017
-0.00347455
-0.00265065
-0.00185401
-0.00110061
-0.000406388
0.000213221
0.000743806
0.0011725
0.00148847
0.00168339
0.00175177
0.00169127
0.00150279
0.0011905
0.000761655
0.000226276
-0.000403239
-0.00111271
-0.00188715
-0.00271105
-0.00356391
-0.00442646
-0.00535209
-0.00638998
-0.00249356
-0.00338098
-0.00407181
-0.00462799
-0.00512452
-0.00556806
-0.00596437
-0.0063236
-0.00665516
-0.00696718
-0.00726672
-0.00755983
-0.00785144
-0.00814545
-0.00844477
-0.00875134
-0.0090662
-0.00938955
-0.0097208
-0.0100586
-0.010401
-0.0107453
-0.0110883
-0.0114262
-0.0117546
-0.0120689
-0.0123639
-0.0126342
-0.0128741
-0.0130776
-0.0132389
-0.0133519
-0.013411
-0.0134104
-0.013345
-0.0132102
-0.013002
-0.0127174
-0.0123542
-0.0119117
-0.0113902
-0.0107919
-0.0101204
-0.00938111
-0.00858147
-0.00773067
-0.00683983
-0.00592188
-0.00499139
-0.0040644
-0.00315803
-0.00229014
-0.00147885
-0.000741973
-9.64844e-05
0.000442129
0.000860455
0.00114771
0.00129625
0.00130187
0.00116413
0.000886321
0.000475377
-5.84337e-05
-0.00070196
-0.00143982
-0.00225553
-0.00313183
-0.00404588
-0.0049762
-0.005981
-0.00711371
-0.0034798
-0.00437523
-0.00507277
-0.00563514
-0.00613823
-0.00658905
-0.0069937
-0.00736265
-0.00770566
-0.00803113
-0.00834636
-0.00865758
-0.0089699
-0.00928733
-0.00961285
-0.00994844
-0.0102952
-0.0106532
-0.0110219
-0.0113999
-0.011785
-0.0121745
-0.0125649
-0.0129521
-0.0133317
-0.0136986
-0.0140472
-0.0143717
-0.0146659
-0.0149234
-0.0151375
-0.0153016
-0.0154092
-0.0154537
-0.0154293
-0.0153302
-0.0151516
-0.0148894
-0.0145405
-0.014103
-0.0135766
-0.0129624
-0.0122635
-0.0114845
-0.0106326
-0.00971688
-0.00874853
-0.00774099
-0.00670968
-0.00567182
-0.00464613
-0.00365243
-0.00271114
-0.0018427
-0.00106691
-0.000402213
0.000134998
0.000531075
0.000775727
0.000862519
0.000789206
0.000557884
0.000174906
-0.0003494
-0.00100121
-0.00176393
-0.00261948
-0.00354869
-0.00452614
-0.00552788
-0.00661731
-0.00785243
-0.00456086
-0.00546128
-0.00616339
-0.00673042
-0.0072389
-0.00769617
-0.0081086
-0.008487
-0.00884143
-0.00918052
-0.00951184
-0.00984178
-0.0101756
-0.0105174
-0.0108704
-0.0112364
-0.0116166
-0.0120112
-0.0124195
-0.0128401
-0.0132706
-0.0137082
-0.0141493
-0.0145896
-0.0150244
-0.0154481
-0.0158551
-0.0162389
-0.0165928
-0.0169099
-0.0171828
-0.0174043
-0.017567
-0.0176635
-0.0176868
-0.0176304
-0.0174883
-0.0172553
-0.0169272
-0.016501
-0.0159753
-0.0153502
-0.0146277
-0.0138121
-0.0129096
-0.0119291
-0.0108818
-0.00978146
-0.00864418
-0.00748831
-0.00633413
-0.00520345
-0.00411912
-0.00310437
-0.0021821
-0.00137408
-0.000700075
-0.00017709
0.00018146
0.000366373
0.00037315
0.000202253
-0.000140886
-0.000646124
-0.0012991
-0.00208202
-0.00297512
-0.00395719
-0.00499993
-0.00607665
-0.00725636
-0.00860188
-0.00573676
-0.00663918
-0.0073437
-0.00791389
-0.0084266
-0.00888944
-0.00930907
-0.0096966
-0.0100623
-0.0104151
-0.0107628
-0.0111119
-0.0114679
-0.0118349
-0.0122163
-0.012614
-0.0130292
-0.0134621
-0.0139119
-0.0143773
-0.0148557
-0.0153443
-0.0158393
-0.0163362
-0.01683
-0.0173149
-0.0177848
-0.0182329
-0.018652
-0.0190345
-0.0193725
-0.0196579
-0.0198825
-0.020038
-0.0201165
-0.0201103
-0.0200123
-0.019816
-0.019516
-0.0191082
-0.0185898
-0.0179597
-0.017219
-0.0163707
-0.0154206
-0.0143768
-0.0132504
-0.0120553
-0.010808
-0.00952789
-0.00823676
-0.00695839
-0.00571812
-0.00454213
-0.00345668
-0.00248717
-0.00165723
-0.000987699
-0.000495677
-0.000193708
-8.91131e-05
-0.000183574
-0.000473017
-0.000947805
-0.00159323
-0.00239038
-0.00331775
-0.0043519
-0.00546142
-0.00661654
-0.00789227
-0.00935657
-0.00700698
-0.00790844
-0.00861329
-0.00918515
-0.00970093
-0.0101685
-0.0105947
-0.0109909
-0.0113677
-0.0117342
-0.0120983
-0.0124669
-0.0128454
-0.0132383
-0.0136489
-0.0140792
-0.0145306
-0.0150032
-0.0154963
-0.0160084
-0.0165371
-0.0170792
-0.017631
-0.0181878
-0.0187443
-0.0192945
-0.0198319
-0.0203492
-0.0208388
-0.0212926
-0.0217019
-0.0220578
-0.0223513
-0.0225733
-0.0227146
-0.0227664
-0.0227205
-0.0225691
-0.0223054
-0.0219238
-0.0214203
-0.0207923
-0.0200397
-0.0191643
-0.0181708
-0.0170667
-0.0158624
-0.0145718
-0.0132118
-0.0118025
-0.010367
-0.00893099
-0.00752236
-0.00617033
-0.00490473
-0.00375495
-0.00274889
-0.00191176
-0.00126495
-0.000825017
-0.000602736
-0.000602556
-0.000822294
-0.00125324
-0.00188062
-0.00268452
-0.00364169
-0.00472632
-0.00590356
-0.00714026
-0.00851781
-0.0101096
-0.00837046
-0.00926813
-0.00997128
-0.0105434
-0.0110611
-0.0115324
-0.0119645
-0.0123689
-0.0127564
-0.0131363
-0.0135168
-0.0139049
-0.0143062
-0.0147252
-0.0151655
-0.0156292
-0.0161176
-0.0166309
-0.0171686
-0.0177291
-0.0183099
-0.0189079
-0.0195192
-0.0201388
-0.0207614
-0.0213807
-0.0219898
-0.0225811
-0.0231465
-0.0236771
-0.0241638
-0.0245968
-0.0249663
-0.0252621
-0.025474
-0.0255921
-0.0256067
-0.0255087
-0.02529
-0.0249434
-0.0244631
-0.0238454
-0.0230884
-0.0221926
-0.0211615
-0.0200014
-0.0187221
-0.0173371
-0.0158632
-0.0143211
-0.0127351
-0.0111328
-0.00954421
-0.00800186
-0.00653927
-0.00519011
-0.00398697
-0.00295998
-0.0021355
-0.00153475
-0.00117276
-0.00105745
-0.00118918
-0.0015607
-0.00215756
-0.00295904
-0.00394018
-0.00507266
-0.00631791
-0.00763901
-0.00912417
-0.0108524
-0.00982561
-0.0107168
-0.0114163
-0.0119873
-0.0125057
-0.0129799
-0.0134171
-0.0138291
-0.0142268
-0.0146198
-0.0150163
-0.0154236
-0.0158474
-0.0162926
-0.0167626
-0.0172599
-0.0177858
-0.0183406
-0.0189238
-0.0195338
-0.0201683
-0.020824
-0.0214968
-0.0221819
-0.0228736
-0.0235654
-0.0242501
-0.0249198
-0.0255657
-0.0261785
-0.0267484
-0.027265
-0.0277173
-0.0280943
-0.0283847
-0.0285773
-0.0286611
-0.0286255
-0.0284608
-0.0281583
-0.0277106
-0.0271122
-0.0263593
-0.0254511
-0.0243895
-0.0231794
-0.0218296
-0.0203528
-0.0187657
-0.0170891
-0.0153483
-0.0135722
-0.0117934
-0.0100474
-0.00837152
-0.00680395
-0.00538235
-0.00414234
-0.00311588
-0.00232969
-0.00180384
-0.00155057
-0.00157359
-0.00186776
-0.00241944
-0.00320743
-0.00420513
-0.00538166
-0.0066944
-0.00810231
-0.00970077
-0.0115748
-0.0113703
-0.0122526
-0.0129467
-0.0135152
-0.0140333
-0.0145094
-0.0149509
-0.0153697
-0.0157769
-0.0161822
-0.0165941
-0.0170199
-0.0174658
-0.0179366
-0.0184361
-0.0189667
-0.01953
-0.0201264
-0.0207554
-0.0214157
-0.0221047
-0.0228194
-0.0235555
-0.0243081
-0.0250713
-0.0258385
-0.0266022
-0.0273541
-0.0280849
-0.0287849
-0.0294435
-0.0300496
-0.0305913
-0.0310567
-0.0314332
-0.0317084
-0.0318699
-0.0319058
-0.0318046
-0.0315559
-0.0311505
-0.0305809
-0.0298419
-0.0289304
-0.0278466
-0.026594
-0.0251799
-0.0236159
-0.0219181
-0.0201073
-0.0182092
-0.0162539
-0.0142763
-0.0123146
-0.0104101
-0.00860562
-0.00694421
-0.00546747
-0.00421365
-0.00321579
-0.00249992
-0.00208358
-0.0019747
-0.00217109
-0.00266057
-0.00342187
-0.00442698
-0.00564238
-0.00702114
-0.00851766
-0.010235
-0.0122642
-0.0130021
-0.0138731
-0.0145603
-0.0151251
-0.0156419
-0.0161189
-0.0165638
-0.0169884
-0.0174041
-0.0178207
-0.0182469
-0.0186903
-0.0191572
-0.0196526
-0.0201806
-0.0207437
-0.0213438
-0.0219813
-0.022656
-0.0233665
-0.0241104
-0.0248846