/*--------------------------------*- C++ -*----------------------------------*\
  =========                 |
  \\      /  F ield         | OpenFOAM: The Open Source CFD Toolbox
   \\    /   O peration     | Website:  https://openfoam.org
    \\  /    A nd           | Version:  dev
     \\/     M anipulation  |
\*---------------------------------------------------------------------------*/
FoamFile
{
    format      ascii;
    class       surfaceScalarField;
    location    "26.55";
    object      phi;
}
// * * * * * * * * * * * * * * * * * * * * * * * * * * * * * * * * * * * * * //

dimensions      [0 3 -1 0 0 0 0];

internalField   nonuniform List<scalar> 
10224
(
3.36402e-08
-3.50158e-08
8.77533e-08
-5.41052e-08
1.24318e-07
-3.65614e-08
1.25273e-07
-9.58422e-10
8.36447e-08
4.16261e-08
-1.83403e-09
8.54779e-08
-1.29337e-07
1.27503e-07
-2.95559e-07
1.66224e-07
-4.96441e-07
2.00883e-07
-7.27682e-07
2.31242e-07
-9.85014e-07
2.57333e-07
-1.26435e-06
2.79333e-07
-1.56184e-06
2.97495e-07
-1.87394e-06
3.12103e-07
-2.19738e-06
3.23441e-07
-2.52916e-06
3.31775e-07
-2.8665e-06
3.37343e-07
-3.20685e-06
3.40345e-07
-3.54779e-06
3.40942e-07
-3.88705e-06
3.39257e-07
-4.22242e-06
3.35376e-07
-4.55177e-06
3.2935e-07
-4.87297e-06
3.21204e-07
-5.18391e-06
3.10942e-07
-5.48246e-06
2.98552e-07
-5.76648e-06
2.84012e-07
-6.03378e-06
2.67301e-07
-6.28218e-06
2.48402e-07
-6.50949e-06
2.27309e-07
-6.71352e-06
2.04038e-07
-6.89215e-06
1.78627e-07
-7.04329e-06
1.51142e-07
-7.16498e-06
1.21687e-07
-7.25538e-06
9.04001e-08
-7.31284e-06
5.74622e-08
-7.33594e-06
2.30954e-08
-7.3235e-06
-1.24344e-08
-7.27468e-06
-4.8819e-08
-7.18897e-06
-8.57092e-08
-7.06626e-06
-1.22718e-07
-6.90683e-06
-1.59424e-07
-6.71145e-06
-1.9538e-07
-6.48134e-06
-2.30115e-07
-6.21819e-06
-2.63146e-07
-5.9242e-06
-2.93986e-07
-5.60205e-06
-3.22154e-07
-5.25487e-06
-3.47182e-07
-4.88623e-06
-3.68633e-07
-4.50013e-06
-3.86104e-07
-4.10089e-06
-3.99243e-07
-3.69313e-06
-4.07753e-07
-3.28173e-06
-4.11404e-07
-2.87169e-06
-4.10041e-07
-2.4681e-06
-4.03589e-07
-2.07604e-06
-3.92056e-07
-1.7005e-06
-3.7554e-07
-1.34628e-06
-3.54224e-07
-1.01789e-06
-3.28383e-07
-7.19512e-07
-2.98379e-07
-4.54852e-07
-2.64659e-07
-2.27089e-07
-2.27762e-07
-3.87675e-08
-1.8832e-07
1.08305e-07
-1.47072e-07
2.13191e-07
-1.04886e-07
2.76002e-07
-6.28124e-08
2.98171e-07
-2.21695e-08
2.82873e-07
1.52975e-08
2.35702e-07
4.71714e-08
1.65714e-07
6.99893e-08
8.71993e-08
7.85202e-08
2.25348e-08
6.46768e-08
2.25457e-08
5.38116e-08
-8.88195e-08
1.12293e-07
-1.12584e-07
1.18079e-07
-4.23527e-08
3.87714e-08
7.83441e-08
-1.42028e-07
2.22423e-07
-4.29638e-07
3.73088e-07
-8.22291e-07
5.20158e-07
-1.31385e-06
6.57779e-07
-1.89574e-06
7.82776e-07
-2.55816e-06
8.93663e-07
-3.29083e-06
9.90008e-07
-4.08351e-06
1.07202e-06
-4.92628e-06
1.14027e-06
-5.8097e-06
1.19553e-06
-6.72489e-06
1.23863e-06
-7.66352e-06
1.2704e-06
-8.61779e-06
1.29161e-06
-9.58035e-06
1.30291e-06
-1.05443e-05
1.30484e-06
-1.15028e-05
1.29785e-06
-1.24497e-05
1.28224e-06
-1.33786e-05
1.25822e-06
-1.42833e-05
1.2259e-06
-1.51577e-05
1.18534e-06
-1.59956e-05
1.13653e-06
-1.67911e-05
1.07946e-06
-1.75379e-05
1.01409e-06
-1.82299e-05
9.4042e-07
-1.88611e-05
8.58502e-07
-1.94255e-05
7.68446e-07
-1.99173e-05
6.70456e-07
-2.0331e-05
5.64843e-07
-2.06614e-05
4.5204e-07
-2.09036e-05
3.32616e-07
-2.10534e-05
2.07284e-07
-2.11072e-05
7.69073e-08
-2.10622e-05
-5.74979e-08
-2.09162e-05
-1.94768e-07
-2.06683e-05
-3.33595e-07
-2.03185e-05
-4.72544e-07
-1.98679e-05
-6.10062e-07
-1.93187e-05
-7.44503e-07
-1.86747e-05
-8.74153e-07
-1.79406e-05
-9.97256e-07
-1.71225e-05
-1.11205e-06
-1.62279e-05
-1.21679e-06
-1.52653e-05
-1.30981e-06
-1.42443e-05
-1.38954e-06
-1.31759e-05
-1.45453e-06
-1.20716e-05
-1.50354e-06
-1.09439e-05
-1.5355e-06
-9.80567e-06
-1.5496e-06
-8.6704e-06
-1.54532e-06
-7.55159e-06
-1.52239e-06
-6.46277e-06
-1.48088e-06
-5.41715e-06
-1.42115e-06
-4.42745e-06
-1.34393e-06
-3.5056e-06
-1.25023e-06
-2.66255e-06
-1.14143e-06
-1.90799e-06
-1.01922e-06
-1.2501e-06
-8.85657e-07
-6.95266e-07
-7.43151e-07
-2.47805e-07
-5.94532e-07
9.04372e-08
-4.43127e-07
3.20538e-07
-2.92911e-07
4.47094e-07
-1.48723e-07
4.79097e-07
-1.67005e-08
4.31017e-07
9.52536e-08
3.24288e-07
1.76711e-07
1.88916e-07
2.13875e-07
6.43492e-08
1.89221e-07
8.69031e-08
3.72942e-08
-1.26111e-07
4.32217e-08
-1.18517e-07
-4.33957e-08
4.42599e-08
-2.58833e-07
2.93779e-07
-6.22701e-07
5.86291e-07
-1.14211e-06
8.92502e-07
-1.81534e-06
1.19338e-06
-2.63472e-06
1.47716e-06
-3.58888e-06
1.73695e-06
-4.66432e-06
1.96911e-06
-5.84646e-06
2.17215e-06
-7.12042e-06
2.34598e-06
-8.4715e-06
2.49135e-06
-9.88546e-06
2.60948e-06
-1.13487e-05
2.70185e-06
-1.28482e-05
2.76994e-06
-1.43718e-05
2.81519e-06
-1.59077e-05
2.83887e-06
-1.74449e-05
2.84204e-06
-1.89727e-05
2.82558e-06
-2.04806e-05
2.79012e-06
-2.19584e-05
2.73611e-06
-2.33964e-05
2.66384e-06
-2.47845e-05
2.57345e-06
-2.6113e-05
2.46501e-06
-2.73721e-05
2.33854e-06
-2.8552e-05
2.19407e-06
-2.96433e-05
2.03169e-06
-3.06364e-05
1.85158e-06
-3.1522e-05
1.65408e-06
-3.22913e-05
1.43972e-06
-3.29357e-05
1.20926e-06
-3.34473e-05
9.63682e-07
-3.3819e-05
7.0429e-07
-3.40444e-05
4.32663e-07
-3.41182e-05
1.50696e-07
-3.40363e-05
-1.39409e-07
-3.37959e-05
-4.35147e-07
-3.33958e-05
-7.33724e-07
-3.28362e-05
-1.03209e-06
-3.21193e-05
-1.32695e-06
-3.1249e-05
-1.61484e-06
-3.0231e-05
-1.89217e-06
-2.9073e-05
-2.15526e-06
-2.77846e-05
-2.40042e-06
-2.63773e-05
-2.62404e-06
-2.48645e-05
-2.82263e-06
-2.32611e-05
-2.99294e-06
-2.15837e-05
-3.13198e-06
-1.98501e-05
-3.23716e-06
-1.80793e-05
-3.30631e-06
-1.62911e-05
-3.33777e-06
-1.4506e-05
-3.33044e-06
-1.27445e-05
-3.28383e-06
-1.10273e-05
-3.19809e-06
-9.37441e-06
-3.07404e-06
-7.80514e-06
-2.9132e-06
-6.33758e-06
-2.71779e-06
-4.98828e-06
-2.49073e-06
-3.77182e-06
-2.23568e-06
-2.70044e-06
-1.95703e-06
-1.78362e-06
-1.65997e-06
-1.02758e-06
-1.35057e-06
-4.34804e-07
-1.03591e-06
-3.37345e-09
-7.24342e-07
2.73776e-07
-4.25873e-07
4.09709e-07
-1.52633e-07
4.24659e-07
8.03093e-08
3.4725e-07
2.54135e-07
2.15672e-07
3.45468e-07
7.86119e-08
3.2627e-07
1.65519e-07
1.88007e-09
-1.27993e-07
-7.90023e-08
-3.76392e-08
-2.97689e-07
2.62944e-07
-6.87895e-07
6.83985e-07
-1.26793e-06
1.16633e-06
-2.04407e-06
1.66865e-06
-3.01353e-06
2.16284e-06
-4.16704e-06
2.63068e-06
-5.49102e-06
3.06093e-06
-6.96914e-06
3.44722e-06
-8.58356e-06
3.78657e-06
-1.03158e-05
4.07824e-06
-1.21474e-05
4.32292e-06
-1.40601e-05
4.52222e-06
-1.60364e-05
4.67816e-06
-1.80594e-05
4.79294e-06
-2.01129e-05
4.86869e-06
-2.21814e-05
4.90736e-06
-2.425e-05
4.91062e-06
-2.63043e-05
4.87983e-06
-2.83302e-05
4.81603e-06
-3.0314e-05
4.71999e-06
-3.22424e-05
4.5922e-06
-3.41019e-05
4.43298e-06
-3.58794e-05
4.24253e-06
-3.75619e-05
4.02097e-06
-3.91363e-05
3.76847e-06
-4.05899e-05
3.48532e-06
-4.19103e-05
3.17194e-06
-4.30852e-05
2.82906e-06
-4.41032e-05
2.45768e-06
-4.49531e-05
2.0592e-06
-4.56249e-05
1.63545e-06
-4.61093e-05
1.1887e-06
-4.63984e-05
7.21725e-07
-4.64855e-05
2.37809e-07
-4.63656e-05
-2.5927e-07
-4.60355e-05
-7.65237e-07
-4.54939e-05
-1.27535e-06
-4.47415e-05
-1.78446e-06
-4.37814e-05
-2.28704e-06
-4.2619e-05
-2.77728e-06
-4.1262e-05
-3.24915e-06
-3.97207e-05
-3.69654e-06
-3.80078e-05
-4.11331e-06
-3.61384e-05
-4.49344e-06
-3.41299e-05
-4.83118e-06
-3.20017e-05
-5.12111e-06
-2.97754e-05
-5.35832e-06
-2.7474e-05
-5.5385e-06
-2.51222e-05
-5.6581e-06
-2.27456e-05
-5.71438e-06
-2.03705e-05
-5.70553e-06
-1.80236e-05
-5.63077e-06
-1.57313e-05
-5.49038e-06
-1.35196e-05
-5.28578e-06
-1.14132e-05
-5.01955e-06
-9.43556e-06
-4.69544e-06
-7.60788e-06
-4.31841e-06
-5.94891e-06
-3.89464e-06
-4.47436e-06
-3.43158e-06
-3.19632e-06
-2.93801e-06
-2.12277e-06
-2.42412e-06
-1.2569e-06
-1.90178e-06
-5.96462e-07
-1.38478e-06
-1.33028e-07
-8.89305e-07
1.48894e-07
-4.34557e-07
2.72759e-07
-4.3561e-08
2.71026e-07
2.5587e-07
1.86186e-07
4.30319e-07
7.21774e-08
4.40274e-07
2.37698e-07
-4.20625e-08
-8.59332e-08
-2.30029e-07
1.50327e-07
-6.0649e-07
6.39405e-07
-1.19802e-06
1.27552e-06
-2.01836e-06
1.98667e-06
-3.07067e-06
2.72096e-06
-4.34978e-06
3.44195e-06
-5.84426e-06
4.12515e-06
-7.53824e-06
4.75491e-06
-9.41292e-06
5.32191e-06
-1.14478e-05
5.82142e-06
-1.36214e-05
6.25183e-06
-1.59121e-05
6.61363e-06
-1.82985e-05
6.90863e-06
-2.07597e-05
7.13937e-06
-2.32754e-05
7.30868e-06
-2.58261e-05
7.4194e-06
-2.83929e-05
7.47414e-06
-3.09575e-05
7.4752e-06
-3.35021e-05
7.42448e-06
-3.60096e-05
7.32346e-06
-3.84628e-05
7.17325e-06
-4.08453e-05
6.97463e-06
-4.31404e-05
6.72814e-06
-4.5332e-05
6.43416e-06
-4.74041e-05
6.09301e-06
-4.93407e-05
5.70509e-06
-5.11263e-05
5.27096e-06
-5.27458e-05
4.79146e-06
-5.41846e-05
4.26779e-06
-5.54286e-05
3.70166e-06
-5.64647e-05
3.09531e-06
-5.72808e-05
2.45159e-06
-5.78662e-05
1.77405e-06
-5.82114e-05
1.06694e-06
-5.83088e-05
3.35244e-07
-5.81528e-05
-4.15338e-07
-5.77396e-05
-1.17839e-06
-5.70681e-05
-1.94683e-06
-5.61396e-05
-2.71298e-06
-5.4958e-05
-3.46866e-06
-5.353e-05
-4.20526e-06
-5.18653e-05
-4.91391e-06
-4.99762e-05
-5.58558e-06
-4.78783e-05
-6.21126e-06
-4.55896e-05
-6.78213e-06
-4.3131e-05
-7.28972e-06
-4.0526e-05
-7.72611e-06
-3.78002e-05
-8.0841e-06
-3.49813e-05
-8.35741e-06
-3.20986e-05
-8.5408e-06
-2.91827e-05
-8.63029e-06
-2.6265e-05
-8.62325e-06
-2.33772e-05
-8.51854e-06
-2.0551e-05
-8.31662e-06
-1.78172e-05
-8.01959e-06
-1.52055e-05
-7.63127e-06
-1.27437e-05
-7.15726e-06
-1.04572e-05
-6.60491e-06
-8.36837e-06
-5.98342e-06
-6.49611e-06
-5.30384e-06
-4.85496e-06
-4.57916e-06
-3.45464e-06
-3.82443e-06
-2.29939e-06
-3.05703e-06
-1.38725e-06
-2.29692e-06
-7.09379e-07
-1.56717e-06
-2.49309e-07
-8.94624e-07
1.7798e-08
-3.10671e-07
1.25986e-07
1.47677e-07
1.19394e-07
4.36917e-07
5.36246e-08
5.06045e-07
2.91324e-07
-8.94294e-08
3.49542e-09
-3.95283e-07
4.56182e-07
-9.44924e-07
1.18905e-06
-1.75493e-06
2.08552e-06
-2.83209e-06
3.06383e-06
-4.17464e-06
4.06352e-06
-5.77374e-06
5.04106e-06
-7.61501e-06
5.96643e-06
-9.67998e-06
6.81988e-06
-1.19474e-05
7.5893e-06
-1.43941e-05
8.26817e-06
-1.69962e-05
8.85395e-06
-1.97294e-05
9.34683e-06
-2.25696e-05
9.74875e-06
-2.54928e-05
1.00627e-05
-2.84761e-05
1.0292e-05
-3.14969e-05
1.04402e-05
-3.45334e-05
1.05106e-05
-3.75643e-05
1.05061e-05
-4.0569e-05
1.04291e-05
-4.35272e-05
1.02816e-05
-4.6419e-05
1.00651e-05
-4.92251e-05
9.78066e-06
-5.1926e-05
9.42906e-06
-5.45028e-05
9.01095e-06
-5.69367e-05
8.52693e-06
-5.92093e-05
7.97771e-06
-6.13026e-05
7.36425e-06
-6.3199e-05
6.68789e-06
-6.48818e-05
5.95051e-06
-6.63347e-05
5.15464e-06
-6.7543e-05
4.30356e-06
-6.84928e-05
3.40138e-06
-6.91719e-05
2.45315e-06
-6.95698e-05
1.46484e-06
-6.9678e-05
4.43433e-07
-6.94901e-05
-6.03146e-07
-6.90025e-05
-1.66602e-06
-6.82139e-05
-2.73543e-06
-6.7126e-05
-3.80084e-06
-6.57437e-05
-4.85102e-06
-6.40747e-05
-5.87423e-06
-6.21303e-05
-6.85834e-06
-5.99248e-05
-7.79107e-06
-5.74759e-05
-8.66015e-06
-5.48045e-05
-9.45358e-06
-5.19343e-05
-1.01599e-05
-4.88922e-05
-1.07683e-05
-4.57073e-05
-1.1269e-05
-4.24113e-05
-1.16534e-05
-3.90375e-05
-1.19146e-05
-3.56208e-05
-1.2047e-05
-3.2197e-05
-1.2047e-05
-2.88024e-05
-1.19132e-05
-2.54729e-05
-1.16461e-05
-2.22439e-05
-1.12486e-05
-1.91494e-05
-1.07258e-05
-1.62211e-05
-1.00855e-05
-1.34883e-05
-9.33774e-06
-1.09767e-05
-8.49498e-06
-8.70819e-06
-7.57236e-06
-6.69977e-06
-6.58758e-06
-4.96314e-06
-5.56106e-06
-3.50397e-06
-4.5162e-06
-2.32122e-06
-3.47967e-06
-1.40652e-06
-2.48187e-06
-7.4359e-07
-1.55756e-06
-3.07585e-07
-7.46673e-07
-6.4551e-08
-9.53593e-08
2.92573e-08
3.43109e-07
2.8281e-08
5.07026e-07
3.19606e-07
-1.37617e-07
1.41113e-07
-5.66189e-07
8.84756e-07
-1.29717e-06
1.92003e-06
-2.33564e-06
3.12399e-06
-3.67991e-06
4.4081e-06
-5.3219e-06
5.70552e-06
-7.24802e-06
6.96718e-06
-9.44016e-06
8.15856e-06
-1.18768e-05
9.25648e-06
-1.45338e-05
1.02464e-05
-1.73859e-05
1.11202e-05
-2.04064e-05
1.18745e-05
-2.35688e-05
1.25092e-05
-2.68465e-05
1.30264e-05
-3.02132e-05
1.34294e-05
-3.36433e-05
1.37221e-05
-3.71117e-05
1.39086e-05
-4.05941e-05
1.3993e-05
-4.40665e-05
1.39786e-05
-4.75059e-05
1.38685e-05
-5.08892e-05
1.3665e-05
-5.41941e-05
1.337e-05
-5.73985e-05
1.29851e-05
-6.04807e-05
1.25112e-05
-6.34191e-05
1.19493e-05
-6.61926e-05
1.13004e-05
-6.87805e-05
1.05656e-05
-7.11625e-05
9.74626e-06
-7.3319e-05
8.8444e-06
-7.52312e-05
7.8627e-06
-7.68812e-05
6.80468e-06
-7.82525e-05
5.67481e-06
-7.93297e-05
4.47867e-06
-8.00996e-05
3.22299e-06
-8.05505e-05
1.91572e-06
-8.06731e-05
5.66046e-07
-8.04606e-05
-8.15602e-07
-7.9909e-05
-2.21762e-06
-7.90172e-05
-3.62729e-06
-7.77871e-05
-5.03091e-06
-7.62242e-05
-6.41391e-06
-7.43373e-05
-7.76109e-06
-7.21389e-05
-9.05676e-06
-6.96449e-05
-1.0285e-05
-6.68749e-05
-1.14301e-05
-6.3852e-05
-1.24765e-05
-6.06026e-05
-1.34093e-05
-5.71561e-05
-1.42147e-05
-5.35449e-05
-1.48801e-05
-4.9804e-05
-1.53943e-05
-4.59703e-05
-1.57483e-05
-4.20825e-05
-1.59348e-05
-3.81801e-05
-1.59494e-05
-3.43035e-05
-1.57898e-05
-3.04927e-05
-1.54569e-05
-2.6787e-05
-1.49542e-05
-2.32243e-05
-1.42885e-05
-1.98403e-05
-1.34696e-05
-1.66676e-05
-1.25104e-05
-1.37355e-05
-1.14271e-05
-1.10686e-05
-1.02392e-05
-8.68679e-06
-8.96943e-06
-6.60387e-06
-7.64397e-06
-4.82743e-06
-6.29264e-06
-3.35795e-06
-4.94915e-06
-2.18834e-06
-3.65147e-06
-1.30342e-06
-2.44248e-06
-6.79446e-07
-1.37064e-06
-2.83808e-07
-4.90997e-07
-7.46602e-08
1.3396e-07
-6.07628e-10
4.32977e-07
3.18998e-07
-1.85378e-07
3.26492e-07
-7.37859e-07
1.43724e-06
-1.65345e-06
2.83562e-06
-2.92516e-06
4.3957e-06
-4.54191e-06
6.02485e-06
-6.48838e-06
7.65199e-06
-8.74535e-06
9.22415e-06
-1.12903e-05
1.07035e-05
-1.40982e-05
1.20643e-05
-1.71419e-05
1.32902e-05
-2.03935e-05
1.43717e-05
-2.3824e-05
1.5305e-05
-2.74045e-05
1.60898e-05
-3.11063e-05
1.67282e-05
-3.49009e-05
1.7224e-05
-3.87605e-05
1.75817e-05
-4.26579e-05
1.7806e-05
-4.65663e-05
1.79014e-05
-5.04597e-05
1.7872e-05
-5.43126e-05
1.77214e-05
-5.80999e-05
1.74522e-05
-6.17968e-05
1.7067e-05
-6.53791e-05
1.65674e-05
-6.88227e-05
1.59548e-05
-7.2104e-05
1.52306e-05
-7.51997e-05
1.43961e-05
-7.8087e-05
1.34529e-05
-8.07437e-05
1.2403e-05
-8.31483e-05
1.1249e-05
-8.52803e-05
9.99465e-06
-8.71201e-05
8.6445e-06
-8.86497e-05
7.20439e-06
-8.98525e-05
5.68152e-06
-9.0714e-05
4.08448e-06
-9.12217e-05
2.42337e-06
-9.13654e-05
7.09808e-07
-9.11379e-05
-1.04308e-06
-9.05348e-05
-2.82073e-06
-8.95549e-05
-4.60724e-06
-8.82003e-05
-6.38547e-06
-8.64769e-05
-8.13727e-06
-8.43943e-05
-9.8437e-06
-8.19658e-05
-1.14853e-05
-7.92087e-05
-1.30422e-05
-7.61441e-05
-1.44948e-05
-7.27968e-05
-1.58238e-05
-6.91953e-05
-1.70108e-05
-6.53717e-05
-1.80384e-05
-6.13608e-05
-1.8891e-05
-5.72005e-05
-1.95546e-05
-5.29309e-05
-2.00178e-05
-4.8594e-05
-2.02718e-05
-4.4233e-05
-2.03104e-05
-3.98917e-05
-2.01311e-05
-3.5614e-05
-1.97346e-05
-3.1443e-05
-1.91253e-05
-2.74202e-05
-1.83113e-05
-2.35851e-05
-1.73047e-05
-1.9974e-05
-1.61215e-05
-1.66193e-05
-1.47818e-05
-1.3549e-05
-1.33095e-05
-1.07856e-05
-1.17328e-05
-8.34575e-06
-1.00838e-05
-6.2393e-06
-8.39908e-06
-4.46888e-06
-6.71957e-06
-3.02933e-06
-5.09103e-06
-1.90733e-06
-3.56448e-06
-1.08113e-06
-2.19684e-06
-5.20372e-07
-1.05175e-06
-1.86129e-07
-2.00282e-07
-3.10851e-08
2.77935e-07
2.87913e-07
-2.32072e-07
5.58565e-07
-9.07535e-07
2.11271e-06
-2.00778e-06
3.93587e-06
-3.51375e-06
5.90167e-06
-5.40457e-06
7.91567e-06
-7.6571e-06
9.90452e-06
-1.02459e-05
1.1813e-05
-1.31435e-05
1.36011e-05
-1.63209e-05
1.52417e-05
-1.97477e-05
1.6717e-05
-2.33932e-05
1.80172e-05
-2.7226e-05
1.91378e-05
-3.1215e-05
2.00788e-05
-3.53293e-05
2.08425e-05
-3.95387e-05
2.14333e-05
-4.38132e-05
2.18562e-05
-4.81237e-05
2.21165e-05
-5.24416e-05
2.22193e-05
-5.67388e-05
2.21693e-05
-6.09879e-05
2.19704e-05
-6.51617e-05
2.16261e-05
-6.92336e-05
2.11389e-05
-7.31773e-05
2.0511e-05
-7.69668e-05
1.97443e-05
-8.05765e-05
1.88404e-05
-8.39813e-05
1.7801e-05
-8.71566e-05
1.66282e-05
-9.00784e-05
1.53248e-05
-9.27235e-05
1.38942e-05
-9.50698e-05
1.2341e-05
-9.70964e-05
1.0671e-05
-9.87837e-05
8.89171e-06
-0.000100114
7.01186e-06
-0.000101072
5.04211e-06
-0.000101643
2.99487e-06
-0.000101818
8.84333e-07
-0.000101587
-1.27351e-06
-0.000100947
-3.46095e-06
-9.98956e-05
-5.65869e-06
-9.84351e-05
-7.84598e-06
-9.65715e-05
-1.00009e-05
-9.43148e-05
-1.21004e-05
-9.1679e-05
-1.41211e-05
-8.86822e-05
-1.60389e-05
-8.53468e-05
-1.78302e-05
-8.1699e-05
-1.94716e-05
-7.7769e-05
-2.09407e-05
-7.35908e-05
-2.22166e-05
-6.92017e-05
-2.32801e-05
-6.4642e-05
-2.41143e-05
-5.99546e-05
-2.47052e-05
-5.51847e-05
-2.50417e-05
-5.03786e-05
-2.51165e-05
-4.55836e-05
-2.49261e-05
-4.08472e-05
-2.4471e-05
-3.62162e-05
-2.37563e-05
-3.17359e-05
-2.27916e-05
-2.74494e-05
-2.15912e-05
-2.33966e-05
-2.01743e-05
-1.96136e-05
-1.85648e-05
-1.61318e-05
-1.67914e-05
-1.29769e-05
-1.48877e-05
-1.01686e-05
-1.28921e-05
-7.71957e-06
-1.08481e-05
-5.63506e-06
-8.80408e-06
-3.9125e-06
-6.81359e-06
-2.54109e-06
-4.93588e-06
-1.50172e-06
-3.23621e-06
-7.66947e-07
-1.78652e-06
-3.01336e-07
-6.65892e-07
-6.20493e-08
3.86489e-08
2.25863e-07
-2.7742e-07
8.35986e-07
-1.07368e-06
2.90897e-06
-2.35652e-06
5.2187e-06
-4.09511e-06
7.64027e-06
-6.25873e-06
1.00793e-05
-8.81612e-06
1.24619e-05
-1.17353e-05
1.47321e-05
-1.49833e-05
1.68492e-05
-1.8527e-05
1.87853e-05
-2.23324e-05
2.05225e-05
-2.63658e-05
2.20506e-05
-3.05935e-05
2.33655e-05
-3.49821e-05
2.44674e-05
-3.94987e-05
2.53592e-05
-4.41113e-05
2.60459e-05
-4.87882e-05
2.65331e-05
-5.34984e-05
2.68267e-05
-5.82118e-05
2.69326e-05
-6.28985e-05
2.6856e-05
-6.75294e-05
2.66013e-05
-7.20756e-05
2.61723e-05
-7.65088e-05
2.55721e-05
-8.08009e-05
2.48032e-05
-8.49243e-05
2.38677e-05
-8.88518e-05
2.27678e-05
-9.25565e-05
2.15057e-05
-9.60122e-05
2.00839e-05
-9.91934e-05
1.85059e-05
-0.000102075
1.67761e-05
-0.000104635
1.49001e-05
-0.000106849
1.28851e-05
-0.000108697
1.07398e-05
-0.00011016
8.47512e-06
-0.000111221
6.10369e-06
-0.000111867
3.64034e-06
-0.000112085
1.10197e-06
-0.000111866
-1.49244e-06
-0.000111205
-4.1219e-06
-0.0001101
-6.76356e-06
-0.000108553
-9.39289e-06
-0.00010657
-1.19839e-05
-0.000104161
-1.45096e-05
-0.00010134
-1.69421e-05
-9.81255e-05
-1.9253e-05
-9.45414e-05
-2.14144e-05
-9.06145e-05
-2.33985e-05
-8.63766e-05
-2.51787e-05
-8.18631e-05
-2.67301e-05
-7.71133e-05
-2.80299e-05
-7.21699e-05
-2.90578e-05
-6.70782e-05
-2.97968e-05
-6.18862e-05
-3.02337e-05
-5.66434e-05
-3.03593e-05
-5.14006e-05
-3.01689e-05
-4.62085e-05
-2.9663e-05
-4.11179e-05
-2.88469e-05
-3.61777e-05
-2.77318e-05
-3.14349e-05
-2.6334e-05
-2.69334e-05
-2.46758e-05
-2.27132e-05
-2.2785e-05
-1.88091e-05
-2.06954e-05
-1.52508e-05
-1.8446e-05
-1.20613e-05
-1.60817e-05
-9.25663e-06
-1.36528e-05
-6.84525e-06
-1.12155e-05
-4.82767e-06
-8.83117e-06
-3.19616e-06
-6.56739e-06
-1.93473e-06
-4.49764e-06
-1.0193e-06
-2.70195e-06
-4.18171e-07
-1.26702e-06
-9.29468e-08
-2.86574e-07
1.32917e-07
-3.21308e-07
1.15729e-06
-1.23545e-06
3.82311e-06
-2.69742e-06
6.68068e-06
-4.66513e-06
9.60797e-06
-7.09811e-06
1.25123e-05
-9.95692e-06
1.53207e-05
-1.32028e-05
1.79779e-05
-1.67973e-05
2.04437e-05
-2.07025e-05
2.26906e-05
-2.4881e-05
2.4701e-05
-2.92959e-05
2.64654e-05
-3.39109e-05
2.79805e-05
-3.86904e-05
2.92469e-05
-4.35999e-05
3.02687e-05
-4.86052e-05
3.10512e-05
-5.36733e-05
3.16011e-05
-5.87716e-05
3.19251e-05
-6.38685e-05
3.20295e-05
-6.89326e-05
3.19201e-05
-7.39334e-05
3.1602e-05
-7.88405e-05
3.10794e-05
-8.36242e-05
3.03557e-05
-8.82548e-05
2.94338e-05
-9.27034e-05
2.83163e-05
-9.69412e-05
2.70056e-05
-0.00010094
2.55044e-05
-0.000104672
2.38159e-05
-0.00010811
2.19443e-05
-0.000111229
1.98947e-05
-0.000114003
1.7674e-05
-0.000116408
1.52907e-05
-0.000118424
1.27551e-05
-0.000120028
1.00799e-05
-0.000121205
7.28004e-06
-0.000121937
4.37273e-06
-0.000122213
1.37765e-06
-0.000122022
-1.68311e-06
-0.000121359
-4.7852e-06
-0.00012022
-7.9021e-06
-0.000118608
-1.10054e-05
-0.000116527
-1.40649e-05
-0.000113987
-1.70494e-05
-0.000111003
-1.99263e-05
-0.000107593
-2.26628e-05
-0.000103781
-2.52263e-05
-9.95952e-05
-2.75844e-05
-9.50678e-05
-2.97061e-05
-9.02357e-05
-3.15622e-05
-8.51399e-05
-3.31256e-05
-7.98251e-05
-3.43727e-05
-7.43389e-05
-3.5283e-05
-6.8732e-05
-3.58406e-05
-6.30569e-05
-3.60344e-05
-5.73677e-05
-3.58582e-05
-5.17188e-05
-3.53119e-05
-4.61645e-05
-3.44012e-05
-4.0758e-05
-3.31382e-05
-3.55504e-05
-3.15416e-05
-3.05897e-05
-2.96365e-05
-2.592e-05
-2.74548e-05
-2.15805e-05
-2.50348e-05
-1.76048e-05
-2.24217e-05
-1.40199e-05
-1.96666e-05
-1.08457e-05
-1.6827e-05
-8.09437e-06
-1.39668e-05
-5.77e-06
-1.11555e-05
-3.86839e-06
-8.469e-06
-2.37703e-06
-5.989e-06
-1.27543e-06
-3.80355e-06
-5.35704e-07
-2.00675e-06
-1.23575e-07
-6.98703e-07
9.34212e-09
-3.63695e-07
1.52099e-06
-1.39236e-06
4.85178e-06
-3.02909e-06
8.31741e-06
-5.22104e-06
1.17999e-05
-7.9183e-06
1.52095e-05
-1.10733e-05
1.84758e-05
-1.46405e-05
2.15451e-05
-1.85757e-05
2.4379e-05
-2.28365e-05
2.69513e-05
-2.73814e-05
2.92459e-05
-3.21705e-05
3.12545e-05
-3.71648e-05
3.29748e-05
-4.23268e-05
3.44089e-05
-4.76197e-05
3.55616e-05
-5.30081e-05
3.64396e-05
-5.84572e-05
3.70502e-05
-6.39333e-05
3.74011e-05
-6.94032e-05
3.74994e-05
-7.48345e-05
3.73514e-05
-8.01952e-05
3.69628e-05
-8.5454e-05
3.63382e-05
-9.05796e-05
3.54814e-05
-9.55414e-05
3.43956e-05
-0.000100309
3.30839e-05
-0.000104852
3.1549e-05
-0.000109142
2.97941e-05
-0.000113149
2.78229e-05
-0.000116845
2.56404e-05
-0.000120203
2.32527e-05
-0.000123197
2.06676e-05
-0.000125801
1.7895e-05
-0.000127993
1.49469e-05
-0.000129751
1.18377e-05
-0.000131055
8.58473e-06
-0.00013189
5.20757e-06
-0.000132241
1.72875e-06
-0.000132098
-1.82654e-06
-0.000131453
-5.43051e-06
-0.000130302
-9.0529e-06
-0.000128646
-1.26613e-05
-0.00012649
-1.62212e-05
-0.000123842
-1.96969e-05
-0.000120717
-2.30513e-05
-0.000117133
-2.62466e-05
-0.000113114
-2.92454e-05
-0.000108688
-3.20104e-05
-0.000103889
-3.45058e-05
-9.8753e-05
-3.66977e-05
-9.33239e-05
-3.85547e-05
-8.76476e-05
-4.0049e-05
-8.17741e-05
-4.11565e-05
-7.57565e-05
-4.18583e-05
-6.96502e-05
-4.21406e-05
-6.35128e-05
-4.19957e-05
-5.74023e-05
-4.14224e-05
-5.13771e-05
-4.04264e-05
-4.54946e-05
-3.90208e-05
-3.98102e-05
-3.7226e-05
-3.43766e-05
-3.50701e-05
-2.92425e-05
-3.25889e-05
-2.44518e-05
-2.98256e-05
-2.00425e-05
-2.68309e-05
-1.60463e-05
-2.36627e-05
-1.24875e-05
-2.03859e-05
-9.38225e-06
-1.7072e-05
-6.73888e-06
-1.37989e-05
-4.55702e-06
-1.06509e-05
-2.82798e-06
-7.71803e-06
-1.53498e-06
-5.09654e-06
-6.53831e-07
-2.8879e-06
-1.5396e-07
-1.19857e-06
-1.44617e-07
-4.04569e-07
1.92556e-06
-1.54411e-06
5.99132e-06
-3.35059e-06
1.01239e-05
-5.76091e-06
1.42102e-05
-8.71608e-06
1.81647e-05
-1.21607e-05
2.19203e-05
-1.60422e-05
2.54267e-05
-2.03111e-05
2.86478e-05
-2.49199e-05
3.15601e-05
-2.98235e-05
3.41495e-05
-3.49786e-05
3.64096e-05
-4.03439e-05
3.83401e-05
-4.58793e-05
3.99443e-05
-5.15466e-05
4.12288e-05
-5.73085e-05
4.22015e-05
-6.31291e-05
4.28708e-05
-6.89733e-05
4.32453e-05
-7.48069e-05
4.3333e-05
-8.05964e-05
4.31409e-05
-8.63088e-05
4.26752e-05
-9.19116e-05
4.19409e-05
-9.73726e-05
4.09424e-05
-0.00010266
3.96831e-05
-0.000107743
3.81665e-05
-0.000112589
3.63955e-05
-0.000117169
3.4374e-05
-0.000121452
3.21062e-05
-0.00012541
2.95977e-05
-0.000129012
2.68554e-05
-0.000132233
2.38884e-05
-0.000135046
2.07077e-05
-0.000137426
1.7327e-05
-0.000139351
1.37626e-05
-0.0001408
1.00338e-05
-0.000141755
6.16278e-06
-0.000142201
2.17487e-06
-0.000142126
-1.90164e-06
-0.000141521
-6.03551e-06
-0.000140381
-1.01927e-05
-0.000138706
-1.43368e-05
-0.000136498
-1.84289e-05
-0.000133767
-2.24285e-05
-0.000130524
-2.62939e-05
-0.000126788
-2.99822e-05
-0.000122583
-3.34509e-05
-0.000117936
-3.66574e-05
-0.000112881
-3.95609e-05
-0.000107456
-4.21224e-05
-0.000101705
-4.43056e-05
-9.5676e-05
-4.60781e-05
-8.94205e-05
-4.7412e-05
-8.29942e-05
-4.82845e-05
-7.64558e-05
-4.8679e-05
-6.98658e-05
-4.85856e-05
-6.32865e-05
-4.80017e-05
-5.67802e-05
-4.69327e-05
-5.04089e-05
-4.5392e-05
-4.4233e-05
-4.34019e-05
-3.831e-05
-4.09931e-05
-3.26939e-05
-3.8205e-05
-2.74337e-05
-3.50858e-05
-2.25726e-05
-3.1692e-05
-1.81473e-05
-2.80881e-05
-1.41869e-05
-2.43463e-05
-1.07126e-05
-2.05463e-05
-7.7369e-06
-1.67746e-05
-5.26389e-06
-1.31239e-05
-3.28884e-06
-9.69308e-06
-1.79877e-06
-6.58661e-06
-7.7302e-07
-3.91365e-06
-1.84278e-07
-1.78732e-06
-3.28894e-07
-4.43919e-07
2.36948e-06
-1.6905e-06
7.2379e-06
-3.66119e-06
1.20946e-05
-6.28324e-06
1.68323e-05
-9.48894e-06
2.13704e-05
-1.32152e-05
2.56465e-05
-1.74029e-05
2.96144e-05
-2.19969e-05
3.32418e-05
-2.69451e-05
3.65083e-05
-3.21985e-05
3.94029e-05
-3.77107e-05
4.19218e-05
-4.34376e-05
4.40669e-05
-4.93372e-05
4.58439e-05
-5.53693e-05
4.7261e-05
-6.14953e-05
4.83275e-05
-6.76781e-05
4.90536e-05
-7.38814e-05
4.94487e-05
-8.007e-05
4.95217e-05
-8.62097e-05
4.92806e-05
-9.22664e-05
4.87319e-05
-9.82068e-05
4.78814e-05
-0.000103998
4.67336e-05
-0.000109607
4.52925e-05
-0.000115003
4.35616e-05
-0.000120152
4.15446e-05
-0.000125023
3.92454e-05
-0.000129586
3.66689e-05
-0.000133809
3.38212e-05
-0.000137664
3.07102e-05
-0.000141122
2.73459e-05
-0.000144155
2.37406e-05
-0.000146737
1.99095e-05
-0.000148845
1.58706e-05
-0.000150457
1.16454e-05
-0.000151552
7.25841e-06
-0.000152115
2.73772e-06
-0.000152131
-1.8853e-06
-0.000151591
-6.57599e-06
-0.000150487
-1.12966e-05
-0.000148818
-1.60064e-05
-0.000146584
-2.06623e-05
-0.000143794
-2.5219e-05
-0.000140458
-2.96297e-05
-0.000136594
-3.38465e-05
-0.000132223
-3.78212e-05
-0.000127375
-4.1506e-05
-0.000122081
-4.48544e-05
-0.000116382
-4.78219e-05
-0.00011032
-5.0367e-05
-0.000103946
-5.24522e-05
-9.73133e-05
-5.4045e-05
-9.04794e-05
-5.51184e-05
-8.35062e-05
-5.56523e-05
-7.64577e-05
-5.56341e-05
-6.94001e-05
-5.50593e-05
-6.24004e-05
-5.39324e-05
-5.55254e-05
-5.2267e-05
-4.88408e-05
-5.00865e-05
-4.24096e-05
-4.74242e-05
-3.62914e-05
-4.43232e-05
-3.0541e-05
-4.08362e-05
-2.52075e-05
-3.70255e-05
-2.03331e-05
-3.29625e-05
-1.59525e-05
-2.8727e-05
-1.2092e-05
-2.44068e-05
-8.76919e-06
-2.00973e-05
-5.99276e-06
-1.59003e-05
-3.76224e-06
-1.19236e-05
-2.06846e-06
-8.28039e-06
-8.94144e-07
-5.08797e-06
-2.14808e-07
-2.46665e-06
-5.43703e-07
-4.81721e-07
2.8512e-06
-1.8313e-06
8.58749e-06
-3.9603e-06
1.42236e-05
-6.78678e-06
1.96588e-05
-1.02347e-05
2.48184e-05
-1.42337e-05
2.96455e-05
-1.87183e-05
3.4099e-05
-2.36278e-05
3.81513e-05
-2.89055e-05
4.17861e-05
-3.44988e-05
4.49961e-05
-4.0358e-05
4.7781e-05
-4.64364e-05
5.01454e-05
-5.26901e-05
5.20976e-05
-5.90772e-05
5.3648e-05
-6.55577e-05
5.48081e-05
-7.20933e-05
5.55891e-05
-7.86468e-05
5.60022e-05
-8.51822e-05
5.60571e-05
-9.16644e-05
5.57627e-05
-9.80588e-05
5.51263e-05
-0.000104331
5.4154e-05
-0.000110449
5.28508e-05
-0.000116377
5.12209e-05
-0.000122084
4.92683e-05
-0.000127536
4.69968e-05
-0.000132701
4.44108e-05
-0.000137548
4.15156e-05
-0.000142045
3.83178e-05
-0.00014616
3.48262e-05
-0.000149866
3.10515e-05
-0.000153133
2.70073e-05
-0.000155933
2.27101e-05
-0.000158243
1.81798e-05
-0.000160037
1.34395e-05
-0.000161295
8.51632e-06
-0.000161998
3.44083e-06
-0.000162131
-1.75257e-06
-0.000161681
-7.02586e-06
-0.00016064
-1.23375e-05
-0.000159003
-1.76429e-05
-0.000156771
-2.28942e-05
-0.000153949
-2.80415e-05
-0.000150546
-3.30328e-05
-0.000146577
-3.78147e-05
-0.000142065
-4.23335e-05
-0.000137036
-4.65354e-05
-0.000131522
-5.03681e-05
-0.000125563
-5.37811e-05
-0.000119202
-5.67271e-05
-0.000112492
-5.91631e-05
-0.000105486
-6.1051e-05
-9.82448e-05
-6.23593e-05
-9.08334e-05
-6.30637e-05
-8.33194e-05
-6.31481e-05
-7.5773e-05
-6.26057e-05
-6.82661e-05
-6.14393e-05
-6.08707e-05
-5.96623e-05
-5.36582e-05
-5.7299e-05
-4.66978e-05
-5.43847e-05
-4.00552e-05
-5.09658e-05
-3.37917e-05
-4.70997e-05
-2.79628e-05
-4.28544e-05
-2.2617e-05
-3.83082e-05
-1.77951e-05
-3.35488e-05
-1.35294e-05
-2.86726e-05
-9.84276e-06
-2.37839e-05
-6.74889e-06
-1.89942e-05
-4.25183e-06
-1.44207e-05
-2.34633e-06
-1.01859e-05
-1.01835e-06
-6.41595e-06
-2.45897e-07
-3.23911e-06
-7.896e-07
-5.17941e-07
3.36914e-06
-1.96632e-06
1.00359e-05
-4.24732e-06
1.65046e-05
-7.27033e-06
2.26818e-05
-1.09515e-05
2.84995e-05
-1.52133e-05
3.39073e-05
-1.99843e-05
3.887e-05
-2.51985e-05
4.33655e-05
-3.07949e-05
4.73825e-05
-3.67169e-05
5.09182e-05
-4.29121e-05
5.39761e-05
-4.93312e-05
5.65645e-05
-5.59283e-05
5.86947e-05
-6.26598e-05
6.03796e-05
-6.94847e-05
6.16329e-05
-7.63634e-05
6.24678e-05
-8.3258e-05
6.28968e-05
-9.01319e-05
6.2931e-05
-9.69493e-05
6.25801e-05
-0.000103675
6.18521e-05
-0.000110275
6.07536e-05
-0.000116714
5.92901e-05
-0.000122959
5.74662e-05
-0.000128977
5.5286e-05
-0.000134734
5.27536e-05
-0.000140197
4.98737e-05
-0.000145333
4.66519e-05
-0.00015011
4.30954e-05
-0.000154498
3.92134e-05
-0.000158464
3.50177e-05
-0.000161979
3.05226e-05
-0.000165015
2.57461e-05
-0.000167545
2.07094e-05
-0.000169543
1.54376e-05
-0.000170987
9.95991e-06
-0.000171855
4.30933e-06
-0.000172131
-1.47684e-06
-0.000171799
-7.35736e-06
-0.00017085
-1.32871e-05
-0.000169275
-1.92172e-05
-0.000167074
-2.50956e-05
-0.000164248
-3.08674e-05
-0.000160806
-3.64753e-05
-0.00015676
-4.18605e-05
-0.00015213
-4.69631e-05
-0.000146942
-5.17234e-05
-0.000141228
-5.60825e-05
-0.000135026
-5.99836e-05
-0.00012838
-6.3373e-05
-0.000121341
-6.62014e-05
-0.000113967
-6.84248e-05
-0.000106321
-7.00061e-05
-9.8468e-05
-7.09162e-05
-9.04813e-05
-7.11349e-05
-8.2435e-05
-7.06519e-05
-7.44061e-05
-6.94682e-05
-6.64724e-05
-6.75961e-05
-5.87113e-05
-6.50601e-05
-5.11988e-05
-6.18973e-05
-4.40075e-05
-5.81571e-05
-3.72058e-05
-5.39014e-05
-3.08562e-05
-4.9204e-05
-2.50144e-05
-4.415e-05
-1.9728e-05
-3.88353e-05
-1.50355e-05
-3.33651e-05
-1.0966e-05
-2.78534e-05
-7.5386e-06
-2.24216e-05
-4.76203e-06
-1.71972e-05
-2.63511e-06
-1.23128e-05
-1.147e-06
-7.90406e-06
-2.77936e-07
-4.10818e-06
-1.06754e-06
-5.52524e-07
3.92167e-06
-2.09528e-06
1.15786e-05
-4.52161e-06
1.89309e-05
-7.7327e-06
2.58929e-05
-1.16373e-05
3.24041e-05
-1.61512e-05
3.84212e-05
-2.11972e-05
4.3916e-05
-2.67043e-05
4.88726e-05
-3.26072e-05
5.32855e-05
-3.88459e-05
5.71569e-05
-4.5365e-05
6.04951e-05
-5.21128e-05
6.33124e-05
-5.90417e-05
6.56235e-05
-6.61065e-05
6.74444e-05
-7.32649e-05
6.87913e-05
-8.04765e-05
6.96795e-05
-8.77029e-05
7.01231e-05
-9.49066e-05
7.01348e-05
-0.000102052
6.9725e-05