/*--------------------------------*- C++ -*----------------------------------*\
  =========                 |
  \\      /  F ield         | OpenFOAM: The Open Source CFD Toolbox
   \\    /   O peration     | Website:  https://openfoam.org
    \\  /    A nd           | Version:  dev
     \\/     M anipulation  |
\*---------------------------------------------------------------------------*/
FoamFile
{
    format      ascii;
    class       volVectorField;
    location    "26.55";
    object      U;
}
// * * * * * * * * * * * * * * * * * * * * * * * * * * * * * * * * * * * * * //

dimensions      [0 1 -1 0 0 0 0];

internalField   nonuniform List<vector> 
5184
(
(1.22612e-05 -1.27658e-05 0)
(4.50594e-05 -2.09145e-05 0)
(8.02509e-05 -1.72519e-05 0)
(9.59147e-05 -8.1943e-06 0)
(8.20837e-05 2.67091e-06 0)
(3.63911e-05 1.36171e-05 0)
(-4.06108e-05 2.38428e-05 0)
(-0.000146903 3.30419e-05 0)
(-0.000279695 4.10964e-05 0)
(-0.000435931 4.80119e-05 0)
(-0.00061249 5.38503e-05 0)
(-0.000806339 5.86964e-05 0)
(-0.00101461 6.26426e-05 0)
(-0.00123464 6.57802e-05 0)
(-0.00146397 6.81936e-05 0)
(-0.00170035 6.99582e-05 0)
(-0.0019417 7.11383e-05 0)
(-0.0021861 7.17866e-05 0)
(-0.00243178 7.19439e-05 0)
(-0.00267705 7.16397e-05 0)
(-0.0029203 7.08933e-05 0)
(-0.00315998 6.97151e-05 0)
(-0.00339455 6.81082e-05 0)
(-0.0036225 6.60695e-05 0)
(-0.00384229 6.35919e-05 0)
(-0.00405239 6.06656e-05 0)
(-0.00425124 5.72801e-05 0)
(-0.00443727 5.34258e-05 0)
(-0.00460889 4.90956e-05 0)
(-0.00476455 4.42865e-05 0)
(-0.00490266 3.9001e-05 0)
(-0.00502172 3.32483e-05 0)
(-0.00512025 2.70457e-05 0)
(-0.00519689 2.04191e-05 0)
(-0.00525038 1.34042e-05 0)
(-0.00527959 6.04662e-06 0)
(-0.00528358 -1.59753e-06 0)
(-0.00526164 -9.46179e-06 0)
(-0.00521325 -1.74697e-05 0)
(-0.00513819 -2.55353e-05 0)
(-0.00503652 -3.35645e-05 0)
(-0.00490861 -4.14555e-05 0)
(-0.00475517 -4.91013e-05 0)
(-0.00457726 -5.63911e-05 0)
(-0.00437628 -6.32123e-05 0)
(-0.00415397 -6.9453e-05 0)
(-0.00391244 -7.50045e-05 0)
(-0.0036541 -7.97636e-05 0)
(-0.00338169 -8.36358e-05 0)
(-0.00309821 -8.65375e-05 0)
(-0.00280689 -8.8398e-05 0)
(-0.00251117 -8.91623e-05 0)
(-0.0022146 -8.87922e-05 0)
(-0.00192084 -8.7268e-05 0)
(-0.00163356 -8.4589e-05 0)
(-0.00135641 -8.07748e-05 0)
(-0.00109291 -7.58644e-05 0)
(-0.000846448 -6.99166e-05 0)
(-0.000620157 -6.3009e-05 0)
(-0.000416893 -5.52375e-05 0)
(-0.000239151 -4.67162e-05 0)
(-8.90097e-05 -3.75781e-05 0)
(3.19425e-05 -2.79782e-05 0)
(0.000122691 -1.80988e-05 0)
(0.000182903 -8.16493e-06 0)
(0.000213082 1.52847e-06 0)
(0.000214811 1.05582e-05 0)
(0.000191141 1.82876e-05 0)
(0.000147097 2.37054e-05 0)
(9.07691e-05 2.51208e-05 0)
(3.66187e-05 1.9847e-05 0)
(6.2256e-06 6.24573e-06 0)
(2.08033e-05 -4.59582e-05 0)
(6.55306e-05 -6.57393e-05 0)
(9.46119e-05 -4.05569e-05 0)
(7.27033e-05 7.639e-06 0)
(-1.90274e-05 6.56742e-05 0)
(-0.000187388 0.000125971 0)
(-0.000432957 0.000184257 0)
(-0.000752518 0.000238285 0)
(-0.00114053 0.000286916 0)
(-0.00159021 0.000329708 0)
(-0.00209421 0.000366624 0)
(-0.00264509 0.000397852 0)
(-0.00323555 0.000423704 0)
(-0.00385858 0.000444547 0)
(-0.0045076 0.000460757 0)
(-0.0051764 0.000472693 0)
(-0.00585918 0.000480678 0)
(-0.00655051 0.000484987 0)
(-0.00724525 0.000485843 0)
(-0.00793851 0.000483419 0)
(-0.00862561 0.000477835 0)
(-0.00930198 0.000469167 0)
(-0.00996315 0.000457455 0)
(-0.0106047 0.000442708 0)
(-0.0112223 0.000424913 0)
(-0.0118114 0.000404047 0)
(-0.0123677 0.000380087 0)
(-0.0128867 0.000353014 0)
(-0.0133641 0.00032283 0)
(-0.0137956 0.000289561 0)
(-0.0141768 0.000253268 0)
(-0.0145038 0.000214054 0)
(-0.0147725 0.000172067 0)
(-0.0149794 0.000127512 0)
(-0.0151212 8.06478e-05 0)
(-0.0151951 3.17925e-05 0)
(-0.0151987 -1.86746e-05 0)
(-0.0151301 -7.03158e-05 0)
(-0.0149884 -0.000122636 0)
(-0.0147732 -0.000175088 0)
(-0.0144847 -0.000227079 0)
(-0.0141242 -0.000277976 0)
(-0.013694 -0.000327119 0)
(-0.0131968 -0.000373828 0)
(-0.0126369 -0.00041742 0)
(-0.0120189 -0.00045722 0)
(-0.0113487 -0.000492575 0)
(-0.0106328 -0.000522871 0)
(-0.00987866 -0.000547547 0)
(-0.00909436 -0.000566109 0)
(-0.0082886 -0.000578144 0)
(-0.00747055 -0.000583332 0)
(-0.00664973 -0.000581457 0)
(-0.00583589 -0.000572418 0)
(-0.0050388 -0.000556228 0)
(-0.00426813 -0.000533027 0)
(-0.00353326 -0.000503078 0)
(-0.0028431 -0.000466771 0)
(-0.00220593 -0.00042462 0)
(-0.00162923 -0.000377264 0)
(-0.00111947 -0.000325472 0)
(-0.000681959 -0.000270148 0)
(-0.0003206 -0.000212352 0)
(-3.7682e-05 -0.000153337 0)
(0.000166426 -9.46126e-05 0)
(0.000293644 -3.8056e-05 0)
(0.000348719 1.38746e-05 0)
(0.000339915 5.78737e-05 0)
(0.000279718 8.93509e-05 0)
(0.000185972 0.000101813 0)
(8.63356e-05 8.64941e-05 0)
(1.96716e-05 3.64841e-05 0)
(1.76135e-05 -8.13152e-05 0)
(4.12688e-05 -9.50188e-05 0)
(1.95143e-05 -1.9115e-05 0)
(-8.4084e-05 0.00010593 0)
(-0.000290306 0.000254615 0)
(-0.000607894 0.000410504 0)
(-0.00103811 0.00056329 0)
(-0.00157714 0.000706838 0)
(-0.00221782 0.000837703 0)
(-0.00295096 0.000954179 0)
(-0.00376629 0.00105567 0)
(-0.0046531 0.00114228 0)
(-0.00560068 0.0012145 0)
(-0.00659857 0.00127308 0)
(-0.00763671 0.00131883 0)
(-0.00870554 0.00135258 0)
(-0.009796 0.00137509 0)
(-0.0108995 0.00138704 0)
(-0.0120078 0.00138899 0)
(-0.013113 0.00138139 0)
(-0.0142077 0.00136455 0)
(-0.0152843 0.00133872 0)
(-0.0163358 0.001304 0)
(-0.0173549 0.00126048 0)
(-0.0183347 0.00120815 0)
(-0.0192679 0.00114701 0)
(-0.0201477 0.00107705 0)
(-0.0209671 0.000998283 0)
(-0.0217191 0.000910771 0)
(-0.022397 0.000814654 0)
(-0.0229944 0.000710164 0)
(-0.0235047 0.000597645 0)
(-0.0239223 0.000477572 0)
(-0.0242414 0.000350557 0)
(-0.0244574 0.000217368 0)
(-0.0245659 7.89266e-05 0)
(-0.0245636 -6.36878e-05 0)
(-0.0244479 -0.00020924 0)
(-0.0242174 -0.000356348 0)
(-0.0238717 -0.000503494 0)
(-0.0234117 -0.000649044 0)
(-0.0228394 -0.000791267 0)
(-0.0221584 -0.000928359 0)
(-0.0213735 -0.00105848 0)
(-0.0204909 -0.00117978 0)
(-0.0195183 -0.00129044 0)
(-0.0184645 -0.0013887 0)
(-0.0173399 -0.00147292 0)
(-0.0161558 -0.00154161 0)
(-0.0149245 -0.00159344 0)
(-0.0136595 -0.00162732 0)
(-0.0123746 -0.00164241 0)
(-0.0110846 -0.00163814 0)
(-0.0098042 -0.00161426 0)
(-0.00854828 -0.00157084 0)
(-0.00733155 -0.00150828 0)
(-0.00616826 -0.00142732 0)
(-0.00507192 -0.00132907 0)
(-0.00405509 -0.00121497 0)
(-0.00312903 -0.00108682 0)
(-0.00230348 -0.000946805 0)
(-0.00158633 -0.000797485 0)
(-0.00098332 -0.000641866 0)
(-0.000497681 -0.000483478 0)
(-0.000129729 -0.00032652 0)
(0.000123605 -0.000176076 0)
(0.000269409 -3.84619e-05 0)
(0.000319524 7.8308e-05 0)
(0.000291078 0.000163939 0)
(0.00020729 0.000205269 0)
(0.000102406 0.000186198 0)
(2.49655e-05 9.03659e-05 0)
(8.82634e-06 -9.77104e-05 0)
(-7.04745e-06 -7.30983e-05 0)
(-0.000107624 8.48085e-05 0)
(-0.000322377 0.000318331 0)
(-0.000669541 0.000589982 0)
(-0.00115752 0.000874148 0)
(-0.00178705 0.0011538 0)
(-0.00255339 0.00141817 0)
(-0.00344797 0.00166077 0)
(-0.00445977 0.00187809 0)
(-0.00557633 0.00206856 0)
(-0.00678443 0.00223193 0)
(-0.00807068 0.00236876 0)
(-0.00942182 0.00248009 0)
(-0.010825 0.00256719 0)
(-0.0122677 0.0026314 0)
(-0.013738 0.00267399 0)
(-0.0152247 0.00269611 0)
(-0.0167166 0.00269874 0)
(-0.0182034 0.00268268 0)
(-0.0196747 0.00264852 0)
(-0.0211207 0.00259669 0)
(-0.0225315 0.00252745 0)
(-0.0238975 0.00244097 0)
(-0.0252092 0.00233733 0)
(-0.0264571 0.00221657 0)
(-0.0276319 0.00207874 0)
(-0.0287242 0.00192395 0)
(-0.029725 0.00175242 0)
(-0.0306255 0.00156449 0)
(-0.031417 0.00136068 0)
(-0.0320913 0.00114174 0)
(-0.0326408 0.000908628 0)
(-0.0330586 0.000662591 0)
(-0.0333383 0.00040514 0)
(-0.0334748 0.000138076 0)
(-0.0334637 -0.000136514 0)
(-0.0333021 -0.000416261 0)
(-0.0329883 -0.000698531 0)
(-0.0325222 -0.000980447 0)
(-0.0319049 -0.00125892 0)
(-0.0311396 -0.00153071 0)
(-0.030231 -0.00179242 0)
(-0.0291856 -0.00204063 0)
(-0.0280116 -0.00227188 0)
(-0.0267191 -0.00248279 0)
(-0.0253197 -0.00267011 0)
(-0.0238268 -0.00283079 0)
(-0.0222552 -0.00296207 0)
(-0.020621 -0.0030615 0)
(-0.0189414 -0.00312708 0)
(-0.0172346 -0.00315727 0)
(-0.0155192 -0.00315103 0)
(-0.0138146 -0.00310792 0)
(-0.0121398 -0.00302809 0)
(-0.0105138 -0.00291232 0)
(-0.00895499 -0.00276204 0)
(-0.00748077 -0.00257935 0)
(-0.00610728 -0.00236701 0)
(-0.004849 -0.00212847 0)
(-0.00371845 -0.00186788 0)
(-0.00272571 -0.00159012 0)
(-0.00187812 -0.00130092 0)
(-0.00117982 -0.00100694 0)
(-0.000631272 -0.000715988 0)
(-0.000228779 -0.000437345 0)
(3.6128e-05 -0.000182148 0)
(0.000177336 3.60003e-05 0)
(0.000214563 0.000200384 0)
(0.000173968 0.000290616 0)
(9.29752e-05 0.000282408 0)
(2.40159e-05 0.000147226 0)
(-2.13208e-06 -8.43584e-05 0)
(-6.73027e-05 2.09531e-05 0)
(-0.000264093 0.000295451 0)
(-0.000609677 0.000667924 0)
(-0.00111654 0.00109058 0)
(-0.0017909 0.00152953 0)
(-0.00263174 0.00196132 0)
(-0.00363271 0.00237051 0)
(-0.00478368 0.00274736 0)
(-0.00607194 0.00308626 0)
(-0.00748313 0.00338441 0)
(-0.00900202 0.00364102 0)
(-0.010613 0.00385653 0)
(-0.0123006 0.00403219 0)
(-0.0140494 0.00416967 0)
(-0.0158447 0.00427076 0)
(-0.0176721 0.00433728 0)
(-0.0195177 0.00437087 0)
(-0.0213682 0.00437294 0)
(-0.0232107 0.00434468 0)
(-0.0250325 0.00428698 0)
(-0.0268213 0.00420052 0)
(-0.0285651 0.00408574 0)
(-0.030252 0.00394295 0)
(-0.0318701 0.00377234 0)
(-0.0334079 0.00357406 0)
(-0.0348539 0.0033483 0)
(-0.0361966 0.00309533 0)
(-0.0374251 0.0028156 0)
(-0.0385287 0.00250978 0)
(-0.0394969 0.0021788 0)
(-0.04032 0.00182393 0)
(-0.0409888 0.00144684 0)
(-0.0414952 0.00104956 0)
(-0.0418317 0.000634582 0)
(-0.0419922 0.000204817 0)
(-0.0419719 -0.000236373 0)
(-0.0417674 -0.000685204 0)
(-0.041377 -0.00113749 0)
(-0.0408005 -0.00158867 0)
(-0.0400399 -0.00203389 0)
(-0.039099 -0.00246803 0)
(-0.0379836 -0.00288579 0)
(-0.0367017 -0.0032818 0)
(-0.0352634 -0.00365068 0)
(-0.0336807 -0.00398716 0)
(-0.0319678 -0.00428617 0)
(-0.0301405 -0.00454299 0)
(-0.0282167 -0.0047533 0)
(-0.0262155 -0.00491335 0)
(-0.0241575 -0.00502 0)
(-0.0220645 -0.00507088 0)
(-0.0199587 -0.00506441 0)
(-0.0178631 -0.0049999 0)
(-0.0158005 -0.00487763 0)
(-0.0137934 -0.00469884 0)
(-0.0118639 -0.0044658 0)
(-0.0100327 -0.00418183 0)
(-0.00831899 -0.00385132 0)
(-0.00674019 -0.00347972 0)
(-0.00531121 -0.0030736 0)
(-0.00404419 -0.00264069 0)
(-0.00294799 -0.00218999 0)
(-0.00202775 -0.00173189 0)
(-0.00128442 -0.00127846 0)
(-0.000714247 -0.000843726 0)
(-0.000308236 -0.000444175 0)
(-5.1631e-05 -9.93625e-05 0)
(7.64357e-05 0.000167384 0)
(0.000103461 0.000328336 0)
(6.74504e-05 0.000350764 0)
(1.96543e-05 0.000194049 0)
(-1.36969e-05 -3.74724e-05 0)
(-0.000132818 0.000197404 0)
(-0.000435741 0.000626839 0)
(-0.000924426 0.00117012 0)
(-0.0016035 0.00177131 0)
(-0.00247551 0.00238956 0)
(-0.00353662 0.00299584 0)
(-0.00477814 0.00357036 0)
(-0.00618798 0.00410026 0)
(-0.00775162 0.0045778 0)
(-0.00945294 0.0049989 0)
(-0.0112749 0.00536206 0)
(-0.0131999 0.00566754 0)
(-0.0152106 0.00591669 0)
(-0.0172897 0.0061115 0)
(-0.0194201 0.00625423 0)
(-0.0215856 0.00634716 0)
(-0.0237701 0.00639242 0)
(-0.0259581 0.00639188 0)
(-0.0281346 0.00634712 0)
(-0.0302848 0.00625936 0)
(-0.0323944 0.00612952 0)
(-0.0344491 0.0059583 0)
(-0.036435 0.00574614 0)
(-0.0383384 0.00549342 0)
(-0.0401456 0.00520045 0)
(-0.0418432 0.00486761 0)
(-0.0434181 0.00449542 0)
(-0.0448575 0.00408466 0)
(-0.0461489 0.00363641 0)
(-0.0472806 0.00315216 0)
(-0.0482412 0.00263387 0)
(-0.0490204 0.00208401 0)
(-0.0496088 0.00150563 0)
(-0.0499982 0.00090237 0)
(-0.0501817 0.000278489 0)
(-0.050154 -0.000361155 0)
(-0.0499113 -0.00101111 0)
(-0.0494518 -0.00166538 0)
(-0.0487756 -0.00231745 0)
(-0.0478852 -0.0029604 0)
(-0.046785 -0.00358697 0)
(-0.0454819 -0.00418966 0)
(-0.0439851 -0.00476085 0)
(-0.042306 -0.00529296 0)
(-0.0404587 -0.00577854 0)
(-0.0384592 -0.00621046 0)
(-0.0363258 -0.00658206 0)
(-0.0340786 -0.00688728 0)
(-0.0317397 -0.00712081 0)
(-0.0293324 -0.00727827 0)
(-0.0268815 -0.00735629 0)
(-0.0244125 -0.00735266 0)
(-0.0219514 -0.00726644 0)
(-0.0195243 -0.00709799 0)
(-0.0171571 -0.00684911 0)
(-0.0148747 -0.00652303 0)
(-0.012701 -0.00612447 0)
(-0.0106581 -0.00565967 0)
(-0.00876584 -0.0051364 0)
(-0.00704151 -0.00456399 0)
(-0.00549921 -0.00395342 0)
(-0.00414941 -0.00331739 0)
(-0.00299848 -0.00267049 0)
(-0.00204819 -0.00202944 0)
(-0.00129529 -0.00141342 0)
(-0.000730986 -0.000844571 0)
(-0.000340576 -0.00034856 0)
(-0.000103111 4.46471e-05 0)
(9.03412e-06 0.000300116 0)
(3.24444e-05 0.000377043 0)
(1.36105e-05 0.000224398 0)
(-2.51826e-05 4.41433e-05 0)
(-0.000199967 0.000461257 0)
(-0.000613918 0.00108688 0)
(-0.00125255 0.0018343 0)
(-0.0021114 0.00264167 0)
(-0.0031883 0.00346277 0)
(-0.00447569 0.00426398 0)
(-0.00596186 0.00502186 0)
(-0.00763232 0.00572082 0)
(-0.00947052 0.00635116 0)
(-0.0114585 0.00690757 0)
(-0.0135774 0.00738789 0)
(-0.0158081 0.00779213 0)
(-0.0181312 0.00812173 0)
(-0.0205278 0.00837894 0)
(-0.0229792 0.00856644 0)
(-0.0254672 0.00868696 0)
(-0.0279738 0.0087431 0)
(-0.0304817 0.00873717 0)
(-0.0329741 0.00867111 0)
(-0.0354344 0.0085465 0)
(-0.0378461 0.00836455 0)
(-0.0401934 0.00812616 0)
(-0.0424605 0.00783202 0)
(-0.0446317 0.00748269 0)
(-0.0466917 0.00707869 0)
(-0.0486255 0.00662068 0)
(-0.0504183 0.00610949 0)
(-0.0520556 0.00554632 0)
(-0.0535236 0.00493276 0)
(-0.0548091 0.00427098 0)
(-0.0558996 0.00356374 0)
(-0.0567836 0.0028145 0)
(-0.0574508 0.00202745 0)
(-0.0578922 0.00120759 0)
(-0.0581001 0.000360675 0)
(-0.0580687 -0.000506717 0)
(-0.0577941 -0.00138726 0)
(-0.0572743 -0.00227291 0)
(-0.0565098 -0.00315499 0)
(-0.055503 -0.00402426 0)
(-0.0542592 -0.00487108 0)
(-0.0527859 -0.00568548 0)
(-0.0510935 -0.00645738 0)
(-0.0491946 -0.00717673 0)
(-0.0471047 -0.00783368 0)
(-0.0448417 -0.00841881 0)
(-0.0424256 -0.00892328 0)
(-0.0398788 -0.00933909 0)
(-0.0372256 -0.00965921 0)
(-0.034492 -0.00987784 0)
(-0.0317052 -0.0099905 0)
(-0.0288936 -0.00999425 0)
(-0.026086 -0.00988782 0)
(-0.0233114 -0.00967169 0)
(-0.0205985 -0.0093482 0)
(-0.0179753 -0.00892164 0)
(-0.0154683 -0.00839825 0)
(-0.0131024 -0.00778631 0)
(-0.0108998 -0.00709611 0)
(-0.00888015 -0.00634005 0)
(-0.00705957 -0.00553262 0)
(-0.0054503 -0.00469057 0)
(-0.00406017 -0.00383298 0)
(-0.0028922 -0.00298153 0)
(-0.00194409 -0.00216082 0)
(-0.00120792 -0.00139876 0)
(-0.000669741 -0.0007272 0)
(-0.000309363 -0.000182612 0)
(-9.99598e-05 0.000193207 0)
(-7.76002e-06 0.000352146 0)
(6.85108e-06 0.000234842 0)
(-3.63312e-05 0.000160484 0)
(-0.000266864 0.00081438 0)
(-0.000793503 0.00167936 0)
(-0.00158512 0.00266547 0)
(-0.00262756 0.00370705 0)
(-0.00391327 0.00475407 0)
(-0.00543027 0.00576951 0)
(-0.00716328 0.0067271 0)
(-0.009095 0.00760905 0)
(-0.0112066 0.0084041 0)
(-0.013478 0.00910591 0)
(-0.0158887 0.00971176 0)
(-0.0184179 0.0102215 0)
(-0.0210447 0.0106366 0)
(-0.0237485 0.0109596 0)
(-0.0265089 0.0111936 0)
(-0.0293063 0.0113418 0)
(-0.0321211 0.0114071 0)
(-0.0349344 0.0113923 0)
(-0.0377276 0.0112998 0)
(-0.0404826 0.0111314 0)
(-0.0431813 0.0108887 0)
(-0.0458062 0.0105727 0)
(-0.0483398 0.0101845 0)
(-0.0507649 0.00972479 0)
(-0.0530648 0.00919438 0)
(-0.0552227 0.00859424 0)
(-0.0572225 0.00792559 0)
(-0.0590483 0.00719012 0)
(-0.0606851 0.00639005 0)
(-0.0621183 0.0055283 0)
(-0.0633344 0.00460856 0)
(-0.0643209 0.00363539 0)
(-0.0650664 0.00261428 0)
(-0.0655613 0.00155171 0)
(-0.0657974 0.000455136 0)
(-0.0657683 -0.00066701 0)
(-0.0654698 -0.00180534 0)
(-0.0648998 -0.00294958 0)
(-0.0640586 -0.00408868 0)
(-0.0629492 -0.0052109 0)
(-0.061577 -0.00630399 0)
(-0.0599502 -0.00735533 0)
(-0.05808 -0.00835214 0)
(-0.05598 -0.00928169 0)
(-0.0536669 -0.0101315 0)
(-0.05116 -0.0108897 0)
(-0.0484809 -0.011545 0)
(-0.0456539 -0.0120873 0)
(-0.0427053 -0.0125077 0)
(-0.0396632 -0.0127988 0)
(-0.0365572 -0.0129548 0)
(-0.0334182 -0.0129721 0)
(-0.0302775 -0.0128488 0)
(-0.0271668 -0.0125856 0)
(-0.0241177 -0.0121853 0)
(-0.0211607 -0.0116533 0)
(-0.0183251 -0.0109975 0)
(-0.0156382 -0.0102283 0)
(-0.0131251 -0.00935869 0)
(-0.0108075 -0.00840425 0)
(-0.00870383 -0.00738329 0)
(-0.00682827 -0.00631678 0)
(-0.00519045 -0.00522856 0)
(-0.00379497 -0.00414546 0)
(-0.002641 -0.00309762 0)
(-0.00172196 -0.00211882 0)
(-0.00102529 -0.00124702 0)
(-0.00053218 -0.000525013 0)
(-0.000217283 -9.93684e-07 0)
(-5.0496e-05 0.000270508 0)
(-9.25245e-08 0.000223678 0)
(-4.70463e-05 0.000310912 0)
(-0.000332527 0.00125668 0)
(-0.000971501 0.00240524 0)
(-0.00191652 0.00366551 0)
(-0.00314359 0.00496977 0)
(-0.00463935 0.0062657 0)
(-0.00638698 0.00751407 0)
(-0.00836722 0.00868668 0)
(-0.0105596 0.0097642 0)
(-0.0129426 0.0107343 0)
(-0.0154942 0.0115899 0)
(-0.018192 0.0123279 0)
(-0.0210134 0.0129482 0)
(-0.0239362 0.0134524 0)
(-0.0269381 0.0138433 0)
(-0.0299976 0.0141244 0)
(-0.0330934 0.0142992 0)
(-0.0362048 0.0143713 0)
(-0.0393112 0.0143438 0)
(-0.0423928 0.0142194 0)
(-0.0454299 0.0140003 0)
(-0.0484031 0.0136882 0)
(-0.0512934 0.0132847 0)
(-0.054082 0.0127909 0)
(-0.0567502 0.0122078 0)
(-0.0592799 0.0115366 0)
(-0.0616532 0.0107785 0)
(-0.0638523 0.00993524 0)
(-0.0658605 0.00900906 0)
(-0.0676613 0.00800287 0)
(-0.0692391 0.00692042 0)
(-0.0705795 0.00576644 0)
(-0.0716688 0.0045467 0)
(-0.0724951 0.00326809 0)
(-0.0730478 0.00193869 0)
(-0.073318 0.000567778 0)
(-0.073299 -0.000834206 0)
(-0.0729861 -0.00225567 0)
(-0.0723771 -0.00368396 0)
(-0.071472 -0.00510549 0)
(-0.0702739 -0.00650584 0)
(-0.0687884 -0.00786999 0)
(-0.0670242 -0.00918247 0)
(-0.0649929 -0.0104276 0)
(-0.0627089 -0.0115898 0)
(-0.0601899 -0.0126538 0)
(-0.0574561 -0.0136049 0)
(-0.0545308 -0.0144294 0)
(-0.0514396 -0.0151148 0)
(-0.0482106 -0.0156501 0)
(-0.0448737 -0.0160261 0)
(-0.0414609 -0.0162357 0)
(-0.0380051 -0.0162742 0)
(-0.0345402 -0.0161393 0)
(-0.0311005 -0.0158316 0)
(-0.0277199 -0.0153545 0)
(-0.0244319 -0.0147144 0)
(-0.0212684 -0.0139208 0)
(-0.0182594 -0.0129864 0)
(-0.0154324 -0.0119269 0)
(-0.012812 -0.0107613 0)
(-0.0104187 -0.00951188 0)
(-0.00826897 -0.00820395 0)
(-0.00637466 -0.00686624 0)
(-0.0047423 -0.00553092 0)
(-0.00337292 -0.00423374 0)
(-0.00226175 -0.00301439 0)
(-0.00139809 -0.00191686 0)
(-0.000764993 -0.000990016 0)
(-0.000339033 -0.000288005 0)
(-9.42051e-05 0.000129023 0)
(-6.95011e-06 0.000190254 0)
(-5.73157e-05 0.000494524 0)
(-0.000396474 0.00178692 0)
(-0.00114617 0.00326363 0)
(-0.00224324 0.00483401 0)
(-0.00365392 0.00642981 0)
(-0.00535891 0.00799771 0)
(-0.00733627 0.00949741 0)
(-0.00956245 0.0108997 0)
(-0.0120135 0.0121845 0)
(-0.0146653 0.0133388 0)
(-0.0174934 0.0143554 0)
(-0.0204734 0.0152311 0)
(-0.0235812 0.0159657 0)
(-0.026793 0.0165614 0)
(-0.0300852 0.0170212 0)
(-0.0334351 0.017349 0)
(-0.0368199 0.017549 0)
(-0.0402178 0.0176249 0)
(-0.0436072 0.0175804 0)
(-0.0469667 0.0174185 0)
(-0.0502756 0.0171418 0)
(-0.0535133 0.0167523 0)
(-0.0566594 0.0162517 0)
(-0.0596939 0.0156414 0)
(-0.0625971 0.0149229 0)
(-0.0653495 0.0140974 0)
(-0.0679319 0.0131667 0)
(-0.0703257 0.012133 0)
(-0.0725128 0.0109992 0)
(-0.0744757 0.00976881 0)
(-0.0761979 0.00844661 0)
(-0.0776638 0.00703837 0)
(-0.0788591 0.00555116 0)
(-0.0797709 0.00399336 0)
(-0.0803877 0.00237476 0)
(-0.0807003 0.000706537 0)
(-0.0807011 -0.000998744 0)
(-0.080385 -0.00272717 0)
(-0.0797493 -0.0044636 0)
(-0.0787939 -0.00619174 0)
(-0.0775217 -0.0078944 0)
(-0.0759383 -0.00955359 0)
(-0.0740524 -0.0111508 0)
(-0.071876 -0.0126674 0)
(-0.0694241 -0.0140847 0)
(-0.0667149 -0.0153843 0)
(-0.0637695 -0.0165488 0)
(-0.0606123 -0.0175616 0)
(-0.0572702 -0.0184076 0)
(-0.0537727 -0.0190737 0)
(-0.0501517 -0.0195485 0)
(-0.0464408 -0.0198236 0)
(-0.0426753 -0.0198929 0)
(-0.0388914 -0.0197536 0)
(-0.0351257 -0.019406 0)
(-0.031415 -0.018854 0)
(-0.0277952 -0.018105 0)
(-0.0243012 -0.0171701 0)
(-0.0209657 -0.0160643 0)
(-0.0178191 -0.0148062 0)
(-0.0148886 -0.0134181 0)
(-0.0121974 -0.0119263 0)
(-0.00976462 -0.0103607 0)
(-0.00760446 -0.00875518 0)
(-0.00572583 -0.00714712 0)
(-0.00413202 -0.00557806 0)
(-0.00282046 -0.00409358 0)
(-0.00178268 -0.00274365 0)
(-0.00100393 -0.001583 0)
(-0.000462997 -0.000671367 0)
(-0.000138071 -7.39213e-05 0)
(-1.36059e-05 0.00013449 0)
(-6.71573e-05 0.000710287 0)
(-0.000458478 0.00240319 0)
(-0.00131652 0.00425244 0)
(-0.00256304 0.00616903 0)
(-0.00415484 0.00808535 0)
(-0.0060666 0.00994834 0)
(-0.0082712 0.0117176 0)
(-0.0107406 0.0133639 0)
(-0.0134473 0.0148671 0)
(-0.0163642 0.0162142 0)
(-0.0194644 0.017398 0)
(-0.0227216 0.0184158 0)
(-0.02611 0.0192678 0)
(-0.0296042 0.0199565 0)
(-0.0331796 0.0204854 0)
(-0.0368119 0.0208591 0)
(-0.0404776 0.0210821 0)
(-0.0441536 0.0211586 0)
(-0.0478171 0.0210927 0)
(-0.0514459 0.0208879 0)
(-0.0550182 0.0205469 0)
(-0.0585122 0.0200721 0)
(-0.0619067 0.0194655 0)
(-0.0651804 0.0187287 0)
(-0.0683126 0.0178634 0)
(-0.0712828 0.0168714 0)
(-0.0740708 0.0157548 0)
(-0.0766568 0.0145162 0)
(-0.0790219 0.0131592 0)
(-0.0811476 0.0116881 0)
(-0.0830163 0.0101087 0)
(-0.0846116 0.0084278 0)
(-0.0859182 0.00665388 0)
(-0.0869225 0.00479685 0)
(-0.0876121 0.00286826 0)
(-0.087977 0.000881262 0)
(-0.088009 -0.00114937 0)
(-0.0877024 -0.00320734 0)
(-0.0870538 -0.00527488 0)
(-0.0860628 -0.00733295 0)
(-0.0847318 -0.00936139 0)
(-0.0830662 -0.0113392 0)
(-0.0810746 -0.0132446 0)
(-0.0787689 -0.0150559 0)
(-0.0761645 -0.0167509 0)
(-0.0732798 -0.0183084 0)
(-0.0701367 -0.0197075 0)
(-0.0667603 -0.0209288 0)
(-0.0631787 -0.0219544 0)
(-0.0594225 -0.0227686 0)
(-0.0555253 -0.023358 0)
(-0.0515226 -0.0237122 0)
(-0.0474515 -0.0238238 0)
(-0.0433506 -0.0236891 0)
(-0.0392591 -0.0233081 0)
(-0.0352163 -0.0226851 0)
(-0.0312611 -0.0218283 0)
(-0.0274311 -0.0207504 0)
(-0.0237622 -0.0194685 0)
(-0.0202877 -0.0180041 0)
(-0.0170378 -0.0163831 0)
(-0.0140389 -0.0146358 0)
(-0.0113128 -0.0127968 0)
(-0.00887662 -0.010905 0)
(-0.00674193 -0.00900328 0)
(-0.00491465 -0.00713901 0)
(-0.00339478 -0.0053637 0)
(-0.00217638 -0.00373325 0)
(-0.00124715 -0.00230816 0)
(-0.000588162 -0.00115352 0)
(-0.000181767 -0.000339163 0)
(-2.00336e-05 5.65558e-05 0)
(-7.65952e-05 0.000957125 0)
(-0.000518437 0.0031032 0)
(-0.00148194 0.0053688 0)
(-0.00287451 0.00766746 0)
(-0.0046438 0.00993327 0)
(-0.00675864 0.0121144 0)
(-0.00918666 0.0141714 0)
(-0.0118954 0.0160758 0)
(-0.0148535 0.0178081 0)
(-0.0180308 0.0193559 0)
(-0.0213982 0.0207128 0)
(-0.0249271 0.0218767 0)
(-0.0285901 0.0228484 0)
(-0.0323604 0.023631 0)
(-0.036212 0.0242289 0)
(-0.0401196 0.0246471 0)
(-0.0440587 0.0248906 0)
(-0.0480052 0.0249644 0)
(-0.0519354 0.0248728 0)
(-0.0558263 0.0246197 0)
(-0.0596549 0.0242081 0)
(-0.0633989 0.0236408 0)
(-0.0670359 0.0229199 0)
(-0.0705439 0.0220474 0)
(-0.0739012 0.0210253 0)
(-0.0770864 0.0198556 0)
(-0.0800783 0.0185409 0)
(-0.0828565 0.0170843 0)
(-0.0854008 0.01549 0)
(-0.0876919 0.0137633 0)
(-0.0897115 0.0119108 0)
(-0.0914421 0.00994045 0)
(-0.0928676 0.00786216 0)
(-0.0939733 0.00568739 0)
(-0.0947463 0.00342948 0)
(-0.0951754 0.00110361 0)
(-0.0952518 -0.00127322 0)
(-0.0949688 -0.00368223 0)
(-0.0943225 -0.00610301 0)
(-0.0933116 -0.00851365 0)
(-0.0919379 -0.010891 0)
(-0.0902065 -0.0132107 0)
(-0.0881254 -0.015448 0)
(-0.0857065 -0.0175774 0)
(-0.0829648 -0.0195738 0)
(-0.079919 -0.021412 0)
(-0.0765914 -0.0230682 0)
(-0.0730075 -0.0245197 0)
(-0.0691963 -0.0257455 0)
(-0.0651897 -0.026727 0)
(-0.0610226 -0.0274486 0)
(-0.056732 -0.0278975 0)
(-0.0523573 -0.028065 0)
(-0.0479392 -0.0279461 0)
(-0.0435195 -0.0275404 0)
(-0.0391402 -0.0268521 0)
(-0.0348433 -0.0258903 0)
(-0.0306695 -0.0246691 0)
(-0.0266579 -0.0232077 0)
(-0.0228451 -0.0215305 0)
(-0.0192648 -0.0196669 0)
(-0.0159465 -0.0176513 0)
(-0.0129155 -0.015523 0)
(-0.010192 -0.013326 0)
(-0.00779068 -0.011109 0)
(-0.00572045 -0.00892511 0)
(-0.00398416 -0.00683186 0)
(-0.00257867 -0.00489114 0)
(-0.00149426 -0.00316922 0)
(-0.000714373 -0.00173648 0)
(-0.000225294 -0.000667265 0)
(-2.62596e-05 -4.33329e-05 0)
(-8.56511e-05 0.00123395 0)
(-0.0005763 0.0038844 0)
(-0.00164206 0.00660928 0)
(-0.00317665 0.00932538 0)
(-0.00511898 0.0119694 0)
(-0.00743219 0.0144916 0)
(-0.0100787 0.0168543 0)
(-0.0130217 0.0190307 0)
(-0.0162259 0.0210026 0)
(-0.0196584 0.0227589 0)
(-0.0232872 0.0242943 0)
(-0.0270818 0.0256077 0)
(-0.0310131 0.0267011 0)
(-0.0350529 0.0275783 0)
(-0.039174 0.0282447 0)
(-0.0433501 0.0287059 0)
(-0.0475557 0.0289676 0)
(-0.0517658 0.0290353 0)
(-0.0559561 0.0289139 0)
(-0.0601027 0.0286074 0)
(-0.064182 0.0281195 0)
(-0.0681707 0.027453 0)
(-0.0720459 0.0266105 0)
(-0.0757848 0.0255941 0)
(-0.0793648 0.024406 0)
(-0.0827638 0.0230486 0)
(-0.0859599 0.021525 0)
(-0.0889317 0.0198388 0)
(-0.0916583 0.0179947 0)
(-0.0941195 0.0159989 0)
(-0.0962961 0.013859 0)
(-0.0981698 0.011584 0)
(-0.0997234 0.00918523 0)
(-0.100941 0.00667569 0)
(-0.10181 0.00407052 0)
(-0.102317 0.00138693 0)
(-0.102452 -0.00135583 0)
(-0.102209 -0.00413649 0)
(-0.101581 -0.00693193 0)
(-0.100567 -0.00971732 0)
(-0.0991683 -0.0124664 0)
(-0.0973883 -0.0151516 0)
(-0.0952348 -0.0177445 0)
(-0.0927189 -0.0202164 0)
(-0.0898555 -0.0225383 0)
(-0.086663 -0.0246817 0)
(-0.0831638 -0.0266189 0)
(-0.0793837 -0.0283239 0)
(-0.0753524 -0.0297722 0)
(-0.0711026 -0.0309424 0)
(-0.0666705 -0.0318158 0)
(-0.0620948 -0.0323775 0)
(-0.0574168 -0.0326166 0)
(-0.0526796 -0.0325269 0)
(-0.0479274 -0.0321072 0)
(-0.0432054 -0.0313614 0)
(-0.0385585 -0.0302991 0)
(-0.0340309 -0.0289359 0)
(-0.0296652 -0.0272929 0)
(-0.0255019 -0.0253972 0)
(-0.0215781 -0.0232818 0)
(-0.0179272 -0.0209851 0)
(-0.0145781 -0.0185513 0)
(-0.0115547 -0.0160297 0)
(-0.00887516 -0.0134747 0)
(-0.00655162 -0.0109454 0)
(-0.00459016 -0.00850552 0)
(-0.00299061 -0.006223 0)
(-0.001746 -0.00417 0)
(-0.000842079 -0.0024223 0)
(-0.000268874 -0.00105887 0)
(-3.23424e-05 -0.000165042 0)
(-9.43401e-05 0.00153966 0)
(-0.000632029 0.00474408 0)
(-0.0017966 0.00797006 0)
(-0.00346873 0.0111383 0)
(-0.00557899 0.0141887 0)
(-0.00808502 0.0170746 0)
(-0.0109443 0.0197609 0)
(-0.0141154 0.022223 0)
(-0.0175597 0.0244448 0)
(-0.0212409 0.0264171 0)
(-0.0251247 0.0281363 0)
(-0.0291785 0.0296026 0)
(-0.0333714 0.0308194 0)
(-0.0376739 0.0317919 0)
(-0.0420577 0.0325261 0)
(-0.0464955 0.0330288 0)
(-0.0509609 0.0333063 0)
(-0.0554283 0.0333649 0)
(-0.0598726 0.0332098 0)
(-0.0642694 0.0328456 0)
(-0.0685943 0.0322761 0)
(-0.0728236 0.0315047 0)
(-0.0769337 0.030534 0)
(-0.0809011 0.0293664 0)
(-0.0847028 0.0280044 0)
(-0.0883158 0.0264508 0)
(-0.0917176 0.0247088 0)
(-0.094886 0.0227828 0)
(-0.0977994 0.020678 0)
(-0.100437 0.0184013 0)
(-0.102778 0.0159611 0)
(-0.104804 0.0133679 0)
(-0.106497 0.010634 0)
(-0.10784 0.00777412 0)
(-0.108818 0.00480509 0)
(-0.109417 0.00174613 0)
(-0.109628 -0.00138126 0)
(-0.109441 -0.00455334 0)
(-0.10885 -0.00774426 0)
(-0.107851 -0.0109262 0)
(-0.106445 -0.0140698 0)
(-0.104635 -0.0171441 0)
(-0.102427 -0.0201172 0)
(-0.0998315 -0.0229566 0)
(-0.0968625 -0.0256295 0)
(-0.0935382 -0.0281037 0)
(-0.0898806 -0.0303475 0)
(-0.0859157 -0.0323311 0)
(-0.0816734 -0.0340266 0)
(-0.0771874 -0.035409 0)
(-0.0724948 -0.0364564 0)
(-0.0676361 -0.0371512 0)
(-0.0626542 -0.0374803 0)
(-0.0575947 -0.0374356 0)
(-0.0525045 -0.0370146 0)
(-0.0474319 -0.0362211 0)
(-0.0424251 -0.0350649 0)
(-0.0375321 -0.0335624 0)
(-0.0327993 -0.0317368 0)
(-0.0282712 -0.0296177 0)
(-0.0239892 -0.0272416 0)
(-0.0199907 -0.0246512 0)
(-0.0163089 -0.0218954 0)
(-0.0129716 -0.0190289 0)
(-0.0100008 -0.016112 0)
(-0.00741238 -0.01321 0)
(-0.00521593 -0.010393 0)
(-0.00341449 -0.00773516 0)
(-0.00200389 -0.00531485 0)
(-0.000972157 -0.00321349 0)
(-0.000312878 -0.00151497 0)
(-3.83602e-05 -0.00030861 0)
(-0.00010267 0.00187315 0)
(-0.000685581 0.00567942 0)
(-0.0019453 0.00944703 0)
(-0.00375011 0.0131011 0)
(-0.00602262 0.0165856 0)
(-0.00871525 0.0198573 0)
(-0.0117806 0.0228847 0)
(-0.0151731 0.0256461 0)
(-0.0188504 0.028128 0)
(-0.0227732 0.0303238 0)
(-0.0269047 0.0322318 0)
(-0.0312104 0.0338544 0)
(-0.0356577 0.0351965 0)
(-0.0402158 0.0362646 0)
(-0.0448552 0.0370662 0)
(-0.0495478 0.037609 0)
(-0.0542664 0.0379004 0)
(-0.0589849 0.0379471 0)
(-0.0636775 0.0377549 0)
(-0.0683193 0.0373291 0)
(-0.0728855 0.0366738 0)
(-0.0773518 0.0357924 0)
(-0.0816942 0.034688 0)
(-0.0858888 0.0333632 0)
(-0.0899118 0.0318207 0)
(-0.0937399 0.0300635 0)
(-0.09735 0.0280953 0)
(-0.100719 0.0259207 0)
(-0.103825 0.0235458 0)
(-0.106646 0.0209779 0)
(-0.109161 0.0182264 0)
(-0.11135 0.0153029 0)
(-0.113194 0.0122209 0)
(-0.114675 0.00899648 0)
(-0.115778 0.00564832 0)
(-0.116487 0.00219753 0)
(-0.11679 -0.0013322 0)
(-0.116678 -0.00491467 0)
(-0.116142 -0.00852133 0)
(-0.115178 -0.0121215 0)
(-0.113785 -0.0156824 0)
(-0.111964 -0.0191697 0)
(-0.109721 -0.022548 0)
(-0.107064 -0.0257808 0)
(-0.104007 -0.0288315 0)
(-0.100566 -0.0316635 0)
(-0.0967643 -0.0342414 0)
(-0.0926265 -0.036531 0)
(-0.088183 -0.0385005 0)
(-0.083468 -0.040121 0)
(-0.0785196 -0.0413672 0)
(-0.0733795 -0.0422182 0)
(-0.0680928 -0.0426581 0)
(-0.0627073 -0.0426767 0)
(-0.0572728 -0.04227 0)
(-0.0518406 -0.0414409 0)
(-0.0464629 -0.040199 0)
(-0.0411914 -0.0385618 0)
(-0.036077 -0.0365538 0)
(-0.0311685 -0.0342074 0)
(-0.0265118 -0.0315623 0)
(-0.0221491 -0.0286654 0)
(-0.0181182 -0.0255705 0)
(-0.0144512 -0.0223379 0)
(-0.0111746 -0.0190338 0)
(-0.00830844 -0.0157302 0)
(-0.00586587 -0.0125036 0)
(-0.00385347 -0.00943492 0)
(-0.00227001 -0.00660899 0)
(-0.00110579 -0.00411326 0)
(-0.000357777 -0.00203705 0)
(-4.44033e-05 -0.000474302 0)
(-0.00011064 0.0022333 0)
(-0.000736895 0.00668744 0)
(-0.00208792 0.0110358 0)
(-0.00402019 0.0152084 0)
(-0.00644879 0.0191537 0)
(-0.00932113 0.022833 0)
(-0.0125853 0.0262187 0)
(-0.0161914 0.0292926 0)
(-0.0200938 0.0320448 0)
(-0.0242503 0.0344714 0)
(-0.0286216 0.0365735 0)
(-0.0331713 0.0383556 0)
(-0.0378652 0.0398248 0)
(-0.0426712 0.0409893 0)
(-0.0475588 0.041858 0)
(-0.052499 0.04244 0)
(-0.0574642 0.0427434 0)
(-0.0624274 0.0427759 0)
(-0.0673626 0.0425441 0)
(-0.0722444 0.0420535 0)
(-0.0770477 0.0413087 0)
(-0.0817479 0.0403134 0)
(-0.0863205 0.0390709 0)
(-0.0907412 0.037584 0)
(-0.0949859 0.0358556 0)