/*--------------------------------*- C++ -*----------------------------------*\
  =========                 |
  \\      /  F ield         | OpenFOAM: The Open Source CFD Toolbox
   \\    /   O peration     | Website:  https://openfoam.org
    \\  /    A nd           | Version:  dev
     \\/     M anipulation  |
\*---------------------------------------------------------------------------*/
FoamFile
{
    format      ascii;
    class       volVectorField;
    location    "39.6";
    object      U;
}
// * * * * * * * * * * * * * * * * * * * * * * * * * * * * * * * * * * * * * //

dimensions      [0 1 -1 0 0 0 0];

internalField   nonuniform List<vector> 
5184
(
(1.23278e-05 -1.27127e-05 0)
(4.51793e-05 -2.08953e-05 0)
(8.03595e-05 -1.72541e-05 0)
(9.60328e-05 -8.20078e-06 0)
(8.22119e-05 2.66675e-06 0)
(3.65157e-05 1.36178e-05 0)
(-4.05092e-05 2.38481e-05 0)
(-0.000146843 3.3053e-05 0)
(-0.000279693 4.11126e-05 0)
(-0.000436001 4.80328e-05 0)
(-0.000612645 5.38751e-05 0)
(-0.000806592 5.87245e-05 0)
(-0.00101497 6.26734e-05 0)
(-0.00123512 6.58131e-05 0)
(-0.00146457 6.82284e-05 0)
(-0.00170108 6.99947e-05 0)
(-0.00194256 7.11762e-05 0)
(-0.0021871 7.18256e-05 0)
(-0.00243291 7.19834e-05 0)
(-0.00267832 7.16795e-05 0)
(-0.00292171 7.09331e-05 0)
(-0.00316153 6.97548e-05 0)
(-0.00339624 6.81474e-05 0)
(-0.00362432 6.6108e-05 0)
(-0.00384424 6.36292e-05 0)
(-0.00405447 6.07014e-05 0)
(-0.00425343 5.7314e-05 0)
(-0.00443957 5.34574e-05 0)
(-0.0046113 4.91245e-05 0)
(-0.00476705 4.43124e-05 0)
(-0.00490524 3.90236e-05 0)
(-0.00502436 3.32672e-05 0)
(-0.00512295 2.70605e-05 0)
(-0.00519963 2.04295e-05 0)
(-0.00525313 1.34098e-05 0)
(-0.00528235 6.04736e-06 0)
(-0.00528634 -1.60183e-06 0)
(-0.00526436 -9.47127e-06 0)
(-0.00521593 -1.74844e-05 0)
(-0.0051408 -2.55553e-05 0)
(-0.00503905 -3.35896e-05 0)
(-0.00491105 -4.14856e-05 0)
(-0.0047575 -4.91361e-05 0)
(-0.00457946 -5.64302e-05 0)
(-0.00437833 -6.32551e-05 0)
(-0.00415588 -6.94989e-05 0)
(-0.00391418 -7.50528e-05 0)
(-0.00365568 -7.98139e-05 0)
(-0.0033831 -8.36874e-05 0)
(-0.00309945 -8.65896e-05 0)
(-0.00280795 -8.84499e-05 0)
(-0.00251205 -8.92132e-05 0)
(-0.00221531 -8.88413e-05 0)
(-0.00192139 -8.73143e-05 0)
(-0.00163396 -8.4632e-05 0)
(-0.00135667 -8.08136e-05 0)
(-0.00109305 -7.58986e-05 0)
(-0.000846469 -6.99458e-05 0)
(-0.000620082 -6.30328e-05 0)
(-0.000416739 -5.52558e-05 0)
(-0.000238937 -4.67289e-05 0)
(-8.87545e-05 -3.7585e-05 0)
(3.22209e-05 -2.7979e-05 0)
(0.000122975 -1.80937e-05 0)
(0.000183176 -8.15439e-06 0)
(0.000213328 1.54418e-06 0)
(0.000215018 1.05776e-05 0)
(0.000191299 1.83088e-05 0)
(0.000147202 2.37254e-05 0)
(9.0825e-05 2.51351e-05 0)
(3.66384e-05 1.98522e-05 0)
(6.22832e-06 6.2436e-06 0)
(2.08536e-05 -4.59002e-05 0)
(6.56541e-05 -6.57363e-05 0)
(9.47776e-05 -4.05822e-05 0)
(7.28929e-05 7.61931e-06 0)
(-1.88439e-05 6.56771e-05 0)
(-0.000187251 0.000126004 0)
(-0.000432912 0.000184322 0)
(-0.000752611 0.000238382 0)
(-0.0011408 0.000287044 0)
(-0.0015907 0.000329865 0)
(-0.00209496 0.000366805 0)
(-0.00264613 0.000398055 0)
(-0.0032369 0.000423925 0)
(-0.00386028 0.000444783 0)
(-0.00450965 0.000461005 0)
(-0.00517882 0.000472952 0)
(-0.00586199 0.000480944 0)
(-0.00655371 0.000485259 0)
(-0.00724885 0.000486119 0)
(-0.00794252 0.000483696 0)
(-0.00863001 0.000478111 0)
(-0.00930678 0.00046944 0)
(-0.00996835 0.000457723 0)
(-0.0106103 0.000442969 0)
(-0.0112282 0.000425164 0)
(-0.0118177 0.000404286 0)
(-0.0123743 0.000380311 0)
(-0.0128936 0.000353222 0)
(-0.0133713 0.000323019 0)
(-0.013803 0.000289728 0)
(-0.0141845 0.000253411 0)
(-0.0145116 0.00021417 0)
(-0.0147805 0.000172156 0)
(-0.0149875 0.00012757 0)
(-0.0151294 8.06742e-05 0)
(-0.0152032 3.17861e-05 0)
(-0.0152067 -1.87148e-05 0)
(-0.0151382 -7.03901e-05 0)
(-0.0149963 -0.000122745 0)
(-0.0147808 -0.000175231 0)
(-0.0144921 -0.000227254 0)
(-0.0141314 -0.000278182 0)
(-0.0137008 -0.000327354 0)
(-0.0132033 -0.00037409 0)
(-0.012643 -0.000417706 0)
(-0.0120246 -0.000457526 0)
(-0.0113539 -0.000492897 0)
(-0.0106376 -0.000523206 0)
(-0.00988294 -0.000547889 0)
(-0.00909816 -0.000566454 0)
(-0.00829191 -0.000578487 0)
(-0.00747337 -0.000583668 0)
(-0.00665209 -0.000581783 0)
(-0.0058378 -0.000572727 0)
(-0.00504028 -0.000556517 0)
(-0.00426922 -0.000533292 0)
(-0.00353398 -0.000503316 0)
(-0.00284349 -0.000466978 0)
(-0.00220605 -0.000424793 0)
(-0.00162911 -0.000377403 0)
(-0.00111917 -0.000325575 0)
(-0.000681517 -0.000270214 0)
(-0.000320069 -0.000212383 0)
(-3.71084e-05 -0.000153334 0)
(0.000166999 -9.45784e-05 0)
(0.000294177 -3.79936e-05 0)
(0.000349178 1.39577e-05 0)
(0.000340276 5.79701e-05 0)
(0.000279969 8.945e-05 0)
(0.000186116 0.0001019 0)
(8.63977e-05 8.65477e-05 0)
(1.96866e-05 3.64967e-05 0)
(1.76449e-05 -8.13402e-05 0)
(4.13626e-05 -9.50836e-05 0)
(1.96547e-05 -1.91764e-05 0)
(-8.39393e-05 0.000105912 0)
(-0.000290212 0.000254667 0)
(-0.000607916 0.00041064 0)
(-0.00103831 0.000563514 0)
(-0.00157759 0.00070715 0)
(-0.00221859 0.000838099 0)
(-0.0029521 0.000954651 0)
(-0.00376787 0.00105621 0)
(-0.00465516 0.00114288 0)
(-0.00560326 0.00121515 0)
(-0.0066017 0.00127378 0)
(-0.00764043 0.00131956 0)
(-0.00870987 0.00135334 0)
(-0.00980096 0.00137587 0)
(-0.0109051 0.00138783 0)
(-0.012014 0.00138979 0)
(-0.0131199 0.00138219 0)
(-0.0142152 0.00136535 0)
(-0.0152925 0.0013395 0)
(-0.0163446 0.00130477 0)
(-0.0173644 0.00126123 0)
(-0.0183447 0.00120887 0)
(-0.0192785 0.00114769 0)
(-0.0201588 0.00107769 0)
(-0.0209786 0.000998868 0)
(-0.0217311 0.000911298 0)
(-0.0224094 0.000815117 0)
(-0.0230071 0.000710557 0)
(-0.0235177 0.000597962 0)
(-0.0239354 0.000477807 0)
(-0.0242548 0.000350706 0)
(-0.0244708 0.000217427 0)
(-0.0245793 7.88917e-05 0)
(-0.0245769 -6.38181e-05 0)
(-0.0244611 -0.000209466 0)
(-0.0242303 -0.00035667 0)
(-0.0238843 -0.000503911 0)
(-0.0234239 -0.000649552 0)
(-0.0228512 -0.000791861 0)
(-0.0221697 -0.000929034 0)
(-0.0213842 -0.00105923 0)
(-0.020501 -0.00118059 0)
(-0.0195277 -0.00129131 0)
(-0.0184733 -0.00138961 0)
(-0.0173479 -0.00147387 0)
(-0.016163 -0.00154258 0)
(-0.0149309 -0.00159442 0)
(-0.0136651 -0.00162829 0)
(-0.0123796 -0.00164336 0)
(-0.0110888 -0.00163906 0)
(-0.00980766 -0.00161514 0)
(-0.00855106 -0.00157166 0)
(-0.0073337 -0.00150904 0)
(-0.00616982 -0.00142801 0)
(-0.00507296 -0.00132967 0)
(-0.00405567 -0.00121548 0)
(-0.00312923 -0.00108724 0)
(-0.00230336 -0.000947125 0)
(-0.00158596 -0.000797707 0)
(-0.000982781 -0.000641992 0)
(-0.000497041 -0.000483513 0)
(-0.000129051 -0.000326472 0)
(0.00012426 -0.000175956 0)
(0.000269991 -3.8286e-05 0)
(0.000319997 7.85204e-05 0)
(0.000291418 0.000164164 0)
(0.00020749 0.000205477 0)
(0.000102491 0.000186347 0)
(2.49854e-05 9.04209e-05 0)
(8.84657e-06 -9.77879e-05 0)
(-6.98883e-06 -7.32125e-05 0)
(-0.000107553 8.47381e-05 0)
(-0.000322354 0.000318363 0)
(-0.000669641 0.000590153 0)
(-0.00115783 0.000874478 0)
(-0.00178766 0.0011543 0)
(-0.00255437 0.00141883 0)
(-0.00344941 0.00166159 0)
(-0.00446176 0.00187905 0)
(-0.00557892 0.00206964 0)
(-0.0067877 0.00223313 0)
(-0.00807467 0.00237005 0)
(-0.00942658 0.00248147 0)
(-0.0108305 0.00256864 0)
(-0.0122741 0.0026329 0)
(-0.0137453 0.00267552 0)
(-0.0152328 0.00269767 0)
(-0.0167257 0.00270032 0)
(-0.0182133 0.00268425 0)
(-0.0196855 0.00265008 0)
(-0.0211324 0.00259822 0)
(-0.022544 0.00252895 0)
(-0.0239108 0.00244242 0)
(-0.0252233 0.00233872 0)
(-0.0264719 0.00221788 0)
(-0.0276474 0.00207996 0)
(-0.0287404 0.00192507 0)
(-0.0297418 0.00175343 0)
(-0.0306427 0.00156537 0)
(-0.0314346 0.00136142 0)
(-0.0321093 0.00114233 0)
(-0.0326591 0.00090906 0)
(-0.033077 0.000662855 0)
(-0.0333568 0.000405229 0)
(-0.0334933 0.000137984 0)
(-0.0334821 -0.000136789 0)
(-0.0333203 -0.00041672 0)
(-0.0330062 -0.000699173 0)
(-0.0325396 -0.000981269 0)
(-0.0319218 -0.00125992 0)
(-0.0311559 -0.00153187 0)
(-0.0302466 -0.00179374 0)
(-0.0292004 -0.00204208 0)
(-0.0280256 -0.00227345 0)
(-0.0267322 -0.00248447 0)
(-0.0253319 -0.00267187 0)
(-0.023838 -0.00283262 0)
(-0.0222654 -0.00296393 0)
(-0.0206302 -0.00306338 0)
(-0.0189496 -0.00312896 0)
(-0.0172417 -0.00315911 0)
(-0.0155254 -0.00315281 0)
(-0.0138198 -0.00310962 0)
(-0.012144 -0.00302969 0)
(-0.0105172 -0.0029138 0)
(-0.00895761 -0.00276338 0)
(-0.00748268 -0.00258054 0)
(-0.00610855 -0.00236803 0)
(-0.00484974 -0.00212932 0)
(-0.00371872 -0.00186854 0)
(-0.00272563 -0.0015906 0)
(-0.00187777 -0.00130122 0)
(-0.00117929 -0.00100707 0)
(-0.000630649 -0.000715964 0)
(-0.000228138 -0.000437188 0)
(3.67222e-05 -0.000181883 0)
(0.000177835 3.63355e-05 0)
(0.000214934 0.000200747 0)
(0.000174194 0.000290957 0)
(9.30718e-05 0.000282665 0)
(2.40367e-05 0.000147333 0)
(-2.12083e-06 -8.44588e-05 0)
(-6.72853e-05 2.08317e-05 0)
(-0.00026412 0.000295428 0)
(-0.000609828 0.000668079 0)
(-0.00111691 0.00109097 0)
(-0.00179158 0.00153016 0)
(-0.00263285 0.00196222 0)
(-0.00363435 0.00237166 0)
(-0.00478594 0.00274876 0)
(-0.00607491 0.00308788 0)
(-0.0074869 0.00338623 0)
(-0.00900666 0.00364302 0)
(-0.0106186 0.00385868 0)
(-0.0123071 0.00403447 0)
(-0.014057 0.00417204 0)
(-0.0158533 0.00427322 0)
(-0.0176818 0.0043398 0)
(-0.0195285 0.00437342 0)
(-0.0213801 0.00437551 0)
(-0.0232237 0.00434724 0)
(-0.0250466 0.00428952 0)
(-0.0268365 0.00420301 0)
(-0.0285814 0.00408817 0)
(-0.0302693 0.0039453 0)
(-0.0318884 0.00377458 0)
(-0.033427 0.00357617 0)
(-0.0348738 0.00335026 0)
(-0.0362174 0.00309713 0)
(-0.0374466 0.00281721 0)
(-0.0385507 0.00251117 0)
(-0.0395194 0.00217996 0)
(-0.0403429 0.00182486 0)
(-0.0410121 0.0014475 0)
(-0.0415186 0.00104995 0)
(-0.0418552 0.000634691 0)
(-0.0420157 0.000204636 0)
(-0.0419952 -0.000236849 0)
(-0.0417905 -0.000685975 0)
(-0.0413996 -0.00113855 0)
(-0.0408226 -0.00159002 0)
(-0.0400613 -0.00203551 0)
(-0.0391197 -0.00246991 0)
(-0.0380034 -0.00288792 0)
(-0.0367206 -0.00328415 0)
(-0.0352813 -0.00365322 0)
(-0.0336975 -0.00398986 0)
(-0.0319834 -0.00428901 0)
(-0.0301549 -0.00454593 0)
(-0.0282298 -0.0047563 0)
(-0.0262274 -0.00491637 0)
(-0.0241682 -0.00502302 0)
(-0.0220739 -0.00507385 0)
(-0.019967 -0.00506729 0)
(-0.0178701 -0.00500266 0)
(-0.0158064 -0.00488023 0)
(-0.0137983 -0.00470124 0)
(-0.0118678 -0.00446799 0)
(-0.0100356 -0.00418378 0)
(-0.00832114 -0.00385301 0)
(-0.00674164 -0.00348113 0)
(-0.00531207 -0.00307473 0)
(-0.00404456 -0.00264154 0)
(-0.00294798 -0.00219056 0)
(-0.00202748 -0.0017322 0)
(-0.00128398 -0.00127852 0)
(-0.000713725 -0.000843577 0)
(-0.000307715 -0.000443854 0)
(-5.11732e-05 -9.89211e-05 0)
(7.67885e-05 0.000167879 0)
(0.000103683 0.000328811 0)
(6.75471e-05 0.000351133 0)
(1.96744e-05 0.00019421 0)
(-1.36944e-05 -3.75733e-05 0)
(-0.000132846 0.000197327 0)
(-0.000435884 0.000626937 0)
(-0.000924784 0.00117049 0)
(-0.00160418 0.00177201 0)
(-0.00247664 0.00239063 0)
(-0.00353833 0.00299728 0)
(-0.00478053 0.00357216 0)
(-0.00619116 0.00410241 0)
(-0.0077557 0.00458027 0)
(-0.009458 0.00500165 0)
(-0.011281 0.00536506 0)
(-0.0132072 0.00567075 0)
(-0.0152191 0.00592008 0)
(-0.0172994 0.00611503 0)
(-0.0194311 0.00625787 0)
(-0.0215979 0.00635088 0)
(-0.0237837 0.00639618 0)
(-0.025973 0.00639567 0)
(-0.0281508 0.00635089 0)
(-0.0303023 0.00626308 0)
(-0.0324131 0.00613318 0)
(-0.0344691 0.00596185 0)
(-0.0364562 0.00574956 0)
(-0.0383607 0.00549668 0)
(-0.040169 0.00520351 0)
(-0.0418676 0.00487045 0)
(-0.0434434 0.00449801 0)
(-0.0448836 0.00408696 0)
(-0.0461757 0.00363841 0)
(-0.0473079 0.00315382 0)
(-0.048269 0.00263517 0)
(-0.0490485 0.00208493 0)
(-0.0496371 0.00150615 0)
(-0.0500266 0.000902483 0)
(-0.0502101 0.000278181 0)
(-0.0501821 -0.000361889 0)
(-0.049939 -0.00101227 0)
(-0.049479 -0.00166696 0)
(-0.0488022 -0.00231944 0)
(-0.0479111 -0.00296279 0)
(-0.04681 -0.00358973 0)
(-0.0455059 -0.00419276 0)
(-0.0440079 -0.00476427 0)
(-0.0423277 -0.00529665 0)
(-0.0404791 -0.00578247 0)
(-0.0384782 -0.00621458 0)
(-0.0363434 -0.00658632 0)
(-0.0340948 -0.00689163 0)
(-0.0317544 -0.0071252 0)
(-0.0293457 -0.00728265 0)
(-0.0268934 -0.0073606 0)
(-0.0244229 -0.00735685 0)
(-0.0219604 -0.00727045 0)
(-0.019532 -0.00710178 0)
(-0.0171635 -0.00685264 0)
(-0.01488 -0.00652626 0)
(-0.0127052 -0.00612736 0)
(-0.0106613 -0.00566219 0)
(-0.00876816 -0.00513853 0)
(-0.00704309 -0.00456573 0)
(-0.00550018 -0.00395476 0)
(-0.00414989 -0.00331834 0)
(-0.00299858 -0.00267106 0)
(-0.00204803 -0.00202967 0)
(-0.00129497 -0.00141335 0)
(-0.000730607 -0.000844245 0)
(-0.00034021 -0.000348052 0)
(-0.000102813 4.52488e-05 0)
(9.22983e-06 0.00030071 0)
(3.25323e-05 0.000377514 0)
(1.36291e-05 0.000224609 0)
(-2.51887e-05 4.40657e-05 0)
(-0.000200044 0.000461283 0)
(-0.000614188 0.00108719 0)
(-0.00125314 0.001835 0)
(-0.00211244 0.00264282 0)
(-0.00318993 0.00346442 0)
(-0.00447805 0.00426612 0)
(-0.00596507 0.00502449 0)
(-0.0076365 0.0057239 0)
(-0.00947577 0.00635465 0)
(-0.0114649 0.00691144 0)
(-0.0135851 0.00739208 0)
(-0.0158171 0.00779661 0)
(-0.0181417 0.00812643 0)
(-0.0205397 0.00838384 0)
(-0.0229926 0.00857148 0)
(-0.025482 0.0086921 0)
(-0.0279902 0.00874829 0)
(-0.0304997 0.00874237 0)
(-0.0329936 0.00867628 0)
(-0.0354553 0.0085516 0)
(-0.0378685 0.00836954 0)
(-0.0402172 0.008131 0)
(-0.0424856 0.00783667 0)
(-0.0446581 0.00748711 0)
(-0.0467193 0.00708284 0)
(-0.0486542 0.00662451 0)
(-0.050448 0.00611298 0)
(-0.0520862 0.00554941 0)
(-0.053555 0.00493543 0)
(-0.0548411 0.00427319 0)
(-0.0559321 0.00356546 0)
(-0.0568165 0.00281569 0)
(-0.0574839 0.00202811 0)
(-0.0579253 0.00120768 0)
(-0.058133 0.000360202 0)
(-0.0581014 -0.000507764 0)
(-0.0578264 -0.00138888 0)
(-0.0573061 -0.0022751 0)
(-0.0565408 -0.00315772 0)
(-0.0555332 -0.00402753 0)
(-0.0542883 -0.00487484 0)
(-0.0528139 -0.00568971 0)
(-0.0511202 -0.00646203 0)
(-0.04922 -0.00718175 0)
(-0.0471287 -0.00783902 0)
(-0.0448641 -0.0084244 0)
(-0.0424464 -0.00892906 0)
(-0.039898 -0.00934499 0)
(-0.0372432 -0.00966517 0)
(-0.0345079 -0.00988378 0)
(-0.0317195 -0.00999635 0)
(-0.0289062 -0.00999995 0)
(-0.026097 -0.0098933 0)
(-0.0233209 -0.00967687 0)
(-0.0206066 -0.00935304 0)
(-0.017982 -0.00892608 0)
(-0.0154738 -0.00840225 0)
(-0.0131067 -0.00778982 0)
(-0.0109031 -0.00709912 0)
(-0.00888257 -0.00634253 0)
(-0.00706124 -0.00553458 0)
(-0.00545135 -0.00469201 0)
(-0.00406074 -0.00383392 0)
(-0.0028924 -0.00298201 0)
(-0.00194405 -0.00216089 0)
(-0.00120773 -0.00139849 0)
(-0.000669507 -0.000726679 0)
(-0.000309146 -0.000181945 0)
(-9.98066e-05 0.000193891 0)
(-7.6872e-06 0.000352702 0)
(6.86748e-06 0.000235097 0)
(-3.6346e-05 0.000160455 0)
(-0.000266992 0.000814573 0)
(-0.000793906 0.00167997 0)
(-0.00158596 0.00266662 0)
(-0.00262898 0.00370879 0)
(-0.00391542 0.00475645 0)
(-0.00543331 0.00577252 0)
(-0.00716735 0.00673073 0)
(-0.00910022 0.00761325 0)
(-0.011213 0.00840882 0)
(-0.0134859 0.0091111 0)
(-0.0158981 0.00971736 0)
(-0.0184288 0.0102274 0)
(-0.0210572 0.0106428 0)
(-0.0237626 0.0109661 0)
(-0.0265247 0.0112003 0)
(-0.0293238 0.0113485 0)
(-0.0321403 0.0114139 0)
(-0.0349554 0.0113991 0)
(-0.0377503 0.0113066 0)
(-0.0405069 0.0111381 0)
(-0.0432072 0.0108952 0)
(-0.0458337 0.010579 0)
(-0.0483688 0.0101905 0)
(-0.0507953 0.00973052 0)
(-0.0530965 0.00919974 0)
(-0.0552556 0.00859918 0)
(-0.0572565 0.00793007 0)
(-0.0590833 0.00719408 0)
(-0.0607209 0.00639345 0)
(-0.0621548 0.00553109 0)
(-0.0633714 0.00461071 0)
(-0.0643583 0.00363687 0)
(-0.0651041 0.00261506 0)
(-0.065599 0.00155177 0)
(-0.0658349 0.000454459 0)
(-0.0658055 -0.000668426 0)
(-0.0655065 -0.00180749 0)
(-0.0649359 -0.00295246 0)
(-0.0640939 -0.00409226 0)
(-0.0629835 -0.00521516 0)
(-0.0616102 -0.00630889 0)
(-0.0599822 -0.00736082 0)
(-0.0581105 -0.00835817 0)
(-0.0560091 -0.00928819 0)
(-0.0536944 -0.0101384 0)
(-0.0511857 -0.0108969 0)
(-0.0485049 -0.0115525 0)
(-0.0456762 -0.012095 0)
(-0.0427257 -0.0125154 0)
(-0.0396818 -0.0128065 0)
(-0.036574 -0.0129624 0)
(-0.0334331 -0.0129795 0)
(-0.0302906 -0.0128559 0)
(-0.0271783 -0.0125923 0)
(-0.0241275 -0.0121916 0)
(-0.021169 -0.0116592 0)
(-0.0183319 -0.0110028 0)
(-0.0156438 -0.010233 0)
(-0.0131295 -0.00936272 0)
(-0.0108108 -0.00840763 0)
(-0.00870628 -0.007386 0)
(-0.00682997 -0.00631884 0)
(-0.00519154 -0.00522998 0)
(-0.00379559 -0.00414629 0)
(-0.00264128 -0.00309792 0)
(-0.00172201 -0.00211868 0)
(-0.00102522 -0.00124655 0)
(-0.000532064 -0.000524332 0)
(-0.000217183 -2.55822e-07 0)
(-5.04424e-05 0.000271125 0)
(-7.90506e-08 0.000223967 0)
(-4.70696e-05 0.000310958 0)
(-0.000332706 0.00125711 0)
(-0.000972041 0.00240624 0)
(-0.00191761 0.00366722 0)
(-0.0031454 0.00497225 0)
(-0.00464205 0.00626898 0)
(-0.00639074 0.00751813 0)
(-0.00837218 0.00869148 0)
(-0.0105659 0.0097697 0)
(-0.0129504 0.0107404 0)
(-0.0155035 0.0115966 0)
(-0.018203 0.0123351 0)
(-0.0210262 0.0129558 0)
(-0.0239507 0.0134603 0)
(-0.0269545 0.0138515 0)
(-0.0300159 0.0141328 0)
(-0.0331136 0.0143078 0)
(-0.0362268 0.0143799 0)
(-0.0393352 0.0143524 0)
(-0.0424186 0.0142279 0)
(-0.0454575 0.0140086 0)
(-0.0484325 0.0136964 0)
(-0.0513245 0.0132926 0)
(-0.0541147 0.0127985 0)
(-0.0567845 0.012215 0)
(-0.0593157 0.0115433 0)
(-0.0616902 0.0107846 0)
(-0.0638906 0.0099408 0)
(-0.0658998 0.00901395 0)
(-0.0677014 0.00800705 0)
(-0.06928 0.00692385 0)
(-0.0706209 0.00576906 0)
(-0.0717107 0.00454847 0)
(-0.0725371 0.00326899 0)
(-0.0730898 0.00193869 0)
(-0.0733599 0.000566861 0)
(-0.0733406 -0.000836043 0)
(-0.0730272 -0.00225842 0)
(-0.0724174 -0.00368761 0)
(-0.0715114 -0.00511001 0)
(-0.0703122 -0.0065112 0)
(-0.0688255 -0.00787613 0)
(-0.06706 -0.00918934 0)
(-0.0650271 -0.0104351 0)
(-0.0627415 -0.0115979 0)
(-0.0602207 -0.0126624 0)
(-0.0574852 -0.0136139 0)
(-0.0545579 -0.0144387 0)
(-0.0514648 -0.0151243 0)
(-0.0482338 -0.0156597 0)
(-0.0448949 -0.0160357 0)
(-0.0414801 -0.0162452 0)
(-0.0380223 -0.0162835 0)
(-0.0345555 -0.0161483 0)
(-0.0311139 -0.0158401 0)
(-0.0277315 -0.0153625 0)
(-0.0244418 -0.0147218 0)
(-0.0212767 -0.0139276 0)
(-0.0182662 -0.0129924 0)
(-0.015438 -0.0119321 0)
(-0.0128163 -0.0107658 0)
(-0.0104219 -0.00951548 0)
(-0.00827138 -0.00820674 0)
(-0.00637634 -0.00686826 0)
(-0.00474339 -0.00553221 0)
(-0.00337356 -0.00423438 0)
(-0.00226207 -0.00301447 0)
(-0.00139821 -0.00191651 0)
(-0.000764993 -0.000989378 0)
(-0.000338994 -0.000287258 0)
(-9.41736e-05 0.000129673 0)
(-6.9401e-06 0.000190567 0)
(-5.73476e-05 0.000494672 0)
(-0.000396704 0.00178765 0)
(-0.00114685 0.00326514 0)
(-0.00224458 0.00483642 0)
(-0.00365613 0.00643317 0)
(-0.00536216 0.00800204 0)
(-0.00734075 0.00950269 0)
(-0.00956832 0.0109059 0)
(-0.0120209 0.0121915 0)
(-0.0146743 0.0133466 0)
(-0.0175042 0.0143638 0)
(-0.0204861 0.0152401 0)
(-0.0235958 0.0159752 0)
(-0.0268095 0.0165712 0)
(-0.0301039 0.0170314 0)
(-0.0334558 0.0173594 0)
(-0.0368427 0.0175595 0)
(-0.0402427 0.0176355 0)
(-0.0436341 0.017591 0)
(-0.0469957 0.017429 0)
(-0.0503065 0.017152 0)
(-0.0535461 0.0167623 0)
(-0.0566941 0.0162613 0)
(-0.0597304 0.0156506 0)
(-0.0626352 0.0149315 0)
(-0.0653891 0.0141055 0)
(-0.0679729 0.0131742 0)
(-0.070368 0.0121397 0)
(-0.0725562 0.0110051 0)
(-0.07452 0.00977383 0)
(-0.076243 0.00845069 0)
(-0.0777095 0.00704147 0)
(-0.0789052 0.00555323 0)
(-0.0798171 0.00399437 0)
(-0.080434 0.00237468 0)
(-0.0807464 0.000705345 0)
(-0.0807468 -0.00100105 0)
(-0.0804301 -0.00273058 0)
(-0.0797936 -0.00446808 0)
(-0.0788373 -0.00619728 0)
(-0.0775639 -0.00790094 0)
(-0.0759792 -0.00956108 0)
(-0.0740919 -0.0111592 0)
(-0.0719139 -0.0126766 0)
(-0.0694602 -0.0140945 0)
(-0.0667491 -0.0153948 0)
(-0.0638018 -0.0165597 0)
(-0.0606425 -0.0175729 0)
(-0.0572983 -0.0184192 0)
(-0.0537987 -0.0190854 0)
(-0.0501755 -0.0195603 0)
(-0.0464625 -0.0198352 0)
(-0.0426949 -0.0199042 0)
(-0.0389088 -0.0197645 0)
(-0.0351411 -0.0194164 0)
(-0.0314284 -0.0188638 0)
(-0.0278068 -0.0181141 0)
(-0.024311 -0.0171785 0)
(-0.0209739 -0.0160718 0)
(-0.0178259 -0.0148127 0)
(-0.014894 -0.0134237 0)
(-0.0122016 -0.0119309 0)
(-0.00976779 -0.0103644 0)
(-0.00760676 -0.00875792 0)
(-0.00572742 -0.00714899 0)
(-0.00413305 -0.00557914 0)
(-0.00282106 -0.00409398 0)
(-0.00178299 -0.0027435 0)
(-0.00100406 -0.00158247 0)
(-0.000463023 -0.000670661 0)
(-0.000138063 -7.32706e-05 0)
(-1.35998e-05 0.000134815 0)
(-6.71976e-05 0.000710563 0)
(-0.000458759 0.0024043 0)
(-0.00131733 0.00425456 0)
(-0.00256464 0.00617226 0)
(-0.00415743 0.00808975 0)
(-0.00607041 0.00995388 0)
(-0.0082764 0.0117243 0)
(-0.0107474 0.0133717 0)
(-0.0134558 0.0148758 0)
(-0.0163745 0.0162237 0)
(-0.0194767 0.0174084 0)
(-0.0227359 0.0184268 0)
(-0.0261264 0.0192794 0)
(-0.0296228 0.0199685 0)
(-0.0332004 0.0204978 0)
(-0.036835 0.0208717 0)
(-0.0405029 0.0210948 0)
(-0.0441811 0.0211714 0)
(-0.0478469 0.0211054 0)
(-0.0514779 0.0209004 0)
(-0.0550523 0.0205591 0)
(-0.0585484 0.020084 0)
(-0.0619448 0.0194769 0)
(-0.0652204 0.0187397 0)
(-0.0683543 0.0178738 0)
(-0.0713261 0.016881 0)
(-0.0741156 0.0157636 0)
(-0.076703 0.0145241 0)
(-0.0790692 0.0131661 0)
(-0.0811958 0.011694 0)
(-0.0830654 0.0101134 0)
(-0.0846613 0.00843139 0)
(-0.0859683 0.00665625 0)
(-0.0869727 0.00479796 0)
(-0.0876624 0.00286807 0)
(-0.0880271 0.000879765 0)
(-0.0880587 -0.00115218 0)
(-0.0877514 -0.00321145 0)
(-0.087102 -0.00528027 0)
(-0.08611 -0.00733957 0)
(-0.0847777 -0.00936919 0)
(-0.0831107 -0.0113481 0)
(-0.0811176 -0.0132546 0)
(-0.0788102 -0.0150668 0)
(-0.076204 -0.0167627 0)
(-0.0733173 -0.0183208 0)
(-0.0701722 -0.0197205 0)
(-0.0667936 -0.0209422 0)
(-0.0632097 -0.0219682 0)
(-0.0594513 -0.0227825 0)
(-0.0555518 -0.023372 0)
(-0.0515468 -0.023726 0)
(-0.0474734 -0.0238373 0)
(-0.0433702 -0.0237021 0)
(-0.0392765 -0.0233206 0)
(-0.0352316 -0.0226969 0)
(-0.0312744 -0.0218393 0)
(-0.0274425 -0.0207605 0)
(-0.0237718 -0.0194776 0)
(-0.0202957 -0.0180121 0)
(-0.0170443 -0.01639 0)
(-0.014044 -0.0146416 0)
(-0.0113168 -0.0128015 0)
(-0.00887957 -0.0109086 0)
(-0.00674404 -0.00900584 0)
(-0.00491608 -0.00714064 0)
(-0.00339569 -0.0053645 0)
(-0.0021769 -0.00373338 0)
(-0.0012474 -0.0023078 0)
(-0.000588257 -0.00115291 0)
(-0.000181784 -0.000338546 0)
(-2.00315e-05 5.68796e-05 0)
(-7.66438e-05 0.000957554 0)
(-0.000518768 0.00310475 0)
(-0.00148289 0.00537162 0)
(-0.00287636 0.00767164 0)
(-0.00464678 0.00993884 0)
(-0.00676298 0.0121213 0)
(-0.00919257 0.0141797 0)
(-0.011903 0.0160853 0)
(-0.014863 0.0178186 0)
(-0.0180424 0.0193675 0)
(-0.0214119 0.0207253 0)
(-0.0249431 0.0218898 0)
(-0.0286083 0.0228622 0)
(-0.032381 0.0236453 0)
(-0.0362349 0.0242435 0)
(-0.040145 0.024662 0)
(-0.0440865 0.0249057 0)
(-0.0480354 0.0249795 0)
(-0.051968 0.0248878 0)
(-0.0558611 0.0246344 0)
(-0.0596921 0.0242225 0)
(-0.0634382 0.0236548 0)
(-0.0670772 0.0229334 0)
(-0.0705872 0.0220603 0)
(-0.0739464 0.0210374 0)
(-0.0771332 0.0198668 0)
(-0.0801267 0.0185511 0)
(-0.0829062 0.0170935 0)
(-0.0854518 0.0154981 0)
(-0.0877439 0.0137701 0)
(-0.0897643 0.0119162 0)
(-0.0914955 0.00994455 0)
(-0.0929214 0.00786483 0)
(-0.0940273 0.00568859 0)
(-0.0948003 0.00342918 0)
(-0.0952292 0.00110178 0)
(-0.0953051 -0.00127657 0)
(-0.0950215 -0.00368709 0)
(-0.0943743 -0.00610935 0)
(-0.0933623 -0.00852142 0)
(-0.0919874 -0.0109001 0)
(-0.0902545 -0.0132211 0)
(-0.0881719 -0.0154596 0)
(-0.0857511 -0.0175901 0)
(-0.0830075 -0.0195874 0)
(-0.0799597 -0.0214265 0)
(-0.0766299 -0.0230834 0)
(-0.0730438 -0.0245354 0)
(-0.0692302 -0.0257616 0)
(-0.0652213 -0.0267433 0)
(-0.0610516 -0.0274649 0)
(-0.0567586 -0.0279137 0)
(-0.0523815 -0.0280808 0)
(-0.047961 -0.0279615 0)
(-0.0435389 -0.0275551 0)
(-0.0391574 -0.0268661 0)
(-0.0348583 -0.0259033 0)
(-0.0306824 -0.0246811 0)
(-0.0266689 -0.0232186 0)
(-0.0228544 -0.0215402 0)
(-0.0192724 -0.0196753 0)
(-0.0159526 -0.0176584 0)
(-0.0129203 -0.0155288 0)
(-0.0101956 -0.0133306 0)
(-0.00779333 -0.0111124 0)
(-0.0057223 -0.0089274 0)
(-0.00398538 -0.00683317 0)
(-0.0025794 -0.00489164 0)
(-0.00149465 -0.00316912 0)
(-0.000714539 -0.00173601 0)
(-0.000225337 -0.000666716 0)
(-2.62615e-05 -4.30231e-05 0)
(-8.57074e-05 0.00123455 0)
(-0.000576678 0.00388645 0)
(-0.00164314 0.00661291 0)
(-0.00317874 0.00933065 0)
(-0.00512234 0.0119763 0)
(-0.00743706 0.0145 0)
(-0.0100853 0.0168643 0)
(-0.0130302 0.0190421 0)
(-0.0162365 0.0210152 0)
(-0.0196711 0.0227726 0)
(-0.0233022 0.024309 0)
(-0.0270993 0.0256233 0)
(-0.0310331 0.0267173 0)
(-0.0350754 0.0275951 0)
(-0.039199 0.0282618 0)
(-0.0433777 0.0287233 0)
(-0.0475858 0.0289851 0)
(-0.0517985 0.0290528 0)
(-0.0559913 0.0289312 0)
(-0.0601403 0.0286245 0)
(-0.064222 0.0281362 0)
(-0.068213 0.0274692 0)
(-0.0720903 0.026626 0)
(-0.0758312 0.0256088 0)
(-0.0794132 0.0244198 0)
(-0.0828139 0.0230615 0)
(-0.0860116 0.0215367 0)
(-0.0889849 0.0198493 0)
(-0.0917127 0.0180039 0)
(-0.094175 0.0160067 0)
(-0.0963524 0.0138652 0)
(-0.0982267 0.0115886 0)
(-0.0997808 0.00918821 0)
(-0.100999 0.00667698 0)
(-0.101868 0.00407009 0)
(-0.102374 0.00138475 0)
(-0.102509 -0.00135974 0)
(-0.102265 -0.00414212 0)
(-0.101636 -0.00693925 0)
(-0.100621 -0.00972627 0)
(-0.0992212 -0.0124769 0)
(-0.0974396 -0.0151635 0)
(-0.0952845 -0.0177579 0)
(-0.0927668 -0.020231 0)
(-0.0899014 -0.022554 0)
(-0.0867068 -0.0246984 0)
(-0.0832053 -0.0266364 0)
(-0.0794229 -0.0283419 0)
(-0.0753891 -0.0297907 0)
(-0.0711368 -0.0309612 0)
(-0.0667021 -0.0318346 0)
(-0.0621239 -0.0323962 0)
(-0.0574433 -0.032635 0)
(-0.0527036 -0.0325448 0)
(-0.0479489 -0.0321243 0)
(-0.0432245 -0.0313776 0)
(-0.0385753 -0.0303144 0)
(-0.0340454 -0.02895 0)
(-0.0296777 -0.0273057 0)
(-0.0255124 -0.0254087 0)
(-0.0215868 -0.0232918 0)
(-0.0179342 -0.0209937 0)
(-0.0145837 -0.0185585 0)
(-0.011559 -0.0160355 0)
(-0.00887837 -0.0134791 0)
(-0.00655391 -0.0109485 0)
(-0.00459169 -0.00850745 0)
(-0.00299157 -0.00622397 0)
(-0.00174653 -0.00417022 0)
(-0.000842316 -0.00242203 0)
(-0.000268942 -0.00105843 0)
(-3.23482e-05 -0.000164759 0)
(-9.44035e-05 0.00154047 0)
(-0.000632453 0.00474671 0)
(-0.0017978 0.0079746 0)
(-0.00347105 0.0111447 0)
(-0.0055827 0.014197 0)
(-0.00809039 0.0170847 0)
(-0.0109515 0.0197727 0)
(-0.0141247 0.0222364 0)
(-0.0175713 0.0244596 0)
(-0.0212548 0.0264332 0)
(-0.025141 0.0281534 0)
(-0.0291974 0.0296207 0)
(-0.033393 0.0308382 0)
(-0.0376982 0.0318112 0)
(-0.0420846 0.0325459 0)
(-0.0465251 0.0330488 0)
(-0.0509932 0.0333265 0)
(-0.0554633 0.033385 0)
(-0.0599102 0.0332296 0)
(-0.0643095 0.0328651 0)
(-0.068637 0.0322952 0)
(-0.0728686 0.0315232 0)
(-0.076981 0.0305516 0)
(-0.0809505 0.0293832 0)
(-0.0847541 0.0280201 0)
(-0.088369 0.0264653 0)
(-0.0917724 0.0247221 0)
(-0.0949423 0.0227946 0)
(-0.097857 0.0206883 0)
(-0.100496 0.01841 0)
(-0.102838 0.0159681 0)
(-0.104864 0.013373 0)
(-0.106558 0.0106373 0)
(-0.107901 0.0077755 0)
(-0.108878 0.00480452 0)
(-0.109478 0.00174359 0)
(-0.109688 -0.00138576 0)
(-0.1095 -0.00455977 0)
(-0.108908 -0.00775259 0)
(-0.107909 -0.0109364 0)
(-0.106501 -0.0140818 0)
(-0.10469 -0.0171577 0)
(-0.10248 -0.0201324 0)
(-0.0998823 -0.0229731 0)
(-0.0969113 -0.0256473 0)
(-0.0935849 -0.0281225 0)
(-0.0899249 -0.0303673 0)
(-0.0859576 -0.0323516 0)
(-0.0817128 -0.0340477 0)
(-0.0772242 -0.0354303 0)
(-0.072529 -0.0364778 0)
(-0.0676676 -0.0371725 0)
(-0.062683 -0.0375012 0)
(-0.0576208 -0.037456 0)
(-0.0525281 -0.0370343 0)
(-0.0474529 -0.0362398 0)
(-0.0424436 -0.0350825 0)
(-0.0375482 -0.0335788 0)
(-0.0328132 -0.0317517 0)
(-0.028283 -0.0296312 0)
(-0.023999 -0.0272535 0)
(-0.0199988 -0.0246615 0)
(-0.0163153 -0.021904 0)
(-0.0129766 -0.0190359 0)
(-0.0100045 -0.0161174 0)
(-0.0074151 -0.013214 0)
(-0.00521779 -0.0103956 0)
(-0.00341566 -0.00773667 0)
(-0.00200455 -0.00531547 0)
(-0.000972465 -0.00321348 0)
(-0.00031297 -0.00151466 0)
(-3.83696e-05 -0.000308366 0)
(-0.00010274 0.00187418 0)
(-0.000686047 0.00568268 0)
(-0.00194662 0.00945256 0)
(-0.00375264 0.0131089 0)
(-0.00602668 0.0165955 0)
(-0.00872108 0.0198693 0)
(-0.0117885 0.0228986 0)
(-0.0151832 0.0256617 0)
(-0.0188628 0.0281452 0)
(-0.0227881 0.0303424 0)
(-0.0269223 0.0322516 0)
(-0.0312307 0.0338752 0)
(-0.0356808 0.035218 0)
(-0.0402417 0.0362867 0)
(-0.0448839 0.0370888 0)
(-0.0495794 0.0376318 0)
(-0.0543008 0.0379233 0)
(-0.059022 0.0379698 0)
(-0.0637174 0.0377775 0)
(-0.0683618 0.0373512 0)
(-0.0729306 0.0366953 0)
(-0.0773994 0.0358132 0)
(-0.0817441 0.0347079 0)
(-0.0859408 0.033382 0)
(-0.0899659 0.0318383 0)
(-0.0937959 0.0300798 0)
(-0.0974076 0.0281101 0)
(-0.100778 0.025934 0)
(-0.103886 0.0235573 0)
(-0.106708 0.0209875 0)
(-0.109224 0.0182342 0)
(-0.111413 0.0153086 0)
(-0.113258 0.0122245 0)
(-0.114739 0.00899795 0)
(-0.115841 0.00564761 0)
(-0.11655 0.00219463 0)
(-0.116853 -0.00133728 0)
(-0.11674 -0.00492191 0)
(-0.116203 -0.00853069 0)
(-0.115239 -0.0121329 0)
(-0.113844 -0.0156957 0)
(-0.112022 -0.019185 0)
(-0.109777 -0.022565 0)
(-0.107118 -0.0257993 0)
(-0.104058 -0.0288514 0)
(-0.100616 -0.0316847 0)
(-0.0968113 -0.0342636 0)
(-0.0926711 -0.036554 0)
(-0.088225 -0.0385241 0)
(-0.0835073 -0.040145 0)
(-0.0785561 -0.0413913 0)
(-0.0734133 -0.0422422 0)
(-0.0681239 -0.0426818 0)
(-0.0627355 -0.0426998 0)
(-0.0572983 -0.0422923 0)
(-0.0518635 -0.0414622 0)
(-0.0464831 -0.0402191 0)
(-0.0412092 -0.0385805 0)
(-0.0360923 -0.036571 0)
(-0.0311815 -0.034223 0)
(-0.0265227 -0.0315761 0)
(-0.0221581 -0.0286774 0)
(-0.0181254 -0.0255806 0)
(-0.0144569 -0.0223462 0)
(-0.011179 -0.0190405 0)
(-0.0083116 -0.0157352 0)
(-0.00586805 -0.012507 0)
(-0.00385487 -0.00943708 0)
(-0.00227082 -0.00661008 0)
(-0.00110617 -0.00411357 0)
(-0.000357895 -0.00203692 0)
(-4.44162e-05 -0.000474109 0)
(-0.000110717 0.00223458 0)
(-0.000737401 0.00669138 0)
(-0.00208934 0.0110424 0)
(-0.00402292 0.0152176 0)
(-0.00645315 0.0191654 0)
(-0.00932741 0.022847 0)
(-0.0125937 0.0262348 0)
(-0.0162022 0.0293106 0)
(-0.0201071 0.0320645 0)
(-0.0242662 0.0344926 0)
(-0.0286404 0.0365959 0)
(-0.0331929 0.0383791 0)
(-0.0378897 0.0398491 0)
(-0.0426986 0.0410143 0)
(-0.0475891 0.0418835 0)
(-0.0525323 0.0424656 0)
(-0.0575004 0.0427691 0)
(-0.0624665 0.0428015 0)
(-0.0674045 0.0425694 0)
(-0.072289 0.0420783 0)
(-0.077095 0.0413328 0)
(-0.0817977 0.0403367 0)
(-0.0863726 0.0390931 0)
(-0.0907956 0.037605 0)