/*--------------------------------*- C++ -*----------------------------------*\
  =========                 |
  \\      /  F ield         | OpenFOAM: The Open Source CFD Toolbox
   \\    /   O peration     | Website:  https://openfoam.org
    \\  /    A nd           | Version:  dev
     \\/     M anipulation  |
\*---------------------------------------------------------------------------*/
FoamFile
{
    format      ascii;
    class       volScalarField;
    location    "39.6";
    object      Ux;
}
// * * * * * * * * * * * * * * * * * * * * * * * * * * * * * * * * * * * * * //

dimensions      [0 1 -1 0 0 0 0];

internalField   nonuniform List<scalar> 
5184
(
1.23278e-05
4.51793e-05
8.03595e-05
9.60328e-05
8.22119e-05
3.65157e-05
-4.05092e-05
-0.000146843
-0.000279693
-0.000436001
-0.000612645
-0.000806592
-0.00101497
-0.00123512
-0.00146457
-0.00170108
-0.00194256
-0.0021871
-0.00243291
-0.00267832
-0.00292171
-0.00316153
-0.00339624
-0.00362432
-0.00384424
-0.00405447
-0.00425343
-0.00443957
-0.0046113
-0.00476705
-0.00490524
-0.00502436
-0.00512295
-0.00519963
-0.00525313
-0.00528235
-0.00528634
-0.00526436
-0.00521593
-0.0051408
-0.00503905
-0.00491105
-0.0047575
-0.00457946
-0.00437833
-0.00415588
-0.00391418
-0.00365568
-0.0033831
-0.00309945
-0.00280795
-0.00251205
-0.00221531
-0.00192139
-0.00163396
-0.00135667
-0.00109305
-0.000846469
-0.000620082
-0.000416739
-0.000238937
-8.87545e-05
3.22209e-05
0.000122975
0.000183176
0.000213328
0.000215018
0.000191299
0.000147202
9.0825e-05
3.66384e-05
6.22832e-06
2.08536e-05
6.56541e-05
9.47776e-05
7.28929e-05
-1.88439e-05
-0.000187251
-0.000432912
-0.000752611
-0.0011408
-0.0015907
-0.00209496
-0.00264613
-0.0032369
-0.00386028
-0.00450965
-0.00517882
-0.00586199
-0.00655371
-0.00724885
-0.00794252
-0.00863001
-0.00930678
-0.00996835
-0.0106103
-0.0112282
-0.0118177
-0.0123743
-0.0128936
-0.0133713
-0.013803
-0.0141845
-0.0145116
-0.0147805
-0.0149875
-0.0151294
-0.0152032
-0.0152067
-0.0151382
-0.0149963
-0.0147808
-0.0144921
-0.0141314
-0.0137008
-0.0132033
-0.012643
-0.0120246
-0.0113539
-0.0106376
-0.00988294
-0.00909816
-0.00829191
-0.00747337
-0.00665209
-0.0058378
-0.00504028
-0.00426922
-0.00353398
-0.00284349
-0.00220605
-0.00162911
-0.00111917
-0.000681517
-0.000320069
-3.71084e-05
0.000166999
0.000294177
0.000349178
0.000340276
0.000279969
0.000186116
8.63977e-05
1.96866e-05
1.76449e-05
4.13626e-05
1.96547e-05
-8.39393e-05
-0.000290212
-0.000607916
-0.00103831
-0.00157759
-0.00221859
-0.0029521
-0.00376787
-0.00465516
-0.00560326
-0.0066017
-0.00764043
-0.00870987
-0.00980096
-0.0109051
-0.012014
-0.0131199
-0.0142152
-0.0152925
-0.0163446
-0.0173644
-0.0183447
-0.0192785
-0.0201588
-0.0209786
-0.0217311
-0.0224094
-0.0230071
-0.0235177
-0.0239354
-0.0242548
-0.0244708
-0.0245793
-0.0245769
-0.0244611
-0.0242303
-0.0238843
-0.0234239
-0.0228512
-0.0221697
-0.0213842
-0.020501
-0.0195277
-0.0184733
-0.0173479
-0.016163
-0.0149309
-0.0136651
-0.0123796
-0.0110888
-0.00980766
-0.00855106
-0.0073337
-0.00616982
-0.00507296
-0.00405567
-0.00312923
-0.00230336
-0.00158596
-0.000982781
-0.000497041
-0.000129051
0.00012426
0.000269991
0.000319997
0.000291418
0.00020749
0.000102491
2.49854e-05
8.84657e-06
-6.98883e-06
-0.000107553
-0.000322354
-0.000669641
-0.00115783
-0.00178766
-0.00255437
-0.00344941
-0.00446176
-0.00557892
-0.0067877
-0.00807467
-0.00942658
-0.0108305
-0.0122741
-0.0137453
-0.0152328
-0.0167257
-0.0182133
-0.0196855
-0.0211324
-0.022544
-0.0239108
-0.0252233
-0.0264719
-0.0276474
-0.0287404
-0.0297418
-0.0306427
-0.0314346
-0.0321093
-0.0326591
-0.033077
-0.0333568
-0.0334933
-0.0334821
-0.0333203
-0.0330062
-0.0325396
-0.0319218
-0.0311559
-0.0302466
-0.0292004
-0.0280256
-0.0267322
-0.0253319
-0.023838
-0.0222654
-0.0206302
-0.0189496
-0.0172417
-0.0155254
-0.0138198
-0.012144
-0.0105172
-0.00895761
-0.00748268
-0.00610855
-0.00484974
-0.00371872
-0.00272563
-0.00187777
-0.00117929
-0.000630649
-0.000228138
3.67222e-05
0.000177835
0.000214934
0.000174194
9.30718e-05
2.40367e-05
-2.12083e-06
-6.72853e-05
-0.00026412
-0.000609828
-0.00111691
-0.00179158
-0.00263285
-0.00363435
-0.00478594
-0.00607491
-0.0074869
-0.00900666
-0.0106186
-0.0123071
-0.014057
-0.0158533
-0.0176818
-0.0195285
-0.0213801
-0.0232237
-0.0250466
-0.0268365
-0.0285814
-0.0302693
-0.0318884
-0.033427
-0.0348738
-0.0362174
-0.0374466
-0.0385507
-0.0395194
-0.0403429
-0.0410121
-0.0415186
-0.0418552
-0.0420157
-0.0419952
-0.0417905
-0.0413996
-0.0408226
-0.0400613
-0.0391197
-0.0380034
-0.0367206
-0.0352813
-0.0336975
-0.0319834
-0.0301549
-0.0282298
-0.0262274
-0.0241682
-0.0220739
-0.019967
-0.0178701
-0.0158064
-0.0137983
-0.0118678
-0.0100356
-0.00832114
-0.00674164
-0.00531207
-0.00404456
-0.00294798
-0.00202748
-0.00128398
-0.000713725
-0.000307715
-5.11732e-05
7.67885e-05
0.000103683
6.75471e-05
1.96744e-05
-1.36944e-05
-0.000132846
-0.000435884
-0.000924784
-0.00160418
-0.00247664
-0.00353833
-0.00478053
-0.00619116
-0.0077557
-0.009458
-0.011281
-0.0132072
-0.0152191
-0.0172994
-0.0194311
-0.0215979
-0.0237837
-0.025973
-0.0281508
-0.0303023
-0.0324131
-0.0344691
-0.0364562
-0.0383607
-0.040169
-0.0418676
-0.0434434
-0.0448836
-0.0461757
-0.0473079
-0.048269
-0.0490485
-0.0496371
-0.0500266
-0.0502101
-0.0501821
-0.049939
-0.049479
-0.0488022
-0.0479111
-0.04681
-0.0455059
-0.0440079
-0.0423277
-0.0404791
-0.0384782
-0.0363434
-0.0340948
-0.0317544
-0.0293457
-0.0268934
-0.0244229
-0.0219604
-0.019532
-0.0171635
-0.01488
-0.0127052
-0.0106613
-0.00876816
-0.00704309
-0.00550018
-0.00414989
-0.00299858
-0.00204803
-0.00129497
-0.000730607
-0.00034021
-0.000102813
9.22983e-06
3.25323e-05
1.36291e-05
-2.51887e-05
-0.000200044
-0.000614188
-0.00125314
-0.00211244
-0.00318993
-0.00447805
-0.00596507
-0.0076365
-0.00947577
-0.0114649
-0.0135851
-0.0158171
-0.0181417
-0.0205397
-0.0229926
-0.025482
-0.0279902
-0.0304997
-0.0329936
-0.0354553
-0.0378685
-0.0402172
-0.0424856
-0.0446581
-0.0467193
-0.0486542
-0.050448
-0.0520862
-0.053555
-0.0548411
-0.0559321
-0.0568165
-0.0574839
-0.0579253
-0.058133
-0.0581014
-0.0578264
-0.0573061
-0.0565408
-0.0555332
-0.0542883
-0.0528139
-0.0511202
-0.04922
-0.0471287
-0.0448641
-0.0424464
-0.039898
-0.0372432
-0.0345079
-0.0317195
-0.0289062
-0.026097
-0.0233209
-0.0206066
-0.017982
-0.0154738
-0.0131067
-0.0109031
-0.00888257
-0.00706124
-0.00545135
-0.00406074
-0.0028924
-0.00194405
-0.00120773
-0.000669507
-0.000309146
-9.98066e-05
-7.6872e-06
6.86748e-06
-3.6346e-05
-0.000266992
-0.000793906
-0.00158596
-0.00262898
-0.00391542
-0.00543331
-0.00716735
-0.00910022
-0.011213
-0.0134859
-0.0158981
-0.0184288
-0.0210572
-0.0237626
-0.0265247
-0.0293238
-0.0321403
-0.0349554
-0.0377503
-0.0405069
-0.0432072
-0.0458337
-0.0483688
-0.0507953
-0.0530965
-0.0552556
-0.0572565
-0.0590833
-0.0607209
-0.0621548
-0.0633714
-0.0643583
-0.0651041
-0.065599
-0.0658349
-0.0658055
-0.0655065
-0.0649359
-0.0640939
-0.0629835
-0.0616102
-0.0599822
-0.0581105
-0.0560091
-0.0536944
-0.0511857
-0.0485049
-0.0456762
-0.0427257
-0.0396818
-0.036574
-0.0334331
-0.0302906
-0.0271783
-0.0241275
-0.021169
-0.0183319
-0.0156438
-0.0131295
-0.0108108
-0.00870628
-0.00682997
-0.00519154
-0.00379559
-0.00264128
-0.00172201
-0.00102522
-0.000532064
-0.000217183
-5.04424e-05
-7.90506e-08
-4.70696e-05
-0.000332706
-0.000972041
-0.00191761
-0.0031454
-0.00464205
-0.00639074
-0.00837218
-0.0105659
-0.0129504
-0.0155035
-0.018203
-0.0210262
-0.0239507
-0.0269545
-0.0300159
-0.0331136
-0.0362268
-0.0393352
-0.0424186
-0.0454575
-0.0484325
-0.0513245
-0.0541147
-0.0567845
-0.0593157
-0.0616902
-0.0638906
-0.0658998
-0.0677014
-0.06928
-0.0706209
-0.0717107
-0.0725371
-0.0730898
-0.0733599
-0.0733406
-0.0730272
-0.0724174
-0.0715114
-0.0703122
-0.0688255
-0.06706
-0.0650271
-0.0627415
-0.0602207
-0.0574852
-0.0545579
-0.0514648
-0.0482338
-0.0448949
-0.0414801
-0.0380223
-0.0345555
-0.0311139
-0.0277315
-0.0244418
-0.0212767
-0.0182662
-0.015438
-0.0128163
-0.0104219
-0.00827138
-0.00637634
-0.00474339
-0.00337356
-0.00226207
-0.00139821
-0.000764993
-0.000338994
-9.41736e-05
-6.9401e-06
-5.73476e-05
-0.000396704
-0.00114685
-0.00224458
-0.00365613
-0.00536216
-0.00734075
-0.00956832
-0.0120209
-0.0146743
-0.0175042
-0.0204861
-0.0235958
-0.0268095
-0.0301039
-0.0334558
-0.0368427
-0.0402427
-0.0436341
-0.0469957
-0.0503065
-0.0535461
-0.0566941
-0.0597304
-0.0626352
-0.0653891
-0.0679729
-0.070368
-0.0725562
-0.07452
-0.076243
-0.0777095
-0.0789052
-0.0798171
-0.080434
-0.0807464
-0.0807468
-0.0804301
-0.0797936
-0.0788373
-0.0775639
-0.0759792
-0.0740919
-0.0719139
-0.0694602
-0.0667491
-0.0638018
-0.0606425
-0.0572983
-0.0537987
-0.0501755
-0.0464625
-0.0426949
-0.0389088
-0.0351411
-0.0314284
-0.0278068
-0.024311
-0.0209739
-0.0178259
-0.014894
-0.0122016
-0.00976779
-0.00760676
-0.00572742
-0.00413305
-0.00282106
-0.00178299
-0.00100406
-0.000463023
-0.000138063
-1.35998e-05
-6.71976e-05
-0.000458759
-0.00131733
-0.00256464
-0.00415743
-0.00607041
-0.0082764
-0.0107474
-0.0134558
-0.0163745
-0.0194767
-0.0227359
-0.0261264
-0.0296228
-0.0332004
-0.036835
-0.0405029
-0.0441811
-0.0478469
-0.0514779
-0.0550523
-0.0585484
-0.0619448
-0.0652204
-0.0683543
-0.0713261
-0.0741156
-0.076703
-0.0790692
-0.0811958
-0.0830654
-0.0846613
-0.0859683
-0.0869727
-0.0876624
-0.0880271
-0.0880587
-0.0877514
-0.087102
-0.08611
-0.0847777
-0.0831107
-0.0811176
-0.0788102
-0.076204
-0.0733173
-0.0701722
-0.0667936
-0.0632097
-0.0594513
-0.0555518
-0.0515468
-0.0474734
-0.0433702
-0.0392765
-0.0352316
-0.0312744
-0.0274425
-0.0237718
-0.0202957
-0.0170443
-0.014044
-0.0113168
-0.00887957
-0.00674404
-0.00491608
-0.00339569
-0.0021769
-0.0012474
-0.000588257
-0.000181784
-2.00315e-05
-7.66438e-05
-0.000518768
-0.00148289
-0.00287636
-0.00464678
-0.00676298
-0.00919257
-0.011903
-0.014863
-0.0180424
-0.0214119
-0.0249431
-0.0286083
-0.032381
-0.0362349
-0.040145
-0.0440865
-0.0480354
-0.051968
-0.0558611
-0.0596921
-0.0634382
-0.0670772
-0.0705872
-0.0739464
-0.0771332
-0.0801267
-0.0829062
-0.0854518
-0.0877439
-0.0897643
-0.0914955
-0.0929214
-0.0940273
-0.0948003
-0.0952292
-0.0953051
-0.0950215
-0.0943743
-0.0933623
-0.0919874
-0.0902545
-0.0881719
-0.0857511
-0.0830075
-0.0799597
-0.0766299
-0.0730438
-0.0692302
-0.0652213
-0.0610516
-0.0567586
-0.0523815
-0.047961
-0.0435389
-0.0391574
-0.0348583
-0.0306824
-0.0266689
-0.0228544
-0.0192724
-0.0159526
-0.0129203
-0.0101956
-0.00779333
-0.0057223
-0.00398538
-0.0025794
-0.00149465
-0.000714539
-0.000225337
-2.62615e-05
-8.57074e-05
-0.000576678
-0.00164314
-0.00317874
-0.00512234
-0.00743706
-0.0100853
-0.0130302
-0.0162365
-0.0196711
-0.0233022
-0.0270993
-0.0310331
-0.0350754
-0.039199
-0.0433777
-0.0475858
-0.0517985
-0.0559913
-0.0601403
-0.064222
-0.068213
-0.0720903
-0.0758312
-0.0794132
-0.0828139
-0.0860116
-0.0889849
-0.0917127
-0.094175
-0.0963524
-0.0982267
-0.0997808
-0.100999
-0.101868
-0.102374
-0.102509
-0.102265
-0.101636
-0.100621
-0.0992212
-0.0974396
-0.0952845
-0.0927668
-0.0899014
-0.0867068
-0.0832053
-0.0794229
-0.0753891
-0.0711368
-0.0667021
-0.0621239
-0.0574433
-0.0527036
-0.0479489
-0.0432245
-0.0385753
-0.0340454
-0.0296777
-0.0255124
-0.0215868
-0.0179342
-0.0145837
-0.011559
-0.00887837
-0.00655391
-0.00459169
-0.00299157
-0.00174653
-0.000842316
-0.000268942
-3.23482e-05
-9.44035e-05
-0.000632453
-0.0017978
-0.00347105
-0.0055827
-0.00809039
-0.0109515
-0.0141247
-0.0175713
-0.0212548
-0.025141
-0.0291974
-0.033393
-0.0376982
-0.0420846
-0.0465251
-0.0509932
-0.0554633
-0.0599102
-0.0643095
-0.068637
-0.0728686
-0.076981
-0.0809505
-0.0847541
-0.088369
-0.0917724
-0.0949423
-0.097857
-0.100496
-0.102838
-0.104864
-0.106558
-0.107901
-0.108878
-0.109478
-0.109688
-0.1095
-0.108908
-0.107909
-0.106501
-0.10469
-0.10248
-0.0998823
-0.0969113
-0.0935849
-0.0899249
-0.0859576
-0.0817128
-0.0772242
-0.072529
-0.0676676
-0.062683
-0.0576208
-0.0525281
-0.0474529
-0.0424436
-0.0375482
-0.0328132
-0.028283
-0.023999
-0.0199988
-0.0163153
-0.0129766
-0.0100045
-0.0074151
-0.00521779
-0.00341566
-0.00200455
-0.000972465
-0.00031297
-3.83696e-05
-0.00010274
-0.000686047
-0.00194662
-0.00375264
-0.00602668
-0.00872108
-0.0117885
-0.0151832
-0.0188628
-0.0227881
-0.0269223
-0.0312307
-0.0356808
-0.0402417
-0.0448839
-0.0495794
-0.0543008
-0.059022
-0.0637174
-0.0683618
-0.0729306
-0.0773994
-0.0817441
-0.0859408
-0.0899659
-0.0937959
-0.0974076
-0.100778
-0.103886
-0.106708
-0.109224
-0.111413
-0.113258
-0.114739
-0.115841
-0.11655
-0.116853
-0.11674
-0.116203
-0.115239
-0.113844
-0.112022
-0.109777
-0.107118
-0.104058
-0.100616
-0.0968113
-0.0926711
-0.088225
-0.0835073
-0.0785561
-0.0734133
-0.0681239
-0.0627355
-0.0572983
-0.0518635
-0.0464831
-0.0412092
-0.0360923
-0.0311815
-0.0265227
-0.0221581
-0.0181254
-0.0144569
-0.011179
-0.0083116
-0.00586805
-0.00385487
-0.00227082
-0.00110617
-0.000357895
-4.44162e-05
-0.000110717
-0.000737401
-0.00208934
-0.00402292
-0.00645315
-0.00932741
-0.0125937
-0.0162022
-0.0201071
-0.0242662
-0.0286404
-0.0331929
-0.0378897
-0.0426986
-0.0475891
-0.0525323
-0.0575004
-0.0624665
-0.0674045
-0.072289
-0.077095
-0.0817977
-0.0863726
-0.0907956
-0.0950424
-0.0990893
-0.102913
-0.106489
-0.109795
-0.112809
-0.115508
-0.117872
-0.119881
-0.121516
-0.122759
-0.123594
-0.124008
-0.12399
-0.123529
-0.122621
-0.12126
-0.119448
-0.117187
-0.114487
-0.111357
-0.107816
-0.103882
-0.0995821
-0.0949454
-0.0900067
-0.0848048
-0.0793829
-0.0737878
-0.0680696
-0.0622813
-0.0564775
-0.0507142
-0.0450477
-0.0395333
-0.0342248
-0.0291732
-0.024426
-0.0200259
-0.0160103
-0.0124102
-0.00925025
-0.00654775
-0.00431299
-0.00254783
-0.00124482
-0.000404257
-5.05857e-05
-0.000118328
-0.000786432
-0.00222568
-0.00428125
-0.00686103
-0.00990766
-0.0133648
-0.0171787
-0.0213002
-0.0256844
-0.0302898
-0.0350778
-0.0400128
-0.0450614
-0.0501923
-0.0553757
-0.0605832
-0.0657876
-0.0709625
-0.076082
-0.0811209
-0.0860543
-0.0908574
-0.0955058
-0.099975
-0.104241
-0.108279
-0.112066
-0.115578
-0.118792
-0.121686
-0.124236
-0.126423
-0.128226
-0.129627
-0.130608
-0.131153
-0.13125
-0.130887
-0.130055
-0.128751
-0.126971
-0.124718
-0.121997
-0.118818
-0.115196
-0.11115
-0.106704
-0.101889
-0.0967391
-0.091293
-0.0855953
-0.0796946
-0.0736435
-0.0674976
-0.0613155
-0.0551572
-0.0490835
-0.0431548
-0.0374304
-0.0319668
-0.0268172
-0.02203
-0.017648
-0.0137078
-0.0102387
-0.00726284
-0.00479435
-0.00283842
-0.00138996
-0.000452646
-5.69805e-05
-0.000125561
-0.000833034
-0.0023553
-0.00452696
-0.00724917
-0.0104602
-0.0140994
-0.0181096
-0.0224384
-0.0270381
-0.0318651
-0.0368791
-0.0420431
-0.0473225
-0.0526851
-0.0581005
-0.0635399
-0.0689756
-0.074381
-0.0797302
-0.0849976
-0.0901582
-0.0951872
-0.10006
-0.104752
-0.109239
-0.113496
-0.117499
-0.121223
-0.124646
-0.127744
-0.130494
-0.132873
-0.13486
-0.136436
-0.137581
-0.138278
-0.138511
-0.138268
-0.137538
-0.136313
-0.13459
-0.132367
-0.129648
-0.126441
-0.122759
-0.11862
-0.114046
-0.109067
-0.103717
-0.0980346
-0.092066
-0.0858613
-0.0794751
-0.0729663
-0.066397
-0.0598316
-0.0533359
-0.0469758
-0.0408164
-0.0349204
-0.0293471
-0.0241513
-0.0193821
-0.0150818
-0.0112854
-0.00801973
-0.00530356
-0.0031456
-0.00154325
-0.000503683
-6.37055e-05
-0.000132397
-0.000877082
-0.00247784
-0.00475933
-0.00761638
-0.0109831
-0.0147952
-0.0189918
-0.0235176
-0.0283225
-0.0333609
-0.0385907
-0.0439736
-0.0494741
-0.0550591
-0.0606977
-0.0663606
-0.07202
-0.0776491
-0.0832218
-0.0887126
-0.0940965
-0.0993487
-0.104444
-0.109359
-0.114068
-0.118547
-0.12277
-0.126715
-0.130355
-0.133667
-0.136628
-0.139213
-0.141401
-0.143169
-0.144497
-0.145366
-0.145759
-0.145659
-0.145054
-0.143935
-0.142293
-0.140125
-0.137434
-0.134223
-0.130504
-0.126293
-0.12161
-0.116483
-0.110946
-0.105039
-0.0988063
-0.092301
-0.0855795
-0.0787037
-0.0717394
-0.0647557
-0.0578235
-0.0510147
-0.0444006
-0.0380508
-0.0320314
-0.0264043
-0.0212251
-0.016543
-0.0123988
-0.00882513
-0.00584549
-0.00347254
-0.00170641
-0.00055801
-7.08674e-05
-0.000138815
-0.000918432
-0.00259289
-0.00497755
-0.00796141
-0.0114747
-0.0154497
-0.0198221
-0.024534
-0.0295331
-0.0347716
-0.0402062
-0.0457972
-0.0515081
-0.0573053
-0.0631574
-0.0690348
-0.0749094
-0.0807544
-0.0865438
-0.0922523
-0.0978547
-0.103326
-0.108643
-0.113779
-0.118711
-0.123414
-0.127862
-0.132032
-0.135897
-0.139434
-0.142617
-0.145422
-0.147825
-0.149803
-0.151334
-0.152396
-0.15297
-0.153038
-0.152583
-0.151594
-0.15006
-0.147976
-0.145338
-0.14215
-0.138419
-0.134159
-0.129389
-0.124134
-0.118427
-0.112308
-0.105822
-0.0990223
-0.0919677
-0.0847228
-0.0773575
-0.0699454
-0.0625631
-0.0552886
-0.0482002
-0.0413747
-0.0348858
-0.028803
-0.0231897
-0.0181021
-0.0135879
-0.00968598
-0.00642516
-0.00382249
-0.00188119
-0.000616281
-7.85735e-05
-0.000144789
-0.000956923
-0.00270002
-0.00518083
-0.00828294
-0.0119331
-0.0160602
-0.0205972
-0.0254836
-0.0306649
-0.0360916
-0.041719
-0.0475063
-0.0534163
-0.0594146
-0.0654695
-0.0715512
-0.0776316
-0.0836839
-0.0896822
-0.0956013
-0.101416
-0.107103
-0.112637
-0.117993
-0.123147
-0.128075
-0.132751
-0.13715
-0.141247
-0.145016
-0.148432
-0.15147
-0.154103
-0.156308
-0.15806
-0.159336
-0.160114
-0.160373
-0.160094
-0.159263
-0.157865
-0.155892
-0.153337
-0.150199
-0.146485
-0.142203
-0.13737
-0.13201
-0.126154
-0.11984
-0.113113
-0.106029
-0.0986459
-0.0910328
-0.0832627
-0.0754142
-0.0675694
-0.0598132
-0.0522311
-0.0449077
-0.0379253
-0.0313616
-0.0252884
-0.0197699
-0.0148617
-0.0106093
-0.00704763
-0.00419877
-0.0020694
-0.000679161
-8.69323e-05
-0.00015029
-0.000992388
-0.00279876
-0.00536828
-0.00857963
-0.0123564
-0.0166244
-0.021314
-0.0263624
-0.0317132
-0.0373153
-0.0431227
-0.0490936
-0.0551901
-0.0613774
-0.0676234
-0.0738983
-0.0801739
-0.0864236
-0.0926216
-0.0987432
-0.104764
-0.110659
-0.116405
-0.121978
-0.127353
-0.132505
-0.13741
-0.142042
-0.146375
-0.150384
-0.154042
-0.157323
-0.1602
-0.162647
-0.164638
-0.166148
-0.167151
-0.167626
-0.167549
-0.166903
-0.16567
-0.163837
-0.161395
-0.158339
-0.154671
-0.150397
-0.14553
-0.140092
-0.13411
-0.127622
-0.120673
-0.113317
-0.105615
-0.0976376
-0.0894621
-0.0811716
-0.0728543
-0.0646018
-0.0565074
-0.0486645
-0.0411641
-0.0340934
-0.0275334
-0.0215573
-0.016229
-0.011602
-0.00771801
-0.00460471
-0.00227283
-0.000747317
-9.60528e-05
-0.000155289
-0.00102465
-0.00288865
-0.00553905
-0.00885012
-0.0127426
-0.0171397
-0.0219692
-0.0271664
-0.0326731
-0.0384369
-0.0444105
-0.0505514
-0.0568209
-0.063184
-0.0696083
-0.0760639
-0.0825228
-0.0889586
-0.095346
-0.10166
-0.107878
-0.113974
-0.119926
-0.12571
-0.131301
-0.136675
-0.141808
-0.146674
-0.151247
-0.1555
-0.159408
-0.162941
-0.166074
-0.168777
-0.171024
-0.172785
-0.174036
-0.174749
-0.1749
-0.174466
-0.173427
-0.171766
-0.169469
-0.166528
-0.16294
-0.158706
-0.153837
-0.148351
-0.142272
-0.135636
-0.128486
-0.120876
-0.112868
-0.104535
-0.0959577
-0.0872231
-0.0784258
-0.0696646
-0.0610411
-0.0526577
-0.0446152
-0.037011
-0.0299363
-0.0234744
-0.0176986
-0.012671
-0.00844137
-0.00504363
-0.0024933
-0.000821422
-0.000106045
-0.000159757
-0.00105354
-0.00296922
-0.00569229
-0.00909308
-0.0130899
-0.0176035
-0.0225596
-0.0278917
-0.03354
-0.0394508
-0.045576
-0.0518722
-0.0583002
-0.0648246
-0.0714131
-0.0780357
-0.0846647
-0.0912739
-0.0978383
-0.104334
-0.110737
-0.117025
-0.123175
-0.129162
-0.134964
-0.140556
-0.145913
-0.151012
-0.155825
-0.160325
-0.164486
-0.16828
-0.171677
-0.174648
-0.177164
-0.179196
-0.180713
-0.181687
-0.18209
-0.181896
-0.181081
-0.179624
-0.177506
-0.174714
-0.171241
-0.167084
-0.162249
-0.156749
-0.150605
-0.143851
-0.136527
-0.128687
-0.120392
-0.111717
-0.102745
-0.0935688
-0.0842878
-0.0750085
-0.0658411
-0.0568978
-0.0482899
-0.0401259
-0.0325081
-0.0255311
-0.0192788
-0.0138231
-0.00922269
-0.00551883
-0.00273261
-0.000902148
-0.000117019
-0.000163665
-0.00107888
-0.00304004
-0.00582716
-0.00930725
-0.0133964
-0.0180134
-0.0230822
-0.0285345
-0.0343093
-0.0403518
-0.0466128
-0.0530486
-0.0596194
-0.0662896
-0.0730268
-0.0798013
-0.0865855
-0.0933537
-0.100081
-0.106745
-0.113322
-0.11979
-0.126125
-0.132306
-0.13831
-0.144112
-0.149689
-0.155016
-0.160066
-0.164814
-0.169231
-0.173288
-0.176956
-0.180204
-0.183002
-0.185318
-0.187119
-0.188375
-0.189055
-0.189128
-0.188566
-0.187344
-0.185439
-0.182833
-0.179513
-0.175472
-0.17071
-0.165235
-0.159066
-0.152229
-0.144764
-0.136722
-0.128165
-0.119167
-0.109814
-0.100203
-0.0904389
-0.0806358
-0.070913
-0.0613925
-0.0521974
-0.0434477
-0.0352585
-0.0277365
-0.0209776
-0.0150648
-0.0100668
-0.00603355
-0.00299255
-0.000990167
-0.000129087
-0.000166984
-0.00110052
-0.00310068
-0.00594292
-0.00949145
-0.0136606
-0.0183674
-0.0235342
-0.0290914
-0.0349767
-0.0411345
-0.047515
-0.0540735
-0.0607703
-0.0675695
-0.0744386
-0.0813483
-0.0882713
-0.0951823
-0.102057
-0.108874
-0.11561
-0.122243
-0.128751
-0.135114
-0.141308
-0.14731
-0.153098
-0.158646
-0.163928
-0.168919
-0.17359
-0.177911
-0.181854
-0.185385
-0.188474
-0.191086
-0.193187
-0.194743
-0.19572
-0.196085
-0.195806
-0.194851
-0.193195
-0.190813
-0.187686
-0.183802
-0.179156
-0.17375
-0.167596
-0.160718
-0.153152
-0.144943
-0.136155
-0.126859
-0.117145
-0.107112
-0.0968717
-0.0865442
-0.0762581
-0.0661466
-0.0563443
-0.0469846
-0.038196
-0.0300988
-0.0228023
-0.0164022
-0.0109785
-0.00659098
-0.00327489
-0.00108615
-0.000142362
-0.00016969
-0.00111831
-0.00315078
-0.00603891
-0.00964467
-0.0138809
-0.0186634
-0.0239131
-0.0295592
-0.0355385
-0.0417945
-0.0482768
-0.0549404
-0.0617452
-0.0686552
-0.0756381
-0.0826648
-0.0897085
-0.0967443
-0.103749
-0.110701
-0.117578
-0.12436
-0.131026
-0.137554
-0.143924
-0.150113
-0.156099
-0.161857
-0.167363
-0.172589
-0.177509
-0.182092
-0.186308
-0.190126
-0.19351
-0.196426
-0.198839
-0.200712
-0.202007
-0.202687
-0.202717
-0.202061
-0.200688
-0.198568
-0.195676
-0.191994
-0.18751
-0.182219
-0.176129
-0.169257
-0.161634
-0.153301
-0.144319
-0.13476
-0.124712
-0.114277
-0.103572
-0.0927252
-0.0818732
-0.0711605
-0.0607344
-0.0507422
-0.0413274
-0.0326252
-0.0247598
-0.0178411
-0.0119622
-0.00719419
-0.00358137
-0.00119076
-0.00015696
-0.000171764
-0.00113216
-0.00319007
-0.0061146
-0.00976609
-0.0140563
-0.0188999
-0.0242168
-0.0299353
-0.0359913
-0.0423277
-0.0488935
-0.0556433
-0.062537
-0.0695384
-0.0766156
-0.0837395
-0.0908839
-0.0980246
-0.105139
-0.112206
-0.119205
-0.126117
-0.132921
-0.139597
-0.146125
-0.152484
-0.158653
-0.164607
-0.170322
-0.175773
-0.180932
-0.18577
-0.190255
-0.194356
-0.198038
-0.201263
-0.203996
-0.206197
-0.207826
-0.208842
-0.209207
-0.20888
-0.207824
-0.206004
-0.20339
-0.199956
-0.195682
-0.190559
-0.184585
-0.177771
-0.170142
-0.161735
-0.152605
-0.142823
-0.132476
-0.121667
-0.110519
-0.0991641
-0.0877495
-0.0764305
-0.0653678
-0.0547237
-0.0446576
-0.0353214
-0.0268558
-0.0193867
-0.0130221
-0.00784613
-0.00391368
-0.00130467
-0.000172996
-0.00017319
-0.00114198
-0.00321833
-0.00616962
-0.00985511
-0.0141859
-0.0190757
-0.0244438
-0.0302176
-0.0363325
-0.0427308
-0.0493609
-0.0561773
-0.0631396
-0.0702119
-0.0773622
-0.084562
-0.0917854
-0.0990091
-0.106211
-0.113372
-0.120471
-0.127489
-0.13441
-0.141212
-0.147878
-0.154387
-0.160718
-0.166849
-0.172757
-0.178417
-0.183801
-0.188882
-0.193628
-0.198005
-0.201981
-0.205516
-0.208573
-0.21111
-0.213085
-0.214455
-0.215177
-0.215206
-0.2145
-0.213019
-0.210725
-0.207585
-0.203573
-0.198672
-0.192871
-0.186174
-0.178597
-0.170173
-0.160949
-0.150993
-0.14039
-0.129245
-0.117681
-0.105839
-0.0938718
-0.0819477
-0.0702408
-0.0589291
-0.0481893
-0.0381916
-0.0290952
-0.0210437
-0.0141622
-0.00854961
-0.00427347
-0.00142854
-0.000190592
-0.00017396
-0.00114772
-0.00323547
-0.00620379
-0.00991148
-0.0142692
-0.0191902
-0.0245932
-0.030405
-0.0365604
-0.0430013
-0.0496759
-0.0565383
-0.063548
-0.0706692
-0.0778703
-0.085123
-0.0924021
-0.0996849
-0.10695
-0.114179
-0.121354
-0.128455
-0.135467
-0.14237
-0.149149
-0.155783
-0.162254
-0.16854
-0.174619
-0.180468
-0.186059
-0.191366
-0.196358
-0.201001
-0.205262
-0.209102
-0.212481
-0.215358
-0.217688
-0.219425
-0.220523
-0.220932
-0.220607
-0.2195
-0.217567
-0.21477
-0.211073
-0.20645
-0.200883
-0.194366
-0.186906
-0.178528
-0.169273
-0.159202
-0.148397
-0.136961
-0.12502
-0.112718
-0.100218
-0.0876975
-0.0753448
-0.0633548
-0.0519226
-0.0412383
-0.0314815
-0.0228159
-0.0153857
-0.00930725
-0.00466233
-0.00156301
-0.000209867
-0.000174074
-0.00114941
-0.00324153
-0.00621719
-0.00993526
-0.0143063
-0.0192434
-0.0246648
-0.0304969
-0.0366743
-0.0431382
-0.0498366
-0.0567236
-0.0637585
-0.0709057
-0.0781337
-0.0854149
-0.0927245
-0.100041
-0.107343
-0.114614
-0.121836
-0.128992
-0.136067
-0.143044
-0.149908
-0.15664
-0.163223
-0.169637
-0.175861
-0.181874
-0.187649
-0.19316
-0.198378
-0.203271
-0.207803
-0.211937
-0.215634
-0.218849
-0.221536
-0.223649
-0.225136
-0.225946
-0.226028
-0.225329
-0.223799
-0.221391
-0.218062
-0.213777
-0.208507
-0.202237
-0.194965
-0.186704
-0.177488
-0.167369
-0.156425
-0.144756
-0.132487
-0.119764
-0.106759
-0.0936589
-0.0806663
-0.0679932
-0.0558544
-0.0444617
-0.0340168
-0.0247063
-0.0166959
-0.0101214
-0.00508176
-0.00170871
-0.000230947
-0.000173541
-0.0011471
-0.00323668
-0.00621015
-0.00992696
-0.0142979
-0.019236
-0.0246593
-0.0304941
-0.0366745
-0.0431414
-0.0498426
-0.0567321
-0.0637691
-0.0709182
-0.0781482
-0.0854319
-0.0927452
-0.100067
-0.107378
-0.114662
-0.121901
-0.129082
-0.136189
-0.143209
-0.150125
-0.156924
-0.163587
-0.170098
-0.176438
-0.182585
-0.188516
-0.194205
-0.199625
-0.204744
-0.209529
-0.213941
-0.217942
-0.221487
-0.22453
-0.22702
-0.228906
-0.230133
-0.230645
-0.230384
-0.229294
-0.22732
-0.224412
-0.220524
-0.215617
-0.209666
-0.202657
-0.194591
-0.185492
-0.175403
-0.164394
-0.152559
-0.140021
-0.126928
-0.113457
-0.0998037
-0.0861858
-0.0728321
-0.0599784
-0.0478595
-0.0367019
-0.0267169
-0.0180949
-0.0109943
-0.00553316
-0.00186627
-0.000253958
-0.000172379
-0.00114091
-0.00322128
-0.0061833
-0.00988752
-0.0142452
-0.0191696
-0.0245786
-0.0303984
-0.0365627
-0.0430125
-0.0496951
-0.0565644
-0.0635797
-0.0707057
-0.0779115
-0.0851704
-0.092459
-0.0997569
-0.107046
-0.114311
-0.121536
-0.128708
-0.135814
-0.142841
-0.149776
-0.156606
-0.163315
-0.169888
-0.176308
-0.182555
-0.188608
-0.194444
-0.200036
-0.205354
-0.210365
-0.215034
-0.219321
-0.223183
-0.226572
-0.229437
-0.231725
-0.233379
-0.234337
-0.23454
-0.233924
-0.232427
-0.22999
-0.226557
-0.222081
-0.216523
-0.209855
-0.202069
-0.193173
-0.1832
-0.172209
-0.160287
-0.147551
-0.134151
-0.120264
-0.106096
-0.0918774
-0.0778543
-0.0642842
-0.0514267
-0.0395351
-0.0288485
-0.0195847
-0.0119275
-0.00601779
-0.00203628
-0.000279028
-0.000170621
-0.00113106
-0.00319587
-0.00613765
-0.00981846
-0.0141502
-0.0190465
-0.0244254
-0.0302128
-0.0363424
-0.0427547
-0.049397
-0.0562231
-0.0631922
-0.0702692
-0.0774236
-0.0846291
-0.0918631
-0.0991061
-0.106341
-0.113553
-0.120729
-0.127857
-0.134925
-0.141923
-0.148838
-0.15566
-0.162376
-0.168972
-0.175433
-0.181742
-0.18788
-0.193826
-0.199554
-0.205038
-0.210245
-0.215143
-0.219692
-0.22385
-0.227569
-0.2308
-0.233487
-0.23557
-0.236987
-0.237672
-0.237558
-0.236576
-0.234658
-0.231739
-0.227759
-0.222668
-0.216425
-0.209005
-0.200405
-0.190643
-0.179764
-0.167845
-0.154996
-0.141363
-0.127124
-0.112492
-0.0977083
-0.0830369
-0.0687573
-0.0551552
-0.042513
-0.0311005
-0.021166
-0.0129226
-0.0065368
-0.00221929
-0.000306286
-0.000168309
-0.00111781
-0.0031612
-0.00607457
-0.00972186
-0.0140158
-0.0188704
-0.0242039
-0.0299421
-0.0360184
-0.0423731
-0.0489535
-0.0557129
-0.062611
-0.0696125
-0.0766873
-0.0838098
-0.090958
-0.0981133
-0.10526
-0.112384
-0.119474
-0.12652
-0.133511
-0.140439
-0.147294
-0.154066
-0.160746
-0.167323
-0.173783
-0.180111
-0.186292
-0.192306
-0.19813
-0.20374
-0.209108
-0.2142
-0.21898
-0.223407
-0.227436
-0.231015
-0.234089
-0.236599
-0.238479
-0.23966
-0.240071
-0.239635
-0.238279
-0.235926
-0.232507
-0.227958
-0.222223
-0.215262
-0.207056
-0.197606
-0.186942
-0.175128
-0.162263
-0.148484
-0.133971
-0.118938
-0.103638
-0.0883509
-0.0733782
-0.0590332
-0.0456296
-0.0334707
-0.022839
-0.0139804
-0.00709113
-0.00241585
-0.000335863
-0.000165503
-0.00110153
-0.00311826
-0.00599588
-0.00960048
-0.0138457
-0.0186459
-0.0239196
-0.0295924
-0.0355975
-0.041875
-0.0483718
-0.0550413
-0.0618429
-0.0687418
-0.0757082
-0.0827169
-0.0897469
-0.0967805
-0.103803
-0.110802
-0.117768
-0.124691
-0.131563
-0.138379
-0.145129
-0.151808
-0.158408
-0.164918
-0.171331
-0.177632
-0.183809
-0.189845
-0.195721
-0.201415
-0.2069
-0.212147
-0.217121
-0.221785
-0.226093
-0.229996
-0.233441
-0.236366
-0.238705
-0.240388
-0.241338
-0.241475
-0.240717
-0.238979
-0.236181
-0.232245
-0.227101
-0.220694
-0.212983
-0.203953
-0.193616
-0.182019
-0.169245
-0.155425
-0.140728
-0.125373
-0.109619
-0.0937606
-0.0781222
-0.0630451
-0.0488762
-0.0359551
-0.0246026
-0.0151014
-0.00768152
-0.00262642
-0.00036789
-0.000162275
-0.00108269
-0.00306831
-0.00590388
-0.00945781
-0.0136446
-0.0183791
-0.0235796
-0.0291718
-0.0350886
-0.0412697
-0.0476617
-0.0542178
-0.0608977
-0.0676665
-0.074495
-0.0813585
-0.0882369
-0.0951134
-0.101975
-0.10881
-0.11561
-0.122369
-0.12908
-0.135738
-0.142339
-0.148877
-0.155347
-0.161743
-0.168058
-0.174283
-0.180407
-0.186415
-0.192294
-0.198022
-0.203578
-0.208935
-0.214061
-0.218921
-0.223473
-0.22767
-0.231459
-0.23478
-0.237568
-0.239749
-0.241245
-0.241972
-0.241841
-0.240761
-0.238638
-0.235383
-0.230912
-0.225149
-0.218038
-0.209541
-0.19965
-0.18839
-0.17583
-0.162082
-0.147309
-0.131725
-0.115594
-0.0992234
-0.0829593
-0.0671712
-0.052241
-0.038548
-0.0264547
-0.0162854
-0.00830847
-0.00285142
-0.000402497
-0.000158719
-0.00106185
-0.00301289
-0.00580141
-0.00929816
-0.0134184
-0.0180771
-0.0231927
-0.0286905
-0.0345028
-0.0405691
-0.0468356
-0.0532554
-0.0597881
-0.0663992
-0.0730597
-0.0797459
-0.0864384
-0.0931215
-0.0997833
-0.106414
-0.113008
-0.119558
-0.126062
-0.132517
-0.138919
-0.145267
-0.151558
-0.157789
-0.163955
-0.170051
-0.176068
-0.181996
-0.187824
-0.193535
-0.199111
-0.204528