/*--------------------------------*- C++ -*----------------------------------*\
  =========                 |
  \\      /  F ield         | OpenFOAM: The Open Source CFD Toolbox
   \\    /   O peration     | Website:  https://openfoam.org
    \\  /    A nd           | Version:  dev
     \\/     M anipulation  |
\*---------------------------------------------------------------------------*/
FoamFile
{
    format      ascii;
    class       volVectorField;
    location    "35.55";
    object      U;
}
// * * * * * * * * * * * * * * * * * * * * * * * * * * * * * * * * * * * * * //

dimensions      [0 1 -1 0 0 0 0];

internalField   nonuniform List<vector> 
5184
(
(1.23286e-05 -1.27091e-05 0)
(4.51746e-05 -2.0892e-05 0)
(8.0347e-05 -1.72515e-05 0)
(9.60142e-05 -8.1991e-06 0)
(8.2191e-05 2.66819e-06 0)
(3.64969e-05 1.36186e-05 0)
(-4.05224e-05 2.38478e-05 0)
(-0.000146849 3.30511e-05 0)
(-0.000279688 4.11094e-05 0)
(-0.000435982 4.80287e-05 0)
(-0.00061261 5.38704e-05 0)
(-0.000806537 5.87193e-05 0)
(-0.0010149 6.26677e-05 0)
(-0.00123502 6.58069e-05 0)
(-0.00146445 6.82218e-05 0)
(-0.00170093 6.99878e-05 0)
(-0.00194239 7.11691e-05 0)
(-0.0021869 7.18183e-05 0)
(-0.00243269 7.19761e-05 0)
(-0.00267807 7.16721e-05 0)
(-0.00292144 7.09258e-05 0)
(-0.00316123 6.97475e-05 0)
(-0.00339591 6.81402e-05 0)
(-0.00362397 6.61009e-05 0)
(-0.00384387 6.36224e-05 0)
(-0.00405407 6.06949e-05 0)
(-0.00425302 5.73079e-05 0)
(-0.00443914 5.34517e-05 0)
(-0.00461085 4.91194e-05 0)
(-0.00476657 4.43079e-05 0)
(-0.00490475 3.90197e-05 0)
(-0.00502387 3.3264e-05 0)
(-0.00512244 2.7058e-05 0)
(-0.00519912 2.04278e-05 0)
(-0.00525262 1.3409e-05 0)
(-0.00528183 6.04737e-06 0)
(-0.00528582 -1.60092e-06 0)
(-0.00526386 -9.46941e-06 0)
(-0.00521543 -1.74816e-05 0)
(-0.00514032 -2.55516e-05 0)
(-0.00503858 -3.35849e-05 0)
(-0.0049106 -4.14801e-05 0)
(-0.00475707 -4.91298e-05 0)
(-0.00457906 -5.6423e-05 0)
(-0.00437796 -6.32472e-05 0)
(-0.00415553 -6.94904e-05 0)
(-0.00391387 -7.50439e-05 0)
(-0.0036554 -7.98047e-05 0)
(-0.00338285 -8.3678e-05 0)
(-0.00309922 -8.658e-05 0)
(-0.00280776 -8.84404e-05 0)
(-0.00251189 -8.92039e-05 0)
(-0.00221519 -8.88324e-05 0)
(-0.00192129 -8.73061e-05 0)
(-0.00163389 -8.46244e-05 0)
(-0.00135662 -8.08067e-05 0)
(-0.00109302 -7.58924e-05 0)
(-0.000846466 -6.99404e-05 0)
(-0.000620097 -6.30285e-05 0)
(-0.000416768 -5.52527e-05 0)
(-0.000238977 -4.67268e-05 0)
(-8.88019e-05 -3.75839e-05 0)
(3.21688e-05 -2.79789e-05 0)
(0.000122921 -1.80946e-05 0)
(0.000183124 -8.15628e-06 0)
(0.000213281 1.54123e-06 0)
(0.000214979 1.05738e-05 0)
(0.000191269 1.83045e-05 0)
(0.000147182 2.37213e-05 0)
(9.08144e-05 2.51326e-05 0)
(3.66336e-05 1.98522e-05 0)
(6.22704e-06 6.24449e-06 0)
(2.08508e-05 -4.58921e-05 0)
(6.56425e-05 -6.57243e-05 0)
(9.47549e-05 -4.0572e-05 0)
(7.2864e-05 7.62578e-06 0)
(-1.88702e-05 6.56794e-05 0)
(-0.000187266 0.000126001 0)
(-0.00043291 0.000184311 0)
(-0.000752583 0.000238364 0)
(-0.00114074 0.000287019 0)
(-0.00159059 0.000329834 0)
(-0.00209481 0.00036677 0)
(-0.00264592 0.000398016 0)
(-0.00323663 0.000423883 0)
(-0.00385994 0.000444738 0)
(-0.00450924 0.000460958 0)
(-0.00517835 0.000472903 0)
(-0.00586144 0.000480894 0)
(-0.00655309 0.000485208 0)
(-0.00724815 0.000486068 0)
(-0.00794174 0.000483644 0)
(-0.00862916 0.00047806 0)
(-0.00930586 0.00046939 0)
(-0.00996735 0.000457674 0)
(-0.0106092 0.000442921 0)
(-0.0112271 0.000425118 0)
(-0.0118165 0.000404243 0)
(-0.012373 0.000380271 0)
(-0.0128923 0.000353185 0)
(-0.01337 0.000322985 0)
(-0.0138016 0.000289699 0)
(-0.014183 0.000253386 0)
(-0.0145101 0.000214151 0)
(-0.014779 0.000172141 0)
(-0.014986 0.000127561 0)
(-0.0151278 8.06709e-05 0)
(-0.0152017 3.17887e-05 0)
(-0.0152052 -1.87061e-05 0)
(-0.0151367 -7.03753e-05 0)
(-0.0149949 -0.000122724 0)
(-0.0147794 -0.000175204 0)
(-0.0144908 -0.000227221 0)
(-0.0141301 -0.000278144 0)
(-0.0136995 -0.00032731 0)
(-0.0132021 -0.000374041 0)
(-0.0126419 -0.000417653 0)
(-0.0120235 -0.000457469 0)
(-0.0113529 -0.000492838 0)
(-0.0106367 -0.000523144 0)
(-0.00988216 -0.000547826 0)
(-0.00909747 -0.00056639 0)
(-0.00829131 -0.000578423 0)
(-0.00747287 -0.000583606 0)
(-0.00665167 -0.000581723 0)
(-0.00583746 -0.000572671 0)
(-0.00504002 -0.000556465 0)
(-0.00426903 -0.000533244 0)
(-0.00353385 -0.000503273 0)
(-0.00284343 -0.00046694 0)
(-0.00220603 -0.000424762 0)
(-0.00162914 -0.000377378 0)
(-0.00111923 -0.000325556 0)
(-0.000681602 -0.000270203 0)
(-0.00032017 -0.000212378 0)
(-3.72174e-05 -0.000153335 0)
(0.00016689 -9.45853e-05 0)
(0.000294076 -3.8006e-05 0)
(0.000349091 1.39411e-05 0)
(0.000340208 5.79508e-05 0)
(0.000279923 8.94302e-05 0)
(0.000186091 0.000101882 0)
(8.63855e-05 8.65375e-05 0)
(1.96827e-05 3.64945e-05 0)
(1.7641e-05 -8.13259e-05 0)
(4.13498e-05 -9.50619e-05 0)
(1.9635e-05 -1.91584e-05 0)
(-8.3957e-05 0.000105921 0)
(-0.000290218 0.000254662 0)
(-0.000607899 0.000410617 0)
(-0.00103826 0.000563472 0)
(-0.00157749 0.00070709 0)
(-0.00221843 0.000838022 0)
(-0.00295187 0.00095456 0)
(-0.00376755 0.00105611 0)
(-0.00465475 0.00114276 0)
(-0.00560275 0.00121503 0)
(-0.00660108 0.00127364 0)
(-0.0076397 0.00131942 0)
(-0.00870903 0.00135319 0)
(-0.00979999 0.00137572 0)
(-0.010904 0.00138768 0)
(-0.0120128 0.00138964 0)
(-0.0131186 0.00138204 0)
(-0.0142138 0.0013652 0)
(-0.015291 0.00133936 0)
(-0.0163429 0.00130463 0)
(-0.0173626 0.00126109 0)
(-0.0183428 0.00120874 0)
(-0.0192765 0.00114757 0)
(-0.0201567 0.00107757 0)
(-0.0209764 0.000998764 0)
(-0.0217288 0.000911205 0)
(-0.0224071 0.000815036 0)
(-0.0230047 0.000710489 0)
(-0.0235153 0.000597909 0)
(-0.023933 0.000477768 0)
(-0.0242523 0.000350684 0)
(-0.0244683 0.000217421 0)
(-0.0245768 7.89025e-05 0)
(-0.0245744 -6.37899e-05 0)
(-0.0244586 -0.000209421 0)
(-0.024228 -0.000356607 0)
(-0.023882 -0.000503831 0)
(-0.0234216 -0.000649455 0)
(-0.022849 -0.000791749 0)
(-0.0221676 -0.000928907 0)
(-0.0213822 -0.00105909 0)
(-0.0204991 -0.00118044 0)
(-0.019526 -0.00129114 0)
(-0.0184717 -0.00138944 0)
(-0.0173464 -0.0014737 0)
(-0.0161617 -0.0015424 0)
(-0.0149298 -0.00159424 0)
(-0.0136641 -0.00162811 0)
(-0.0123787 -0.00164319 0)
(-0.011088 -0.00163889 0)
(-0.00980704 -0.00161498 0)
(-0.00855057 -0.00157151 0)
(-0.00733332 -0.0015089 0)
(-0.00616955 -0.00142788 0)
(-0.00507278 -0.00132956 0)
(-0.00405558 -0.00121539 0)
(-0.0031292 -0.00108716 0)
(-0.00230339 -0.000947068 0)
(-0.00158604 -0.000797668 0)
(-0.000982887 -0.000641971 0)
(-0.000497164 -0.000483509 0)
(-0.000129181 -0.000326483 0)
(0.000124134 -0.00017598 0)
(0.00026988 -3.83202e-05 0)
(0.000319908 7.84794e-05 0)
(0.000291355 0.00016412 0)
(0.000207454 0.000205436 0)
(0.000102476 0.000186316 0)
(2.49815e-05 9.04092e-05 0)
(8.84318e-06 -9.77681e-05 0)
(-6.99706e-06 -7.31841e-05 0)
(-0.00010756 8.47587e-05 0)
(-0.000322347 0.000318364 0)
(-0.000669609 0.000590125 0)
(-0.00115775 0.000874417 0)
(-0.00178753 0.00115421 0)
(-0.00255417 0.0014187 0)
(-0.00344912 0.00166143 0)
(-0.00446136 0.00187886 0)
(-0.0055784 0.00206943 0)
(-0.00678705 0.0022329 0)
(-0.00807388 0.00236981 0)
(-0.00942565 0.00248121 0)
(-0.0108294 0.00256836 0)
(-0.0122728 0.00263261 0)
(-0.0137439 0.00267523 0)
(-0.0152312 0.00269737 0)
(-0.0167239 0.00270002 0)
(-0.0182114 0.00268396 0)
(-0.0196835 0.00264979 0)
(-0.0211301 0.00259794 0)
(-0.0225416 0.00252868 0)
(-0.0239083 0.00244216 0)
(-0.0252206 0.00233846 0)
(-0.0264691 0.00221764 0)
(-0.0276445 0.00207974 0)
(-0.0287373 0.00192487 0)
(-0.0297386 0.00175325 0)
(-0.0306395 0.00156521 0)
(-0.0314313 0.0013613 0)
(-0.0321059 0.00114223 0)
(-0.0326557 0.00090899 0)
(-0.0330736 0.000662816 0)
(-0.0333534 0.000405222 0)
(-0.0334898 0.000138011 0)
(-0.0334787 -0.000136729 0)
(-0.0333169 -0.000416627 0)
(-0.0330029 -0.000699047 0)
(-0.0325363 -0.00098111 0)
(-0.0319187 -0.00125973 0)
(-0.0311529 -0.00153165 0)
(-0.0302437 -0.00179349 0)
(-0.0291977 -0.00204181 0)
(-0.028023 -0.00227316 0)
(-0.0267298 -0.00248416 0)
(-0.0253297 -0.00267155 0)
(-0.023836 -0.00283228 0)
(-0.0222636 -0.00296359 0)
(-0.0206285 -0.00306304 0)
(-0.0189481 -0.00312861 0)
(-0.0172404 -0.00315877 0)
(-0.0155243 -0.00315249 0)
(-0.0138188 -0.00310931 0)
(-0.0121433 -0.0030294 0)
(-0.0105166 -0.00291353 0)
(-0.00895715 -0.00276314 0)
(-0.00748234 -0.00258032 0)
(-0.00610833 -0.00236785 0)
(-0.00484962 -0.00212916 0)
(-0.00371868 -0.00186842 0)
(-0.00272565 -0.00159052 0)
(-0.00187785 -0.00130117 0)
(-0.0011794 -0.00100705 0)
(-0.00063077 -0.000715973 0)
(-0.000228262 -0.00043722 0)
(3.66083e-05 -0.000181935 0)
(0.00017774 3.62714e-05 0)
(0.000214864 0.000200678 0)
(0.000174152 0.000290891 0)
(9.30544e-05 0.000282614 0)
(2.40332e-05 0.000147311 0)
(-2.12225e-06 -8.44358e-05 0)
(-6.72851e-05 2.08609e-05 0)
(-0.000264107 0.000295439 0)
(-0.000609788 0.000668055 0)
(-0.00111683 0.0010909 0)
(-0.00179144 0.00153004 0)
(-0.00263263 0.00196205 0)
(-0.00363402 0.00237144 0)
(-0.00478549 0.00274849 0)
(-0.00607432 0.00308756 0)
(-0.00748615 0.00338588 0)
(-0.00900575 0.00364263 0)
(-0.0106175 0.00385827 0)
(-0.0123058 0.00403404 0)
(-0.0140555 0.00417159 0)
(-0.0158516 0.00427276 0)
(-0.0176799 0.00433932 0)
(-0.0195264 0.00437294 0)
(-0.0213778 0.00437503 0)
(-0.0232212 0.00434676 0)
(-0.0250439 0.00428905 0)
(-0.0268336 0.00420255 0)
(-0.0285783 0.00408773 0)
(-0.030266 0.00394487 0)
(-0.0318849 0.00377417 0)
(-0.0334234 0.00357579 0)
(-0.03487 0.00334991 0)
(-0.0362134 0.00309681 0)
(-0.0374425 0.00281692 0)
(-0.0385466 0.00251093 0)
(-0.0395152 0.00217976 0)
(-0.0403386 0.0018247 0)
(-0.0410077 0.0014474 0)
(-0.0415142 0.0010499 0)
(-0.0418508 0.000634687 0)
(-0.0420113 0.000204685 0)
(-0.0419909 -0.000236746 0)
(-0.0417862 -0.000685818 0)
(-0.0413954 -0.00113834 0)
(-0.0408185 -0.00158976 0)
(-0.0400574 -0.0020352 0)
(-0.0391158 -0.00246955 0)
(-0.0379998 -0.00288752 0)
(-0.0367172 -0.00328371 0)
(-0.035278 -0.00365275 0)
(-0.0336944 -0.00398936 0)
(-0.0319805 -0.00428848 0)
(-0.0301523 -0.00454538 0)
(-0.0282274 -0.00475575 0)
(-0.0262252 -0.00491581 0)
(-0.0241663 -0.00502246 0)
(-0.0220722 -0.0050733 0)
(-0.0199655 -0.00506676 0)
(-0.0178689 -0.00500215 0)
(-0.0158053 -0.00487975 0)
(-0.0137974 -0.0047008 0)
(-0.0118671 -0.00446759 0)
(-0.0100351 -0.00418343 0)
(-0.00832076 -0.0038527 0)
(-0.00674139 -0.00348088 0)
(-0.00531193 -0.00307453 0)
(-0.00404451 -0.00264139 0)
(-0.002948 -0.00219046 0)
(-0.00202754 -0.00173215 0)
(-0.00128407 -0.00127852 0)
(-0.000713828 -0.00084361 0)
(-0.000307816 -0.000443918 0)
(-5.12613e-05 -9.90066e-05 0)
(7.67209e-05 0.000167784 0)
(0.000103641 0.00032872 0)
(6.75292e-05 0.000351061 0)
(1.96709e-05 0.000194177 0)
(-1.36938e-05 -3.75497e-05 0)
(-0.000132837 0.000197347 0)
(-0.00043585 0.000626922 0)
(-0.000924706 0.00117042 0)
(-0.00160404 0.00177188 0)
(-0.00247641 0.00239043 0)
(-0.00353799 0.002997 0)
(-0.00478006 0.00357181 0)
(-0.00619053 0.004102 0)
(-0.00775489 0.00457979 0)
(-0.00945701 0.00500112 0)
(-0.0112798 0.00536448 0)
(-0.0132058 0.00567013 0)
(-0.0152174 0.00591943 0)
(-0.0172975 0.00611436 0)
(-0.019429 0.00625718 0)
(-0.0215955 0.00635017 0)
(-0.023781 0.00639548 0)
(-0.0259701 0.00639496 0)
(-0.0281477 0.00635018 0)
(-0.030299 0.00626239 0)
(-0.0324096 0.0061325 0)
(-0.0344653 0.00596119 0)
(-0.0364522 0.00574894 0)
(-0.0383565 0.00549608 0)
(-0.0401645 0.00520296 0)
(-0.041863 0.00486994 0)
(-0.0434386 0.00449755 0)
(-0.0448787 0.00408656 0)
(-0.0461707 0.00363806 0)
(-0.0473028 0.00315354 0)
(-0.0482638 0.00263495 0)
(-0.0490433 0.00208478 0)
(-0.0496319 0.00150608 0)
(-0.0500213 0.000902485 0)
(-0.0502048 0.000278261 0)
(-0.0501769 -0.000361731 0)
(-0.0499338 -0.00101203 0)
(-0.0494739 -0.00166664 0)
(-0.0487973 -0.00231905 0)
(-0.0479063 -0.00296233 0)
(-0.0468054 -0.0035892 0)
(-0.0455015 -0.00419217 0)
(-0.0440037 -0.00476363 0)
(-0.0423237 -0.00529596 0)
(-0.0404754 -0.00578173 0)
(-0.0384748 -0.00621381 0)
(-0.0363402 -0.00658553 0)
(-0.0340918 -0.00689082 0)
(-0.0317517 -0.00712439 0)
(-0.0293433 -0.00728184 0)
(-0.0268912 -0.0073598 0)
(-0.024421 -0.00735608 0)
(-0.0219588 -0.00726971 0)
(-0.0195306 -0.00710109 0)
(-0.0171623 -0.00685199 0)
(-0.014879 -0.00652567 0)
(-0.0127044 -0.00612684 0)
(-0.0106607 -0.00566174 0)
(-0.00876775 -0.00513815 0)
(-0.00704282 -0.00456542 0)
(-0.00550001 -0.00395452 0)
(-0.00414981 -0.00331817 0)
(-0.00299857 -0.00267097 0)
(-0.00204807 -0.00202963 0)
(-0.00129504 -0.00141337 0)
(-0.000730682 -0.000844312 0)
(-0.000340282 -0.000348152 0)
(-0.000102871 4.51329e-05 0)
(9.19216e-06 0.000300596 0)
(3.25156e-05 0.000377423 0)
(1.36255e-05 0.000224566 0)
(-2.51867e-05 4.40846e-05 0)
(-0.000200026 0.000461282 0)
(-0.000614131 0.00108713 0)
(-0.00125302 0.00183486 0)
(-0.00211223 0.0026426 0)
(-0.00318961 0.00346409 0)
(-0.00447758 0.00426571 0)
(-0.00596444 0.00502398 0)
(-0.00763568 0.0057233 0)
(-0.00947474 0.00635398 0)
(-0.0114637 0.00691069 0)
(-0.0135836 0.00739128 0)
(-0.0158153 0.00779575 0)
(-0.0181396 0.00812553 0)
(-0.0205374 0.0083829 0)
(-0.02299 0.00857052 0)
(-0.0254792 0.00869113 0)
(-0.027987 0.00874731 0)
(-0.0304962 0.00874139 0)
(-0.0329899 0.00867532 0)
(-0.0354513 0.00855065 0)
(-0.0378642 0.00836862 0)
(-0.0402127 0.00813011 0)
(-0.0424808 0.00783582 0)
(-0.0446531 0.0074863 0)
(-0.0467141 0.00708209 0)
(-0.0486488 0.00662382 0)
(-0.0504424 0.00611235 0)
(-0.0520804 0.00554886 0)
(-0.0535491 0.00493496 0)
(-0.0548351 0.00427281 0)
(-0.055926 0.00356517 0)
(-0.0568104 0.0028155 0)
(-0.0574777 0.00202802 0)
(-0.0579191 0.0012077 0)
(-0.0581269 0.000360321 0)
(-0.0580953 -0.00050754 0)
(-0.0578204 -0.00138855 0)
(-0.0573002 -0.00227466 0)
(-0.056535 -0.00315719 0)
(-0.0555276 -0.0040269 0)
(-0.0542829 -0.00487412 0)
(-0.0528088 -0.00568891 0)
(-0.0511153 -0.00646116 0)
(-0.0492154 -0.00718081 0)
(-0.0471243 -0.00783802 0)
(-0.04486 -0.00842335 0)
(-0.0424426 -0.00892799 0)
(-0.0398945 -0.0093439 0)
(-0.03724 -0.00966407 0)
(-0.034505 -0.00988268 0)
(-0.0317169 -0.00999527 0)
(-0.0289039 -0.0099989 0)
(-0.026095 -0.00989229 0)
(-0.0233192 -0.00967592 0)
(-0.0206051 -0.00935215 0)
(-0.0179808 -0.00892527 0)
(-0.0154728 -0.00840152 0)
(-0.0131059 -0.00778919 0)
(-0.0109025 -0.00709858 0)
(-0.00888214 -0.00634209 0)
(-0.00706095 -0.00553423 0)
(-0.00545117 -0.00469175 0)
(-0.00406064 -0.00383376 0)
(-0.00289237 -0.00298194 0)
(-0.00194406 -0.00216089 0)
(-0.00120777 -0.00139855 0)
(-0.000669555 -0.000726784 0)
(-0.000309189 -0.000182075 0)
(-9.98367e-05 0.00019376 0)
(-7.70157e-06 0.000352594 0)
(6.86398e-06 0.000235046 0)
(-3.63426e-05 0.000160463 0)
(-0.000266965 0.000814536 0)
(-0.000793825 0.00167985 0)
(-0.00158579 0.00266639 0)
(-0.0026287 0.00370845 0)
(-0.003915 0.00475598 0)
(-0.00543271 0.00577194 0)
(-0.00716655 0.00673002 0)
(-0.0090992 0.00761244 0)
(-0.0112118 0.00840791 0)
(-0.0134843 0.0091101 0)
(-0.0158963 0.00971629 0)
(-0.0184267 0.0102263 0)
(-0.0210548 0.0106416 0)
(-0.0237599 0.0109649 0)
(-0.0265217 0.011199 0)
(-0.0293204 0.0113472 0)
(-0.0321366 0.0114126 0)
(-0.0349514 0.0113979 0)
(-0.037746 0.0113053 0)
(-0.0405023 0.0111368 0)
(-0.0432023 0.010894 0)
(-0.0458284 0.0105779 0)
(-0.0483633 0.0101894 0)
(-0.0507896 0.00972947 0)
(-0.0530905 0.00919877 0)
(-0.0552494 0.00859829 0)
(-0.0572501 0.00792927 0)
(-0.0590768 0.00719338 0)
(-0.0607142 0.00639285 0)
(-0.062148 0.00553061 0)
(-0.0633645 0.00461035 0)
(-0.0643513 0.00363663 0)
(-0.0650971 0.00261496 0)
(-0.065592 0.0015518 0)
(-0.065828 0.000454625 0)
(-0.0657986 -0.000668125 0)
(-0.0654997 -0.00180706 0)
(-0.0649292 -0.00295189 0)
(-0.0640874 -0.00409157 0)
(-0.0629772 -0.00521434 0)
(-0.061604 -0.00630796 0)
(-0.0599763 -0.00735978 0)
(-0.0581049 -0.00835703 0)
(-0.0560037 -0.00928697 0)
(-0.0536893 -0.0101371 0)
(-0.051181 -0.0108956 0)
(-0.0485005 -0.0115511 0)
(-0.0456721 -0.0120935 0)
(-0.042722 -0.012514 0)
(-0.0396784 -0.0128051 0)
(-0.0365709 -0.012961 0)
(-0.0334304 -0.0129781 0)
(-0.0302882 -0.0128546 0)
(-0.0271762 -0.0125911 0)
(-0.0241257 -0.0121905 0)
(-0.0211675 -0.0116581 0)
(-0.0183307 -0.0110018 0)
(-0.0156428 -0.0102321 0)
(-0.0131287 -0.00936199 0)
(-0.0108103 -0.00840702 0)
(-0.00870585 -0.00738552 0)
(-0.00682967 -0.00631847 0)
(-0.00519135 -0.00522973 0)
(-0.00379549 -0.00414615 0)
(-0.00264123 -0.00309788 0)
(-0.00172201 -0.00211872 0)
(-0.00102524 -0.00124665 0)
(-0.000532089 -0.000524466 0)
(-0.000217204 -3.98752e-07 0)
(-5.04536e-05 0.000271005 0)
(-8.21473e-08 0.000223909 0)
(-4.70648e-05 0.00031095 0)
(-0.00033267 0.00125702 0)
(-0.000971934 0.00240605 0)
(-0.0019174 0.00366688 0)
(-0.00314505 0.00497176 0)
(-0.00464152 0.00626834 0)
(-0.00639001 0.00751734 0)
(-0.00837121 0.00869055 0)
(-0.0105646 0.00976864 0)
(-0.0129488 0.0107392 0)
(-0.0155017 0.0115953 0)
(-0.0182009 0.0123338 0)
(-0.0210237 0.0129544 0)
(-0.0239479 0.0134588 0)
(-0.0269514 0.01385 0)
(-0.0300124 0.0141312 0)
(-0.0331097 0.0143062 0)
(-0.0362226 0.0143783 0)
(-0.0393306 0.0143508 0)
(-0.0424137 0.0142263 0)
(-0.0454523 0.0140071 0)
(-0.0484269 0.0136949 0)
(-0.0513186 0.0132912 0)
(-0.0541085 0.0127971 0)
(-0.0567781 0.0122137 0)
(-0.0593089 0.0115421 0)
(-0.0616832 0.0107835 0)
(-0.0638834 0.0099398 0)
(-0.0658924 0.00901309 0)
(-0.0676939 0.00800632 0)
(-0.0692724 0.00692326 0)
(-0.0706132 0.00576863 0)
(-0.0717028 0.0045482 0)
(-0.0725293 0.00326887 0)
(-0.073082 0.00193874 0)
(-0.0733521 0.00056708 0)
(-0.0733329 -0.000835654 0)
(-0.0730195 -0.00225786 0)
(-0.0724099 -0.00368689 0)
(-0.0715041 -0.00510913 0)
(-0.0703051 -0.00651017 0)
(-0.0688187 -0.00787496 0)
(-0.0670534 -0.00918804 0)
(-0.0650208 -0.0104337 0)
(-0.0627355 -0.0115964 0)
(-0.0602151 -0.0126608 0)
(-0.0574798 -0.0136122 0)
(-0.054553 -0.014437 0)
(-0.0514602 -0.0151225 0)
(-0.0482295 -0.0156579 0)
(-0.044891 -0.0160339 0)
(-0.0414766 -0.0162434 0)
(-0.0380192 -0.0162818 0)
(-0.0345527 -0.0161466 0)
(-0.0311114 -0.0158386 0)
(-0.0277294 -0.0153611 0)
(-0.02444 -0.0147205 0)
(-0.0212752 -0.0139263 0)
(-0.018265 -0.0129913 0)
(-0.015437 -0.0119312 0)
(-0.0128155 -0.010765 0)
(-0.0104214 -0.00951484 0)
(-0.00827095 -0.00820624 0)
(-0.00637604 -0.00686791 0)
(-0.0047432 -0.00553199 0)
(-0.00337345 -0.00423428 0)
(-0.00226202 -0.00301447 0)
(-0.00139819 -0.00191659 0)
(-0.000764996 -0.000989507 0)
(-0.000339003 -0.000287404 0)
(-9.41807e-05 0.000129546 0)
(-6.94251e-06 0.000190504 0)
(-5.73412e-05 0.000494642 0)
(-0.000396659 0.00178751 0)
(-0.00114672 0.00326484 0)
(-0.00224432 0.00483595 0)
(-0.0036557 0.00643251 0)
(-0.00536153 0.0080012 0)
(-0.00733988 0.00950166 0)
(-0.00956718 0.0109047 0)
(-0.0120195 0.0121901 0)
(-0.0146726 0.0133451 0)
(-0.0175021 0.0143622 0)
(-0.0204836 0.0152383 0)
(-0.023593 0.0159734 0)
(-0.0268064 0.0165694 0)
(-0.0301003 0.0170294 0)
(-0.0334518 0.0173575 0)
(-0.0368384 0.0175575 0)
(-0.040238 0.0176335 0)
(-0.043629 0.017589 0)
(-0.0469902 0.017427 0)
(-0.0503007 0.0171501 0)
(-0.0535399 0.0167604 0)
(-0.0566875 0.0162595 0)
(-0.0597235 0.0156489 0)
(-0.062628 0.01493 0)
(-0.0653816 0.014104 0)
(-0.0679652 0.0131728 0)
(-0.07036 0.0121385 0)
(-0.072548 0.011004 0)
(-0.0745117 0.00977295 0)
(-0.0762345 0.00844999 0)
(-0.077701 0.00704095 0)
(-0.0788966 0.0055529 0)
(-0.0798085 0.00399424 0)
(-0.0804254 0.00237475 0)
(-0.0807378 0.000705625 0)
(-0.0807383 -0.00100056 0)
(-0.0804217 -0.00272989 0)
(-0.0797854 -0.0044672 0)
(-0.0788293 -0.00619621 0)
(-0.0775561 -0.00789968 0)
(-0.0759716 -0.00955965 0)
(-0.0740846 -0.0111576 0)
(-0.0719069 -0.0126749 0)
(-0.0694536 -0.0140927 0)
(-0.0667428 -0.0153928 0)
(-0.0637959 -0.0165577 0)
(-0.060637 -0.0175708 0)
(-0.0572931 -0.0184171 0)
(-0.0537939 -0.0190832 0)
(-0.0501712 -0.0195581 0)
(-0.0464586 -0.019833 0)
(-0.0426913 -0.0199021 0)
(-0.0389056 -0.0197625 0)
(-0.0351383 -0.0194145 0)
(-0.031426 -0.018862 0)
(-0.0278047 -0.0181124 0)
(-0.0243092 -0.017177 0)
(-0.0209724 -0.0160704 0)
(-0.0178246 -0.0148115 0)
(-0.014893 -0.0134227 0)
(-0.0122008 -0.0119301 0)
(-0.00976722 -0.0103638 0)
(-0.00760635 -0.00875744 0)
(-0.00572714 -0.00714867 0)
(-0.00413286 -0.00557896 0)
(-0.00282096 -0.00409392 0)
(-0.00178294 -0.00274354 0)
(-0.00100404 -0.00158258 0)
(-0.00046302 -0.000670801 0)
(-0.000138066 -7.33992e-05 0)
(-1.36012e-05 0.000134749 0)
(-6.71896e-05 0.000710508 0)
(-0.000458704 0.00240408 0)
(-0.00131718 0.00425414 0)
(-0.00256433 0.00617163 0)
(-0.00415693 0.00808889 0)
(-0.00606967 0.00995281 0)
(-0.00827539 0.011723 0)
(-0.0107461 0.0133702 0)
(-0.0134542 0.0148741 0)
(-0.0163725 0.0162219 0)
(-0.0194743 0.0174064 0)
(-0.0227332 0.0184247 0)
(-0.0261233 0.0192772 0)
(-0.0296193 0.0199662 0)
(-0.0331964 0.0204954 0)
(-0.0368306 0.0208693 0)
(-0.0404981 0.0210924 0)
(-0.0441759 0.021169 0)
(-0.0478412 0.0211031 0)
(-0.0514718 0.0208981 0)
(-0.0550458 0.0205569 0)
(-0.0585415 0.0200818 0)
(-0.0619376 0.0194748 0)
(-0.0652128 0.0187377 0)
(-0.0683465 0.0178719 0)
(-0.071318 0.0168793 0)
(-0.0741072 0.015762 0)
(-0.0766943 0.0145227 0)
(-0.0790603 0.0131649 0)
(-0.0811868 0.011693 0)
(-0.0830562 0.0101126 0)
(-0.084652 0.0084308 0)
(-0.085959 0.00665588 0)
(-0.0869634 0.00479783 0)
(-0.087653 0.00286818 0)
(-0.0880178 0.000880112 0)
(-0.0880495 -0.0011516 0)
(-0.0877423 -0.00321062 0)
(-0.0870931 -0.00527921 0)
(-0.0861013 -0.00733829 0)
(-0.0847692 -0.0093677 0)
(-0.0831025 -0.0113464 0)
(-0.0811096 -0.0132527 0)
(-0.0788026 -0.0150647 0)
(-0.0761967 -0.0167605 0)
(-0.0733104 -0.0183185 0)
(-0.0701657 -0.0197181 0)
(-0.0667875 -0.0209397 0)
(-0.063204 -0.0219656 0)
(-0.059446 -0.02278 0)
(-0.055547 -0.0233694 0)
(-0.0515423 -0.0237234 0)
(-0.0474694 -0.0238348 0)
(-0.0433666 -0.0236997 0)
(-0.0392733 -0.0233183 0)
(-0.0352288 -0.0226948 0)
(-0.0312719 -0.0218373 0)
(-0.0274404 -0.0207587 0)
(-0.02377 -0.0194759 0)
(-0.0202942 -0.0180107 0)
(-0.0170431 -0.0163888 0)
(-0.0140431 -0.0146406 0)
(-0.0113161 -0.0128007 0)
(-0.00887904 -0.0109079 0)
(-0.00674366 -0.00900539 0)
(-0.00491582 -0.00714036 0)
(-0.00339552 -0.00536437 0)
(-0.00217681 -0.00373337 0)
(-0.00124736 -0.00230788 0)
(-0.000588241 -0.00115303 0)
(-0.000181782 -0.000338669 0)
(-2.00318e-05 5.68134e-05 0)
(-7.66342e-05 0.000957469 0)
(-0.000518704 0.00310444 0)
(-0.00148271 0.00537107 0)
(-0.002876 0.00767082 0)
(-0.0046462 0.00993776 0)
(-0.00676215 0.01212 0)
(-0.00919143 0.0141781 0)
(-0.0119015 0.0160834 0)
(-0.0148612 0.0178166 0)
(-0.0180402 0.0193652 0)
(-0.0214093 0.0207229 0)
(-0.02494 0.0218873 0)
(-0.0286048 0.0228595 0)
(-0.032377 0.0236426 0)
(-0.0362306 0.0242408 0)
(-0.0401402 0.0246592 0)
(-0.0440812 0.0249028 0)
(-0.0480296 0.0249767 0)
(-0.0519618 0.024885 0)
(-0.0558545 0.0246317 0)
(-0.059685 0.0242199 0)
(-0.0634308 0.0236522 0)
(-0.0670694 0.0229309 0)
(-0.070579 0.0220579 0)
(-0.0739379 0.0210352 0)
(-0.0771244 0.0198648 0)
(-0.0801176 0.0185493 0)
(-0.0828969 0.0170918 0)
(-0.0854422 0.0154966 0)
(-0.0877342 0.0137689 0)
(-0.0897544 0.0119153 0)
(-0.0914855 0.00994387 0)
(-0.0929114 0.00786442 0)
(-0.0940173 0.00568845 0)
(-0.0947902 0.00342932 0)
(-0.0952192 0.0011022 0)
(-0.0952952 -0.00127587 0)
(-0.0950117 -0.00368612 0)
(-0.0943647 -0.00610811 0)
(-0.0933529 -0.00851992 0)
(-0.0919783 -0.0108983 0)
(-0.0902456 -0.0132192 0)
(-0.0881633 -0.0154574 0)
(-0.0857429 -0.0175878 0)
(-0.0829996 -0.0195849 0)
(-0.0799522 -0.0214238 0)
(-0.0766228 -0.0230806 0)
(-0.0730371 -0.0245325 0)
(-0.069224 -0.0257586 0)
(-0.0652155 -0.0267403 0)
(-0.0610463 -0.0274619 0)
(-0.0567537 -0.0279107 0)
(-0.052377 -0.0280779 0)
(-0.047957 -0.0279586 0)
(-0.0435354 -0.0275524 0)
(-0.0391543 -0.0268635 0)
(-0.0348556 -0.025901 0)
(-0.0306801 -0.0246789 0)
(-0.0266669 -0.0232166 0)
(-0.0228527 -0.0215385 0)
(-0.019271 -0.0196738 0)
(-0.0159515 -0.0176572 0)
(-0.0129194 -0.0155278 0)
(-0.010195 -0.0133298 0)
(-0.00779285 -0.0111118 0)
(-0.00572196 -0.008927 0)
(-0.00398516 -0.00683295 0)
(-0.00257927 -0.00489157 0)
(-0.00149458 -0.00316915 0)
(-0.00071451 -0.00173611 0)
(-0.000225329 -0.000666827 0)
(-2.62608e-05 -4.3087e-05 0)
(-8.56964e-05 0.00123443 0)
(-0.000576605 0.00388605 0)
(-0.00164293 0.0066122 0)
(-0.00317834 0.00932962 0)
(-0.0051217 0.0119749 0)
(-0.00743612 0.0144984 0)
(-0.0100841 0.0168624 0)
(-0.0130285 0.0190399 0)
(-0.0162345 0.0210127 0)
(-0.0196687 0.02277 0)
(-0.0232994 0.0243062 0)
(-0.027096 0.0256203 0)
(-0.0310293 0.0267142 0)
(-0.0350711 0.0275919 0)
(-0.0391943 0.0282586 0)
(-0.0433725 0.02872 0)
(-0.0475801 0.0289818 0)
(-0.0517923 0.0290496 0)
(-0.0559846 0.028928 0)
(-0.0601332 0.0286213 0)
(-0.0642144 0.0281331 0)
(-0.068205 0.0274662 0)
(-0.072082 0.0266232 0)
(-0.0758225 0.0256061 0)
(-0.0794041 0.0244173 0)
(-0.0828045 0.0230592 0)
(-0.0860019 0.0215346 0)
(-0.0889749 0.0198474 0)
(-0.0917025 0.0180023 0)
(-0.0941646 0.0160053 0)
(-0.0963419 0.0138641 0)
(-0.0982161 0.0115879 0)
(-0.0997701 0.00918775 0)
(-0.100988 0.00667683 0)
(-0.101857 0.00407026 0)
(-0.102364 0.00138525 0)
(-0.102499 -0.00135893 0)
(-0.102254 -0.004141 0)
(-0.101626 -0.00693782 0)
(-0.100611 -0.00972455 0)
(-0.0992114 -0.0124749 0)
(-0.0974301 -0.0151613 0)
(-0.0952753 -0.0177554 0)
(-0.0927579 -0.0202283 0)
(-0.0898929 -0.0225511 0)
(-0.0866987 -0.0246953 0)
(-0.0831976 -0.0266331 0)
(-0.0794157 -0.0283386 0)
(-0.0753823 -0.0297873 0)
(-0.0711305 -0.0309577 0)
(-0.0666963 -0.0318312 0)
(-0.0621185 -0.0323927 0)
(-0.0574385 -0.0326316 0)
(-0.0526991 -0.0325415 0)
(-0.047945 -0.0321211 0)
(-0.043221 -0.0313746 0)
(-0.0385722 -0.0303116 0)
(-0.0340428 -0.0289474 0)
(-0.0296754 -0.0273034 0)
(-0.0255105 -0.0254066 0)
(-0.0215852 -0.02329 0)
(-0.017933 -0.0209922 0)
(-0.0145827 -0.0185572 0)
(-0.0115583 -0.0160344 0)
(-0.00887779 -0.0134783 0)
(-0.00655349 -0.010948 0)
(-0.00459141 -0.00850712 0)
(-0.00299139 -0.00622381 0)
(-0.00174644 -0.0041702 0)
(-0.000842273 -0.0024221 0)
(-0.00026893 -0.00105852 0)
(-3.23468e-05 -0.000164818 0)
(-9.43913e-05 0.00154031 0)
(-0.000632371 0.0047462 0)
(-0.00179757 0.00797372 0)
(-0.0034706 0.0111435 0)
(-0.00558199 0.0141954 0)
(-0.00808936 0.0170828 0)
(-0.0109502 0.0197704 0)
(-0.0141229 0.0222338 0)
(-0.0175691 0.0244567 0)
(-0.0212521 0.0264301 0)
(-0.0251379 0.0281501 0)
(-0.0291938 0.0296172 0)
(-0.0333889 0.0308346 0)
(-0.0376935 0.0318075 0)
(-0.0420795 0.0325421 0)
(-0.0465195 0.033045 0)
(-0.0509871 0.0333227 0)
(-0.0554567 0.0333812 0)
(-0.0599031 0.0332259 0)
(-0.0643019 0.0328615 0)
(-0.0686289 0.0322917 0)
(-0.0728602 0.0315198 0)
(-0.0769721 0.0305484 0)
(-0.0809412 0.0293801 0)
(-0.0847445 0.0280173 0)
(-0.088359 0.0264627 0)
(-0.0917621 0.0247197 0)
(-0.0949317 0.0227925 0)
(-0.0978462 0.0206865 0)
(-0.100485 0.0184084 0)
(-0.102827 0.0159669 0)
(-0.104853 0.0133722 0)
(-0.106546 0.0106368 0)
(-0.107889 0.00777534 0)
(-0.108867 0.00480472 0)
(-0.109467 0.00174416 0)
(-0.109677 -0.00138483 0)
(-0.109489 -0.00455849 0)
(-0.108897 -0.00775097 0)
(-0.107898 -0.0109345 0)
(-0.106491 -0.0140795 0)
(-0.104679 -0.0171551 0)
(-0.10247 -0.0201295 0)
(-0.0998729 -0.02297 0)
(-0.0969023 -0.025644 0)
(-0.0935762 -0.028119 0)
(-0.0899168 -0.0303636 0)
(-0.0859499 -0.0323478 0)
(-0.0817055 -0.0340438 0)
(-0.0772174 -0.0354263 0)
(-0.0725227 -0.0364739 0)
(-0.0676617 -0.0371686 0)
(-0.0626777 -0.0374974 0)
(-0.057616 -0.0374522 0)
(-0.0525237 -0.0370307 0)
(-0.047449 -0.0362364 0)
(-0.0424402 -0.0350793 0)
(-0.0375452 -0.0335758 0)
(-0.0328107 -0.031749 0)
(-0.0282808 -0.0296287 0)
(-0.0239972 -0.0272513 0)
(-0.0199973 -0.0246596 0)
(-0.0163142 -0.0219025 0)
(-0.0129757 -0.0190347 0)
(-0.0100038 -0.0161165 0)
(-0.00741461 -0.0132133 0)
(-0.00521745 -0.0103951 0)
(-0.00341545 -0.00773641 0)
(-0.00200443 -0.00531538 0)
(-0.000972409 -0.0032135 0)
(-0.000312953 -0.00151473 0)
(-3.83678e-05 -0.000308417 0)
(-0.000102727 0.00187398 0)
(-0.000685958 0.00568204 0)
(-0.00194637 0.00945148 0)
(-0.00375216 0.0131074 0)
(-0.0060259 0.0165936 0)
(-0.00871997 0.019867 0)
(-0.011787 0.0228959 0)
(-0.0151812 0.0256587 0)
(-0.0188604 0.0281419 0)
(-0.0227853 0.0303388 0)
(-0.0269189 0.0322478 0)
(-0.0312269 0.0338712 0)
(-0.0356764 0.0352139 0)
(-0.0402368 0.0362825 0)
(-0.0448785 0.0370845 0)
(-0.0495734 0.0376275 0)
(-0.0542943 0.037919 0)
(-0.059015 0.0379656 0)
(-0.0637099 0.0377733 0)
(-0.0683538 0.0373471 0)
(-0.0729221 0.0366913 0)
(-0.0773904 0.0358094 0)
(-0.0817347 0.0347043 0)
(-0.085931 0.0333786 0)
(-0.0899557 0.0318351 0)
(-0.0937854 0.0300768 0)
(-0.0973968 0.0281075 0)
(-0.100767 0.0259316 0)
(-0.103874 0.0235552 0)
(-0.106696 0.0209859 0)
(-0.109212 0.0182329 0)
(-0.111401 0.0153076 0)
(-0.113246 0.0122239 0)
(-0.114727 0.00899779 0)
(-0.115829 0.00564785 0)
(-0.116538 0.00219527 0)
(-0.116841 -0.00133624 0)
(-0.116728 -0.00492047 0)
(-0.116192 -0.00852887 0)
(-0.115228 -0.0121307 0)
(-0.113833 -0.0156932 0)
(-0.112011 -0.0191821 0)
(-0.109766 -0.0225618 0)
(-0.107108 -0.0257959 0)
(-0.104049 -0.0288477 0)
(-0.100607 -0.0316807 0)
(-0.0968026 -0.0342594 0)
(-0.0926628 -0.0365497 0)
(-0.0882172 -0.0385198 0)
(-0.0835 -0.0401406 0)
(-0.0785494 -0.0413869 0)
(-0.0734071 -0.0422378 0)
(-0.0681181 -0.0426774 0)
(-0.0627303 -0.0426956 0)
(-0.0572936 -0.0422882 0)
(-0.0518593 -0.0414582 0)
(-0.0464794 -0.0402154 0)
(-0.0412059 -0.0385771 0)
(-0.0360895 -0.0365678 0)
(-0.0311791 -0.0342201 0)
(-0.0265207 -0.0315736 0)
(-0.0221565 -0.0286752 0)
(-0.0181241 -0.0255788 0)
(-0.0144559 -0.0223447 0)
(-0.0111782 -0.0190393 0)
(-0.00831102 -0.0157343 0)
(-0.00586765 -0.0125064 0)
(-0.00385461 -0.0094367 0)
(-0.00227067 -0.0066099 0)
(-0.0011061 -0.00411352 0)
(-0.000357873 -0.00203695 0)
(-4.44139e-05 -0.000474151 0)
(-0.000110702 0.00223433 0)
(-0.000737305 0.00669061 0)
(-0.00208907 0.0110411 0)
(-0.0040224 0.0152158 0)
(-0.00645232 0.0191631 0)
(-0.00932621 0.0228443 0)
(-0.0125921 0.0262317 0)
(-0.0162001 0.0293072 0)
(-0.0201046 0.0320607 0)
(-0.0242632 0.0344885 0)
(-0.0286368 0.0365917 0)
(-0.0331888 0.0383747 0)
(-0.0378851 0.0398445 0)
(-0.0426934 0.0410095 0)
(-0.0475834 0.0418787 0)
(-0.052526 0.0424608 0)
(-0.0574936 0.0427643 0)
(-0.0624591 0.0427967 0)
(-0.0673966 0.0425647 0)
(-0.0722806 0.0420737 0)
(-0.0770861 0.0413283 0)
(-0.0817883 0.0403324 0)
(-0.0863628 0.039089 0)
(-0.0907854 0.0376012 0)
(-0.0950318 0.0358717 0)
(-0.0990784 0.0339038 0)