/*--------------------------------*- C++ -*----------------------------------*\
  =========                 |
  \\      /  F ield         | OpenFOAM: The Open Source CFD Toolbox
   \\    /   O peration     | Website:  https://openfoam.org
    \\  /    A nd           | Version:  dev
     \\/     M anipulation  |
\*---------------------------------------------------------------------------*/
FoamFile
{
    format      ascii;
    class       volScalarField;
    location    "35.55";
    object      Ux;
}
// * * * * * * * * * * * * * * * * * * * * * * * * * * * * * * * * * * * * * //

dimensions      [0 1 -1 0 0 0 0];

internalField   nonuniform List<scalar> 
5184
(
1.23286e-05
4.51746e-05
8.0347e-05
9.60142e-05
8.2191e-05
3.64969e-05
-4.05224e-05
-0.000146849
-0.000279688
-0.000435982
-0.00061261
-0.000806537
-0.0010149
-0.00123502
-0.00146445
-0.00170093
-0.00194239
-0.0021869
-0.00243269
-0.00267807
-0.00292144
-0.00316123
-0.00339591
-0.00362397
-0.00384387
-0.00405407
-0.00425302
-0.00443914
-0.00461085
-0.00476657
-0.00490475
-0.00502387
-0.00512244
-0.00519912
-0.00525262
-0.00528183
-0.00528582
-0.00526386
-0.00521543
-0.00514032
-0.00503858
-0.0049106
-0.00475707
-0.00457906
-0.00437796
-0.00415553
-0.00391387
-0.0036554
-0.00338285
-0.00309922
-0.00280776
-0.00251189
-0.00221519
-0.00192129
-0.00163389
-0.00135662
-0.00109302
-0.000846466
-0.000620097
-0.000416768
-0.000238977
-8.88019e-05
3.21688e-05
0.000122921
0.000183124
0.000213281
0.000214979
0.000191269
0.000147182
9.08144e-05
3.66336e-05
6.22704e-06
2.08508e-05
6.56425e-05
9.47549e-05
7.2864e-05
-1.88702e-05
-0.000187266
-0.00043291
-0.000752583
-0.00114074
-0.00159059
-0.00209481
-0.00264592
-0.00323663
-0.00385994
-0.00450924
-0.00517835
-0.00586144
-0.00655309
-0.00724815
-0.00794174
-0.00862916
-0.00930586
-0.00996735
-0.0106092
-0.0112271
-0.0118165
-0.012373
-0.0128923
-0.01337
-0.0138016
-0.014183
-0.0145101
-0.014779
-0.014986
-0.0151278
-0.0152017
-0.0152052
-0.0151367
-0.0149949
-0.0147794
-0.0144908
-0.0141301
-0.0136995
-0.0132021
-0.0126419
-0.0120235
-0.0113529
-0.0106367
-0.00988216
-0.00909747
-0.00829131
-0.00747287
-0.00665167
-0.00583746
-0.00504002
-0.00426903
-0.00353385
-0.00284343
-0.00220603
-0.00162914
-0.00111923
-0.000681602
-0.00032017
-3.72174e-05
0.00016689
0.000294076
0.000349091
0.000340208
0.000279923
0.000186091
8.63855e-05
1.96827e-05
1.7641e-05
4.13498e-05
1.9635e-05
-8.3957e-05
-0.000290218
-0.000607899
-0.00103826
-0.00157749
-0.00221843
-0.00295187
-0.00376755
-0.00465475
-0.00560275
-0.00660108
-0.0076397
-0.00870903
-0.00979999
-0.010904
-0.0120128
-0.0131186
-0.0142138
-0.015291
-0.0163429
-0.0173626
-0.0183428
-0.0192765
-0.0201567
-0.0209764
-0.0217288
-0.0224071
-0.0230047
-0.0235153
-0.023933
-0.0242523
-0.0244683
-0.0245768
-0.0245744
-0.0244586
-0.024228
-0.023882
-0.0234216
-0.022849
-0.0221676
-0.0213822
-0.0204991
-0.019526
-0.0184717
-0.0173464
-0.0161617
-0.0149298
-0.0136641
-0.0123787
-0.011088
-0.00980704
-0.00855057
-0.00733332
-0.00616955
-0.00507278
-0.00405558
-0.0031292
-0.00230339
-0.00158604
-0.000982887
-0.000497164
-0.000129181
0.000124134
0.00026988
0.000319908
0.000291355
0.000207454
0.000102476
2.49815e-05
8.84318e-06
-6.99706e-06
-0.00010756
-0.000322347
-0.000669609
-0.00115775
-0.00178753
-0.00255417
-0.00344912
-0.00446136
-0.0055784
-0.00678705
-0.00807388
-0.00942565
-0.0108294
-0.0122728
-0.0137439
-0.0152312
-0.0167239
-0.0182114
-0.0196835
-0.0211301
-0.0225416
-0.0239083
-0.0252206
-0.0264691
-0.0276445
-0.0287373
-0.0297386
-0.0306395
-0.0314313
-0.0321059
-0.0326557
-0.0330736
-0.0333534
-0.0334898
-0.0334787
-0.0333169
-0.0330029
-0.0325363
-0.0319187
-0.0311529
-0.0302437
-0.0291977
-0.028023
-0.0267298
-0.0253297
-0.023836
-0.0222636
-0.0206285
-0.0189481
-0.0172404
-0.0155243
-0.0138188
-0.0121433
-0.0105166
-0.00895715
-0.00748234
-0.00610833
-0.00484962
-0.00371868
-0.00272565
-0.00187785
-0.0011794
-0.00063077
-0.000228262
3.66083e-05
0.00017774
0.000214864
0.000174152
9.30544e-05
2.40332e-05
-2.12225e-06
-6.72851e-05
-0.000264107
-0.000609788
-0.00111683
-0.00179144
-0.00263263
-0.00363402
-0.00478549
-0.00607432
-0.00748615
-0.00900575
-0.0106175
-0.0123058
-0.0140555
-0.0158516
-0.0176799
-0.0195264
-0.0213778
-0.0232212
-0.0250439
-0.0268336
-0.0285783
-0.030266
-0.0318849
-0.0334234
-0.03487
-0.0362134
-0.0374425
-0.0385466
-0.0395152
-0.0403386
-0.0410077
-0.0415142
-0.0418508
-0.0420113
-0.0419909
-0.0417862
-0.0413954
-0.0408185
-0.0400574
-0.0391158
-0.0379998
-0.0367172
-0.035278
-0.0336944
-0.0319805
-0.0301523
-0.0282274
-0.0262252
-0.0241663
-0.0220722
-0.0199655
-0.0178689
-0.0158053
-0.0137974
-0.0118671
-0.0100351
-0.00832076
-0.00674139
-0.00531193
-0.00404451
-0.002948
-0.00202754
-0.00128407
-0.000713828
-0.000307816
-5.12613e-05
7.67209e-05
0.000103641
6.75292e-05
1.96709e-05
-1.36938e-05
-0.000132837
-0.00043585
-0.000924706
-0.00160404
-0.00247641
-0.00353799
-0.00478006
-0.00619053
-0.00775489
-0.00945701
-0.0112798
-0.0132058
-0.0152174
-0.0172975
-0.019429
-0.0215955
-0.023781
-0.0259701
-0.0281477
-0.030299
-0.0324096
-0.0344653
-0.0364522
-0.0383565
-0.0401645
-0.041863
-0.0434386
-0.0448787
-0.0461707
-0.0473028
-0.0482638
-0.0490433
-0.0496319
-0.0500213
-0.0502048
-0.0501769
-0.0499338
-0.0494739
-0.0487973
-0.0479063
-0.0468054
-0.0455015
-0.0440037
-0.0423237
-0.0404754
-0.0384748
-0.0363402
-0.0340918
-0.0317517
-0.0293433
-0.0268912
-0.024421
-0.0219588
-0.0195306
-0.0171623
-0.014879
-0.0127044
-0.0106607
-0.00876775
-0.00704282
-0.00550001
-0.00414981
-0.00299857
-0.00204807
-0.00129504
-0.000730682
-0.000340282
-0.000102871
9.19216e-06
3.25156e-05
1.36255e-05
-2.51867e-05
-0.000200026
-0.000614131
-0.00125302
-0.00211223
-0.00318961
-0.00447758
-0.00596444
-0.00763568
-0.00947474
-0.0114637
-0.0135836
-0.0158153
-0.0181396
-0.0205374
-0.02299
-0.0254792
-0.027987
-0.0304962
-0.0329899
-0.0354513
-0.0378642
-0.0402127
-0.0424808
-0.0446531
-0.0467141
-0.0486488
-0.0504424
-0.0520804
-0.0535491
-0.0548351
-0.055926
-0.0568104
-0.0574777
-0.0579191
-0.0581269
-0.0580953
-0.0578204
-0.0573002
-0.056535
-0.0555276
-0.0542829
-0.0528088
-0.0511153
-0.0492154
-0.0471243
-0.04486
-0.0424426
-0.0398945
-0.03724
-0.034505
-0.0317169
-0.0289039
-0.026095
-0.0233192
-0.0206051
-0.0179808
-0.0154728
-0.0131059
-0.0109025
-0.00888214
-0.00706095
-0.00545117
-0.00406064
-0.00289237
-0.00194406
-0.00120777
-0.000669555
-0.000309189
-9.98367e-05
-7.70157e-06
6.86398e-06
-3.63426e-05
-0.000266965
-0.000793825
-0.00158579
-0.0026287
-0.003915
-0.00543271
-0.00716655
-0.0090992
-0.0112118
-0.0134843
-0.0158963
-0.0184267
-0.0210548
-0.0237599
-0.0265217
-0.0293204
-0.0321366
-0.0349514
-0.037746
-0.0405023
-0.0432023
-0.0458284
-0.0483633
-0.0507896
-0.0530905
-0.0552494
-0.0572501
-0.0590768
-0.0607142
-0.062148
-0.0633645
-0.0643513
-0.0650971
-0.065592
-0.065828
-0.0657986
-0.0654997
-0.0649292
-0.0640874
-0.0629772
-0.061604
-0.0599763
-0.0581049
-0.0560037
-0.0536893
-0.051181
-0.0485005
-0.0456721
-0.042722
-0.0396784
-0.0365709
-0.0334304
-0.0302882
-0.0271762
-0.0241257
-0.0211675
-0.0183307
-0.0156428
-0.0131287
-0.0108103
-0.00870585
-0.00682967
-0.00519135
-0.00379549
-0.00264123
-0.00172201
-0.00102524
-0.000532089
-0.000217204
-5.04536e-05
-8.21473e-08
-4.70648e-05
-0.00033267
-0.000971934
-0.0019174
-0.00314505
-0.00464152
-0.00639001
-0.00837121
-0.0105646
-0.0129488
-0.0155017
-0.0182009
-0.0210237
-0.0239479
-0.0269514
-0.0300124
-0.0331097
-0.0362226
-0.0393306
-0.0424137
-0.0454523
-0.0484269
-0.0513186
-0.0541085
-0.0567781
-0.0593089
-0.0616832
-0.0638834
-0.0658924
-0.0676939
-0.0692724
-0.0706132
-0.0717028
-0.0725293
-0.073082
-0.0733521
-0.0733329
-0.0730195
-0.0724099
-0.0715041
-0.0703051
-0.0688187
-0.0670534
-0.0650208
-0.0627355
-0.0602151
-0.0574798
-0.054553
-0.0514602
-0.0482295
-0.044891
-0.0414766
-0.0380192
-0.0345527
-0.0311114
-0.0277294
-0.02444
-0.0212752
-0.018265
-0.015437
-0.0128155
-0.0104214
-0.00827095
-0.00637604
-0.0047432
-0.00337345
-0.00226202
-0.00139819
-0.000764996
-0.000339003
-9.41807e-05
-6.94251e-06
-5.73412e-05
-0.000396659
-0.00114672
-0.00224432
-0.0036557
-0.00536153
-0.00733988
-0.00956718
-0.0120195
-0.0146726
-0.0175021
-0.0204836
-0.023593
-0.0268064
-0.0301003
-0.0334518
-0.0368384
-0.040238
-0.043629
-0.0469902
-0.0503007
-0.0535399
-0.0566875
-0.0597235
-0.062628
-0.0653816
-0.0679652
-0.07036
-0.072548
-0.0745117
-0.0762345
-0.077701
-0.0788966
-0.0798085
-0.0804254
-0.0807378
-0.0807383
-0.0804217
-0.0797854
-0.0788293
-0.0775561
-0.0759716
-0.0740846
-0.0719069
-0.0694536
-0.0667428
-0.0637959
-0.060637
-0.0572931
-0.0537939
-0.0501712
-0.0464586
-0.0426913
-0.0389056
-0.0351383
-0.031426
-0.0278047
-0.0243092
-0.0209724
-0.0178246
-0.014893
-0.0122008
-0.00976722
-0.00760635
-0.00572714
-0.00413286
-0.00282096
-0.00178294
-0.00100404
-0.00046302
-0.000138066
-1.36012e-05
-6.71896e-05
-0.000458704
-0.00131718
-0.00256433
-0.00415693
-0.00606967
-0.00827539
-0.0107461
-0.0134542
-0.0163725
-0.0194743
-0.0227332
-0.0261233
-0.0296193
-0.0331964
-0.0368306
-0.0404981
-0.0441759
-0.0478412
-0.0514718
-0.0550458
-0.0585415
-0.0619376
-0.0652128
-0.0683465
-0.071318
-0.0741072
-0.0766943
-0.0790603
-0.0811868
-0.0830562
-0.084652
-0.085959
-0.0869634
-0.087653
-0.0880178
-0.0880495
-0.0877423
-0.0870931
-0.0861013
-0.0847692
-0.0831025
-0.0811096
-0.0788026
-0.0761967
-0.0733104
-0.0701657
-0.0667875
-0.063204
-0.059446
-0.055547
-0.0515423
-0.0474694
-0.0433666
-0.0392733
-0.0352288
-0.0312719
-0.0274404
-0.02377
-0.0202942
-0.0170431
-0.0140431
-0.0113161
-0.00887904
-0.00674366
-0.00491582
-0.00339552
-0.00217681
-0.00124736
-0.000588241
-0.000181782
-2.00318e-05
-7.66342e-05
-0.000518704
-0.00148271
-0.002876
-0.0046462
-0.00676215
-0.00919143
-0.0119015
-0.0148612
-0.0180402
-0.0214093
-0.02494
-0.0286048
-0.032377
-0.0362306
-0.0401402
-0.0440812
-0.0480296
-0.0519618
-0.0558545
-0.059685
-0.0634308
-0.0670694
-0.070579
-0.0739379
-0.0771244
-0.0801176
-0.0828969
-0.0854422
-0.0877342
-0.0897544
-0.0914855
-0.0929114
-0.0940173
-0.0947902
-0.0952192
-0.0952952
-0.0950117
-0.0943647
-0.0933529
-0.0919783
-0.0902456
-0.0881633
-0.0857429
-0.0829996
-0.0799522
-0.0766228
-0.0730371
-0.069224
-0.0652155
-0.0610463
-0.0567537
-0.052377
-0.047957
-0.0435354
-0.0391543
-0.0348556
-0.0306801
-0.0266669
-0.0228527
-0.019271
-0.0159515
-0.0129194
-0.010195
-0.00779285
-0.00572196
-0.00398516
-0.00257927
-0.00149458
-0.00071451
-0.000225329
-2.62608e-05
-8.56964e-05
-0.000576605
-0.00164293
-0.00317834
-0.0051217
-0.00743612
-0.0100841
-0.0130285
-0.0162345
-0.0196687
-0.0232994
-0.027096
-0.0310293
-0.0350711
-0.0391943
-0.0433725
-0.0475801
-0.0517923
-0.0559846
-0.0601332
-0.0642144
-0.068205
-0.072082
-0.0758225
-0.0794041
-0.0828045
-0.0860019
-0.0889749
-0.0917025
-0.0941646
-0.0963419
-0.0982161
-0.0997701
-0.100988
-0.101857
-0.102364
-0.102499
-0.102254
-0.101626
-0.100611
-0.0992114
-0.0974301
-0.0952753
-0.0927579
-0.0898929
-0.0866987
-0.0831976
-0.0794157
-0.0753823
-0.0711305
-0.0666963
-0.0621185
-0.0574385
-0.0526991
-0.047945
-0.043221
-0.0385722
-0.0340428
-0.0296754
-0.0255105
-0.0215852
-0.017933
-0.0145827
-0.0115583
-0.00887779
-0.00655349
-0.00459141
-0.00299139
-0.00174644
-0.000842273
-0.00026893
-3.23468e-05
-9.43913e-05
-0.000632371
-0.00179757
-0.0034706
-0.00558199
-0.00808936
-0.0109502
-0.0141229
-0.0175691
-0.0212521
-0.0251379
-0.0291938
-0.0333889
-0.0376935
-0.0420795
-0.0465195
-0.0509871
-0.0554567
-0.0599031
-0.0643019
-0.0686289
-0.0728602
-0.0769721
-0.0809412
-0.0847445
-0.088359
-0.0917621
-0.0949317
-0.0978462
-0.100485
-0.102827
-0.104853
-0.106546
-0.107889
-0.108867
-0.109467
-0.109677
-0.109489
-0.108897
-0.107898
-0.106491
-0.104679
-0.10247
-0.0998729
-0.0969023
-0.0935762
-0.0899168
-0.0859499
-0.0817055
-0.0772174
-0.0725227
-0.0676617
-0.0626777
-0.057616
-0.0525237
-0.047449
-0.0424402
-0.0375452
-0.0328107
-0.0282808
-0.0239972
-0.0199973
-0.0163142
-0.0129757
-0.0100038
-0.00741461
-0.00521745
-0.00341545
-0.00200443
-0.000972409
-0.000312953
-3.83678e-05
-0.000102727
-0.000685958
-0.00194637
-0.00375216
-0.0060259
-0.00871997
-0.011787
-0.0151812
-0.0188604
-0.0227853
-0.0269189
-0.0312269
-0.0356764
-0.0402368
-0.0448785
-0.0495734
-0.0542943
-0.059015
-0.0637099
-0.0683538
-0.0729221
-0.0773904
-0.0817347
-0.085931
-0.0899557
-0.0937854
-0.0973968
-0.100767
-0.103874
-0.106696
-0.109212
-0.111401
-0.113246
-0.114727
-0.115829
-0.116538
-0.116841
-0.116728
-0.116192
-0.115228
-0.113833
-0.112011
-0.109766
-0.107108
-0.104049
-0.100607
-0.0968026
-0.0926628
-0.0882172
-0.0835
-0.0785494
-0.0734071
-0.0681181
-0.0627303
-0.0572936
-0.0518593
-0.0464794
-0.0412059
-0.0360895
-0.0311791
-0.0265207
-0.0221565
-0.0181241
-0.0144559
-0.0111782
-0.00831102
-0.00586765
-0.00385461
-0.00227067
-0.0011061
-0.000357873
-4.44139e-05
-0.000110702
-0.000737305
-0.00208907
-0.0040224
-0.00645232
-0.00932621
-0.0125921
-0.0162001
-0.0201046
-0.0242632
-0.0286368
-0.0331888
-0.0378851
-0.0426934
-0.0475834
-0.052526
-0.0574936
-0.0624591
-0.0673966
-0.0722806
-0.0770861
-0.0817883
-0.0863628
-0.0907854
-0.0950318
-0.0990784
-0.102901
-0.106477
-0.109783
-0.112797
-0.115496
-0.11786
-0.119869
-0.121503
-0.122746
-0.123582
-0.123996
-0.123978
-0.123518
-0.122609
-0.121248
-0.119436
-0.117177
-0.114476
-0.111347
-0.107806
-0.103873
-0.0995734
-0.0949372
-0.089999
-0.0847976
-0.0793762
-0.0737816
-0.068064
-0.0622762
-0.0564729
-0.0507102
-0.0450441
-0.0395302
-0.0342221
-0.029171
-0.0244242
-0.0200244
-0.0160091
-0.0124093
-0.00924959
-0.00654729
-0.0043127
-0.00254766
-0.00124473
-0.00040423
-5.05828e-05
-0.000118313
-0.000786329
-0.00222539
-0.0042807
-0.00686014
-0.0099064
-0.0133631
-0.0171765
-0.0212976
-0.0256812
-0.030286
-0.0350735
-0.0400079
-0.045056
-0.0501863
-0.0553691
-0.060576
-0.0657799
-0.0709542
-0.0760733
-0.0811117
-0.0860446
-0.0908473
-0.0954952
-0.099964
-0.104229
-0.108268
-0.112054
-0.115566
-0.11878
-0.121673
-0.124224
-0.126411
-0.128214
-0.129614
-0.130595
-0.13114
-0.131237
-0.130874
-0.130043
-0.128739
-0.12696
-0.124707
-0.121986
-0.118807
-0.115185
-0.11114
-0.106695
-0.101881
-0.096731
-0.0912854
-0.0855882
-0.0796881
-0.0736375
-0.0674922
-0.0613106
-0.0551528
-0.0490796
-0.0431514
-0.0374275
-0.0319644
-0.0268152
-0.0220283
-0.0176467
-0.0137068
-0.010238
-0.00726232
-0.00479401
-0.00283822
-0.00138987
-0.000452615
-5.69768e-05
-0.000125544
-0.000832925
-0.002355
-0.00452638
-0.00724824
-0.0104588
-0.0140977
-0.0181073
-0.0224356
-0.0270348
-0.0318612
-0.0368747
-0.042038
-0.0473168
-0.0526789
-0.0580937
-0.0635325
-0.0689677
-0.0743725
-0.0797211
-0.084988
-0.0901482
-0.0951768
-0.100049
-0.104741
-0.109227
-0.113484
-0.117486
-0.121211
-0.124634
-0.127731
-0.130481
-0.13286
-0.134847
-0.136423
-0.137568
-0.138265
-0.138498
-0.138255
-0.137525
-0.136301
-0.134578
-0.132355
-0.129637
-0.126431
-0.122749
-0.11861
-0.114037
-0.109058
-0.103708
-0.0980266
-0.0920586
-0.0858544
-0.0794687
-0.0729605
-0.0663918
-0.0598269
-0.0533318
-0.0469722
-0.0408133
-0.0349177
-0.0293449
-0.0241495
-0.0193807
-0.0150807
-0.0112845
-0.00801914
-0.00530318
-0.00314538
-0.00154314
-0.000503647
-6.3701e-05
-0.00013238
-0.000876968
-0.00247752
-0.00475872
-0.00761542
-0.0109817
-0.0147934
-0.0189894
-0.0235147
-0.0283191
-0.0333569
-0.0385861
-0.0439684
-0.0494683
-0.0550527
-0.0606907
-0.066353
-0.0720119
-0.0776404
-0.0832125
-0.0887029
-0.0940863
-0.099338
-0.104433
-0.109348
-0.114056
-0.118534
-0.122758
-0.126702
-0.130342
-0.133654
-0.136615
-0.1392
-0.141388
-0.143156
-0.144484
-0.145353
-0.145746
-0.145646
-0.145042
-0.143922
-0.14228
-0.140114
-0.137422
-0.134212
-0.130494
-0.126282
-0.1216
-0.116474
-0.110937
-0.10503
-0.0987985
-0.0922937
-0.0855728
-0.0786975
-0.0717339
-0.0647507
-0.0578191
-0.0510108
-0.0443973
-0.0380479
-0.032029
-0.0264023
-0.0212236
-0.0165418
-0.0123979
-0.00882449
-0.00584507
-0.00347229
-0.00170628
-0.000557969
-7.08619e-05
-0.000138797
-0.000918313
-0.00259256
-0.00497693
-0.00796041
-0.0114733
-0.0154478
-0.0198196
-0.024531
-0.0295295
-0.0347675
-0.0402015
-0.0457918
-0.0515022
-0.0572988
-0.0631502
-0.069027
-0.0749011
-0.0807455
-0.0865344
-0.0922423
-0.0978443
-0.103316
-0.108632
-0.113768
-0.118699
-0.123401
-0.12785
-0.132019
-0.135884
-0.13942
-0.142603
-0.145408
-0.147812
-0.14979
-0.151321
-0.152383
-0.152957
-0.153024
-0.15257
-0.151581
-0.150048
-0.147964
-0.145326
-0.142139
-0.138408
-0.134148
-0.129379
-0.124124
-0.118418
-0.112299
-0.105814
-0.0990148
-0.0919607
-0.0847164
-0.0773517
-0.0699402
-0.0625584
-0.0552845
-0.0481966
-0.0413716
-0.0348832
-0.0288009
-0.023188
-0.0181007
-0.0135869
-0.00968527
-0.00642469
-0.00382222
-0.00188105
-0.000616236
-7.85673e-05
-0.00014477
-0.000956802
-0.00269968
-0.00518018
-0.00828192
-0.0119317
-0.0160583
-0.0205948
-0.0254806
-0.0306613
-0.0360874
-0.0417142
-0.0475009
-0.0534103
-0.059408
-0.0654622
-0.0715433
-0.0776232
-0.0836749
-0.0896727
-0.0955913
-0.101406
-0.107092
-0.112625
-0.117981
-0.123135
-0.128062
-0.132738
-0.137137
-0.141234
-0.145003
-0.148419
-0.151456
-0.15409
-0.156295
-0.158047
-0.159323
-0.1601
-0.160359
-0.160081
-0.15925
-0.157852
-0.155879
-0.153324
-0.150188
-0.146473
-0.142192
-0.137359
-0.132
-0.126144
-0.119831
-0.113105
-0.106021
-0.0986386
-0.0910261
-0.0832566
-0.0754087
-0.0675645
-0.0598089
-0.0522273
-0.0449045
-0.0379226
-0.0313593
-0.0252865
-0.0197685
-0.0148606
-0.0106085
-0.00704712
-0.00419847
-0.00206925
-0.000679111
-8.69254e-05
-0.000150271
-0.000992265
-0.00279842
-0.00536763
-0.00857859
-0.0123549
-0.0166225
-0.0213115
-0.0263594
-0.0317095
-0.037311
-0.0431178
-0.0490881
-0.055184
-0.0613707
-0.0676161
-0.0738904
-0.0801654
-0.0864145
-0.0926121
-0.0987331
-0.104753
-0.110648
-0.116394
-0.121966
-0.12734
-0.132492
-0.137397
-0.142029
-0.146362
-0.150371
-0.154029
-0.157309
-0.160187
-0.162634
-0.164625
-0.166134
-0.167138
-0.167612
-0.167536
-0.16689
-0.165657
-0.163824
-0.161383
-0.158328
-0.15466
-0.150386
-0.145519
-0.140081
-0.1341
-0.127613
-0.120664
-0.113308
-0.105607
-0.0976307
-0.0894558
-0.0811659
-0.0728492
-0.0645972
-0.0565034
-0.0486611
-0.0411612
-0.034091
-0.0275314
-0.0215557
-0.0162279
-0.0116011
-0.00771746
-0.00460438
-0.00227267
-0.000747263
-9.60454e-05
-0.00015527
-0.00102453
-0.0028883
-0.0055384
-0.00884908
-0.0127411
-0.0171377
-0.0219667
-0.0271634
-0.0326695
-0.0384326
-0.0444056
-0.0505459
-0.0568149
-0.0631773
-0.069601
-0.076056
-0.0825144
-0.0889496
-0.0953365
-0.10165
-0.107867
-0.113963
-0.119915
-0.125698
-0.131289
-0.136663
-0.141796
-0.146661
-0.151234
-0.155487
-0.159394
-0.162928
-0.16606
-0.168764
-0.17101
-0.172772
-0.174023
-0.174736
-0.174887
-0.174453
-0.173414
-0.171753
-0.169457
-0.166516
-0.162928
-0.158695
-0.153827
-0.14834
-0.142262
-0.135626
-0.128477
-0.120867
-0.11286
-0.104528
-0.0959511
-0.0872172
-0.0784205
-0.0696598
-0.0610369
-0.0526541
-0.0446122
-0.0370085
-0.0299343
-0.0234728
-0.0176974
-0.0126701
-0.00844078
-0.00504328
-0.00249312
-0.000821363
-0.000106037
-0.000159738
-0.00105341
-0.00296888
-0.00569163
-0.00909205
-0.0130884
-0.0176015
-0.0225571
-0.0278887
-0.0335364
-0.0394466
-0.0455712
-0.0518667
-0.0582942
-0.064818
-0.0714059
-0.0780279
-0.0846563
-0.091265
-0.0978289
-0.104324
-0.110727
-0.117015
-0.123163
-0.12915
-0.134952
-0.140543
-0.145901
-0.150999
-0.155812
-0.160312
-0.164473
-0.168266
-0.171663
-0.174635
-0.177151
-0.179182
-0.180699
-0.181674
-0.182077
-0.181883
-0.181068
-0.179611
-0.177493
-0.174702
-0.171229
-0.167073
-0.162238
-0.156738
-0.150595
-0.143842
-0.136518
-0.128678
-0.120384
-0.11171
-0.102739
-0.0935627
-0.0842823
-0.0750035
-0.0658367
-0.056894
-0.0482867
-0.0401232
-0.0325059
-0.0255294
-0.0192775
-0.0138222
-0.00922206
-0.00551845
-0.00273242
-0.000902084
-0.00011701
-0.000163646
-0.00107876
-0.0030397
-0.00582651
-0.00930623
-0.013395
-0.0180115
-0.0230798
-0.0285315
-0.0343057
-0.0403476
-0.0466081
-0.0530432
-0.0596134
-0.0662831
-0.0730197
-0.0797936
-0.0865773
-0.0933449
-0.100072
-0.106735
-0.113312
-0.119779
-0.126114
-0.132295
-0.138298
-0.1441
-0.149677
-0.155004
-0.160054
-0.164801
-0.169218
-0.173275
-0.176943
-0.180191
-0.182989
-0.185305
-0.187106
-0.188362
-0.189042
-0.189115
-0.188553
-0.187332
-0.185427
-0.182822
-0.179502
-0.175461
-0.170699
-0.165225
-0.159056
-0.152219
-0.144755
-0.136714
-0.128157
-0.11916
-0.109807
-0.100197
-0.0904332
-0.0806308
-0.0709085
-0.0613887
-0.052194
-0.0434449
-0.0352562
-0.0277347
-0.0209762
-0.0150638
-0.0100662
-0.00603315
-0.00299235
-0.000990098
-0.000129078
-0.000166965
-0.0011004
-0.00310034
-0.00594229
-0.00949046
-0.0136592
-0.0183655
-0.0235318
-0.0290884
-0.0349732
-0.0411305
-0.0475103
-0.0540683
-0.0607645
-0.0675631
-0.0744317
-0.0813408
-0.0882633
-0.0951738
-0.102048
-0.108864
-0.1156
-0.122232
-0.128741
-0.135103
-0.141296
-0.147299
-0.153086
-0.158633
-0.163916
-0.168906
-0.173577
-0.177899
-0.181841
-0.185373
-0.188461
-0.191073
-0.193174
-0.19473
-0.195708
-0.196073
-0.195794
-0.194839
-0.193183
-0.190801
-0.187675
-0.183791
-0.179145
-0.173739
-0.167586
-0.160709
-0.153143
-0.144935
-0.136146
-0.126852
-0.117138
-0.107106
-0.0968659
-0.086539
-0.0762535
-0.0661425
-0.0563408
-0.0469817
-0.0381936
-0.0300969
-0.0228009
-0.0164012
-0.0109778
-0.00659055
-0.00327468
-0.00108608
-0.000142352
-0.000169672
-0.0011182
-0.00315046
-0.0060383
-0.00964371
-0.0138796
-0.0186616
-0.0239107
-0.0295563
-0.0355351
-0.0417906
-0.0482723
-0.0549353
-0.0617395
-0.068649
-0.0756314
-0.0826576
-0.0897007
-0.096736
-0.10374
-0.110692
-0.117568
-0.12435
-0.131015
-0.137544
-0.143913
-0.150102
-0.156088
-0.161846
-0.167351
-0.172577
-0.177497
-0.18208
-0.186296
-0.190113
-0.193498
-0.196414
-0.198827
-0.2007
-0.201995
-0.202675
-0.202705
-0.20205
-0.200677
-0.198557
-0.195665
-0.191983
-0.187499
-0.182209
-0.17612
-0.169248
-0.161625
-0.153293
-0.144311
-0.134752
-0.124705
-0.114271
-0.103566
-0.0927199
-0.0818686
-0.0711563
-0.0607308
-0.0507393
-0.0413249
-0.0326232
-0.0247583
-0.01784
-0.0119615
-0.00719374
-0.00358114
-0.00119069
-0.000156949
-0.000171746
-0.00113205
-0.00318976
-0.00611401
-0.00976516
-0.014055
-0.0188982
-0.0242146
-0.0299325
-0.0359881
-0.0423239
-0.0488892
-0.0556385
-0.0625316
-0.0695325
-0.0766092
-0.0837326
-0.0908765
-0.0980167
-0.105131
-0.112197
-0.119196
-0.126107
-0.132911
-0.139587
-0.146115
-0.152474
-0.158642
-0.164596
-0.170311
-0.175762
-0.180921
-0.185758
-0.190244
-0.194345
-0.198026
-0.201252
-0.203985
-0.206185
-0.207814
-0.208831
-0.209196
-0.208869
-0.207813
-0.205994
-0.20338
-0.199945
-0.195672
-0.190549
-0.184575
-0.177762
-0.170133
-0.161727
-0.152598
-0.142816
-0.132469
-0.121661
-0.110513
-0.0991587
-0.0877447
-0.0764263
-0.0653642
-0.0547207
-0.0446551
-0.0353194
-0.0268543
-0.0193856
-0.0130214
-0.00784566
-0.00391344
-0.00130459
-0.000172985
-0.000173173
-0.00114187
-0.00321804
-0.00616906
-0.00985424
-0.0141846
-0.0190741
-0.0244417
-0.030215
-0.0363295
-0.0427272
-0.0493568
-0.0561727
-0.0631345
-0.0702062
-0.0773561
-0.0845554
-0.0917784
-0.0990016
-0.106203
-0.113363
-0.120462
-0.127481
-0.1344
-0.141203
-0.147868
-0.154377
-0.160707
-0.166839
-0.172747
-0.178406
-0.183791
-0.188871
-0.193617
-0.197995
-0.20197
-0.205505
-0.208562
-0.211099
-0.213074
-0.214445
-0.215166
-0.215196
-0.21449
-0.213009
-0.210715
-0.207575
-0.203564
-0.198662
-0.192862
-0.186165
-0.178589
-0.170165
-0.160941
-0.150986
-0.140383
-0.129239
-0.117675
-0.105833
-0.093867
-0.0819435
-0.0702371
-0.058926
-0.0481867
-0.0381896
-0.0290936
-0.0210425
-0.0141614
-0.00854912
-0.00427322
-0.00142845
-0.000190579
-0.000173945
-0.00114763
-0.0032352
-0.00620328
-0.00991066
-0.014268
-0.0191887
-0.0245912
-0.0304026
-0.0365576
-0.042998
-0.049672
-0.0565339
-0.0635432
-0.0706639
-0.0778645
-0.0851168
-0.0923955
-0.0996779
-0.106943
-0.114172
-0.121346
-0.128447
-0.135458
-0.142362
-0.14914
-0.155774
-0.162244
-0.16853
-0.17461
-0.180458
-0.18605
-0.191356
-0.196348
-0.200991
-0.205252
-0.209092
-0.212471
-0.215348
-0.217678
-0.219416
-0.220513
-0.220923
-0.220597
-0.21949
-0.217558
-0.214761
-0.211064
-0.206442
-0.200875
-0.194358
-0.186898
-0.17852
-0.169265
-0.159195
-0.14839
-0.136955
-0.125015
-0.112713
-0.100213
-0.0876933
-0.0753412
-0.0633516
-0.05192
-0.0412362
-0.0314798
-0.0228147
-0.0153849
-0.00930675
-0.00466208
-0.00156292
-0.000209854
-0.00017406
-0.00114932
-0.00324128
-0.00621672
-0.00993451
-0.0143053
-0.019242
-0.024663
-0.0304947
-0.0366716
-0.0431351
-0.0498331
-0.0567196
-0.0637541
-0.0709008
-0.0781284
-0.0854092
-0.0927184
-0.100034
-0.107336
-0.114607
-0.121828
-0.128985
-0.136059
-0.143036
-0.149899
-0.156631
-0.163214
-0.169628
-0.175852
-0.181865
-0.18764
-0.193151
-0.198369
-0.203262
-0.207794
-0.211928
-0.215625
-0.21884
-0.221527
-0.22364
-0.225127
-0.225937
-0.226019
-0.22532
-0.22379
-0.221383
-0.218054
-0.213769
-0.208499
-0.202229
-0.194957
-0.186697
-0.177481
-0.167362
-0.156419
-0.14475
-0.132481
-0.119759
-0.106754
-0.0936547
-0.0806626
-0.06799
-0.0558518
-0.0444595
-0.0340152
-0.0247051
-0.016695
-0.0101209
-0.00508149
-0.00170862
-0.000230934
-0.000173528
-0.00114702
-0.00323646
-0.00620973
-0.00992628
-0.0142969
-0.0192347
-0.0246577
-0.0304921
-0.036672
-0.0431386
-0.0498394
-0.0567284
-0.0637651
-0.0709138
-0.0781434
-0.0854267
-0.0927397
-0.100061
-0.107372
-0.114655
-0.121895
-0.129075
-0.136182
-0.143202
-0.150118
-0.156916
-0.163579
-0.170091
-0.17643
-0.182577
-0.188508
-0.194197
-0.199617
-0.204736
-0.20952
-0.213933
-0.217934
-0.221479
-0.224522
-0.227013
-0.228899
-0.230126
-0.230637
-0.230376
-0.229286
-0.227313
-0.224405
-0.220516
-0.21561
-0.209659
-0.20265
-0.194584
-0.185485
-0.175397
-0.164388
-0.152553
-0.140015
-0.126923
-0.113452
-0.0997996
-0.0861822
-0.072829
-0.0599758
-0.0478573
-0.0367002
-0.0267157
-0.0180941
-0.0109937
-0.00553288
-0.00186617
-0.000253944
-0.000172369
-0.00114084
-0.00322109
-0.00618293
-0.00988693
-0.0142444
-0.0191684
-0.0245771
-0.0303966
-0.0365606
-0.04301
-0.0496922
-0.0565611
-0.0635761
-0.0707017
-0.0779072
-0.0851657
-0.092454
-0.0997517
-0.107041
-0.114305
-0.12153
-0.128702
-0.135808
-0.142835
-0.14977
-0.156599
-0.163308
-0.169881
-0.176301
-0.182548
-0.188601
-0.194437
-0.200029
-0.205347
-0.210358
-0.215028
-0.219315
-0.223176
-0.226565
-0.229431
-0.231719
-0.233372
-0.234331
-0.234533
-0.233917
-0.23242
-0.229983
-0.226551
-0.222075
-0.216516
-0.209849
-0.202062
-0.193167
-0.183194
-0.172203
-0.160281
-0.147546
-0.134146
-0.120259
-0.106092
-0.0918739
-0.0778513
-0.0642816
-0.0514246
-0.0395334
-0.0288473
-0.0195838
-0.011927
-0.00601751
-0.00203618
-0.000279013
-0.000170612
-0.001131
-0.00319571
-0.00613733
-0.00981796
-0.0141495
-0.0190455
-0.0244241
-0.0302113
-0.0363405
-0.0427525
-0.0493946
-0.0562203
-0.0631891
-0.0702658
-0.0774199
-0.0846251
-0.0918588
-0.0991016
-0.106336
-0.113548
-0.120724
-0.127852
-0.13492
-0.141917
-0.148833
-0.155654
-0.16237
-0.168966
-0.175427
-0.181737
-0.187875
-0.19382
-0.199548
-0.205032
-0.21024
-0.215137
-0.219686
-0.223844
-0.227564
-0.230795
-0.233481
-0.235564
-0.236982
-0.237667
-0.237553
-0.236571
-0.234652
-0.231733
-0.227754
-0.222662
-0.216419
-0.209
-0.2004
-0.190638
-0.179759
-0.16784
-0.154992
-0.141358
-0.12712
-0.112488
-0.097705
-0.083034
-0.0687548
-0.0551531
-0.0425114
-0.0310992
-0.0211651
-0.0129221
-0.00653652
-0.0022192
-0.000306271
-0.000168302
-0.00111777
-0.00316107
-0.00607431
-0.00972145
-0.0140152
-0.0188696
-0.0242028
-0.0299408
-0.0360168
-0.0423713
-0.0489514
-0.0557106
-0.0626083
-0.0696096
-0.0766842
-0.0838064
-0.0909544
-0.0981095
-0.105256
-0.11238
-0.11947
-0.126515
-0.133506
-0.140434
-0.147289
-0.154062
-0.160742
-0.167318
-0.173778
-0.180107
-0.186287
-0.192301
-0.198126
-0.203736
-0.209104
-0.214196
-0.218976
-0.223403
-0.227431
-0.231011
-0.234085
-0.236595
-0.238475
-0.239656
-0.240066
-0.239631
-0.238274
-0.235922
-0.232503
-0.227953
-0.222218
-0.215258
-0.207052
-0.197601
-0.186938
-0.175123
-0.162258
-0.14848
-0.133967
-0.118935
-0.103635
-0.0883481
-0.0733757
-0.0590312
-0.045628
-0.0334694
-0.0228381
-0.0139799
-0.00709085
-0.00241575
-0.000335848
-0.000165498
-0.0011015
-0.00311816
-0.00599569
-0.00960017
-0.0138452
-0.0186453
-0.0239188
-0.0295914
-0.0355963
-0.0418736
-0.0483701
-0.0550394
-0.0618408
-0.0687395
-0.0757057
-0.0827143
-0.0897441
-0.0967775
-0.1038
-0.110799
-0.117764
-0.124687
-0.13156
-0.138375
-0.145126
-0.151805
-0.158404
-0.164915
-0.171327
-0.177629
-0.183806
-0.189842
-0.195718
-0.201412
-0.206897
-0.212144
-0.217118
-0.221782
-0.22609
-0.229993
-0.233438
-0.236363
-0.238702
-0.240385
-0.241335
-0.241472
-0.240713
-0.238976
-0.236178
-0.232242
-0.227098
-0.22069
-0.212979
-0.203949
-0.193612
-0.182015
-0.169242
-0.155421
-0.140725
-0.12537
-0.109616
-0.093758
-0.07812
-0.0630432
-0.0488747
-0.0359539
-0.0246018
-0.0151009
-0.00768124
-0.00262632
-0.000367875
-0.000162272
-0.00108267
-0.00306825
-0.00590376
-0.00945761
-0.0136443
-0.0183786
-0.023579
-0.0291711
-0.0350878
-0.0412687
-0.0476605
-0.0542165
-0.0608962
-0.0676648
-0.0744932
-0.0813566
-0.0882348
-0.0951112
-0.101972
-0.108807
-0.115608
-0.122366
-0.129077
-0.135735
-0.142336
-0.148874
-0.155345
-0.161741
-0.168056
-0.174281
-0.180404
-0.186413
-0.192292
-0.19802
-0.203577
-0.208933
-0.21406
-0.21892
-0.223472
-0.227669
-0.231458
-0.234779
-0.237566
-0.239748
-0.241244
-0.241971
-0.24184
-0.240759
-0.238636
-0.235381
-0.230909
-0.225147
-0.218035
-0.209538
-0.199647
-0.188387
-0.175827
-0.162079
-0.147306
-0.131722
-0.115591
-0.099221
-0.0829572
-0.0671694
-0.0522396
-0.0385469
-0.0264539
-0.0162849
-0.00830819
-0.00285132
-0.000402481
-0.000158718
-0.00106185
-0.00301286
-0.00580135
-0.00929806
-0.0134182
-0.0180769
-0.0231924
-0.0286901
-0.0345023
-0.0405685
-0.0468349
-0.0532546
-0.0597872
-0.0663981
-0.0730586
-0.0797447
-0.0864371
-0.0931201
-0.0997819
-0.106413
-0.113006
-0.119557
-0.126061
-0.132515
-0.138918
-0.145266
-0.151557
-0.157788
-0.163954
-0.17005
-0.176067
-0.181996
-0.187824
-0.193535
-0.199111
-0.204527
-0.209758
-0.214769
-0.219523
-0.223976