/*--------------------------------*- C++ -*----------------------------------*\
  =========                 |
  \\      /  F ield         | OpenFOAM: The Open Source CFD Toolbox
   \\    /   O peration     | Website:  https://openfoam.org
    \\  /    A nd           | Version:  dev
     \\/     M anipulation  |
\*---------------------------------------------------------------------------*/
FoamFile
{
    format      ascii;
    class       volScalarField;
    location    "34.2";
    object      p;
}
// * * * * * * * * * * * * * * * * * * * * * * * * * * * * * * * * * * * * * //

dimensions      [0 2 -2 0 0 0 0];

internalField   nonuniform List<scalar> 
5184
(
1.39423e-06
-1.0197e-05
-9.60807e-05
-0.000248973
-0.000448399
-0.000677083
-0.000920792
-0.00116755
-0.00140823
-0.00163566
-0.00184444
-0.00203054
-0.00219102
-0.00232379
-0.00242736
-0.00250075
-0.00254326
-0.00255447
-0.00253409
-0.00248197
-0.00239801
-0.00228219
-0.00213458
-0.0019553
-0.00174459
-0.00150284
-0.00123057
-0.00092855
-0.00059776
-0.000239476
0.000144718
0.000552895
0.000982762
0.00143165
0.00189649
0.00237384
0.00285989
0.00335046
0.00384107
0.004327
0.00480329
0.00526487
0.00570662
0.00612345
0.00651041
0.00686279
0.00717623
0.00744678
0.00767109
0.00784641
0.00797074
0.00804287
0.00806246
0.00803006
0.00794718
0.00781626
0.0076407
0.00742481
0.0071738
0.00689374
0.00659149
0.00627465
0.00595154
0.00563112
0.00532294
0.00503708
0.00478406
0.0045745
0.00441836
0.00432408
0.00429714
0.00432442
1.48844e-05
2.41178e-06
-7.21865e-05
-0.000199962
-0.000365232
-0.000555522
-0.000759901
-0.000968767
-0.00117419
-0.00136979
-0.0015505
-0.00171243
-0.0018526
-0.00196879
-0.00205934
-0.00212307
-0.0021591
-0.00216685
-0.00214588
-0.0020959
-0.00201674
-0.00190832
-0.00177064
-0.0016038
-0.00140803
-0.0011837
-0.000931335
-0.000651664
-0.000345646
-1.45006e-05
0.000340266
0.000716837
0.00111306
0.00152645
0.00195416
0.002393
0.00283947
0.00328974
0.00373971
0.00418506
0.00462129
0.0050438
0.00544795
0.00582915
0.00618294
0.00650511
0.00679175
0.00703936
0.00724498
0.00740621
0.00752133
0.00758935
0.00761007
0.00758413
0.00751298
0.00739896
0.00724526
0.00705587
0.00683562
0.00659004
0.0063254
0.00604856
0.00576697
0.00548855
0.00522161
0.00497473
0.00475658
0.00457553
0.00443889
0.00435259
0.00432403
0.00435162
0.000101566
7.68508e-05
1.50899e-06
-0.000116042
-0.000263766
-0.000432027
-0.000612114
-0.000796194
-0.000977565
-0.00115067
-0.001311
-0.00145496
-0.00157974
-0.00168319
-0.00176364
-0.00181985
-0.00185091
-0.00185611
-0.00183497
-0.00178711
-0.00171231
-0.00161042
-0.0014814
-0.00132531
-0.00114234
-0.000932822
-0.000697238
-0.000436269
-0.000150814
0.000157984
0.000488714
0.000839671
0.00120885
0.00159391
0.00199221
0.00240079
0.00281636
0.00323538
0.00365403
0.0040683
0.00447402
0.00486692
0.00524271
0.00559714
0.0059261
0.00622571
0.00649237
0.00672288
0.00691454
0.00706516
0.00717323
0.00723788
0.00725901
0.00723726
0.00717407
0.00707169
0.00693311
0.00676212
0.0065632
0.0063415
0.00610281
0.0058534
0.00560006
0.00534988
0.00511026
0.00488863
0.00469249
0.00452889
0.00440386
0.00432263
0.00429485
0.00432548
0.000256615
0.000205215
0.00011741
-1.54935e-06
-0.000143997
-0.000302153
-0.000468893
-0.000637846
-0.000803473
-0.000961083
-0.00110681
-0.0012375
-0.00135067
-0.00144434
-0.00151699
-0.00156743
-0.00159475
-0.00159828
-0.00157748
-0.00153197
-0.00146144
-0.00136573
-0.00124474
-0.00109849
-0.000927102
-0.000730846
-0.000510145
-0.000265605
1.96192e-06
0.000291508
0.000601732
0.000931053
0.0012776
0.00163921
0.00201339
0.00239736
0.00278805
0.00318212
0.00357599
0.00396587
0.00434783
0.00471785
0.00507186
0.00540586
0.00571596
0.0059985
0.00625008
0.00646769
0.00664878
0.00679132
0.00689387
0.00695566
0.00697661
0.00695738
0.00689936
0.0068047
0.00667627
0.00651766
0.00633309
0.00612742
0.00590603
0.00567476
0.00543982
0.00520771
0.00498508
0.00477862
0.00459492
0.00444027
0.00432009
0.00423945
0.00420841
0.00423367
0.000461384
0.000372789
0.000264195
0.000136493
-7.86776e-06
-0.000162723
-0.000322301
-0.000481601
-0.000636212
-0.000782334
-0.000916785
-0.00103695
-0.00114073
-0.00122642
-0.0012927
-0.00133851
-0.00136303
-0.00136561
-0.00134573
-0.00130299
-0.00123707
-0.00114775
-0.0010349
-0.000898457
-0.000738492
-0.000555192
-0.000348895
-0.000120114
0.000130443
0.000401843
0.00069291
0.0010022
0.00132799
0.00166826
0.0020207
0.00238271
0.00275139
0.00312358
0.0034959
0.00386476
0.0042264
0.00457699
0.00491266
0.00522957
0.005524
0.00579241
0.00603157
0.00623858
0.00641098
0.00654682
0.00664472
0.00670396
0.00672444
0.00670681
0.00665241
0.00656329
0.0064422
0.00629256
0.00611839
0.00592427
0.00571523
0.00549674
0.00527454
0.0050546
0.00484295
0.00464563
0.00446856
0.00431736
0.00419698
0.00411218
0.00407179
0.00408163
0.00069971
0.000567695
0.000432534
0.000290496
0.000138569
-1.84766e-05
-0.000176032
-0.000330357
-0.000478115
-0.000616381
-0.000742682
-0.000854968
-0.000951568
-0.00103113
-0.00109257
-0.00113502
-0.00115776
-0.00116023
-0.00114194
-0.00110251
-0.00104159
-0.000958936
-0.000854348
-0.000727715
-0.00057902
-0.000408362
-0.000215979
-2.27221e-06
0.00023217
0.000486543
0.000759808
0.00105067
0.00135755
0.00167859
0.00201164
0.00235425
0.00270371
0.00305701
0.00341092
0.003762
0.00410666
0.0044412
0.00476186
0.00506492
0.00534677
0.00560396
0.00583332
0.006032
0.00619761
0.00632821
0.00642245
0.00647957
0.00649948
0.00648277
0.00643071
0.00634527
0.00622909
0.00608542
0.0059181
0.00573149
0.00553035
0.0053198
0.00510521
0.00489209
0.00468599
0.00449241
0.00431666
0.00416381
0.00403843
0.0039449
0.00388971
0.00387664
0.000957806
0.000779054
0.000613522
0.000452986
0.000289071
0.000125386
-3.44469e-05
-0.000187827
-0.00033242
-0.000466139
-0.00058721
-0.000694162
-0.000785786
-0.0008611
-0.000919302
-0.000959731
-0.000981832
-0.00098513
-0.000969207
-0.000933687
-0.000878235
-0.000802557
-0.000706407
-0.000589599
-0.000452029
-0.000293695
-0.000114721
8.46167e-05
0.000303861
0.000542351
0.000799192
0.00107324
0.00136307
0.00166699
0.001983
0.0023088
0.00264181
0.00297917
0.00331779
0.00365433
0.00398532
0.00430713
0.0046161
0.00490856
0.00518095
0.00542983
0.00565206
0.0058448
0.00600563
0.00613259
0.0062243
0.00627996
0.00629941
0.00628318
0.00623247
0.00614916
0.00603575
0.00589539
0.00573176
0.005549
0.00535167
0.00514464
0.00493294
0.00472174
0.00451619
0.00432133
0.00414203
0.00398286
0.00384806
0.00374167
0.00366736
0.00362635
0.00122355
0.000996726
0.000798564
0.000616672
0.000437566
0.000263884
9.84171e-05
-5.72633e-05
-0.000201748
-0.000333739
-0.000452142
-0.000556055
-0.000644742
-0.000717602
-0.000774134
-0.000813909
-0.000836541
-0.000841673
-0.000828956
-0.000798046
-0.000748607
-0.000680312
-0.000592858
-0.000485984
-0.000359489
-0.000213258
-4.72907e-05
0.000138272
0.000343118
0.000566737
0.000808391
0.00106709
0.00134158
0.0016303
0.00193141
0.00224275
0.00256188
0.00288605
0.00321227
0.0035373
0.00385771
0.00416994
0.00447036
0.00475531
0.00502122
0.00526464
0.00548238
0.00567154
0.00582965
0.00595467
0.00604515
0.0061002
0.00611959
0.00610373
0.00605374
0.00597139
0.0058591
0.00571988
0.00555726
0.00537526
0.00517826
0.00497088
0.00475796
0.00454438
0.00433497
0.00413445
0.00394729
0.00377768
0.00362961
0.00350683
0.00341006
0.00333789
0.00148667
0.00121156
0.000979599
0.00077452
0.000577998
0.000391868
0.000218214
5.76757e-05
-8.91877e-05
-0.000221819
-0.000339766
-0.000442683
-0.000530298
-0.000602392
-0.000658771
-0.000699245
-0.000723607
-0.000731622
-0.000723019
-0.000697491
-0.000654698
-0.000594282
-0.000515881
-0.000419148
-0.00030378
-0.00016954
-1.62932e-05
0.000155966
0.000347081
0.000556701
0.000784251
0.00102891
0.00128957
0.00156483
0.001853
0.00215206
0.00245967
0.00277318
0.0030897
0.00340602
0.00371878
0.00402442
0.0043193
0.00459972
0.00486207
0.00510283
0.00531871
0.00550672
0.00566427
0.00578922
0.00587996
0.00593551
0.0059555
0.00594024
0.00589072
0.00580861
0.00569621
0.00555642
0.00539268
0.00520885
0.00500919
0.00479819
0.00458048
0.00436075
0.00414363
0.00393358
0.00373479
0.00355113
0.00338648
0.00324437
0.00312262
0.00301729
0.00173819
0.00141529
0.00114913
0.000919797
0.000704397
0.000504086
0.00032034
0.000152957
1.70994e-06
-0.000133532
-0.000252927
-0.000356657
-0.0004449
-0.000517809
-0.000575494
-0.000618001
-0.000645303
-0.00065729
-0.000653766
-0.000634461
-0.00059903
-0.00054708
-0.000478182
-0.0003919
-0.000287818
-0.000165571
-2.48775e-05
0.000134423
0.00031234
0.00050869
0.00072307
0.000954823
0.00120301
0.0014664
0.00174341
0.00203217
0.00233043
0.00263566
0.002945
0.0032553
0.0035632
0.00386512
0.00415737
0.0044362
0.00469789
0.0049388
0.00515553
0.00534492
0.00550423
0.00563114
0.00572389
0.00578132
0.00580291
0.00578883
0.00573992
0.00565772
0.00554443
0.00540284
0.00523627
0.00504852
0.00484372
0.00462627
0.00440069
0.00417154
0.00394331
0.00372031
0.00350655
0.00330569
0.00312159
0.00295769
0.00280905
0.00266934
0.00197017
0.00160042
0.00130018
0.0010461
0.000810942
0.000595285
0.000400073
0.000224333
6.71102e-05
-7.23696e-05
-0.000194836
-0.000300972
-0.000391383
-0.000466582
-0.000526969
-0.000572819
-0.000604278
-0.000621354
-0.000623927
-0.000611753
-0.000584481
-0.000541674
-0.000482832
-0.00040742
-0.000314902
-0.000204774
-7.66004e-05
6.99465e-05
0.000235048
0.000418701
0.00062068
0.000840505
0.0010774
0.0013303
0.00159776
0.00187802
0.00216897
0.00246812
0.00277266
0.00307948
0.00338518
0.00368617
0.00397867
0.00425883
0.00452277
0.00476674
0.00498711
0.00518057
0.00534413
0.00547529
0.00557206
0.00563307
0.00565762
0.00564567
0.00559791
0.00551573
0.0054012
0.00525701
0.00508639
0.00489306
0.00468109
0.00445482
0.00421872
0.0039773
0.00373498
0.003496
0.0032643
0.00304346
0.0028374
0.00264961
0.00247254
0.00229762
0.00217546
0.00176007
0.00142623
0.00114733
0.000891985
0.000660265
0.000452641
0.000267422
0.000102977
-4.20702e-05
-0.000168987
-0.000278928
-0.000372904
-0.000451765
-0.000516187
-0.000566663
-0.000603497
-0.000626811
-0.000636545
-0.000632479
-0.000614245
-0.000581356
-0.000533231
-0.000469229
-0.000388683
-0.000290939
-0.000175399
-4.15594e-05
0.000110946
0.000282302
0.000472471
0.000681155
0.000907759
0.00115136
0.00141069
0.00168409
0.00196955
0.00226466
0.00256665
0.0028724
0.00317851
0.00348129
0.00377688
0.00406129
0.00433047
0.00458047
0.00480744
0.00500782
0.00517837
0.00531633
0.00541945
0.0054861
0.00551532
0.00550686
0.00546122
0.00537961
0.00526394
0.00511681
0.00494136
0.00474124
0.0045205
0.00428346
0.0040346
0.00377842
0.00351938
0.00326176
0.00300948
0.00276614
0.00253586
0.00232232
0.00211548
0.00190468
0.00234752
0.00188785
0.00152116
0.00121767
0.000942055
0.000693907
0.000473262
0.000277759
0.000105131
-4.65652e-05
-0.000179103
-0.00029408
-0.000392887
-0.000476693
-0.000546428
-0.000602787
-0.00064622
-0.000676946
-0.000694959
-0.000700048
-0.000691821
-0.000669728
-0.000633098
-0.000581175
-0.00051315
-0.000428212
-0.000325586
-0.00020458
-6.4636e-05
9.46311e-05
0.000273382
0.000471511
0.000688609
0.000923922
0.00117633
0.00144431
0.00172594
0.00201889
0.00232042
0.00262742
0.00293643
0.00324369
0.0035452
0.00383681
0.00411429
0.00437342
0.00461011
0.0048205
0.00500105
0.00514868
0.00526082
0.00533553
0.00537157
0.00536841
0.00532631
0.00524627
0.00513005
0.00498009
0.00479947
0.0045918
0.00436111
0.00411175
0.00384824
0.00357519
0.00329713
0.00301845
0.00274319
0.00247506
0.00221851
0.00197747
0.00173959
0.00149219
0.00248025
0.00197781
0.00157918
0.00125158
0.000955866
0.000691192
0.000457185
0.000250846
6.93035e-05
-8.99197e-05
-0.000229075
-0.000350179
-0.000454977
-0.000544932
-0.000621213
-0.000684695
-0.000735959
-0.000775306
-0.00080277
-0.000818137
-0.000820978
-0.000810671
-0.000786445
-0.000747413
-0.000692618
-0.000621076
-0.000531826
-0.000423978
-0.000296766
-0.000149593
1.7911e-05
0.000205848
0.000414002
0.000641802
0.000888286
0.00115207
0.00143135
0.00172385
0.00202687
0.00233731
0.00265163
0.002966
0.00327627
0.00357809
0.00386702
0.00413855
0.00438829
0.00461203
0.00480588
0.00496639
0.00509062
0.00517626
0.00522171
0.00522613
0.00518947
0.0051125
0.00499678
0.0048446
0.00465895
0.0044434
0.004202
0.00393915
0.00365948
0.00336774
0.00306863
0.00276674
0.00246631
0.00217126
0.00188645
0.00161623
0.00134596
0.00106107
0.00256795
0.00202432
0.00159483
0.00124375
0.000928311
0.000647223
0.00039972
0.00018219
-8.81394e-06
-0.00017628
-0.000322912
-0.000451119
-0.00056298
-0.00066023
-0.000744255
-0.000816091
-0.000876435
-0.000925652
-0.000963802
-0.000990655
-0.00100573
-0.00100832
-0.000997547
-0.000972378
-0.000931693
-0.000874328
-0.000799121
-0.00070497
-0.000590888
-0.000456054
-0.00029987
-0.000122014
7.75096e-05
0.000298325
0.000539645
0.000800239
0.00107841
0.00137198
0.00167829
0.00199421
0.00231618
0.00264025
0.00296212
0.00327723
0.00358086
0.00386822
0.00413455
0.00437527
0.00458608
0.00476307
0.00490288
0.00500277
0.00506073
0.00507551
0.00504674
0.00497488
0.00486124
0.00470796
0.00451791
0.00429462
0.00404217
0.00376505
0.00346805
0.00315611
0.00283418
0.00250712
0.00217947
0.00185546
0.00154046
0.00123932
0.000935211
0.000611623
0.00260519
0.00202206
0.00156288
0.00118912
0.000854472
0.00055724
0.000296266
6.73439e-05
-0.000133527
-0.000309825
-0.000464684
-0.000600884
-0.000720814
-0.000826462
-0.000919409
-0.00100084
-0.00107153
-0.00113192
-0.00118206
-0.0012217
-0.00125029
-0.00126703
-0.00127091
-0.00126075
-0.00123525
-0.00119305
-0.00113277
-0.0010531
-0.000952801
-0.000830812
-0.000686295
-0.000518687
-0.000327762
-0.000113681
0.000122963
0.000381108
0.000659191
0.000955132
0.00126633
0.00158965
0.0019215
0.0022578
0.0025941
0.00292562
0.00324734
0.00355414
0.00384087
0.0041025
0.00433426
0.00453176
0.00469112
0.00480911
0.0048832
0.00491171
0.00489384
0.0048297
0.00472031
0.0045676
0.00437429
0.00414389
0.0038805
0.00358873
0.00327358
0.00294022
0.00259394
0.00223994
0.00188315
0.00152819
0.00118104
0.000847164
0.000507536
0.000143712
0.00258683
0.00196598
0.00147839
0.00108283
0.000729619
0.000416637
0.000142337
-9.80613e-05
-0.000309099
-0.000494723
-0.000658479
-0.000803497
-0.000932458
-0.00104758
-0.00115062
-0.0012429
-0.00132526
-0.00139818
-0.0014617
-0.00151553
-0.00155904
-0.00159132
-0.00161122
-0.0016174
-0.00160837
-0.00158255
-0.00153836
-0.0014742
-0.00138862
-0.00128027
-0.00114807
-0.000991189
-0.000809144
-0.000601859
-0.000369708
-0.00011356
0.000165179
0.00046455
0.000782019
0.00111449
0.0014583
0.0018093
0.00216285
0.00251394
0.00285725
0.00318728
0.00349845
0.00378524
0.00404236
0.00426485
0.00444824
0.00458871
0.00468317
0.00472939
0.00472608
0.00467291
0.00457056
0.00442068
0.00422585
0.00398949
0.00371575
0.00340939
0.00307561
0.00271992
0.00234798
0.00196543
0.00157766
0.00118978
0.000808488
0.000439927
6.28551e-05
-0.000343155
0.00250797
0.00185126
0.00133664
0.000920261
0.000549224
0.000220978
-6.64092e-05
-0.000318284
-0.00053971
-0.000735086
-0.000908354
-0.00106298
-0.0012019
-0.00132757
-0.00144189
-0.00154629
-0.00164169
-0.00172856
-0.00180694
-0.00187648
-0.00193646
-0.00198583
-0.00202331
-0.00204737
-0.00205632
-0.00204836
-0.00202164
-0.00197435
-0.00190471
-0.00181114
-0.00169224
-0.0015469
-0.00137437
-0.00117429
-0.000946789
-0.00069252
-0.000412694
-0.000109124
0.000215756
0.000558889
0.000916604
0.00128464
0.00165822
0.00203207
0.00240056
0.00275778
0.0030977
0.00341425
0.00370154
0.00395397
0.00416642
0.00433437
0.00445407
0.00452267
0.00453827
0.00450003
0.0044082
0.0042641
0.0040701
0.00382953
0.00354656
0.00322611
0.00287363
0.002495
0.00209632
0.00168377
0.00126325
0.000840485
0.000422963
1.7609e-05
-0.000399115
-0.000849697
0.00236394
0.00167335
0.00113315
0.000697022
0.000308971
-3.39795e-05
-0.00033415
-0.000597439
-0.00082942
-0.00103493
-0.00121829
-0.00138328
-0.0015331
-0.00167038
-0.00179719
-0.00191504
-0.00202489
-0.00212723
-0.00222206
-0.00230895
-0.00238708
-0.00245528
-0.00251208
-0.00255578
-0.00258446
-0.00259609
-0.00258857
-0.00255977
-0.00250767
-0.00243034
-0.00232609
-0.0021935
-0.00203149
-0.00183942
-0.00161712
-0.00136499
-0.00108401
-0.000775807
-0.000442684
-8.76238e-05
0.000285709
0.00067299
0.00106927
0.00146906
0.00186639
0.00225494
0.00262815
0.00297937
0.00330206
0.0035899
0.00383701
0.00403809
0.00418862
0.004285
0.00432462
0.00430605
0.00422899
0.00409436
0.00390425
0.00366186
0.00337137
0.00303784
0.00266702
0.00226518
0.00183896
0.0013951
0.00094016
0.000480513
2.45713e-05
-0.000419868
-0.00087876
-0.00137676
0.00215034
0.00142794
0.000863717
0.000408963
4.77184e-06
-0.000352266
-0.000664865
-0.000939465
-0.00118213
-0.00139813
-0.00159215
-0.00176825
-0.0019299
-0.00207989
-0.00222043
-0.00235309
-0.0024789
-0.0025983
-0.00271127
-0.00281729
-0.00291542
-0.00300435
-0.00308244
-0.00314776
-0.0031982
-0.00323145
-0.00324512
-0.00323682
-0.00320418
-0.00314496
-0.00305711
-0.00293888
-0.00278884
-0.00260601
-0.0023899
-0.00214058
-0.00185879
-0.00154591
-0.00120408
-0.000836143
-0.000445739
-3.72279e-05
0.000384316
0.000813166
0.00124302
0.00166713
0.0020784
0.00246954
0.00283328
0.00316251
0.00345048
0.00369102
0.00387872
0.00400908
0.0040787
0.00408538
0.00402819
0.00390755
0.00372519
0.0034841
0.00318845
0.00284343
0.0024551
0.00203018
0.00157587
0.00109959
0.000608621
0.000110091
-0.000386567
-0.000872583
-0.00137648
-0.00192523
0.00186301
0.001111
0.000524378
5.21951e-05
-0.000367207
-0.000737674
-0.00106231
-0.00134809
-0.00160156
-0.00182839
-0.00203361
-0.0022216
-0.00239601
-0.00255984
-0.00271539
-0.00286431
-0.00300762
-0.00314579
-0.0032787
-0.00340576
-0.00352591
-0.00363766
-0.00373921
-0.0038284
-0.00390287
-0.00396006
-0.00399728
-0.00401181
-0.00400095
-0.0039621
-0.00389285
-0.00379104
-0.00365488
-0.003483
-0.00327453
-0.0030292
-0.00274741
-0.00243027
-0.00207966
-0.0016983
-0.0012897
-0.000858246
-0.000409095
5.18146e-05
0.000517865
0.000981851
0.00143612
0.00187271
0.00228355
0.00266065
0.00299632
0.00328337
0.00351536
0.00368679
0.00379328
0.00383174
0.00380048
0.00369927
0.00352939
0.00329355
0.00299584
0.00264158
0.00223713
0.00178969
0.00130707
0.000797471
0.000268965
-0.000270463
-0.000810245
-0.00134053
-0.0018926
-0.00249592
0.00149807
0.00071877
0.000111469
-0.000376888
-0.000810529
-0.00119373
-0.00152999
-0.0018268
-0.00209117
-0.00232917
-0.00254617
-0.00274681
-0.00293497
-0.00311378
-0.00328567
-0.00345232
-0.0036148
-0.00377352
-0.0039283
-0.00407846
-0.00422279
-0.00435966
-0.00448705
-0.00460259
-0.00470367
-0.00478742
-0.00485087
-0.00489094
-0.00490458
-0.0048888
-0.00484078
-0.00475795
-0.00463808
-0.00447937
-0.00428054
-0.00404089
-0.00376044
-0.00343995
-0.00308102
-0.00268613
-0.00225864
-0.00180287
-0.00132405
-0.000828276
-0.000322476
0.000185709
0.000688041
0.00117585
0.00164021
0.00207218
0.00246298
0.00280432
0.00308857
0.00330907
0.00346029
0.00353809
0.00353984
0.00346455
0.00331288
0.00308718
0.00279137
0.00243086
0.0020123
0.00154339
0.00103265
0.00048908
-7.83449e-05
-0.00066068
-0.0012461
-0.00182355
-0.00242729
-0.00308947
0.00105197
0.00024782
-0.000378365
-0.00088159
-0.00132846
-0.00172367
-0.00207112
-0.0023788
-0.00265417
-0.00290369
-0.00313304
-0.00334711
-0.00355001
-0.003745
-0.0039346
-0.00412055
-0.00430391
-0.00448505
-0.00466375
-0.0048392
-0.00501005
-0.00517451
-0.00533035
-0.00547497
-0.00560548
-0.00571875
-0.00581145
-0.00588016
-0.00592143
-0.00593186
-0.00590819
-0.0058474
-0.00574676
-0.00560401
-0.00541737
-0.00518568
-0.0049085
-0.00458617
-0.00421992
-0.00381192
-0.00336533
-0.00288434
-0.00237415
-0.001841
-0.00129209
-0.000735466
-0.00017996
0.000365014
0.000889635
0.0013839
0.00183789
0.00224203
0.00258737
0.00286588
0.00307075
0.00319656
0.00323956
0.00319779
0.00307118
0.00286154
0.00257256
0.00220964
0.00177973
0.00129103
0.000752783
0.000174895
-0.000432658
-0.00105987
-0.00169351
-0.00232122
-0.00298047
-0.00370631
0.000521469
-0.000304957
-0.000948149
-0.00146488
-0.00192393
-0.0023304
-0.00268861
-0.00300699
-0.00329346
-0.00355484
-0.00379712
-0.00402544
-0.00424409
-0.00445649
-0.00466521
-0.00487206
-0.00507809
-0.00528363
-0.00548839
-0.00569143
-0.00589129
-0.00608599
-0.00627309
-0.00644976
-0.00661283
-0.00675885
-0.00688417
-0.00698498
-0.00705743
-0.00709767
-0.00710196
-0.00706678
-0.00698888
-0.00686545
-0.00669418
-0.00647336
-0.00620201
-0.00587999
-0.00550807
-0.00508803
-0.00462271
-0.00411611
-0.00357334
-0.00300071
-0.00240561
-0.0017965
-0.00118277
-0.000574598
1.72512e-05
0.000581662
0.00110744
0.00158359
0.0019997
0.00234619
0.00261471
0.00279837
0.00289209
0.00289272
0.00279924
0.00261278
0.00233664
0.00197615
0.00153847
0.00103234
0.000467752
-0.000144411
-0.000793077
-0.00146706
-0.00215158
-0.00283281
-0.00355172
-0.00434651
-9.6271e-05
-0.000942297
-0.00160054
-0.00212939
-0.00259953
-0.00301651
-0.003385
-0.00371392
-0.00401159
-0.00428519
-0.00454098
-0.00478437
-0.00501981
-0.00525084
-0.00548014
-0.00570954
-0.00594008
-0.00617206
-0.0064051
-0.00663817
-0.00686966
-0.0070974
-0.00731876
-0.00753066
-0.00772965
-0.00791197
-0.0080736
-0.00821035
-0.00831793
-0.00839201
-0.00842836
-0.0084229
-0.00837182
-0.0082717
-0.0081196
-0.00791322
-0.00765097
-0.00733212
-0.00695688
-0.00652654
-0.00604356
-0.00551161
-0.00493564
-0.00432192
-0.00367799
-0.00301266
-0.00233584
-0.00165848
-0.000992299
-0.000349605
0.000257033
0.000815099
0.00131249
0.00173791
0.00208122
0.00233384
0.00248906
0.00254232
0.0024914
0.00233655
0.00208051
0.0017284
0.00128753
0.000767136
0.000178013
-0.000467921
-0.00115839
-0.00188092
-0.00261899
-0.00335715
-0.00414019
-0.00500969
-0.000803704
-0.00166654
-0.00233783
-0.00287734
-0.00335747
-0.00378417
-0.00416249
-0.00450177
-0.00481074
-0.00509689
-0.00536679
-0.00562606
-0.00587933
-0.00613025
-0.00638158
-0.00663519
-0.00689212
-0.00715262
-0.00741625
-0.00768185
-0.00794769
-0.00821142
-0.0084702
-0.00872071
-0.00895921
-0.00918162
-0.00938356
-0.00956043
-0.00970748
-0.00981988
-0.00989286
-0.00992176
-0.00990213
-0.00982991
-0.00970147
-0.00951381
-0.00926465
-0.00895256
-0.00857713
-0.00813904
-0.00764022
-0.00708393
-0.00647484
-0.00581908
-0.00512425
-0.00439941
-0.00365496
-0.00290258
-0.00215498
-0.00142568
-0.000728722
-7.82794e-05
0.000511703
0.00102796
0.00145836
0.00179232
0.00202122
0.0021388
0.00214135
0.002028
0.00180069
0.00146418
0.00102583
0.000495304
-0.00011579
-0.000794425
-0.00152703
-0.00229967
-0.00309393
-0.00389258
-0.0047445
-0.00569497
-0.00160284
-0.00247962
-0.00316187
-0.00371057
-0.00419957
-0.00463519
-0.00502285
-0.00537231
-0.00569265
-0.0059917
-0.00627628
-0.00655223
-0.00682433
-0.00709639
-0.0073712
-0.00765069
-0.00793588
-0.00822701
-0.00852354
-0.00882424
-0.00912722
-0.00942998
-0.00972946
-0.0100221
-0.0103039
-0.0105704
-0.0108169
-0.0110384
-0.0112296
-0.0113852
-0.0114999
-0.0115682
-0.0115853
-0.0115461
-0.0114465
-0.0112825
-0.0110512
-0.0107503
-0.0103786
-0.00993615
-0.00942418
-0.00884542
-0.00820412
-0.00750615
-0.00675905
-0.00597203
-0.00515592
-0.00432305
-0.0034871
-0.00266285
-0.00186587
-0.00111212
-0.000417556
0.000202381
0.000733274
0.00116225
0.00147847
0.00167359
0.00174214
0.00168176
0.00149336
0.00118111
0.00075225
0.00021682
-0.000412781
-0.00112236
-0.00189695
-0.00272102
-0.00357406
-0.0044368
-0.00536264
-0.00640078
-0.00249524
-0.003383
-0.00407409
-0.00463048
-0.0051272
-0.00557094
-0.00596744
-0.00632687
-0.00665864
-0.00697089
-0.00727069
-0.00756408
-0.00785601
-0.00815038
-0.00845009
-0.00875708
-0.00907239
-0.00939622
-0.00972798
-0.0100663
-0.0104093
-0.0107541
-0.0110977
-0.0114361
-0.0117651
-0.0120799
-0.0123755
-0.0126463
-0.0128867
-0.0130907
-0.0132524
-0.0133659
-0.0134253
-0.013425
-0.0133599
-0.0132254
-0.0130174
-0.0127329
-0.0123698
-0.0119272
-0.0114057
-0.0108073
-0.0101356
-0.00939616
-0.00859629
-0.00774522
-0.00685407
-0.00593577
-0.00500492
-0.00407755
-0.00317079
-0.0023025
-0.00149081
-0.000753557
-0.000107707
0.00043124
0.000849864
0.00113738
0.00128613
0.00129192
0.0011543
0.000876553
0.000465629
-6.8208e-05
-0.000711802
-0.00144977
-0.00226561
-0.00314207
-0.0040563
-0.00498682
-0.00599183
-0.00712481
-0.00348195
-0.0043777
-0.00507549
-0.00563806
-0.00614134
-0.00659235
-0.00699718
-0.00736634
-0.00770957
-0.00803527
-0.00835078
-0.0086623
-0.00897496
-0.00929276
-0.00961869
-0.00995472
-0.0103019
-0.0106605
-0.0110297
-0.0114082
-0.0117939
-0.012184
-0.012575
-0.0129628
-0.013343
-0.0137105
-0.0140597
-0.0143848
-0.0146795
-0.0149375
-0.0151521
-0.0153166
-0.0154246
-0.0154695
-0.0154453
-0.0153465
-0.0151681
-0.014906
-0.0145571
-0.0141197
-0.0135933
-0.012979
-0.0122799
-0.0115007
-0.0106486
-0.00973254
-0.00876385
-0.00775595
-0.00672424
-0.00568595
-0.00465982
-0.00366568
-0.00272395
-0.00185507
-0.00107887
-0.00041378
0.000123785
0.000520172
0.000765087
0.000852091
0.00077894
0.000547724
0.000164801
-0.000359504
-0.00101136
-0.00177417
-0.00262984
-0.0035592
-0.00453683
-0.00553876
-0.00662843
-0.00786382
-0.00456352
-0.00546424
-0.00616658
-0.0067338
-0.00724247
-0.00769991
-0.00811253
-0.00849114
-0.00884579
-0.00918513
-0.00951673
-0.00984698
-0.0101812
-0.0105234
-0.0108767
-0.0112432
-0.011624
-0.0120191
-0.012428
-0.0128491
-0.0132803
-0.0137185
-0.0141602
-0.0146011
-0.0150365
-0.0154609
-0.0158684
-0.0162528
-0.0166073
-0.016925
-0.0171984
-0.0174204
-0.0175834
-0.0176803
-0.017704
-0.0176479
-0.017506
-0.0172731
-0.0169451
-0.0165189
-0.0159932
-0.0153679
-0.0146453
-0.0138294
-0.0129267
-0.0119459
-0.0108982
-0.0097975
-0.00865979
-0.00750346
-0.00634879
-0.00521763
-0.0041328
-0.00311757
-0.00219483
-0.00138636
-0.000711944
-0.000188593
0.000170273
0.000355449
0.000362433
0.000191686
-0.00015136
-0.000656564
-0.00130956
-0.00209254
-0.00298576
-0.00396796
-0.00501088
-0.0060878
-0.00726774
-0.00861355
-0.00573996
-0.00664265
-0.00734739
-0.00791776
-0.00843065
-0.00889367
-0.00931349
-0.00970121
-0.0100672
-0.0104202
-0.0107682
-0.0111176
-0.011474
-0.0118415
-0.0122233
-0.0126215
-0.0130372
-0.0134706
-0.0139211
-0.014387
-0.0148661
-0.0153554
-0.015851
-0.0163485
-0.0168429
-0.0173285
-0.0177991
-0.0182478
-0.0186675
-0.0190506
-0.0193892
-0.0196751
-0.0199001
-0.020056
-0.0201348
-0.0201289
-0.0200311
-0.0198349
-0.0195351
-0.0191273
-0.0186088
-0.0179787
-0.0172378
-0.0163893
-0.0154389
-0.0143948
-0.013268
-0.0120724
-0.0108247
-0.00954408
-0.00825242
-0.00697352
-0.00573271
-0.00455618
-0.0034702
-0.00250019
-0.00166979
-0.000999829
-0.000507436
-0.000205151
-0.000100298
-0.000194562
-0.000483869
-0.000958586
-0.001604
-0.00240119
-0.00332865
-0.00436294
-0.00547262
-0.00662794
-0.00790391
-0.0093685
-0.00701076
-0.00791247
-0.00861752
-0.00918954
-0.00970549
-0.0101732
-0.0105996
-0.010996
-0.011373
-0.0117398
-0.0121042
-0.0124731
-0.012852
-0.0132454
-0.0136564
-0.0140873
-0.0145392
-0.0150124
-0.0155061
-0.0160188
-0.0165482
-0.017091
-0.0176435
-0.018201
-0.0187581
-0.019309
-0.0198471
-0.0203651
-0.0208553
-0.0213097
-0.0217195
-0.022076
-0.02237
-0.0225923
-0.022734
-0.0227861
-0.0227404
-0.0225892
-0.0223256
-0.0219441
-0.0214405
-0.0208124
-0.0200596
-0.019184
-0.0181902
-0.0170858
-0.0158811
-0.0145901
-0.0132296
-0.0118197
-0.0103836
-0.00894708
-0.00753786
-0.00618525
-0.00491906
-0.00376873
-0.00276215
-0.00192454
-0.0012773
-0.000836993
-0.000614401
-0.000613974
-0.000833531
-0.00126437
-0.0018917
-0.00269562
-0.00365286
-0.00473761
-0.00591501
-0.0071519
-0.00852969
-0.0101218
-0.00837484
-0.00927273
-0.00997607
-0.0105483
-0.0110661
-0.0115376
-0.0119699
-0.0123745
-0.0127623
-0.0131425
-0.0135233
-0.0139117
-0.0143134
-0.0147329
-0.0151736
-0.0156378
-0.0161268
-0.0166408
-0.0171791
-0.0177402
-0.0183217
-0.0189205
-0.0195324
-0.0201528
-0.0207761
-0.0213961
-0.0220059
-0.0225979
-0.0231639
-0.0236952
-0.0241824
-0.024616
-0.024986
-0.0252822
-0.0254945
-0.0256129
-0.0256278
-0.02553
-0.0253113
-0.0249647
-0.0244845
-0.0238667
-0.0231095
-0.0222135
-0.0211821
-0.0200216
-0.018742
-0.0173564
-0.015882
-0.0143394
-0.0127528
-0.0111498
-0.00956063
-0.00801765
-0.00655443
-0.00520466
-0.00400094
-0.00297342
-0.00214845
-0.00154727
-0.00118491
-0.0010693
-0.0012008
-0.00157217
-0.00216894
-0.00297041
-0.0039516
-0.00508418
-0.00632959
-0.00765088
-0.00913628
-0.0108649
-0.00983062
-0.010722
-0.0114217
-0.0119928
-0.0125114
-0.0129857
-0.0134231
-0.0138353
-0.0142333
-0.0146265
-0.0150233
-0.0154309
-0.0158552
-0.0163009
-0.0167714
-0.0172692
-0.0177957
-0.0183511
-0.0189349
-0.0195457
-0.0201808
-0.0208373
-0.0215109
-0.0221967
-0.0228892
-0.0235817
-0.0242671
-0.0249375
-0.0255841
-0.0261976
-0.0267681
-0.0272852
-0.0277381
-0.0281155
-0.0284063
-0.0285992
-0.0286832
-0.0286478
-0.0284833
-0.0281808
-0.0277331
-0.0271345
-0.0263815
-0.0254731
-0.0244111
-0.0232007
-0.0218505
-0.0203732
-0.0187855
-0.0171084
-0.0153669
-0.0135902
-0.0118108
-0.0100641
-0.0083875
-0.00681926
-0.00539704
-0.00415644
-0.00312944
-0.00234276
-0.00181648
-0.00156286
-0.0015856
-0.00187957
-0.00243112
-0.00321906
-0.00421679
-0.0053934
-0.00670629
-0.00811437
-0.00971307
-0.0115874
-0.011376
-0.0122584
-0.0129527
-0.0135213
-0.0140395
-0.0145158
-0.0149575
-0.0153765
-0.0157839
-0.0161894
-0.0166016
-0.0170278
-0.0174742
-0.0179455
-0.0184454
-0.0189766
-0.0195405
-0.0201375
-0.0207673
-0.0214282
-0.022118
-0.0228334
-0.0235703
-0.0243237
-0.0250877
-0.0258557
-0.0266201
-0.0273727
-0.0281042
-0.0288049
-0.0294642
-0.0300708
-0.030613
-0.0310788
-0.0314557
-0.0317313
-0.0318931
-0.0319292
-0.0318281
-0.0315794
-0.031174
-0.0306043
-0.0298651
-0.0289534
-0.0278693
-0.0266163
-0.0252018
-0.0236373
-0.0219389
-0.0201275
-0.0182287
-0.0162728
-0.0142945
-0.0123321
-0.0104269
-0.00862169
-0.0069596
-0.00548222
-0.00422781
-0.0032294
-0.00251305
-0.0020963
-0.00198709
-0.00218323
-0.00267254
-0.00343376
-0.00443886
-0.00565433
-0.00703321
-0.00852991
-0.0102474
-0.0122769
-0.0130084
-0.0138796
-0.0145669
-0.0151318
-0.0156487
-0.0161258
-0.0165709
-0.0169957
-0.0174116
-0.0178284
-0.018255
-0.0186988
-0.0191661
-0.019662
-0.0201905
-0.0207542
-0.0213549
-0.0219931
-0.0226685
-0.0233797
-0.0241244
-0.0248994
-0.0257006
-0.0265228
-0.0273603