/*--------------------------------*- C++ -*----------------------------------*\
  =========                 |
  \\      /  F ield         | OpenFOAM: The Open Source CFD Toolbox
   \\    /   O peration     | Website:  https://openfoam.org
    \\  /    A nd           | Version:  dev
     \\/     M anipulation  |
\*---------------------------------------------------------------------------*/
FoamFile
{
    format      ascii;
    class       volScalarField;
    location    "34.2";
    object      Ux;
}
// * * * * * * * * * * * * * * * * * * * * * * * * * * * * * * * * * * * * * //

dimensions      [0 1 -1 0 0 0 0];

internalField   nonuniform List<scalar> 
5184
(
1.23553e-05
4.52157e-05
8.0364e-05
9.60178e-05
8.21885e-05
3.64909e-05
-4.05289e-05
-0.000146852
-0.000279687
-0.000435975
-0.000612596
-0.000806516
-0.00101487
-0.00123498
-0.0014644
-0.00170087
-0.00194232
-0.00218682
-0.0024326
-0.00267797
-0.00292132
-0.0031611
-0.00339578
-0.00362382
-0.00384371
-0.0040539
-0.00425284
-0.00443895
-0.00461065
-0.00476637
-0.00490455
-0.00502365
-0.00512223
-0.0051989
-0.0052524
-0.00528161
-0.0052856
-0.00526364
-0.00521522
-0.00514011
-0.00503838
-0.0049104
-0.00475689
-0.00457888
-0.0043778
-0.00415538
-0.00391373
-0.00365527
-0.00338274
-0.00309913
-0.00280768
-0.00251183
-0.00221513
-0.00192125
-0.00163386
-0.0013566
-0.00109301
-0.000846466
-0.000620105
-0.000416782
-0.000238996
-8.8824e-05
3.21456e-05
0.000122899
0.000183103
0.000213263
0.000214963
0.000191257
0.000147175
9.08123e-05
3.66353e-05
6.22808e-06
2.08667e-05
6.56702e-05
9.47721e-05
7.28712e-05
-1.88695e-05
-0.000187267
-0.000432905
-0.000752568
-0.00114071
-0.00159055
-0.00209474
-0.00264583
-0.00323651
-0.00385979
-0.00450907
-0.00517814
-0.00586121
-0.00655282
-0.00724785
-0.00794141
-0.0086288
-0.00930546
-0.00996693
-0.0106088
-0.0112266
-0.011816
-0.0123725
-0.0128918
-0.0133694
-0.013801
-0.0141824
-0.0145095
-0.0147783
-0.0149853
-0.0151272
-0.0152011
-0.0152046
-0.015136
-0.0149942
-0.0147788
-0.0144902
-0.0141295
-0.013699
-0.0132016
-0.0126414
-0.0120231
-0.0113525
-0.0106363
-0.00988183
-0.00909718
-0.00829105
-0.00747265
-0.00665149
-0.00583731
-0.00503991
-0.00426895
-0.0035338
-0.0028434
-0.00220603
-0.00162915
-0.00111926
-0.00068164
-0.000320215
-3.72648e-05
0.000166844
0.000294034
0.000349055
0.000340179
0.000279901
0.000186077
8.6384e-05
1.96842e-05
1.76477e-05
4.1364e-05
1.96479e-05
-8.3948e-05
-0.000290209
-0.000607883
-0.00103823
-0.00157744
-0.00221835
-0.00295176
-0.00376741
-0.00465457
-0.00560253
-0.00660082
-0.00763939
-0.00870866
-0.00979958
-0.0109035
-0.0120123
-0.013118
-0.0142131
-0.0152903
-0.0163422
-0.0173618
-0.0183419
-0.0192756
-0.0201558
-0.0209755
-0.0217278
-0.0224061
-0.0230036
-0.0235142
-0.0239319
-0.0242512
-0.0244672
-0.0245757
-0.0245734
-0.0244576
-0.0242269
-0.023881
-0.0234207
-0.0228481
-0.0221667
-0.0213814
-0.0204983
-0.0195252
-0.018471
-0.0173458
-0.0161611
-0.0149293
-0.0136637
-0.0123783
-0.0110877
-0.00980677
-0.00855035
-0.00733315
-0.00616943
-0.00507271
-0.00405553
-0.00312919
-0.0023034
-0.00158607
-0.000982933
-0.000497218
-0.000129236
0.000124082
0.000269835
0.000319871
0.000291327
0.000207434
0.000102468
2.49811e-05
8.84622e-06
-6.98922e-06
-0.000107549
-0.000322333
-0.000669585
-0.00115771
-0.00178746
-0.00255407
-0.00344899
-0.00446118
-0.00557818
-0.00678677
-0.00807354
-0.00942524
-0.010829
-0.0122723
-0.0137433
-0.0152306
-0.0167232
-0.0182106
-0.0196826
-0.0211292
-0.0225406
-0.0239072
-0.0252195
-0.0264679
-0.0276432
-0.028736
-0.0297373
-0.0306381
-0.0314299
-0.0321045
-0.0326542
-0.0330721
-0.0333519
-0.0334883
-0.0334772
-0.0333154
-0.0330014
-0.0325349
-0.0319173
-0.0311516
-0.0302425
-0.0291965
-0.0280219
-0.0267287
-0.0253287
-0.0238351
-0.0222628
-0.0206278
-0.0189474
-0.0172398
-0.0155238
-0.0138184
-0.0121429
-0.0105163
-0.00895695
-0.0074822
-0.00610824
-0.00484956
-0.00371867
-0.00272566
-0.00187788
-0.00117944
-0.000630822
-0.000228314
3.65603e-05
0.000177701
0.000214835
0.000174133
9.30453e-05
2.40315e-05
-2.12119e-06
-6.72803e-05
-0.000264095
-0.000609764
-0.00111678
-0.00179137
-0.00263252
-0.00363387
-0.00478529
-0.00607406
-0.00748583
-0.00900535
-0.010617
-0.0123053
-0.0140549
-0.0158509
-0.0176791
-0.0195255
-0.0213768
-0.0232201
-0.0250427
-0.0268324
-0.028577
-0.0302646
-0.0318834
-0.0334219
-0.0348684
-0.0362117
-0.0374408
-0.0385448
-0.0395134
-0.0403368
-0.0410058
-0.0415123
-0.0418489
-0.0420094
-0.041989
-0.0417843
-0.0413936
-0.0408167
-0.0400556
-0.0391142
-0.0379982
-0.0367156
-0.0352766
-0.0336931
-0.0319793
-0.0301511
-0.0282264
-0.0262243
-0.0241654
-0.0220715
-0.0199648
-0.0178683
-0.0158048
-0.013797
-0.0118668
-0.0100349
-0.0083206
-0.00674128
-0.00531186
-0.00404448
-0.002948
-0.00202756
-0.00128411
-0.000713871
-0.00030786
-5.12984e-05
7.66938e-05
0.000103624
6.75209e-05
1.9669e-05
-1.36934e-05
-0.000132832
-0.000435832
-0.000924668
-0.00160397
-0.0024763
-0.00353783
-0.00477984
-0.00619026
-0.00775454
-0.00945658
-0.0112793
-0.0132052
-0.0152167
-0.0172967
-0.0194281
-0.0215945
-0.0237799
-0.0259689
-0.0281463
-0.0302975
-0.032408
-0.0344636
-0.0364504
-0.0383546
-0.0401626
-0.041861
-0.0434366
-0.0448765
-0.0461685
-0.0473005
-0.0482615
-0.049041
-0.0496296
-0.050019
-0.0502025
-0.0501746
-0.0499316
-0.0494718
-0.0487952
-0.0479042
-0.0468034
-0.0454995
-0.0440019
-0.042322
-0.0404737
-0.0384732
-0.0363388
-0.0340906
-0.0317506
-0.0293422
-0.0268903
-0.0244202
-0.0219581
-0.01953
-0.0171618
-0.0148786
-0.0127041
-0.0106605
-0.00876757
-0.0070427
-0.00549994
-0.00414978
-0.00299857
-0.00204809
-0.00129506
-0.000730714
-0.000340312
-0.000102895
9.17707e-06
3.25088e-05
1.36239e-05
-2.5186e-05
-0.000200018
-0.000614104
-0.00125296
-0.00211213
-0.00318946
-0.00447737
-0.00596416
-0.00763532
-0.0094743
-0.0114631
-0.0135829
-0.0158146
-0.0181388
-0.0205364
-0.0229889
-0.0254779
-0.0279857
-0.0304948
-0.0329882
-0.0354496
-0.0378624
-0.0402107
-0.0424788
-0.0446509
-0.0467119
-0.0486465
-0.0504399
-0.0520779
-0.0535465
-0.0548325
-0.0559234
-0.0568077
-0.0574751
-0.0579164
-0.0581242
-0.0580927
-0.0578178
-0.0572976
-0.0565325
-0.0555252
-0.0542806
-0.0528065
-0.0511132
-0.0492133
-0.0471224
-0.0448582
-0.0424409
-0.039893
-0.0372386
-0.0345037
-0.0317158
-0.0289029
-0.0260941
-0.0233184
-0.0206045
-0.0179803
-0.0154724
-0.0131056
-0.0109022
-0.00888195
-0.00706082
-0.00545109
-0.0040606
-0.00289236
-0.00194407
-0.00120779
-0.000669575
-0.000309207
-9.98491e-05
-7.70715e-06
6.86279e-06
-3.63412e-05
-0.000266953
-0.000793789
-0.00158572
-0.00262857
-0.00391481
-0.00543245
-0.00716621
-0.00909876
-0.0112112
-0.0134837
-0.0158955
-0.0184258
-0.0210537
-0.0237587
-0.0265204
-0.029319
-0.0321351
-0.0349496
-0.0377441
-0.0405003
-0.0432002
-0.0458262
-0.0483609
-0.0507871
-0.0530879
-0.0552467
-0.0572473
-0.0590739
-0.0607113
-0.062145
-0.0633615
-0.0643482
-0.065094
-0.0655889
-0.0658249
-0.0657956
-0.0654968
-0.0649263
-0.0640845
-0.0629744
-0.0616014
-0.0599737
-0.0581024
-0.0560014
-0.0536871
-0.0511789
-0.0484986
-0.0456703
-0.0427204
-0.0396769
-0.0365696
-0.0334292
-0.0302872
-0.0271753
-0.0241249
-0.0211668
-0.0183301
-0.0156423
-0.0131283
-0.01081
-0.00870566
-0.00682954
-0.00519127
-0.00379544
-0.00264121
-0.001722
-0.00102524
-0.000532099
-0.000217212
-5.0458e-05
-8.30828e-08
-4.70626e-05
-0.000332654
-0.000971887
-0.0019173
-0.00314489
-0.00464129
-0.00638969
-0.00837079
-0.0105641
-0.0129482
-0.015501
-0.0181999
-0.0210226
-0.0239467
-0.02695
-0.0300109
-0.0331081
-0.0362208
-0.0393286
-0.0424116
-0.04545
-0.0484245
-0.0513161
-0.0541058
-0.0567753
-0.059306
-0.0616802
-0.0638803
-0.0658892
-0.0676907
-0.0692691
-0.0706098
-0.0716995
-0.0725259
-0.0730786
-0.0733487
-0.0733295
-0.0730162
-0.0724066
-0.0715009
-0.0703021
-0.0688157
-0.0670505
-0.0650181
-0.0627329
-0.0602126
-0.0574775
-0.0545508
-0.0514582
-0.0482277
-0.0448894
-0.041475
-0.0380178
-0.0345515
-0.0311104
-0.0277285
-0.0244392
-0.0212745
-0.0182645
-0.0154365
-0.0128152
-0.0104211
-0.00827076
-0.00637591
-0.00474311
-0.0033734
-0.00226199
-0.00139818
-0.000764996
-0.000339007
-9.41836e-05
-6.94326e-06
-5.73384e-05
-0.000396639
-0.00114666
-0.0022442
-0.00365551
-0.00536125
-0.0073395
-0.00956669
-0.0120189
-0.0146718
-0.0175012
-0.0204826
-0.0235918
-0.026805
-0.0300987
-0.0334501
-0.0368365
-0.0402359
-0.0436267
-0.0469878
-0.0502981
-0.0535372
-0.0566847
-0.0597205
-0.0626249
-0.0653784
-0.0679619
-0.0703566
-0.0725445
-0.0745081
-0.0762309
-0.0776973
-0.0788929
-0.0798048
-0.0804217
-0.0807341
-0.0807346
-0.0804181
-0.0797818
-0.0788258
-0.0775527
-0.0759683
-0.0740814
-0.0719039
-0.0694507
-0.0667401
-0.0637933
-0.0606345
-0.0572909
-0.0537919
-0.0501693
-0.0464568
-0.0426897
-0.0389042
-0.0351371
-0.0314249
-0.0278038
-0.0243085
-0.0209718
-0.0178241
-0.0148926
-0.0122005
-0.00976697
-0.00760617
-0.00572702
-0.00413278
-0.00282091
-0.00178291
-0.00100403
-0.000463018
-0.000138067
-1.36018e-05
-6.71863e-05
-0.000458681
-0.00131711
-0.0025642
-0.00415671
-0.00606935
-0.00827496
-0.0107455
-0.0134535
-0.0163716
-0.0194733
-0.022732
-0.0261219
-0.0296177
-0.0331947
-0.0368287
-0.040496
-0.0441736
-0.0478388
-0.0514692
-0.055043
-0.0585386
-0.0619344
-0.0652096
-0.0683431
-0.0713144
-0.0741035
-0.0766906
-0.0790565
-0.0811829
-0.0830522
-0.084648
-0.0859549
-0.0869593
-0.087649
-0.0880137
-0.0880455
-0.0877384
-0.0870892
-0.0860975
-0.0847656
-0.0830989
-0.0811062
-0.0787993
-0.0761935
-0.0733074
-0.0701628
-0.0667848
-0.0632015
-0.0594437
-0.0555448
-0.0515404
-0.0474676
-0.0433651
-0.0392719
-0.0352276
-0.0312709
-0.0274395
-0.0237693
-0.0202936
-0.0170426
-0.0140427
-0.0113157
-0.00887881
-0.00674349
-0.00491571
-0.00339545
-0.00217677
-0.00124734
-0.000588234
-0.00018178
-2.00321e-05
-7.66304e-05
-0.000518677
-0.00148263
-0.00287585
-0.00464596
-0.00676178
-0.00919094
-0.0119009
-0.0148604
-0.0180392
-0.0214081
-0.0249387
-0.0286033
-0.0323753
-0.0362287
-0.0401381
-0.0440789
-0.0480271
-0.0519591
-0.0558517
-0.059682
-0.0634275
-0.0670661
-0.0705755
-0.0739342
-0.0771206
-0.0801137
-0.0828929
-0.0854381
-0.08773
-0.0897502
-0.0914812
-0.092907
-0.0940129
-0.0947859
-0.0952148
-0.0952909
-0.0950075
-0.0943605
-0.0933489
-0.0919743
-0.0902418
-0.0881595
-0.0857393
-0.0829962
-0.0799489
-0.0766197
-0.0730342
-0.0692213
-0.0652129
-0.061044
-0.0567516
-0.0523751
-0.0479553
-0.0435338
-0.0391529
-0.0348544
-0.030679
-0.026666
-0.0228519
-0.0192704
-0.015951
-0.012919
-0.0101947
-0.00779264
-0.00572182
-0.00398506
-0.00257921
-0.00149455
-0.000714497
-0.000225326
-2.62608e-05
-8.5692e-05
-0.000576574
-0.00164284
-0.00317816
-0.00512142
-0.00743572
-0.0100835
-0.0130278
-0.0162336
-0.0196676
-0.0232981
-0.0270945
-0.0310276
-0.0350692
-0.0391922
-0.0433702
-0.0475776
-0.0517896
-0.0559818
-0.0601301
-0.0642112
-0.0682016
-0.0720783
-0.0758187
-0.0794001
-0.0828004
-0.0859977
-0.0889706
-0.0916981
-0.0941601
-0.0963374
-0.0982115
-0.0997655
-0.100984
-0.101852
-0.102359
-0.102494
-0.10225
-0.101622
-0.100607
-0.0992071
-0.097426
-0.0952713
-0.0927541
-0.0898892
-0.0866952
-0.0831943
-0.0794125
-0.0753794
-0.0711277
-0.0666938
-0.0621162
-0.0574363
-0.0526972
-0.0479433
-0.0432195
-0.0385708
-0.0340416
-0.0296744
-0.0255096
-0.0215845
-0.0179324
-0.0145823
-0.0115579
-0.00887753
-0.00655331
-0.00459129
-0.00299132
-0.0017464
-0.000842255
-0.000268924
-3.23464e-05
-9.43862e-05
-0.000632337
-0.00179747
-0.00347041
-0.00558168
-0.00808892
-0.0109496
-0.0141222
-0.0175681
-0.021251
-0.0251366
-0.0291922
-0.0333871
-0.0376915
-0.0420773
-0.0465171
-0.0509844
-0.0554538
-0.0599001
-0.0642987
-0.0686254
-0.0728565
-0.0769682
-0.0809372
-0.0847403
-0.0883546
-0.0917577
-0.0949272
-0.0978416
-0.10048
-0.102822
-0.104848
-0.106541
-0.107884
-0.108862
-0.109462
-0.109672
-0.109484
-0.108893
-0.107893
-0.106486
-0.104675
-0.102466
-0.0998689
-0.0968984
-0.0935725
-0.0899132
-0.0859465
-0.0817024
-0.0772145
-0.07252
-0.0676592
-0.0626754
-0.0576139
-0.0525218
-0.0474473
-0.0424387
-0.0375439
-0.0328095
-0.0282799
-0.0239964
-0.0199966
-0.0163136
-0.0129753
-0.0100035
-0.00741439
-0.0052173
-0.00341536
-0.00200438
-0.000972385
-0.000312946
-3.8367e-05
-0.000102721
-0.00068592
-0.00194626
-0.00375195
-0.00602557
-0.00871949
-0.0117863
-0.0151804
-0.0188594
-0.022784
-0.0269175
-0.0312252
-0.0356745
-0.0402347
-0.0448761
-0.0495708
-0.0542915
-0.059012
-0.0637066
-0.0683503
-0.0729184
-0.0773865
-0.0817306
-0.0859268
-0.0899514
-0.0937809
-0.0973921
-0.100762
-0.103869
-0.106691
-0.109207
-0.111396
-0.113241
-0.114722
-0.115824
-0.116533
-0.116836
-0.116723
-0.116187
-0.115223
-0.113829
-0.112007
-0.109762
-0.107103
-0.104045
-0.100603
-0.0967988
-0.0926593
-0.0882139
-0.0834969
-0.0785465
-0.0734044
-0.0681156
-0.0627281
-0.0572915
-0.0518574
-0.0464778
-0.0412045
-0.0360883
-0.0311781
-0.0265198
-0.0221558
-0.0181235
-0.0144554
-0.0111778
-0.00831077
-0.00586748
-0.0038545
-0.00227061
-0.00110607
-0.000357864
-4.44128e-05
-0.000110696
-0.000737264
-0.00208895
-0.00402218
-0.00645196
-0.00932569
-0.0125914
-0.0161993
-0.0201035
-0.0242619
-0.0286353
-0.033187
-0.0378831
-0.0426912
-0.0475809
-0.0525233
-0.0574906
-0.0624559
-0.0673932
-0.072277
-0.0770823
-0.0817843
-0.0863586
-0.0907809
-0.0950273
-0.0990737
-0.102896
-0.106472
-0.109778
-0.112792
-0.115491
-0.117855
-0.119864
-0.121498
-0.122741
-0.123577
-0.123991
-0.123973
-0.123512
-0.122604
-0.121244
-0.119432
-0.117172
-0.114472
-0.111343
-0.107802
-0.103869
-0.0995696
-0.0949336
-0.0899956
-0.0847945
-0.0793733
-0.073779
-0.0680616
-0.062274
-0.056471
-0.0507084
-0.0450426
-0.0395288
-0.034221
-0.02917
-0.0244234
-0.0200238
-0.0160086
-0.0124089
-0.0092493
-0.00654709
-0.00431257
-0.00254759
-0.0012447
-0.000404219
-5.05815e-05
-0.000118306
-0.000786285
-0.00222526
-0.00428046
-0.00685976
-0.00990585
-0.0133624
-0.0171756
-0.0212964
-0.0256799
-0.0302844
-0.0350716
-0.0400058
-0.0450536
-0.0501837
-0.0553662
-0.060573
-0.0657766
-0.0709507
-0.0760695
-0.0811077
-0.0860404
-0.0908429
-0.0954906
-0.0999593
-0.104225
-0.108262
-0.112049
-0.115561
-0.118775
-0.121668
-0.124218
-0.126405
-0.128208
-0.129609
-0.130589
-0.131135
-0.131232
-0.130869
-0.130038
-0.128734
-0.126955
-0.124702
-0.121981
-0.118803
-0.115181
-0.111136
-0.106691
-0.101877
-0.0967274
-0.0912821
-0.0855851
-0.0796852
-0.0736349
-0.0674899
-0.0613085
-0.0551509
-0.0490779
-0.04315
-0.0374262
-0.0319633
-0.0268143
-0.0220276
-0.0176461
-0.0137063
-0.0102377
-0.00726209
-0.00479386
-0.00283814
-0.00138983
-0.000452602
-5.69753e-05
-0.000125537
-0.000832878
-0.00235486
-0.00452613
-0.00724784
-0.0104583
-0.0140969
-0.0181063
-0.0224344
-0.0270333
-0.0318595
-0.0368727
-0.0420358
-0.0473144
-0.0526762
-0.0580907
-0.0635293
-0.0689642
-0.0743689
-0.0797172
-0.0849839
-0.0901439
-0.0951722
-0.100044
-0.104736
-0.109222
-0.113478
-0.117481
-0.121206
-0.124628
-0.127726
-0.130475
-0.132854
-0.134842
-0.136417
-0.137562
-0.138259
-0.138493
-0.13825
-0.13752
-0.136296
-0.134573
-0.13235
-0.129632
-0.126426
-0.122744
-0.118606
-0.114033
-0.109054
-0.103704
-0.0980231
-0.0920553
-0.0858514
-0.079466
-0.072958
-0.0663895
-0.0598249
-0.05333
-0.0469706
-0.0408119
-0.0349166
-0.0293439
-0.0241487
-0.01938
-0.0150802
-0.0112842
-0.00801889
-0.00530301
-0.00314528
-0.0015431
-0.000503633
-6.36993e-05
-0.000132372
-0.000876919
-0.00247738
-0.00475845
-0.007615
-0.0109811
-0.0147926
-0.0189884
-0.0235135
-0.0283176
-0.0333551
-0.0385841
-0.0439662
-0.0494658
-0.0550499
-0.0606876
-0.0663497
-0.0720083
-0.0776366
-0.0832085
-0.0886986
-0.0940819
-0.0993334
-0.104428
-0.109343
-0.114051
-0.118529
-0.122752
-0.126696
-0.130336
-0.133649
-0.136609
-0.139194
-0.141382
-0.14315
-0.144478
-0.145347
-0.14574
-0.14564
-0.145036
-0.143917
-0.142275
-0.140108
-0.137417
-0.134207
-0.130489
-0.126278
-0.121595
-0.116469
-0.110933
-0.105027
-0.0987951
-0.0922906
-0.0855699
-0.0786949
-0.0717315
-0.0647485
-0.0578171
-0.0510091
-0.0443958
-0.0380467
-0.032028
-0.0264014
-0.0212229
-0.0165412
-0.0123975
-0.00882421
-0.00584489
-0.00347218
-0.00170623
-0.000557953
-7.086e-05
-0.000138789
-0.000918263
-0.00259242
-0.00497665
-0.00795998
-0.0114727
-0.0154469
-0.0198186
-0.0245298
-0.029528
-0.0347657
-0.0401994
-0.0457895
-0.0514996
-0.0572959
-0.0631471
-0.0690237
-0.0748975
-0.0807417
-0.0865304
-0.092238
-0.0978398
-0.103311
-0.108627
-0.113763
-0.118694
-0.123396
-0.127844
-0.132013
-0.135878
-0.139414
-0.142597
-0.145402
-0.147806
-0.149784
-0.151315
-0.152377
-0.152951
-0.153019
-0.152565
-0.151576
-0.150042
-0.147958
-0.145321
-0.142134
-0.138403
-0.134144
-0.129374
-0.12412
-0.118414
-0.112296
-0.10581
-0.0990115
-0.0919576
-0.0847136
-0.0773492
-0.0699379
-0.0625564
-0.0552827
-0.0481951
-0.0413703
-0.0348821
-0.0288
-0.0231873
-0.0181002
-0.0135865
-0.00968497
-0.00642449
-0.0038221
-0.001881
-0.000616217
-7.8565e-05
-0.000144762
-0.00095675
-0.00269953
-0.0051799
-0.00828148
-0.0119311
-0.0160575
-0.0205937
-0.0254793
-0.0306597
-0.0360856
-0.0417121
-0.0474986
-0.0534076
-0.0594051
-0.0654591
-0.0715399
-0.0776195
-0.083671
-0.0896686
-0.0955869
-0.101401
-0.107087
-0.11262
-0.117976
-0.12313
-0.128057
-0.132733
-0.137131
-0.141228
-0.144997
-0.148413
-0.15145
-0.154084
-0.156289
-0.158041
-0.159317
-0.160094
-0.160354
-0.160076
-0.159244
-0.157847
-0.155874
-0.153319
-0.150183
-0.146468
-0.142187
-0.137355
-0.131996
-0.12614
-0.119827
-0.113101
-0.106017
-0.0986355
-0.0910232
-0.083254
-0.0754063
-0.0675624
-0.059807
-0.0522257
-0.0449031
-0.0379214
-0.0313583
-0.0252857
-0.0197679
-0.0148602
-0.0106082
-0.0070469
-0.00419834
-0.00206918
-0.00067909
-8.69228e-05
-0.000150263
-0.000992212
-0.00279827
-0.00536735
-0.00857815
-0.0123543
-0.0166216
-0.0213104
-0.026358
-0.031708
-0.0373092
-0.0431157
-0.0490858
-0.0551814
-0.0613678
-0.0676129
-0.073887
-0.0801617
-0.0864106
-0.0926079
-0.0987288
-0.104749
-0.110643
-0.116389
-0.121961
-0.127335
-0.132487
-0.137391
-0.142023
-0.146356
-0.150365
-0.154023
-0.157304
-0.160181
-0.162628
-0.164619
-0.166128
-0.167132
-0.167606
-0.16753
-0.166884
-0.165651
-0.163819
-0.161377
-0.158322
-0.154655
-0.150381
-0.145515
-0.140077
-0.134096
-0.127609
-0.120661
-0.113305
-0.105604
-0.0976277
-0.089453
-0.0811634
-0.0728469
-0.0645952
-0.0565017
-0.0486596
-0.04116
-0.03409
-0.0275306
-0.0215551
-0.0162274
-0.0116008
-0.00771723
-0.00460424
-0.0022726
-0.00074724
-9.60424e-05
-0.000155262
-0.00102447
-0.00288816
-0.00553812
-0.00884863
-0.0127405
-0.0171368
-0.0219656
-0.027162
-0.0326679
-0.0384308
-0.0444035
-0.0505435
-0.0568122
-0.0631744
-0.0695978
-0.0760526
-0.0825107
-0.0889457
-0.0953323
-0.101646
-0.107863
-0.113958
-0.11991
-0.125693
-0.131284
-0.136658
-0.14179
-0.146656
-0.151228
-0.155481
-0.159389
-0.162922
-0.166054
-0.168758
-0.171004
-0.172766
-0.174017
-0.17473
-0.174881
-0.174447
-0.173409
-0.171748
-0.169452
-0.166511
-0.162923
-0.15869
-0.153822
-0.148336
-0.142258
-0.135622
-0.128473
-0.120864
-0.112857
-0.104525
-0.0959483
-0.0872146
-0.0784181
-0.0696578
-0.0610351
-0.0526525
-0.0446109
-0.0370074
-0.0299334
-0.0234721
-0.0176968
-0.0126698
-0.00844053
-0.00504312
-0.00249305
-0.000821338
-0.000106034
-0.00015973
-0.00105336
-0.00296873
-0.00569135
-0.0090916
-0.0130877
-0.0176006
-0.022556
-0.0278873
-0.0335348
-0.0394448
-0.0455691
-0.0518644
-0.0582915
-0.0648151
-0.0714027
-0.0780245
-0.0846527
-0.0912611
-0.0978249
-0.10432
-0.110723
-0.11701
-0.123158
-0.129145
-0.134946
-0.140538
-0.145896
-0.150994
-0.155806
-0.160307
-0.164467
-0.168261
-0.171658
-0.174629
-0.177145
-0.179176
-0.180694
-0.181668
-0.182071
-0.181878
-0.181063
-0.179606
-0.177488
-0.174697
-0.171224
-0.167068
-0.162233
-0.156734
-0.150591
-0.143837
-0.136514
-0.128675
-0.120381
-0.111707
-0.102736
-0.09356
-0.0842799
-0.0750014
-0.0658349
-0.0568924
-0.0482853
-0.040122
-0.032505
-0.0255286
-0.0192769
-0.0138218
-0.00922179
-0.00551829
-0.00273234
-0.000902057
-0.000117007
-0.000163637
-0.0010787
-0.00303955
-0.00582624
-0.00930579
-0.0133943
-0.0180107
-0.0230787
-0.0285302
-0.0343042
-0.0403458
-0.046606
-0.0530409
-0.0596109
-0.0662802
-0.0730166
-0.0797903
-0.0865737
-0.0933411
-0.100068
-0.106731
-0.113307
-0.119774
-0.126109
-0.13229
-0.138293
-0.144095
-0.149672
-0.154998
-0.160048
-0.164796
-0.169212
-0.173269
-0.176937
-0.180186
-0.182983
-0.185299
-0.187101
-0.188357
-0.189036
-0.189109
-0.188548
-0.187326
-0.185422
-0.182816
-0.179497
-0.175456
-0.170695
-0.16522
-0.159051
-0.152215
-0.144751
-0.13671
-0.128153
-0.119156
-0.109804
-0.100194
-0.0904307
-0.0806286
-0.0709065
-0.061387
-0.0521926
-0.0434437
-0.0352553
-0.0277339
-0.0209756
-0.0150634
-0.0100659
-0.00603298
-0.00299226
-0.000990069
-0.000129074
-0.000166957
-0.00110035
-0.0031002
-0.00594202
-0.00949003
-0.0136585
-0.0183647
-0.0235308
-0.0290872
-0.0349717
-0.0411287
-0.0475083
-0.054066
-0.0607619
-0.0675603
-0.0744287
-0.0813376
-0.0882598
-0.0951701
-0.102045
-0.10886
-0.115595
-0.122228
-0.128736
-0.135098
-0.141292
-0.147294
-0.153081
-0.158628
-0.163911
-0.168901
-0.173572
-0.177893
-0.181836
-0.185367
-0.188456
-0.191067
-0.193169
-0.194725
-0.195703
-0.196068
-0.195788
-0.194834
-0.193178
-0.190796
-0.18767
-0.183787
-0.179141
-0.173735
-0.167582
-0.160705
-0.153139
-0.144931
-0.136143
-0.126849
-0.117135
-0.107103
-0.0968634
-0.0865367
-0.0762515
-0.0661408
-0.0563393
-0.0469805
-0.0381926
-0.0300961
-0.0228003
-0.0164007
-0.0109775
-0.00659037
-0.00327458
-0.00108604
-0.000142348
-0.000169664
-0.00111815
-0.00315032
-0.00603804
-0.00964329
-0.013879
-0.0186608
-0.0239097
-0.0295551
-0.0355337
-0.0417889
-0.0482704
-0.0549331
-0.0617371
-0.0686463
-0.0756285
-0.0826544
-0.0896973
-0.0967324
-0.103737
-0.110688
-0.117564
-0.124346
-0.131011
-0.137539
-0.143908
-0.150097
-0.156083
-0.161841
-0.167346
-0.172572
-0.177492
-0.182075
-0.186291
-0.190108
-0.193492
-0.196409
-0.198822
-0.200694
-0.201989
-0.20267
-0.2027
-0.202045
-0.200672
-0.198552
-0.19566
-0.191979
-0.187495
-0.182205
-0.176115
-0.169244
-0.161621
-0.153289
-0.144308
-0.134749
-0.124702
-0.114268
-0.103564
-0.0927177
-0.0818665
-0.0711546
-0.0607293
-0.050738
-0.0413238
-0.0326224
-0.0247577
-0.0178396
-0.0119612
-0.00719354
-0.00358104
-0.00119065
-0.000156944
-0.000171739
-0.001132
-0.00318963
-0.00611376
-0.00976476
-0.0140544
-0.0188974
-0.0242136
-0.0299314
-0.0359867
-0.0423223
-0.0488873
-0.0556364
-0.0625292
-0.0695299
-0.0766064
-0.0837296
-0.0908732
-0.0980133
-0.105127
-0.112194
-0.119192
-0.126103
-0.132907
-0.139582
-0.14611
-0.152469
-0.158637
-0.164591
-0.170306
-0.175757
-0.180916
-0.185753
-0.190239
-0.194339
-0.198021
-0.201247
-0.20398
-0.20618
-0.207809
-0.208826
-0.209191
-0.208864
-0.207808
-0.205989
-0.203375
-0.199941
-0.195668
-0.190545
-0.184571
-0.177758
-0.17013
-0.161723
-0.152594
-0.142812
-0.132466
-0.121658
-0.11051
-0.0991564
-0.0877427
-0.0764245
-0.0653626
-0.0547194
-0.044654
-0.0353185
-0.0268536
-0.0193851
-0.013021
-0.00784546
-0.00391334
-0.00130456
-0.00017298
-0.000173167
-0.00114183
-0.00321791
-0.00616882
-0.00985386
-0.0141841
-0.0190733
-0.0244408
-0.0302139
-0.0363281
-0.0427256
-0.049355
-0.0561707
-0.0631322
-0.0702038
-0.0773534
-0.0845525
-0.0917753
-0.0989984
-0.1062
-0.11336
-0.120458
-0.127477
-0.134396
-0.141198
-0.147864
-0.154372
-0.160703
-0.166834
-0.172742
-0.178402
-0.183786
-0.188866
-0.193612
-0.19799
-0.201965
-0.205501
-0.208557
-0.211094
-0.21307
-0.21444
-0.215162
-0.215191
-0.214485
-0.213004
-0.21071
-0.207571
-0.20356
-0.198658
-0.192858
-0.186161
-0.178585
-0.170161
-0.160938
-0.150982
-0.14038
-0.129236
-0.117673
-0.105831
-0.0938649
-0.0819416
-0.0702355
-0.0589247
-0.0481856
-0.0381887
-0.0290929
-0.021042
-0.014161
-0.00854891
-0.00427312
-0.00142842
-0.000190574
-0.000173939
-0.00114759
-0.00323509
-0.00620306
-0.00991031
-0.0142675
-0.019188
-0.0245903
-0.0304015
-0.0365563
-0.0429965
-0.0496704
-0.0565321
-0.0635411
-0.0706617
-0.0778621
-0.0851141
-0.0923926
-0.0996748
-0.10694
-0.114168
-0.121342
-0.128443
-0.135454
-0.142358
-0.149136
-0.15577
-0.16224
-0.168526
-0.174605
-0.180454
-0.186045
-0.191352
-0.196343
-0.200987
-0.205247
-0.209087
-0.212467
-0.215344
-0.217674
-0.219411
-0.220509
-0.220918
-0.220593
-0.219486
-0.217554
-0.214757
-0.211061
-0.206438
-0.200871
-0.194354
-0.186895
-0.178517
-0.169262
-0.159192
-0.148387
-0.136952
-0.125012
-0.112711
-0.100211
-0.0876915
-0.0753396
-0.0633503
-0.0519188
-0.0412353
-0.0314791
-0.0228142
-0.0153846
-0.00930653
-0.00466196
-0.00156288
-0.000209849
-0.000174055
-0.00114928
-0.00324118
-0.00621652
-0.00993419
-0.0143048
-0.0192414
-0.0246622
-0.0304937
-0.0366705
-0.0431337
-0.0498315
-0.0567178
-0.0637521
-0.0708987
-0.0781261
-0.0854067
-0.0927158
-0.100031
-0.107333
-0.114604
-0.121825
-0.128981
-0.136056
-0.143033
-0.149896
-0.156628
-0.16321
-0.169624
-0.175849
-0.181861
-0.187636
-0.193147
-0.198365
-0.203258
-0.20779
-0.211924
-0.215621
-0.218836
-0.221523
-0.223636
-0.225123
-0.225934
-0.226015
-0.225316
-0.223787
-0.221379
-0.21805
-0.213765
-0.208496
-0.202226
-0.194954
-0.186694
-0.177478
-0.16736
-0.156416
-0.144748
-0.132479
-0.119757
-0.106752
-0.0936529
-0.0806611
-0.0679887
-0.0558507
-0.0444586
-0.0340145
-0.0247045
-0.0166946
-0.0101207
-0.00508138
-0.00170858
-0.000230928
-0.000173523
-0.00114698
-0.00323637
-0.00620954
-0.00992599
-0.0142965
-0.0192342
-0.024657
-0.0304912
-0.036671
-0.0431373
-0.049838
-0.0567269
-0.0637633
-0.0709119
-0.0781413
-0.0854245
-0.0927373
-0.100059
-0.107369
-0.114652
-0.121892
-0.129072
-0.136179
-0.143198
-0.150115
-0.156913
-0.163576
-0.170087
-0.176427
-0.182573
-0.188504
-0.194194
-0.199613
-0.204732
-0.209517
-0.21393
-0.217931
-0.221476
-0.224518
-0.227009
-0.228895
-0.230122
-0.230634
-0.230373
-0.229283
-0.22731
-0.224402
-0.220513
-0.215607
-0.209656
-0.202647
-0.194581
-0.185483
-0.175394
-0.164385
-0.152551
-0.140013
-0.126921
-0.11345
-0.0997978
-0.0861806
-0.0728277
-0.0599746
-0.0478564
-0.0366995
-0.0267151
-0.0180937
-0.0109935
-0.00553276
-0.00186613
-0.000253938
-0.000172364
-0.00114082
-0.00322101
-0.00618277
-0.00988667
-0.014244
-0.0191679
-0.0245765
-0.0303958
-0.0365597
-0.0430089
-0.049691
-0.0565597
-0.0635745
-0.0707
-0.0779053
-0.0851637
-0.0924519
-0.0997494
-0.107038
-0.114303
-0.121527
-0.128699
-0.135805
-0.142832
-0.149767
-0.156596
-0.163305
-0.169878
-0.176298
-0.182545
-0.188598
-0.194434
-0.200026
-0.205344
-0.210355
-0.215025
-0.219312
-0.223173
-0.226562
-0.229428
-0.231716
-0.233369
-0.234328
-0.23453
-0.233914
-0.232417
-0.22998
-0.226548
-0.222072
-0.216514
-0.209846
-0.20206
-0.193164
-0.183191
-0.172201
-0.160279
-0.147544
-0.134144
-0.120257
-0.10609
-0.0918724
-0.07785
-0.0642805
-0.0514237
-0.0395327
-0.0288467
-0.0195834
-0.0119268
-0.00601739
-0.00203614
-0.000279007
-0.000170608
-0.00113098
-0.00319564
-0.0061372
-0.00981774
-0.0141492
-0.0190451
-0.0244236
-0.0302106
-0.0363397
-0.0427516
-0.0493935
-0.056219
-0.0631877
-0.0702643
-0.0774183
-0.0846234
-0.091857
-0.0990996
-0.106334
-0.113546
-0.120722
-0.127849
-0.134917
-0.141915
-0.14883
-0.155652
-0.162368
-0.168964
-0.175425
-0.181734
-0.187872
-0.193818
-0.199546
-0.205029
-0.210237
-0.215135
-0.219684
-0.223842
-0.227561
-0.230792
-0.233479
-0.235562
-0.236979
-0.237665
-0.23755
-0.236568
-0.23465
-0.231731
-0.227751
-0.22266
-0.216417
-0.208998
-0.200398
-0.190635
-0.179756
-0.167838
-0.15499
-0.141356
-0.127118
-0.112487
-0.0977035
-0.0830327
-0.0687537
-0.0551522
-0.0425107
-0.0310987
-0.0211648
-0.0129218
-0.0065364
-0.00221915
-0.000306265
-0.000168299
-0.00111775
-0.00316101
-0.0060742
-0.00972128
-0.014015
-0.0188693
-0.0242024
-0.0299402
-0.0360162
-0.0423706
-0.0489505
-0.0557096
-0.0626072
-0.0696083
-0.0766828
-0.0838049
-0.0909528
-0.0981078
-0.105254
-0.112378
-0.119468
-0.126513
-0.133504
-0.140432
-0.147287
-0.15406
-0.16074
-0.167316
-0.173776
-0.180104
-0.186285
-0.192299
-0.198124
-0.203734
-0.209102
-0.214194
-0.218974
-0.223401
-0.22743
-0.231009
-0.234083
-0.236593
-0.238473
-0.239654
-0.240064
-0.239629
-0.238272
-0.23592
-0.232501
-0.227951
-0.222216
-0.215256
-0.20705
-0.197599
-0.186936
-0.175122
-0.162256
-0.148479
-0.133966
-0.118933
-0.103634
-0.0883469
-0.0733747
-0.0590303
-0.0456273
-0.0334689
-0.0228378
-0.0139797
-0.00709072
-0.00241571
-0.000335841
-0.000165496
-0.00110149
-0.00311812
-0.0059956
-0.00960004
-0.013845
-0.0186451
-0.0239184
-0.0295909
-0.0355958
-0.041873
-0.0483694
-0.0550386
-0.0618399
-0.0687385
-0.0757046
-0.0827131
-0.0897428
-0.0967761
-0.103798
-0.110797
-0.117763
-0.124686
-0.131558
-0.138374
-0.145124
-0.151803
-0.158403
-0.164913
-0.171326
-0.177627
-0.183804
-0.18984
-0.195717
-0.20141
-0.206895
-0.212143
-0.217117
-0.221781
-0.226089
-0.229992
-0.233437
-0.236362
-0.238701
-0.240384
-0.241333
-0.24147
-0.240712
-0.238975
-0.236177
-0.23224
-0.227096
-0.220688
-0.212978
-0.203948
-0.193611
-0.182013
-0.16924
-0.155419
-0.140723
-0.125369
-0.109615
-0.0937569
-0.078119
-0.0630424
-0.048874
-0.0359534
-0.0246014
-0.0151007
-0.00768111
-0.00262627
-0.000367868
-0.000162271
-0.00108266
-0.00306822
-0.0059037
-0.00945752
-0.0136442
-0.0183784
-0.0235788
-0.0291708
-0.0350874
-0.0412682
-0.04766
-0.0542159
-0.0608955
-0.0676641
-0.0744924
-0.0813557
-0.0882339
-0.0951102
-0.101971
-0.108806
-0.115607
-0.122365
-0.129076
-0.135734
-0.142335
-0.148873
-0.155344
-0.16174
-0.168055
-0.17428
-0.180404
-0.186413
-0.192291
-0.19802
-0.203576
-0.208933
-0.214059
-0.218919
-0.223471
-0.227668
-0.231457
-0.234778
-0.237566
-0.239747
-0.241243
-0.24197
-0.241839
-0.240758
-0.238635
-0.23538
-0.230908
-0.225146
-0.218034
-0.209537
-0.199645
-0.188386
-0.175826
-0.162077
-0.147304
-0.131721
-0.11559
-0.09922
-0.0829562
-0.0671686
-0.0522389
-0.0385464
-0.0264536
-0.0162846
-0.00830807
-0.00285128
-0.000402474
-0.000158718
-0.00106184
-0.00301285
-0.00580133
-0.00929802
-0.0134181
-0.0180768
-0.0231923
-0.0286899
-0.0345021
-0.0405682
-0.0468346
-0.0532542
-0.0597867
-0.0663977
-0.0730581
-0.0797442
-0.0864365
-0.0931195
-0.0997812
-0.106412
-0.113006
-0.119556
-0.12606
-0.132515
-0.138917
-0.145265
-0.151557
-0.157788
-0.163954
-0.170049
-0.176066
-0.181995
-0.187823
-0.193535
-0.19911
-0.204527