/*--------------------------------*- C++ -*----------------------------------*\
  =========                 |
  \\      /  F ield         | OpenFOAM: The Open Source CFD Toolbox
   \\    /   O peration     | Website:  https://openfoam.org
    \\  /    A nd           | Version:  dev
     \\/     M anipulation  |
\*---------------------------------------------------------------------------*/
FoamFile
{
    format      ascii;
    class       volScalarField;
    location    "27.45";
    object      p;
}
// * * * * * * * * * * * * * * * * * * * * * * * * * * * * * * * * * * * * * //

dimensions      [0 2 -2 0 0 0 0];

internalField   nonuniform List<scalar> 
5184
(
2.19591e-06
-8.83118e-06
-9.45651e-05
-0.000247389
-0.000446732
-0.000675322
-0.000918915
-0.00116555
-0.0014061
-0.0016334
-0.00184204
-0.00202802
-0.00218838
-0.00232103
-0.00242449
-0.00249775
-0.00254016
-0.00255126
-0.00253079
-0.00247857
-0.00239453
-0.00227864
-0.00213096
-0.00195162
-0.00174087
-0.00149907
-0.00122677
-0.000924729
-0.000593931
-0.00023565
0.000148529
0.000556681
0.000986513
0.00143535
0.00190014
0.00237743
0.00286341
0.00335391
0.00384446
0.00433032
0.00480654
0.00526807
0.00570976
0.00612655
0.00651347
0.00686583
0.00717925
0.00744981
0.00767414
0.0078495
0.0079739
0.00804611
0.00806579
0.0080335
0.00795075
0.00781997
0.00764455
0.00742881
0.00717796
0.00689806
0.00659596
0.00627928
0.00595632
0.00563604
0.00532798
0.00504224
0.0047893
0.00457979
0.00442368
0.00432943
0.00430251
0.00432979
1.6264e-05
3.87614e-06
-7.06704e-05
-0.000198391
-0.000363586
-0.00055379
-0.000758069
-0.000966824
-0.00117213
-0.00136761
-0.0015482
-0.00171002
-0.00185008
-0.00196615
-0.00205659
-0.00212021
-0.00215614
-0.00216378
-0.00214272
-0.00209265
-0.00201341
-0.00190491
-0.00176715
-0.00160025
-0.00140443
-0.00118005
-0.000927647
-0.000647946
-0.00034191
-1.07566e-05
0.000344008
0.000720566
0.00111677
0.00153013
0.0019578
0.0023966
0.00284302
0.00329323
0.00374315
0.00418845
0.00462463
0.0050471
0.00545121
0.00583237
0.00618615
0.0065083
0.00679493
0.00704256
0.0072482
0.00740947
0.00752465
0.00759275
0.00761357
0.00758772
0.00751669
0.0074028
0.00724922
0.00705998
0.00683986
0.00659444
0.00632993
0.00605324
0.00577178
0.00549348
0.00522666
0.00497987
0.00476179
0.0045808
0.00444418
0.00435789
0.00432933
0.00435693
0.000103048
7.83252e-05
3.00977e-06
-0.000114494
-0.000262153
-0.000430334
-0.000610329
-0.000794306
-0.00097557
-0.00114856
-0.00130878
-0.00145264
-0.00157732
-0.00168065
-0.001761
-0.0018171
-0.00184805
-0.00185316
-0.00183192
-0.00178398
-0.00170909
-0.00160712
-0.00147802
-0.00132187
-0.00113884
-0.000929264
-0.000693634
-0.000432628
-0.000147146
0.00016167
0.000492407
0.000843364
0.00121253
0.00159758
0.00199586
0.0024044
0.00281994
0.00323891
0.00365752
0.00407175
0.00447743
0.0048703
0.00524606
0.00560047
0.00592942
0.00622902
0.00649568
0.00672621
0.00691789
0.00706856
0.00717668
0.00724141
0.00726262
0.00724098
0.0071779
0.00707563
0.00693718
0.00676631
0.00656752
0.00634596
0.0061074
0.00585813
0.0056049
0.00535484
0.00511532
0.00489378
0.00469771
0.00453416
0.00440917
0.00432795
0.00430014
0.00433076
0.000258059
0.000206653
0.000118872
-4.24476e-08
-0.000142428
-0.000300508
-0.000467158
-0.000636014
-0.000801539
-0.000959048
-0.00110467
-0.00123526
-0.00134833
-0.0014419
-0.00151444
-0.00156477
-0.001592
-0.00159543
-0.00157454
-0.00152893
-0.00145832
-0.00136253
-0.00124146
-0.00109513
-0.000923675
-0.000727359
-0.000506605
-0.000262021
5.58073e-06
0.000295153
0.000605394
0.000934724
0.00128127
0.00164287
0.00201704
0.00240099
0.00279166
0.0031857
0.00357954
0.00396939
0.00435132
0.0047213
0.00507529
0.00540927
0.00571937
0.00600191
0.0062535
0.00647113
0.00665224
0.00679482
0.00689743
0.00695929
0.00698033
0.0069612
0.00690329
0.00680874
0.00668043
0.00652193
0.00633749
0.00613194
0.00591068
0.00567953
0.00544471
0.00521271
0.00499017
0.00478378
0.00460014
0.00444554
0.00432541
0.00424479
0.00421373
0.00423895
0.000462749
0.000374164
0.000265599
0.000137945
-6.3537e-06
-0.000161133
-0.000320625
-0.000479831
-0.000634346
-0.000780372
-0.000914728
-0.0010348
-0.00113847
-0.00122407
-0.00129024
-0.00133595
-0.00136037
-0.00136285
-0.00134288
-0.00130004
-0.00123403
-0.00114463
-0.00103169
-0.000895172
-0.000735132
-0.000551765
-0.00034541
-0.000116578
0.000134022
0.000405458
0.000696552
0.00100586
0.00133166
0.00167194
0.00202437
0.00238637
0.00275503
0.00312721
0.00349951
0.00386834
0.00422996
0.00458053
0.00491618
0.00523308
0.0055275
0.00579592
0.00603509
0.00624212
0.00641455
0.00655043
0.00664839
0.00670769
0.00672826
0.00671072
0.00665642
0.00656741
0.00644644
0.00629692
0.00612287
0.00592886
0.00571994
0.00550156
0.00527947
0.00505963
0.00484808
0.00465084
0.00447383
0.00432266
0.00420231
0.00411755
0.00407714
0.00408695
0.000700971
0.000568983
0.000433862
0.00029188
0.00014002
-1.69488e-05
-0.00017442
-0.000328655
-0.000476322
-0.000614496
-0.000740705
-0.000852897
-0.0009494
-0.00102886
-0.0010902
-0.00113255
-0.00115519
-0.00115756
-0.00113918
-0.00109964
-0.00103864
-0.000955889
-0.000851212
-0.000724493
-0.000575717
-0.000404986
-0.000212536
1.2296e-06
0.000235723
0.00049014
0.000763442
0.00105433
0.00136123
0.00168228
0.00201534
0.00235795
0.0027074
0.00306069
0.00341458
0.00376565
0.0041103
0.00444482
0.00476546
0.00506852
0.00535036
0.00560756
0.00583693
0.00603565
0.00620129
0.00633194
0.00642623
0.00648342
0.0065034
0.00648677
0.00643481
0.00634948
0.00623341
0.00608985
0.00592266
0.00573616
0.00553513
0.00532469
0.0051102
0.00489717
0.00469116
0.00449765
0.00432198
0.00416917
0.00404382
0.00395031
0.00389512
0.00388202
0.000958945
0.000780243
0.000614765
0.000454291
0.000290451
0.000126846
-3.29034e-05
-0.000186197
-0.000330702
-0.000464332
-0.000585312
-0.000692171
-0.0007837
-0.000858914
-0.000917015
-0.000957342
-0.000979342
-0.000982541
-0.000966518
-0.000930899
-0.000875349
-0.000799574
-0.000703327
-0.000586427
-0.000448769
-0.000290354
-0.000111306
8.80986e-05
0.000307402
0.000545944
0.000802832
0.00107692
0.00136678
0.00167072
0.00198674
0.00231255
0.00264555
0.00298291
0.00332152
0.00365806
0.00398904
0.00431084
0.0046198
0.00491226
0.00518464
0.00543353
0.00565578
0.00584855
0.00600941
0.00613642
0.00622818
0.0062839
0.00630343
0.00628729
0.00623667
0.00615345
0.00604015
0.00589991
0.00573639
0.00555375
0.00535654
0.0051496
0.004938
0.00472688
0.00452141
0.00432663
0.0041474
0.00398829
0.00385351
0.00374714
0.00367283
0.0036318
0.00122455
0.000997805
0.000799714
0.000617894
0.000438868
0.000265269
9.98867e-05
-5.57074e-05
-0.000200106
-0.000332009
-0.000450321
-0.000554141
-0.000642731
-0.00071549
-0.00077192
-0.000811592
-0.000834123
-0.000839152
-0.000826333
-0.00079532
-0.000745777
-0.000677378
-0.000589821
-0.000482847
-0.000356256
-0.000209936
-4.38863e-05
0.000141751
0.000346666
0.000570345
0.000812054
0.0010708
0.00134533
0.00163408
0.00193521
0.00224657
0.0025657
0.00288988
0.00321609
0.00354111
0.00386151
0.00417374
0.00447416
0.00475911
0.00502502
0.00526845
0.0054862
0.00567539
0.00583353
0.00595861
0.00604914
0.00610426
0.00612371
0.00610794
0.00605804
0.00597578
0.00586359
0.00572447
0.00556197
0.00538009
0.00518319
0.00497593
0.00476311
0.0045496
0.00434027
0.00413981
0.00395273
0.00378317
0.00363514
0.00351238
0.00341562
0.00334344
0.00148754
0.00121252
0.00098065
0.000775651
0.000579216
0.000393173
0.000219606
5.91559e-05
-8.762e-05
-0.000220162
-0.000338018
-0.000440839
-0.000528355
-0.000600347
-0.000656622
-0.000696991
-0.000721249
-0.000729159
-0.000720449
-0.000694812
-0.00065191
-0.000591382
-0.00051287
-0.000416029
-0.000300556
-0.000166219
-1.28809e-05
0.000159463
0.000350655
0.000560345
0.000787959
0.00103267
0.00129338
0.00156869
0.00185689
0.00215597
0.00246358
0.00277711
0.00309362
0.00340994
0.0037227
0.00402833
0.00432321
0.00460363
0.00486599
0.00510676
0.00532265
0.00551069
0.00566827
0.00579326
0.00588406
0.00593967
0.00595973
0.00594455
0.00589512
0.0058131
0.0057008
0.00556111
0.00539747
0.00521375
0.0050142
0.00480331
0.0045857
0.00436607
0.00414902
0.00393903
0.0037403
0.0035567
0.0033921
0.00325002
0.00312829
0.00302296
0.00173892
0.00141614
0.00115008
0.000920837
0.00070553
0.00050531
0.000321655
0.000154363
3.20693e-06
-0.000131943
-0.000251244
-0.000354876
-0.000443017
-0.000515821
-0.0005734
-0.0006158
-0.000642995
-0.000654871
-0.000651236
-0.000631814
-0.000596266
-0.000544196
-0.000475178
-0.000388779
-0.000284584
-0.000162229
-2.14356e-05
0.00013796
0.000315963
0.000512394
0.000726847
0.000958665
0.00120691
0.00147034
0.00174739
0.00203618
0.00233447
0.00263971
0.00294905
0.00325935
0.00356724
0.00386916
0.00416141
0.00444024
0.00470194
0.00494287
0.00515961
0.00534902
0.00550835
0.0056353
0.0057281
0.00578559
0.00580726
0.00579325
0.00574443
0.00566233
0.00554913
0.00540763
0.00524116
0.00505351
0.00484882
0.00463147
0.004406
0.00417695
0.0039488
0.00372587
0.00351216
0.00331136
0.00312731
0.00296346
0.00281484
0.00267513
0.00197076
0.00160115
0.00130103
0.00104705
0.000811992
0.000596432
0.000401316
0.000225671
6.85432e-05
-7.08405e-05
-0.000193209
-0.000299243
-0.00038955
-0.000464642
-0.000524919
-0.000570659
-0.000602005
-0.000618965
-0.000621418
-0.00060912
-0.000581721
-0.000538785
-0.000479814
-0.000404275
-0.000311634
-0.000201388
-7.31039e-05
7.35476e-05
0.000238747
0.000422491
0.000624554
0.000844452
0.00108142
0.00133436
0.00160187
0.00188217
0.00217314
0.0024723
0.00277685
0.00308368
0.00338938
0.00369037
0.00398286
0.00426302
0.00452698
0.00477095
0.00499134
0.00518481
0.00534839
0.00547958
0.0055764
0.00563747
0.00566208
0.0056502
0.00560253
0.00552044
0.00540601
0.00526191
0.00509139
0.00489815
0.00468628
0.00446011
0.00422412
0.0039828
0.00374057
0.00350167
0.00327004
0.00304924
0.00284323
0.00265549
0.00247846
0.00230355
0.00217591
0.00176068
0.00142698
0.00114819
0.000892958
0.000661343
0.00045382
0.000268701
0.000104356
-4.0591e-05
-0.000167406
-0.000277242
-0.000371111
-0.000449861
-0.00051417
-0.000564529
-0.000601243
-0.000624433
-0.000634038
-0.000629838
-0.000611468
-0.00057844
-0.000530176
-0.000466036
-0.000385356
-0.000287483
-0.00017182
-3.78644e-05
0.00011475
0.000286208
0.00047647
0.000685238
0.000911916
0.00115558
0.00141496
0.00168841
0.00197389
0.00226902
0.00257102
0.00287678
0.00318289
0.00348567
0.00378126
0.00406566
0.00433485
0.00458484
0.00481183
0.00501222
0.00518279
0.00532077
0.00542393
0.00549063
0.00551991
0.00551153
0.00546596
0.00538444
0.00526887
0.00512183
0.00494647
0.00474645
0.00452581
0.00428886
0.00404009
0.00378402
0.00352508
0.00326754
0.00301533
0.00277205
0.00254183
0.00232834
0.00212154
0.00191078
0.00234784
0.00188836
0.00152182
0.00121845
0.000942961
0.000694925
0.000474389
0.000278991
0.000106467
-4.51246e-05
-0.000177557
-0.000292426
-0.000391122
-0.000474812
-0.000544429
-0.000600663
-0.000643968
-0.000674559
-0.000692433
-0.000697377
-0.000689001
-0.000666759
-0.00062998
-0.000577908
-0.000509738
-0.000424657
-0.000321894
-0.00020076
-6.06941e-05
9.86859e-05
0.00027754
0.000475762
0.000692942
0.000928326
0.00118079
0.00144882
0.00173049
0.00202346
0.00232501
0.00263202
0.00294102
0.00324828
0.00354978
0.00384139
0.00411886
0.00437799
0.00461469
0.00482508
0.00500565
0.00515329
0.00526546
0.00534022
0.00537631
0.00537322
0.00533119
0.00525123
0.0051351
0.00498523
0.0048047
0.00459713
0.00436654
0.00411727
0.00385386
0.0035809
0.00330294
0.00302435
0.00274918
0.00248112
0.00222463
0.00198365
0.00174581
0.00149846
0.00248046
0.00197823
0.00157977
0.0012523
0.000956718
0.000692165
0.000458273
0.000252044
7.06104e-05
-8.85046e-05
-0.000227551
-0.000348543
-0.000453226
-0.000543059
-0.000619214
-0.000682562
-0.000733687
-0.000772888
-0.0008002
-0.000815411
-0.000818091
-0.000807622
-0.000783235
-0.000744044
-0.00068909
-0.000617392
-0.000527992
-0.00042
-0.000292652
-0.000145353
2.22652e-05
0.000210304
0.000418549
0.000646427
0.000892977
0.00115682
0.00143613
0.00172866
0.00203171
0.00234215
0.00265647
0.00297083
0.00328109
0.00358291
0.00387182
0.00414334
0.00439307
0.00461682
0.00481068
0.0049712
0.00509545
0.00518112
0.00522662
0.00523109
0.0051945
0.0051176
0.00500196
0.00484987
0.00466432
0.00444886
0.00420756
0.0039448
0.00366523
0.00337358
0.00307457
0.00277278
0.00247244
0.00217747
0.00189273
0.00162256
0.00135236
0.00106752
0.00256807
0.00202467
0.00159536
0.00124443
0.000929126
0.000648167
0.000400784
0.00018337
-7.52097e-06
-0.000174875
-0.000321394
-0.000449485
-0.000561224
-0.000658345
-0.000742234
-0.000813927
-0.00087412
-0.000923179
-0.000961163
-0.000987846
-0.00100275
-0.00100516
-0.000994214
-0.000968872
-0.000928016
-0.000870482
-0.000795109
-0.000700799
-0.000586566
-0.000451592
-0.00029528
-0.000117312
8.23106e-05
0.000303211
0.000544604
0.000805257
0.00108347
0.00137708
0.00168341
0.00199934
0.00232132
0.00264537
0.00296723
0.00328232
0.00358593
0.00387327
0.00413959
0.0043803
0.0045911
0.0047681
0.00490793
0.00500784
0.00506583
0.00508065
0.00505193
0.00498013
0.00486658
0.00471338
0.00452342
0.00430022
0.00404787
0.00377085
0.00347394
0.00316209
0.00284026
0.0025133
0.00218575
0.00186183
0.00154691
0.00124583
0.000941794
0.000618276
0.00260524
0.00202236
0.00156338
0.00118977
0.000855269
0.000558173
0.000297324
6.85233e-05
-0.000132231
-0.000308412
-0.000463153
-0.000599231
-0.000719032
-0.000824542
-0.000917343
-0.000998615
-0.00106915
-0.00112936
-0.00117933
-0.00121878
-0.00124718
-0.00126373
-0.00126742
-0.00125707
-0.00123138
-0.001189
-0.00112855
-0.0010487
-0.000948232
-0.000826088
-0.000681429
-0.000513696
-0.000322662
-0.000108488
0.000128235
0.000386445
0.00066458
0.000960558
0.00127178
0.00159512
0.00192696
0.00226326
0.00259954
0.00293103
0.00325272
0.00355949
0.00384618
0.0041078
0.00433955
0.00453704
0.00469641
0.00481441
0.00488851
0.00491705
0.00489922
0.00483513
0.00472581
0.00457317
0.00437996
0.00414964
0.00388635
0.00359468
0.00327962
0.00294636
0.00260017
0.00224627
0.00188958
0.00153472
0.00118766
0.000853868
0.000514317
0.000150576
0.00258684
0.00196625
0.00147887
0.00108347
0.000730419
0.000417578
0.00014341
-9.68631e-05
-0.000307779
-0.000493281
-0.000656913
-0.000801802
-0.000930625
-0.0010456
-0.00114849
-0.00124059
-0.00132278
-0.00139551
-0.00145884
-0.00151247
-0.00155577
-0.00158785
-0.00160754
-0.00161351
-0.00160428
-0.00157826
-0.00153387
-0.00146953
-0.00138376
-0.00127525
-0.00114289
-0.000985865
-0.000803699
-0.000596311
-0.000364073
-0.000107855
0.00017094
0.000470351
0.000787847
0.00112033
0.00146414
0.00181512
0.00216865
0.00251971
0.00286298
0.00319296
0.00350409
0.00379085
0.00404795
0.00427041
0.0044538
0.00459427
0.00468873
0.00473497
0.00473168
0.00467854
0.00457625
0.00442643
0.00423168
0.00399541
0.00372177
0.0034155
0.00308182
0.00272623
0.00235438
0.00197193
0.00158426
0.00119648
0.000815297
0.000446828
6.98443e-05
-0.00033607
0.00250797
0.00185154
0.00133713
0.000920927
0.000550049
0.000221949
-6.53015e-05
-0.000317045
-0.000538343
-0.000733592
-0.000906728
-0.00106121
-0.00119999
-0.0013255
-0.00143965
-0.00154387
-0.00163908
-0.00172575
-0.00180392
-0.00187324
-0.001933
-0.00198215
-0.00201941
-0.00204324
-0.00205196
-0.00204378
-0.00201686
-0.00196935
-0.00189952
-0.00180576
-0.00168669
-0.0015412
-0.00136853
-0.00116833
-0.000940741
-0.000686395
-0.000406509
-0.000102897
0.00022201
0.000565154
0.000922864
0.00129089
0.00166443
0.00203824
0.00240668
0.00276386
0.00310372
0.00342022
0.00370746
0.00395985
0.00417227
0.00434021
0.00445991
0.0045285
0.00454411
0.00450589
0.00441409
0.00427005
0.00407612
0.00383562
0.00355275
0.00323239
0.00288001
0.00250148
0.0021029
0.00169045
0.00127004
0.00084738
0.000429967
2.47165e-05
-0.000391908
-0.000842382
0.00236396
0.00167366
0.00113369
0.000697733
0.000309846
-3.29536e-05
-0.000332983
-0.000596136
-0.000827982
-0.00103336
-0.00121658
-0.00138142
-0.00153108
-0.00166819
-0.00179482
-0.00191247
-0.00202212
-0.00212424
-0.00221885
-0.0023055
-0.00238339
-0.00245135
-0.00250791
-0.00255136
-0.0025798
-0.00259119
-0.00258343
-0.00255441
-0.00250209
-0.00242457
-0.00232013
-0.00218737
-0.00202521
-0.00183301
-0.00161061
-0.00135839
-0.00107734
-0.000769098
-0.000435949
-8.08797e-05
0.000292446
0.000679703
0.00107595
0.00147569
0.00187296
0.00226145
0.00263458
0.00298574
0.00330837
0.00359615
0.0038432
0.00404424
0.00419475
0.00429111
0.00433073
0.00431216
0.00423512
0.00410053
0.00391048
0.00366815
0.00337774
0.0030443
0.00267357
0.00227184
0.00184572
0.00140197
0.000947141
0.000487607
3.17813e-05
-0.000412547
-0.000871327
-0.00136921
0.00215041
0.00142831
0.000864321
0.000409749
5.72515e-06
-0.000351158
-0.000663612
-0.00093807
-0.0011806
-0.00139645
-0.00159032
-0.00176627
-0.00192774
-0.00207756
-0.0022179
-0.00235036
-0.00247594
-0.00259511
-0.00270783
-0.0028136
-0.00291147
-0.00300014
-0.00307796
-0.00314302
-0.00319319
-0.00322618
-0.0032396
-0.00323105
-0.00319817
-0.00313873
-0.00305068
-0.00293227
-0.00278207
-0.00259909
-0.00238286
-0.00213345
-0.00185159
-0.00153866
-0.0011968
-0.000828863
-0.000438472
-2.99901e-05
0.000391509
0.000820302
0.00125009
0.00167412
0.0020853
0.00247636
0.00284001
0.00316915
0.00345705
0.00369753
0.00388518
0.0040155
0.0040851
0.00409177
0.00403459
0.00391397
0.00373164
0.0034906
0.00319502
0.00285008
0.00246184
0.00203703
0.00158283
0.00110666
0.000615808
0.000117396
-0.000379142
-0.00086504
-0.00136881
-0.00191743
0.00186317
0.00111147
0.000525083
5.30863e-05
-0.000366146
-0.000736454
-0.00106094
-0.00134657
-0.00159989
-0.00182657
-0.00203164
-0.00221946
-0.00239369
-0.00255733
-0.00271267
-0.00286136
-0.00300444
-0.00314236
-0.00327501
-0.00340179
-0.00352166
-0.00363313
-0.00373438
-0.00382329
-0.00389747
-0.00395437
-0.00399132
-0.00400558
-0.00399446
-0.00395537
-0.0038859
-0.0037839
-0.00364756
-0.00347552
-0.00326691
-0.00302148
-0.00273961
-0.00242242
-0.00207179
-0.00169042
-0.00128185
-0.000850426
-0.000401329
5.95131e-05
0.000525483
0.000989378
0.00144354
0.00188002
0.00229075
0.00266775
0.00300331
0.00329027
0.00352218
0.00369355
0.0038
0.00383843
0.00380716
0.00370596
0.00353609
0.00330029
0.00300263
0.00264844
0.00224408
0.00179673
0.00131423
0.000804752
0.000276367
-0.00026294
-0.000802597
-0.00133276
-0.0018847
-0.00248787
0.00149836
0.000719372
0.00011231
-0.000375859
-0.000809327
-0.00119237
-0.00152848
-0.00182513
-0.00208935
-0.00232719
-0.00254402
-0.00274448
-0.00293245
-0.00311106
-0.00328272
-0.00344914
-0.00361136
-0.00376981
-0.00392431
-0.00407417
-0.0042182
-0.00435476
-0.00448184
-0.00459707
-0.00469783
-0.00478128
-0.00484442
-0.0048842
-0.00489756
-0.00488152
-0.00483326
-0.00475022
-0.00463016
-0.00447128
-0.00427229
-0.00403253
-0.00375199
-0.00343144
-0.00307249
-0.00267759
-0.00225013
-0.00179441
-0.00131565
-0.00081996
-0.000314254
0.000193823
0.000696036
0.00118371
0.00164794
0.00207977
0.00247044
0.00281166
0.00309581
0.00331621
0.00346736
0.00354511
0.00354684
0.00347152
0.00331985
0.00309417
0.0027984
0.00243794
0.00201946
0.00155066
0.00104003
0.000496574
-7.07243e-05
-0.000652932
-0.00123822
-0.00181554
-0.00241915
-0.00308117
0.00105242
0.000248591
-0.000377354
-0.00088039
-0.00132708
-0.00172213
-0.00206943
-0.00237695
-0.00265216
-0.00290151
-0.00313068
-0.00334457
-0.00354726
-0.00374204
-0.0039314
-0.0041171
-0.00430018
-0.00448104
-0.00465943
-0.00483455
-0.00500508
-0.0051692
-0.0053247
-0.00546899
-0.00559917
-0.0057121
-0.00580447
-0.00587287
-0.00591383
-0.00592398
-0.00590005
-0.00583902
-0.00573818
-0.00559524
-0.00540844
-0.00517662
-0.00489934
-0.00457695
-0.00421067
-0.00380267
-0.00335611
-0.00287517
-0.00236506
-0.00183201
-0.00128321
-0.000726711
-0.000171344
0.000373479
0.000897939
0.00139204
0.00184587
0.00224986
0.00259505
0.00287345
0.00307821
0.00320394
0.00324688
0.00320508
0.00307844
0.0028688
0.00257985
0.00221697
0.00178712
0.00129851
0.000760376
0.000182609
-0.000424815
-0.00105189
-0.0016854
-0.00231298
-0.00297208
-0.00369775
0.00052213
-0.000303978
-0.000946931
-0.00146348
-0.00192235
-0.00232866
-0.0026867
-0.00300493
-0.00329124
-0.00355244
-0.00379453
-0.00402266
-0.00424109
-0.00445325
-0.00466172
-0.0048683
-0.00507404
-0.00527927
-0.0054837
-0.0056864
-0.0058859
-0.00608024
-0.00626697
-0.00644328
-0.00660599
-0.00675165
-0.00687662
-0.00697709
-0.00704921
-0.00708914
-0.00709315
-0.00705771
-0.00697958
-0.00685596
-0.00668452
-0.00646355
-0.0061921
-0.00587001
-0.00549805
-0.005078
-0.00461272
-0.00410617
-0.0035635
-0.00299098
-0.00239601
-0.00178705
-0.00117348
-0.000565482
2.61817e-05
0.0005904
0.00111598
0.00159195
0.00200789
0.00235422
0.0026226
0.00280615
0.00289978
0.00290034
0.00280681
0.00262033
0.0023442
0.00198374
0.00154612
0.00104006
0.000475576
-0.000136469
-0.000785007
-0.00145885
-0.00214323
-0.00282432
-0.00354308
-0.00433768
-9.53631e-05
-0.000941074
-0.00159909
-0.00212774
-0.00259771
-0.00301453
-0.00338286
-0.00371162
-0.00400912
-0.00428253
-0.00453813
-0.00478131
-0.00501652
-0.0052473
-0.00547633
-0.00570544
-0.00593566
-0.00616731
-0.0064
-0.0066327
-0.00686381
-0.00709117
-0.00731213
-0.00752364
-0.00772224
-0.00790418
-0.00806543
-0.00820182
-0.00830905
-0.0083828
-0.00841884
-0.0084131
-0.00836176
-0.00826142
-0.00810915
-0.00790262
-0.00764026
-0.00732133
-0.00694604
-0.00651569
-0.00603274
-0.00550085
-0.00492498
-0.00431139
-0.00366762
-0.00300246
-0.00232583
-0.00164866
-0.000982694
-0.00034022
0.000266193
0.000824038
0.00132122
0.00174644
0.00208958
0.00234205
0.00249714
0.0025503
0.00249931
0.00234442
0.00208836
0.00173626
0.00129543
0.000775107
0.000186076
-0.000459746
-0.00115009
-0.00187248
-0.0026104
-0.00334842
-0.00413129
-0.00500061
-0.00080251
-0.00166504
-0.00233609
-0.00287542
-0.00335538
-0.00378192
-0.00416007
-0.00449919
-0.00480798
-0.00509395
-0.00536365
-0.0056227
-0.00587572
-0.00612637
-0.00637742
-0.00663071
-0.00688731
-0.00714745
-0.0074107
-0.00767592
-0.00794135
-0.00820466
-0.00846302
-0.00871311
-0.0089512
-0.0091732
-0.00937474
-0.00955122
-0.00969789
-0.00980994
-0.00988259
-0.00991118
-0.00989128
-0.00981881
-0.00969018
-0.00950236
-0.00925307
-0.0089409
-0.00856542
-0.00812732
-0.00762853
-0.0070723
-0.00646332
-0.0058077
-0.00511305
-0.0043884
-0.00364417
-0.00289202
-0.00214466
-0.00141561
-0.000718899
-6.87133e-05
0.00052102
0.00103705
0.00146723
0.00180099
0.00202973
0.00214717
0.00214962
0.0020362
0.00180885
0.00147233
0.001034
0.00050353
-0.000107482
-0.000786012
-0.00151849
-0.00229099
-0.00308511
-0.0038836
-0.00473535
-0.00568562
-0.00160133
-0.0024778
-0.00315982
-0.00370834
-0.00419717
-0.00463263
-0.00502013
-0.00536942
-0.00568958
-0.00598844
-0.00627281
-0.00654853
-0.00682038
-0.00709214
-0.00736665
-0.0076458
-0.00793064
-0.00822139
-0.00851752
-0.00881781
-0.00912035
-0.00942267
-0.0097217
-0.0100139
-0.0102952
-0.0105613
-0.0108074
-0.0110285
-0.0112193
-0.0113745
-0.0114888
-0.0115568
-0.0115736
-0.0115342
-0.0114343
-0.0112702
-0.0110387
-0.0107377
-0.010366
-0.00992353
-0.00941158
-0.00883289
-0.00819169
-0.00749387
-0.00674696
-0.00596016
-0.00514429
-0.00431168
-0.003476
-0.00265204
-0.00185534
-0.00110188
-0.000407609
0.000212051
0.000742686
0.00117142
0.00148743
0.00168238
0.00175079
0.0016903
0.00150184
0.00118955
0.0007607
0.000225309
-0.000404223
-0.00111371
-0.00188818
-0.00271211
-0.003565
-0.00442758
-0.00535324
-0.00639117
-0.00249336
-0.00338084
-0.00407171
-0.00462792
-0.00512448
-0.00556805
-0.00596439
-0.00632365
-0.00665524
-0.00696729
-0.00726687
-0.00756002
-0.00785167
-0.00814574
-0.00844512
-0.00875176
-0.00906669
-0.00939012
-0.00972146
-0.0100594
-0.0104019
-0.0107463
-0.0110893
-0.0114273
-0.0117558
-0.0120702
-0.0123652
-0.0126356
-0.0128756
-0.0130792
-0.0132405
-0.0133537
-0.0134127
-0.0134122
-0.0133469
-0.0132121
-0.013004
-0.0127194
-0.0123562
-0.0119136
-0.0113922
-0.0107938
-0.0101222
-0.00938295
-0.00858328
-0.00773244
-0.00684156
-0.00592355
-0.00499301
-0.00406595
-0.00315951
-0.00229156
-0.0014802
-0.000743262
-9.7715e-05
0.000440953
0.000859326
0.00114662
0.00129519
0.00130084
0.00116311
0.000885313
0.000474368
-5.945e-05
-0.00070299
-0.00144087
-0.0022566
-0.00313293
-0.00404701
-0.00497736
-0.00598218
-0.00711493
-0.00347967
-0.00437515
-0.00507273
-0.00563513
-0.00613825
-0.0065891
-0.00699378
-0.00736276
-0.00770581
-0.00803131
-0.00834658
-0.00865784
-0.00897021
-0.0092877
-0.00961328
-0.00994895
-0.0102957
-0.0106539
-0.0110227
-0.0114007
-0.0117859
-0.0121755
-0.012566
-0.0129533
-0.013333
-0.0137
-0.0140487
-0.0143733
-0.0146676
-0.0149251
-0.0151393
-0.0153035
-0.0154111
-0.0154557
-0.0154313
-0.0153323
-0.0151537
-0.0148915
-0.0145426
-0.0141052
-0.0135788
-0.0129646
-0.0122655
-0.0114866
-0.0106346
-0.00971882
-0.00875043
-0.00774284
-0.00671147
-0.00567354
-0.00464777
-0.00365399
-0.00271263
-0.00184412
-0.00106826
-0.000403499
0.000133769
0.000529893
0.000774583
0.000861405
0.000788116
0.000556809
0.000173838
-0.00035047
-0.00100229
-0.00176503
-0.00262059
-0.00354983
-0.00452731
-0.00552907
-0.00661854
-0.0078537
-0.00456081
-0.00546128
-0.00616342
-0.00673048
-0.00723899
-0.00769629
-0.00810874
-0.00848718
-0.00884164
-0.00918077
-0.00951213
-0.00984211
-0.010176
-0.0105179
-0.0108709
-0.011237
-0.0116173
-0.012012
-0.0124204
-0.012841
-0.0132717
-0.0137094
-0.0141505
-0.014591
-0.0150258
-0.0154496
-0.0158567
-0.0162406
-0.0165946
-0.0169118
-0.0171848
-0.0174064
-0.0175691
-0.0176656
-0.017689
-0.0176327
-0.0174906
-0.0172576
-0.0169295
-0.0165034
-0.0159777
-0.0153525
-0.01463
-0.0138143
-0.0129118
-0.0119312
-0.0108839
-0.00978348
-0.00864614
-0.0074902
-0.00633593
-0.00520517
-0.00412076
-0.00310593
-0.00218358
-0.00137548
-0.000701413
-0.000178371
0.000180225
0.000365175
0.000371982
0.000201108
-0.000142017
-0.000647251
-0.00130023
-0.00208316
-0.00297628
-0.00395836
-0.00500113
-0.00607788
-0.00725762
-0.00860319
-0.0057368
-0.00663925
-0.00734381
-0.00791403
-0.00842677
-0.00888963
-0.00930929
-0.00969685
-0.0100626
-0.0104155
-0.0107632
-0.0111123
-0.0114683
-0.0118355
-0.0122169
-0.0126147
-0.01303
-0.0134629
-0.0139129
-0.0143783
-0.0148569
-0.0153456
-0.0158407
-0.0163377
-0.0168315
-0.0173165
-0.0177865
-0.0182347
-0.018654
-0.0190366
-0.0193747
-0.0196602
-0.0198848
-0.0200404
-0.020119
-0.0201128
-0.0200147
-0.0198185
-0.0195185
-0.0191107
-0.0185923
-0.0179622
-0.0172215
-0.0163732
-0.015423
-0.0143792
-0.0132527
-0.0120575
-0.0108101
-0.00952995
-0.00823873
-0.00696028
-0.00571991
-0.00454383
-0.00345829
-0.0024887
-0.00165869
-0.000989086
-0.000497008
-0.000194994
-9.03618e-05
-0.000184793
-0.000474213
-0.000948989
-0.00159441
-0.00239156
-0.00331895
-0.00435311
-0.00546266
-0.00661781
-0.00789358
-0.00935792
-0.00700711
-0.00790861
-0.00861349
-0.00918537
-0.00970118
-0.0101687
-0.010595
-0.0109912
-0.0113681
-0.0117346
-0.0120988
-0.0124674
-0.012846
-0.013239
-0.0136496
-0.01408
-0.0145315
-0.0150042
-0.0154973
-0.0160095
-0.0165383
-0.0170806
-0.0176325
-0.0181894
-0.018746
-0.0192963
-0.0198338
-0.0203512
-0.020841
-0.0212948
-0.0217042
-0.0220602
-0.0223538
-0.0225758
-0.0227172
-0.0227691
-0.0227232
-0.0225717
-0.0223081
-0.0219265
-0.021423
-0.020795
-0.0200424
-0.0191669
-0.0181734
-0.0170692
-0.0158649
-0.0145742
-0.0132141
-0.0118047
-0.0103691
-0.00893303
-0.0075243
-0.00617217
-0.00490647
-0.00375661
-0.00275046
-0.00191325
-0.00126639
-0.000826394
-0.000604067
-0.000603849
-0.000823557
-0.00125448
-0.00188185
-0.00268576
-0.00364293
-0.00472758
-0.00590484
-0.00714157
-0.00851916
-0.010111
-0.00837068
-0.00926838
-0.00997157
-0.0105437
-0.0110614
-0.0115327
-0.0119649
-0.0123693
-0.0127569
-0.0131368
-0.0135174
-0.0139055
-0.0143068
-0.014726
-0.0151663
-0.0156301
-0.0161185
-0.016632
-0.0171698
-0.0177303
-0.0183113
-0.0189094
-0.0195208
-0.0201405
-0.0207632
-0.0213826
-0.0219919
-0.0225833
-0.0231487
-0.0236795
-0.0241662
-0.0245994
-0.0249689
-0.0252648
-0.0254768
-0.0255949
-0.0256096
-0.0255116
-0.0252929
-0.0249462
-0.024466
-0.0238483
-0.0230912
-0.0221954
-0.0211643
-0.0200041
-0.0187248
-0.0173396
-0.0158656
-0.0143235
-0.0127374
-0.011135
-0.0095463
-0.00800385
-0.00654115
-0.0051919
-0.00398866
-0.00296159
-0.00213703
-0.00153622
-0.00117417
-0.00105881
-0.00119051
-0.001562
-0.00215884
-0.00296032
-0.00394146
-0.00507396
-0.00631923
-0.00764037
-0.00912557
-0.0108539
-0.00982593
-0.0107171
-0.0114167
-0.0119877
-0.0125062
-0.0129804
-0.0134176
-0.0138296
-0.0142274
-0.0146204
-0.0150169
-0.0154243
-0.0158482
-0.0162934
-0.0167635
-0.0172609
-0.0177869
-0.0183418
-0.0189251
-0.0195352
-0.0201698
-0.0208256
-0.0214985
-0.0221838
-0.0228756
-0.0235675
-0.0242523
-0.0249221
-0.0255681
-0.0261811
-0.0267511
-0.0272677
-0.0277201
-0.0280972
-0.0283877
-0.0285803
-0.0286641
-0.0286286
-0.0284639
-0.0281614
-0.0277137
-0.0271152
-0.0263624
-0.0254542
-0.0243924
-0.0231823
-0.0218325
-0.0203556
-0.0187683
-0.0170917
-0.0153507
-0.0135745
-0.0117957
-0.0100495
-0.00837354
-0.00680586
-0.00538417
-0.00414407
-0.00311752
-0.00233125
-0.00180533
-0.00155202
-0.00157499
-0.00186912
-0.00242078
-0.00320875
-0.00420646
-0.005383
-0.00669577
-0.0081037
-0.0097022
-0.0115763
-0.0113708
-0.012253
-0.0129472
-0.0135157
-0.0140339
-0.01451
-0.0149515
-0.0153703
-0.0157775
-0.0161828
-0.0165948
-0.0170207
-0.0174667
-0.0179376
-0.0184371
-0.0189678
-0.0195311
-0.0201277
-0.0207568
-0.0214172
-0.0221063
-0.0228211
-0.0235573
-0.02431
-0.0250734
-0.0258408
-0.0266046
-0.0273565
-0.0280875
-0.0287876
-0.0294463
-0.0300525
-0.0305943
-0.0310597
-0.0314363
-0.0317116
-0.0318732
-0.031909
-0.0318078
-0.0315591
-0.0311537
-0.0305842
-0.0298451
-0.0289336
-0.0278497
-0.026597
-0.0251829
-0.0236188
-0.0219209
-0.02011
-0.0182118
-0.0162564
-0.0142787
-0.0123169
-0.0104123
-0.00860765
-0.00694614
-0.0054693
-0.00421539
-0.00321745
-0.0025015
-0.0020851
-0.00197616
-0.00217251
-0.00266196
-0.00342324
-0.00442835
-0.00564376
-0.00702255
-0.0085191
-0.0102364
-0.0122657
-0.0130026
-0.0138737
-0.0145609
-0.0151257
-0.0156425
-0.0161196
-0.0165644
-0.0169891
-0.0174048
-0.0178214
-0.0182477
-0.0186911
-0.0191581
-0.0196537
-0.0201817
-0.0207449
-0.021345
-0.0219827
-0.0226575
-0.0233681
-0.0241121
-0.0248865
-0.025687
-0.0265086