/*--------------------------------*- C++ -*----------------------------------*\
  =========                 |
  \\      /  F ield         | OpenFOAM: The Open Source CFD Toolbox
   \\    /   O peration     | Website:  https://openfoam.org
    \\  /    A nd           | Version:  dev
     \\/     M anipulation  |
\*---------------------------------------------------------------------------*/
FoamFile
{
    format      ascii;
    class       volScalarField;
    location    "27.45";
    object      Uy;
}
// * * * * * * * * * * * * * * * * * * * * * * * * * * * * * * * * * * * * * //

dimensions      [0 1 -1 0 0 0 0];

internalField   nonuniform List<scalar> 
5184
(
-1.27791e-05
-2.0925e-05
-1.72585e-05
-8.198e-06
2.66917e-06
1.36167e-05
2.38432e-05
3.3043e-05
4.10981e-05
4.80143e-05
5.38533e-05
5.86997e-05
6.2646e-05
6.57836e-05
6.81973e-05
6.99622e-05
7.11428e-05
7.17914e-05
7.19487e-05
7.16445e-05
7.0898e-05
6.97197e-05
6.81128e-05
6.60741e-05
6.35963e-05
6.06699e-05
5.72841e-05
5.34295e-05
4.9099e-05
4.42896e-05
3.90038e-05
3.32508e-05
2.70477e-05
2.04206e-05
1.34051e-05
6.04691e-06
-1.59779e-06
-9.46261e-06
-1.74711e-05
-2.55374e-05
-3.35672e-05
-4.1459e-05
-4.91055e-05
-5.63959e-05
-6.32175e-05
-6.94585e-05
-7.50101e-05
-7.97695e-05
-8.36421e-05
-8.65439e-05
-8.84046e-05
-8.91689e-05
-8.87986e-05
-8.72739e-05
-8.45944e-05
-8.07795e-05
-7.58686e-05
-6.99203e-05
-6.30122e-05
-5.52401e-05
-4.67182e-05
-3.75792e-05
-2.79783e-05
-1.80978e-05
-8.16316e-06
1.53073e-06
1.05607e-05
1.829e-05
2.3707e-05
2.51203e-05
1.98449e-05
6.24475e-06
-4.59827e-05
-6.57638e-05
-4.05742e-05
7.62897e-06
6.56708e-05
0.000125973
0.000184263
0.000238295
0.000286929
0.000329725
0.000366644
0.000397874
0.000423728
0.000444573
0.000460784
0.000472722
0.000480708
0.000485018
0.000485875
0.000483451
0.000477867
0.000469199
0.000457486
0.000442738
0.000424942
0.000404075
0.000380113
0.000353039
0.000322853
0.000289581
0.000253286
0.000214069
0.000172079
0.000127521
8.06523e-05
3.17932e-05
-1.86779e-05
-7.03232e-05
-0.000122648
-0.000175104
-0.000227099
-0.000278
-0.000327146
-0.000373858
-0.000417454
-0.000457256
-0.000492613
-0.000522911
-0.000547589
-0.000566151
-0.000578185
-0.000583373
-0.000581497
-0.000572456
-0.000556264
-0.00053306
-0.000503108
-0.000466797
-0.000424642
-0.000377282
-0.000325485
-0.000270156
-0.000212356
-0.000153337
-9.46084e-05
-3.80488e-05
1.38835e-05
5.78838e-05
8.93613e-05
0.000101822
8.64977e-05
3.64854e-05
-8.13345e-05
-9.50454e-05
-1.91369e-05
0.000105917
0.000254614
0.000410514
0.000563311
0.00070687
0.000837745
0.00095423
0.00105573
0.00114234
0.00121457
0.00127316
0.00131891
0.00135267
0.00137518
0.00138713
0.00138908
0.00138148
0.00136464
0.00133881
0.00130409
0.00126057
0.00120824
0.00114709
0.00107713
0.000998353
0.000910834
0.00081471
0.000710212
0.000597685
0.000477602
0.000350578
0.000217379
7.89263e-05
-6.36993e-05
-0.000209263
-0.000356382
-0.00050354
-0.000649101
-0.000791334
-0.000928436
-0.00105857
-0.00117987
-0.00129054
-0.00138881
-0.00147304
-0.00154172
-0.00159356
-0.00162744
-0.00164252
-0.00163825
-0.00161437
-0.00157094
-0.00150837
-0.0014274
-0.00132914
-0.00121503
-0.00108687
-0.000946845
-0.000797513
-0.000641883
-0.000483485
-0.000326516
-0.000176063
-3.84425e-05
7.83316e-05
0.000163964
0.000205294
0.000186214
9.03719e-05
-9.77261e-05
-7.31243e-05
8.47871e-05
0.000318323
0.000589992
0.000874177
0.00115385
0.00141824
0.00166086
0.00187819
0.00206867
0.00223206
0.0023689
0.00248024
0.00256736
0.00263157
0.00267416
0.00269629
0.00269892
0.00268286
0.0026487
0.00259686
0.00252763
0.00244114
0.00233749
0.00221672
0.00207888
0.00192408
0.00175254
0.0015646
0.00136077
0.00114181
0.000908685
0.000662629
0.000405158
0.000138073
-0.000136539
-0.000416308
-0.000698599
-0.000980537
-0.00125904
-0.00153084
-0.00179257
-0.0020408
-0.00227206
-0.00248298
-0.00267032
-0.00283101
-0.00296229
-0.00306173
-0.00312731
-0.00315749
-0.00315124
-0.00310812
-0.00302828
-0.0029125
-0.0027622
-0.0025795
-0.00236714
-0.00212858
-0.00186796
-0.00159018
-0.00130096
-0.00100696
-0.000715989
-0.00043733
-0.000182119
3.60379e-05
0.000200426
0.000290655
0.000282437
0.000147237
-8.43722e-05
2.09305e-05
0.000295436
0.000667929
0.00109061
0.00152959
0.00196141
0.00237063
0.00274751
0.00308643
0.00338461
0.00364124
0.00385677
0.00403245
0.00416993
0.00427104
0.00433757
0.00437116
0.00437323
0.00434497
0.00428727
0.00420081
0.00408603
0.00394323
0.0037726
0.00357431
0.00334853
0.00309555
0.0028158
0.00250995
0.00217894
0.00182405
0.00144693
0.00104962
0.000634607
0.000204809
-0.000236417
-0.000685282
-0.0011376
-0.00158882
-0.00203407
-0.00246824
-0.00288604
-0.00328207
-0.00365098
-0.00398747
-0.0042865
-0.00454333
-0.00475365
-0.00491371
-0.00502036
-0.00507123
-0.00506475
-0.00500023
-0.00487794
-0.00469912
-0.00446606
-0.00418207
-0.00385153
-0.00347989
-0.00307374
-0.0026408
-0.00219006
-0.00173194
-0.00127847
-0.000843713
-0.000444142
-9.93135e-05
0.00016744
0.00032839
0.000350807
0.000194066
-3.74848e-05
0.000197388
0.000626839
0.00117015
0.00177137
0.00238967
0.00299599
0.00357055
0.00410049
0.00457807
0.0049992
0.00536239
0.0056679
0.00591707
0.0061119
0.00625464
0.00634758
0.00639285
0.00639232
0.00634755
0.00625978
0.00612995
0.00595871
0.00574654
0.00549381
0.00520081
0.00486795
0.00449573
0.00408494
0.00363666
0.00315237
0.00263404
0.00208413
0.00150571
0.000902401
0.000278471
-0.000361224
-0.00101123
-0.00166555
-0.00231767
-0.00296067
-0.00358728
-0.00419001
-0.00476125
-0.00529338
-0.00577899
-0.00621094
-0.00658256
-0.00688779
-0.00712133
-0.00727879
-0.0073568
-0.00735316
-0.00726692
-0.00709844
-0.00684953
-0.00652342
-0.00612482
-0.00565998
-0.00513666
-0.00456421
-0.00395359
-0.00331751
-0.00267057
-0.00202947
-0.00141342
-0.000844538
-0.000348504
4.47151e-05
0.000300184
0.000377097
0.00022442
4.41334e-05
0.000461254
0.00108691
0.00183436
0.00264178
0.00346294
0.00426421
0.00502214
0.00572115
0.00635154
0.00690799
0.00738835
0.00779263
0.00812225
0.00837949
0.00856701
0.00868755
0.00874369
0.00873776
0.0086717
0.00854709
0.00836513
0.00812673
0.00783257
0.00748321
0.00707919
0.00662114
0.00610991
0.00554669
0.00493309
0.00427126
0.00356397
0.00281466
0.00202755
0.00120762
0.000360644
-0.000506816
-0.00138743
-0.00227314
-0.00315529
-0.00402463
-0.0048715
-0.00568596
-0.00645792
-0.00717731
-0.0078343
-0.00841946
-0.00892396
-0.00933978
-0.00965992
-0.00987854
-0.00999119
-0.00999493
-0.00988847
-0.00967231
-0.00934878
-0.00892217
-0.00839873
-0.00778673
-0.00709648
-0.00634035
-0.00553287
-0.00469075
-0.0038331
-0.0029816
-0.00216084
-0.00139874
-0.000727145
-0.000182538
0.000193284
0.000352209
0.00023487
0.000160478
0.000814394
0.00167942
0.00266559
0.00370723
0.00475432
0.00576983
0.00672749
0.00760951
0.00840462
0.00910649
0.00971239
0.0102222
0.0106373
0.0109604
0.0111944
0.0113425
0.0114079
0.0113931
0.0113006
0.0111322
0.0108894
0.0105735
0.0101852
0.00972547
0.00919502
0.00859483
0.00792613
0.0071906
0.00639047
0.00552865
0.00460884
0.00363559
0.00261441
0.00155175
0.000455088
-0.000667145
-0.00180556
-0.00294989
-0.00408907
-0.00521138
-0.00630455
-0.00735596
-0.00835283
-0.00928244
-0.0101323
-0.0108905
-0.0115459
-0.0120882
-0.0125086
-0.0127997
-0.0129557
-0.0129729
-0.0128497
-0.0125864
-0.0121861
-0.011654
-0.0109982
-0.0102289
-0.00935918
-0.00840467
-0.00738363
-0.00631704
-0.00522874
-0.00414557
-0.00309766
-0.00211881
-0.00124697
-0.000524939
-9.11074e-07
0.000270577
0.000223709
0.000310914
0.00125672
0.00240534
0.00366568
0.00497003
0.00626606
0.00751451
0.0086872
0.00976481
0.010735
0.0115906
0.0123287
0.0129491
0.0134533
0.0138442
0.0141253
0.0143002
0.0143723
0.0143448
0.0142204
0.0140012
0.0136892
0.0132857
0.0127918
0.0122087
0.0115374
0.0107792
0.00993592
0.00900966
0.00800339
0.00692086
0.00576679
0.00454695
0.00326824
0.00193873
0.000567709
-0.000834384
-0.00225596
-0.00368436
-0.00510599
-0.00650644
-0.00787069
-0.00918325
-0.0104285
-0.0115907
-0.0126548
-0.0136059
-0.0144305
-0.0151159
-0.0156512
-0.0160272
-0.0162368
-0.0162753
-0.0161404
-0.0158326
-0.0153555
-0.0147153
-0.0139216
-0.0129871
-0.0119275
-0.0107619
-0.00951233
-0.00820429
-0.0068665
-0.00553109
-0.00423383
-0.00301441
-0.00191683
-0.000989948
-0.000287922
0.000129095
0.000190288
0.000494538
0.00178699
0.00326378
0.00483427
0.00643017
0.00799818
0.00949799
0.0109004
0.0121853
0.0133397
0.0143563
0.0152321
0.0159668
0.0165625
0.0170223
0.0173502
0.0175502
0.0176261
0.0175816
0.0174197
0.017143
0.0167534
0.0162528
0.0156425
0.0149239
0.0140984
0.0131676
0.0121339
0.0109999
0.00976944
0.00844713
0.00703878
0.00555145
0.00399353
0.0023748
0.000706444
-0.000998968
-0.00272753
-0.00446408
-0.00619236
-0.00789513
-0.00955444
-0.0111518
-0.0126685
-0.0140858
-0.0153855
-0.0165501
-0.0175629
-0.018409
-0.019075
-0.0195499
-0.019825
-0.0198942
-0.0197549
-0.0194072
-0.0188552
-0.0181061
-0.0171712
-0.0160652
-0.0148069
-0.0134188
-0.0119269
-0.0103612
-0.00875552
-0.00714736
-0.00557821
-0.00409365
-0.00274364
-0.00158295
-0.000671291
-7.38504e-05
0.000134526
0.000710315
0.00240331
0.00425267
0.00616938
0.00808583
0.00994894
0.0117184
0.0133648
0.014868
0.0162152
0.0173992
0.0184171
0.0192691
0.0199578
0.0204868
0.0208605
0.0210835
0.0211601
0.0210942
0.0208893
0.0205483
0.0200735
0.0194668
0.01873
0.0178647
0.0168726
0.0157559
0.0145172
0.01316
0.0116889
0.0101093
0.00842827
0.00665421
0.00479704
0.00286829
0.000881143
-0.00114965
-0.00320777
-0.00527546
-0.00733368
-0.00936227
-0.0113402
-0.0132458
-0.0150571
-0.0167523
-0.0183098
-0.019709
-0.0209304
-0.021956
-0.0227703
-0.0233597
-0.0237138
-0.0238254
-0.0236906
-0.0233096
-0.0226865
-0.0218296
-0.0207516
-0.0194696
-0.0180051
-0.016384
-0.0146365
-0.0127974
-0.0109054
-0.0090036
-0.00713922
-0.00536381
-0.00373328
-0.00230813
-0.00115346
-0.000339098
5.65906e-05
0.00095717
0.00310336
0.0053691
0.00766791
0.00993388
0.0121152
0.0141723
0.0160769
0.0178092
0.0193572
0.0207142
0.0218782
0.0228499
0.0236326
0.0242306
0.0246488
0.0248924
0.0249662
0.0248746
0.0246214
0.0242098
0.0236424
0.0229215
0.022049
0.0210267
0.019857
0.0185421
0.0170854
0.015491
0.0137642
0.0119115
0.00994099
0.00786254
0.0056876
0.00342951
0.00110346
-0.00127355
-0.00368274
-0.0061037
-0.00851451
-0.010892
-0.0132119
-0.0154493
-0.0175789
-0.0195753
-0.0214137
-0.02307
-0.0245215
-0.0257474
-0.026729
-0.0274505
-0.0278994
-0.0280669
-0.0279479
-0.0275421
-0.0268538
-0.0258919
-0.0246705
-0.023209
-0.0215317
-0.0196679
-0.0176522
-0.0155237
-0.0133266
-0.0111094
-0.0089254
-0.00683203
-0.00489122
-0.00316922
-0.00173643
-0.00066721
-4.3301e-05
0.00123401
0.00388462
0.00660967
0.00932596
0.0119701
0.0144925
0.0168554
0.019032
0.021004
0.0227604
0.024296
0.0256095
0.0267029
0.0275802
0.0282467
0.0287079
0.0289696
0.0290373
0.0289159
0.0286094
0.0281215
0.0274549
0.0266123
0.0255958
0.0244076
0.0230502
0.0215264
0.0198401
0.0179959
0.0159999
0.0138598
0.0115846
0.00918565
0.00667592
0.00407055
0.00138675
-0.00135622
-0.00413708
-0.00693273
-0.00971832
-0.0124675
-0.0151529
-0.0177461
-0.0202181
-0.0225402
-0.0246836
-0.026621
-0.028326
-0.0297744
-0.0309446
-0.0318181
-0.0323797
-0.0326188
-0.0325291
-0.0321092
-0.0313633
-0.030301
-0.0289376
-0.0272944
-0.0253986
-0.023283
-0.0209862
-0.0185522
-0.0160305
-0.0134753
-0.0109458
-0.00850577
-0.00622314
-0.00417004
-0.00242228
-0.00105883
-0.000165015
0.00153974
0.00474437
0.00797056
0.011139
0.0141896
0.0170757
0.0197622
0.0222245
0.0244464
0.0264189
0.0281382
0.0296047
0.0308216
0.0317941
0.0325284
0.0330311
0.0333087
0.0333672
0.0332121
0.0328478
0.0322784
0.0315069
0.0305361
0.0293684
0.0280063
0.0264525
0.0247104
0.0227842
0.0206793
0.0184024
0.015962
0.0133686
0.0106345
0.00777436
0.0048051
0.00174591
-0.00138171
-0.00455402
-0.00774517
-0.0109274
-0.0140712
-0.0171457
-0.020119
-0.0229585
-0.0256316
-0.0281059
-0.0303498
-0.0323335
-0.0340291
-0.0354115
-0.036459
-0.0371538
-0.0374828
-0.037438
-0.037017
-0.0362233
-0.035067
-0.0335644
-0.0317386
-0.0296194
-0.0272431
-0.0246525
-0.0218965
-0.0190298
-0.0161127
-0.0132105
-0.0103933
-0.00773536
-0.00531495
-0.0032135
-0.00151494
-0.000308588
0.00187326
0.00567978
0.00944764
0.013102
0.0165867
0.0198586
0.0228863
0.0256478
0.0281299
0.0303259
0.0322341
0.0338568
0.0351989
0.0362671
0.0370688
0.0376117
0.037903
0.0379497
0.0377576
0.0373317
0.0366763
0.0357949
0.0346904
0.0333654
0.0318228
0.0300654
0.0280971
0.0259223
0.0235472
0.0209791
0.0182274
0.0153036
0.0122214
0.00899674
0.00564833
0.00219728
-0.00133271
-0.00491544
-0.00852236
-0.0121227
-0.0156839
-0.0191715
-0.02255
-0.025783
-0.0288338
-0.031666
-0.034244
-0.0365337
-0.0385033
-0.0401239
-0.0413701
-0.0422211
-0.0426609
-0.0426795
-0.0422727
-0.0414434
-0.0402014
-0.038564
-0.0365559
-0.0342093
-0.031564
-0.0286668
-0.0255717
-0.0223389
-0.0190347
-0.0157308
-0.012504
-0.0094352
-0.00660914
-0.00411331
-0.00203705
-0.000474286
0.00223344
0.00668787
0.0110365
0.0152094
0.019155
0.0228346
0.0262205
0.0292946
0.032047
0.0344738
0.036576
0.0383583
0.0398276
0.0409921
0.041861
0.0424429
0.0427464
0.0427789
0.0425471
0.0420564
0.0413115
0.0403162
0.0390735
0.0375865
0.035858
0.0338912
0.0316901
0.0292598
0.0266066
0.0237388
0.0206663
0.0174018
0.0139598
0.010358
0.00661657
0.00275841
-0.0011906
-0.00520191
-0.0092443
-0.0132841
-0.0172854
-0.0212104
-0.0250197
-0.0286731
-0.0321297
-0.0353487
-0.03829
-0.0409153
-0.0431882
-0.0450756
-0.0465481
-0.0475812
-0.0481557
-0.0482588
-0.0478843
-0.0470339
-0.0457169
-0.0439509
-0.0417622
-0.0391852
-0.0362629
-0.0330465
-0.0295948
-0.0259736
-0.0222557
-0.0185195
-0.0148487
-0.0113313
-0.00805895
-0.00512583
-0.00262728
-0.000662646
0.00261912
0.00776556
0.0127325
0.0174554
0.0218879
0.0259961
0.029757
0.0331568
0.0361893
0.0388543
0.0411557
0.043101
0.0446994
0.0459613
0.0468973
0.0475177
0.047832
0.0478488
0.0475752
0.0470174
0.0461804
0.0450682
0.0436842
0.0420315
0.0401131
0.0379324
0.0354938
0.0328024
0.0298652
0.0266907
0.0232898
0.0196757
0.0158642
0.0118742
0.00772715
0.00344793
-0.000935692
-0.00539287
-0.00988979
-0.0143899
-0.018854
-0.023241
-0.0275075
-0.0316092
-0.0355008
-0.039137
-0.0424731
-0.0454658
-0.0480739
-0.0502596
-0.0519889
-0.0532331
-0.0539692
-0.054181
-0.0538599
-0.0530056
-0.0516266
-0.0497405
-0.0473745
-0.0445653
-0.0413589
-0.0378106
-0.0339843
-0.0299517
-0.0257922
-0.0215911
-0.0174397
-0.0134336
-0.00967202
-0.00625626
-0.00328852
-0.000874499
0.0030291
0.00890957
0.0145307
0.0198337
0.024778
0.0293351
0.0334872
0.0372254
0.0405479
0.0434582
0.0459641
0.0480759
0.0498057
0.0511662
0.0521698
0.0528284
0.053153
0.053153
0.0528364
0.05221
0.0512792
0.0500482
0.0485208
0.0467002
0.0445894
0.0421921
0.0395126
0.0365564
0.0333307
0.0298445
0.0261091
0.0221385
0.0179494
0.0135616
0.00899811
0.00428524
-0.000547362
-0.00546668
-0.0104364
-0.0154173
-0.0203669
-0.0252404
-0.0299909
-0.0345696
-0.0389269
-0.0430125
-0.0467766
-0.0501708
-0.0531487
-0.055667
-0.0576869
-0.0591745
-0.0601024
-0.0604506
-0.0602071
-0.0593693
-0.0579441
-0.0559486
-0.0534107
-0.0503689
-0.0468721
-0.0429797
-0.0387606
-0.0342927
-0.0296622
-0.0249621
-0.0202914
-0.015754
-0.0114574
-0.00751093
-0.00402445
-0.00111099
0.00346213
0.0101165
0.0164257
0.0223376
0.0278174
0.0328429
0.037402
0.0414909
0.0451127
0.0482757
0.0509913
0.0532734
0.0551371
0.0565976
0.0576697
0.0583669
0.0587017
0.0586846
0.0583246
0.057629
0.0566037
0.0552533
0.0535818
0.0515922
0.049288
0.0466728
0.0437508
0.0405277
0.0370109
0.0332097
0.0291357
0.0248034
0.0202303
0.0154371
0.0104478
0.00529026
-4.32543e-06
-0.00540091
-0.0108609
-0.0163422
-0.0217994
-0.0271842
-0.0324458
-0.037531
-0.0423856
-0.0469542
-0.0511817
-0.0550139
-0.0583988
-0.0612872
-0.0636344
-0.0654012
-0.0665548
-0.0670707
-0.0669327
-0.0661351
-0.0646826
-0.0625914
-0.0598893
-0.0566162
-0.0528239
-0.0485757
-0.0439456
-0.0390179
-0.0338859
-0.0286507
-0.0234197
-0.018306
-0.0134257
-0.00889745
-0.00483957
-0.00137359
0.00391686
0.0113827
0.0184122
0.02496
0.030998
0.0365104
0.0414912
0.0459428
0.0498734
0.053296
0.0562266
0.058683
0.0606833
0.0622458
0.0633876
0.0641243
0.0644698
0.064436
0.0640329
0.0632685
0.0621491
0.0606798
0.0588645
0.0567066
0.0542094
0.0513764
0.048212
0.0447218
0.0409131
0.0367954
0.0323806
0.0276835
0.0227219
0.0175173
0.0120948
0.00648311
0.000715082
-0.00517251
-0.0111389
-0.0171395
-0.0231259
-0.0290465
-0.0348463
-0.040468
-0.0458524
-0.050939
-0.0556668
-0.0599758
-0.0638075
-0.0671064
-0.0698214
-0.0719067
-0.0733239
-0.0740425
-0.0740418
-0.073312
-0.0718548
-0.0696845
-0.0668286
-0.063328
-0.0592368
-0.054622
-0.049563
-0.0441505
-0.0384853
-0.0326772
-0.0268428
-0.0211047
-0.0155892
-0.0104247
-0.00573928
-0.00166411
0.00439191
0.0127043
0.0204842
0.0276933
0.0343107
0.0403276
0.0457445
0.05057
0.0548183
0.0585077
0.0616586
0.0642931
0.0664332
0.0680999
0.0693131
0.0700906
0.0704481
0.0703988
0.0699537
0.0691217
0.0679097
0.0663229
0.0643656
0.0620411
0.0593528
0.0563039
0.0528988
0.0491429
0.0450435
0.0406099
0.0358539
0.0307907
0.0254382
0.0198185
0.013957
0.00788375
0.00163257
-0.00475818
-0.0112458
-0.0177834
-0.0243197
-0.0307997
-0.0371647
-0.0433531
-0.0493005
-0.0549411
-0.0602079
-0.0650344
-0.0693553
-0.0731081
-0.0762344
-0.0786815
-0.0804039
-0.0813647
-0.0815374
-0.0809071
-0.0794717
-0.0772429
-0.074247
-0.0705253
-0.0661337
-0.061143
-0.0556377
-0.0497152
-0.0434843
-0.0370638
-0.0305805
-0.0241673
-0.0179617
-0.0121029
-0.00672983
-0.00198468
0.00488577
0.0140773
0.0226355
0.0305296
0.0377463
0.044284
0.0501505
0.0553608
0.0599355
0.0638983
0.0672749
0.0700917
0.0723746
0.0741481
0.0754349
0.0762551
0.0766262
0.0765632
0.0760782
0.0751807
0.0738784
0.0721769
0.0700804
0.0675926
0.0647163
0.061455
0.0578126
0.0537943
0.049407
0.0446598
0.0395645
0.034136
0.0283923
0.0223556
0.0160519
0.00951152
0.00276948
-0.00413467
-0.0111566
-0.0182472
-0.0253528
-0.0324151
-0.0393718
-0.0461567
-0.0527006
-0.0589318
-0.0647774
-0.0701639
-0.0750188
-0.0792718
-0.0828565
-0.0857124
-0.0877859
-0.0890328
-0.0894195
-0.0889251
-0.0875426
-0.0852801
-0.0821617
-0.0782285
-0.0735378
-0.0681636
-0.0621957
-0.0557382
-0.0489084
-0.0418347
-0.0346547
-0.0275129
-0.0205587
-0.0139435
-0.0078184
-0.00233778
0.00539686
0.0154974
0.0248595
0.0334605
0.0412948
0.0483686
0.0546972
0.0603027
0.0652119
0.0694547
0.0730622
0.0760655
0.0784946
0.0803777
0.0817405
0.0826057
0.0829928
0.0829185
0.0823961
0.0814362
0.0800469
0.0782343
0.0760028
0.0733559
0.0702965
0.0668276
0.0629529
0.058677
0.0540067
0.0489504
0.0435196
0.0377286
0.0315957
0.0251425
0.0183953
0.0113847
0.00414639
-0.00327925
-0.0108465
-0.0185044
-0.026197
-0.033863
-0.0414365
-0.0488472
-0.0560207
-0.0628797
-0.0693448
-0.0753353
-0.0807708
-0.0855729
-0.0896664
-0.0929818
-0.0954567
-0.0970381
-0.0976845
-0.0973675
-0.096074
-0.0938073
-0.0905886
-0.0864574
-0.081472
-0.0757093
-0.069264
-0.0622472
-0.0547849
-0.0470158
-0.0390892
-0.0311622
-0.0233972
-0.0159594
-0.00901306
-0.00272625
0.00592353
0.0169601
0.0271493
0.036477
0.0449458
0.0525698
0.0593721
0.0653822
0.0706338
0.0751629
0.0790064
0.0822003
0.0847791
0.0867748
0.0882163
0.0891291
0.0895351
0.0894525
0.088896
0.0878773
0.0864052
0.0844861
0.0821246
0.0793242
0.0760876
0.0724175
0.068317
0.0637903
0.0588435
0.0534844
0.0477239
0.0415758
0.0350577
0.0281909
0.0210015
0.0135201
0.00578255
-0.00217015
-0.0102913
-0.0185284
-0.0268236
-0.0351128
-0.0433268
-0.0513912
-0.0592267
-0.0667503
-0.0738758
-0.0805152
-0.0865798
-0.0919822
-0.0966379
-0.100467
-0.103398
-0.105368
-0.106324
-0.106232
-0.105069
-0.102833
-0.0995411
-0.0952301
-0.0899585
-0.0838054
-0.0768701
-0.0692706
-0.0611422
-0.0526346
-0.0439095
-0.0351377
-0.0264962
-0.0181648
-0.0103228
-0.00315325
0.00646399
0.0184606
0.0294978
0.03957
0.0486883
0.0568753
0.064162
0.0705855
0.0761867
0.0810081
0.0850923
0.0884809
0.0912128
0.0933243
0.0948475
0.095811
0.0962388
0.0961513
0.0955646
0.0944914
0.0929413
0.0909211
0.0884357
0.0854885
0.0820819
0.0782181
0.0738999
0.0691307
0.0639157
0.0582621
0.0521798
0.045682
0.0387852
0.0315103
0.0238826
0.0159324
0.00769543
-0.000787098
-0.00946787
-0.0182934
-0.027204
-0.0361335
-0.0450096
-0.0537539
-0.0622824
-0.0705064
-0.0783331
-0.0856666
-0.0924099
-0.0984658
-0.10374
-0.108141
-0.111587
-0.114002
-0.115326
-0.115511
-0.114526
-0.112362
-0.10903
-0.104563
-0.099018
-0.0924763
-0.0850412
-0.0768376
-0.0680102
-0.0587202
-0.0491428
-0.0394637
-0.0298758
-0.0205751
-0.0117574
-0.0036223
0.00701642
0.0199939
0.0318972
0.0427296
0.052511
0.0612723
0.069053
0.075898
0.0818553
0.0869745
0.0913041
0.0948912
0.0977797
0.10001
0.101618
0.102635
0.103088
0.103
0.102387
0.101264
0.0996413
0.0975262
0.0949237
0.0918372
0.0882688
0.0842203
0.0796936
0.0746916
0.0692185
0.0632806
0.0568866
0.0500485
0.0427821
0.035107
0.0270476
0.0186336
0.0099001
0.000888101
-0.00835491
-0.0177748
-0.0273107
-0.0368945
-0.0464513
-0.0558991
-0.0651496
-0.0741083
-0.0826758
-0.0907485
-0.0982204
-0.104984
-0.110935
-0.115969
-0.119993
-0.122918
-0.12467
-0.125191
-0.124439
-0.122395
-0.119062
-0.114468
-0.108669
-0.101745
-0.0938042
-0.0849774
-0.075419
-0.0653026
-0.0548177
-0.0441661
-0.0335579
-0.0232072
-0.0133276
-0.00413724
0.00757889
0.0215549
0.0343399
0.045946
0.056402
0.0657476
0.0740307
0.0813043
0.0876238
0.0930456
0.0976248
0.101414
0.104462
0.106814
0.10851
0.109584
0.110066
0.10998
0.109346
0.108178
0.106489
0.104286
0.101574
0.0983561
0.094635
0.0904116
0.0856871
0.0804635
0.074744
0.0685335
0.0618397
0.0546733
0.0470486
0.0389838
0.0305024
0.0216326
0.0124086
0.00287097
-0.0069333
-0.0169499
-0.0271172
-0.0373658
-0.0476185
-0.0577903
-0.0677886
-0.0775139
-0.0868601
-0.0957159
-0.103966
-0.111493
-0.11818
-0.123912
-0.128579
-0.132081
-0.13433
-0.135252
-0.134795
-0.132925
-0.129638
-0.124955
-0.118927
-0.111633
-0.103185
-0.0937189
-0.0833995
-0.0724129
-0.060964
-0.049272
-0.0375658
-0.0260791
-0.0150452
-0.00470228
0.0081494
0.0231384
0.0368176
0.0492087
0.0603491
0.0702876
0.0790804
0.0867886
0.0934755
0.0992043
0.104037
0.108031
0.111242
0.113719
0.115506
0.116639
0.117153
0.117074
0.116423
0.115216
0.113466
0.111181
0.108368
0.105028
0.101164
0.0967766
0.091866
0.0864332
0.0804802
0.0740108
0.0670311
0.0595503
0.0515809
0.0431399
0.0342487
0.0249344
0.0152296
0.00517374
-0.00518693
-0.0157985
-0.0265992
-0.0375188
-0.0484785
-0.0593907
-0.0701592
-0.0806796
-0.0908396
-0.10052
-0.109597
-0.117943
-0.125427
-0.131921
-0.137303
-0.141455
-0.144273
-0.145669
-0.145573
-0.143941
-0.140756
-0.136028
-0.129803
-0.122159
-0.113206
-0.10309
-0.0919822
-0.0800828
-0.0676127
-0.0548099
-0.0419239
-0.0292098
-0.0169224
-0.00532196
0.00872592
0.0247388
0.0393222
0.0525071
0.06434
0.0748782
0.0841867
0.0923347
0.0993932
0.105433
0.110522
0.114724
0.1181
0.120704
0.122584
0.12378
0.124329
0.12426
0.123596
0.122356
0.120551
0.118192
0.115285
0.111833
0.107837
0.103296
0.0982121
0.0925836
0.0864115
0.0796982
0.0724482
0.0646689
0.0563711
0.0475696
0.0382842
0.0285398
0.0183674
0.00780471
-0.00310328
-0.0143037
-0.0257351
-0.0373271
-0.049
-0.0606643
-0.0722208
-0.0835606
-0.0945659
-0.10511
-0.11506
-0.124278
-0.13262
-0.139944
-0.146112
-0.15099
-0.154456
-0.156404
-0.156747
-0.155424
-0.152403
-0.147684
-0.141304
-0.133335
-0.12389
-0.113117
-0.101197
-0.0883437
-0.0747951
-0.0608094
-0.0466581
-0.0326197
-0.0189727
-0.00600116
0.00930638
0.0263506
0.0418453
0.0558306
0.0683618
0.0795051
0.089334
0.0979258
0.105359
0.111712
0.11706
0.121473
0.125016
0.127749
0.129723
0.130985
0.131572
0.131517
0.130844
0.129574
0.127721
0.125296
0.122303
0.118747
0.114629
0.109949
0.104704
0.0988937
0.0925179
0.0855771
0.0780741
0.0700142
0.0614062
0.0522628
0.0426014
0.0324448
0.0218217
0.0107677
-0.000674128
-0.0124523
-0.0245067
-0.0367673
-0.0491542
-0.0615768
-0.0739334
-0.0861118
-0.0979889
-0.109432
-0.120298
-0.130438
-0.139698
-0.14792
-0.154948
-0.160631
-0.164828
-0.167412
-0.168278
-0.167344
-0.164561
-0.159914
-0.153429
-0.145173
-0.135253
-0.123823
-0.111072
-0.0972268
-0.0825432
-0.0673007
-0.051795
-0.0363301
-0.0212101
-0.00674511
0.00988869
0.0279682
0.0443785
0.0591684
0.072402
0.0841541
0.0945066
0.103545
0.111356
0.118024
0.123632
0.128256
0.131968
0.13483
0.136901
0.138229
0.138857
0.138818
0.138141
0.136846
0.134951
0.132465
0.129395
0.125745
0.121516
0.116707
0.111315
0.105339
0.0987754
0.0916246
0.0838871
0.0755662
0.0666685
0.0572041
0.047188
0.0366402
0.025587
0.0140613
0.00210384
-0.0102362
-0.0229002
-0.0358198
-0.0489154
-0.062096
-0.0752589
-0.0882888
-0.101058
-0.113428
-0.125249
-0.13636
-0.146594
-0.15578
-0.163743
-0.170313
-0.175329
-0.17864
-0.180119
-0.179663
-0.177201
-0.172701
-0.166173
-0.157674
-0.147308
-0.135229
-0.121634
-0.106762
-0.0908884
-0.0743146
-0.0573624
-0.0403633
-0.0236496
-0.00755937
0.0104708
0.0295863
0.0469135
0.0625099
0.0764479
0.0888107
0.0996886
0.109175
0.117365
0.124349
0.130218
0.135054
0.138933
0.141926
0.144094
0.14549
0.146159
0.146138
0.145459
0.144144
0.142211
0.139671
0.136532
0.132797
0.128468
0.123542
0.118017
0.111889
0.105155
0.0978129
0.0898608
0.0813001
0.0721349
0.0623728
0.0520258
0.0411112
0.0296522
0.0176787
0.00522848
-0.00765204
-0.0209069
-0.0344695
-0.0482618
-0.0621936
-0.0761615
-0.0900487
-0.103725
-0.117045
-0.129852
-0.141976
-0.153238
-0.163451
-0.172423
-0.179963
-0.185888
-0.190022
-0.192213
-0.192333
-0.190285
-0.186016
-0.179518
-0.170834
-0.160061
-0.147351
-0.132906
-0.116978
-0.0998619
-0.0818822
-0.0633885
-0.0447423
-0.0263065
-0.00844981
0.0110507
0.0311995
0.0494422
0.0658445
0.0804869
0.0934609
0.104864
0.114799
0.123367
0.130667
0.136796
0.141843
0.14589
0.149012
0.151276
0.152739
0.15345
0.15345
0.15277
0.151438
0.149471
0.146882
0.143681
0.13987
0.13545
0.13042
0.124775
0.118512
0.111625
0.10411
0.095964
0.0871859
0.0777771
0.0677426
0.0570913
0.0458373
0.0340003
0.021607
0.00869163
-0.0047028
-0.0185235
-0.0327067
-0.0471769
-0.0618453
-0.0766094
-0.0913518
-0.10594
-0.120225
-0.134043
-0.147216
-0.159554
-0.170853
-0.180906
-0.189499
-0.196425
-0.201483
-0.20449
-0.205291
-0.203762
-0.199822
-0.19344
-0.184642
-0.173512
-0.160198
-0.144907
-0.127901
-0.109493
-0.0900339
-0.0699018
-0.0494909
-0.0291972
-0.00942266
0.0116264
0.0328026
0.0519567
0.0691622
0.0845072
0.0980908
0.110019
0.1204
0.129345
0.13696
0.143346
0.148602
0.152814
0.156064
0.158422
0.159951
0.160703
0.160722
0.160043
0.158695
0.156698
0.154066
0.150808
0.146928
0.142428
0.137305
0.131554
0.12517
0.118147
0.110479
0.102161
0.0931888
0.0835619
0.0732821
0.0623552
0.0507919
0.0386083
0.0258271
0.0124788
-0.00139763
-0.0157533
-0.0305282
-0.0456499
-0.0610326
-0.0765755
-0.0921619
-0.107658
-0.122914
-0.13776
-0.152011
-0.165464
-0.177904
-0.189104
-0.198831
-0.20685
-0.212934
-0.216869
-0.218467
-0.21757
-0.214068
-0.207902
-0.199073
-0.187652
-0.173775
-0.157651
-0.139553
-0.119811
-0.0987999
-0.0769312
-0.0546334
-0.0323386
-0.0104844
0.0121961
0.0343908
0.0544497
0.0724535
0.0884973
0.102687
0.115137
0.125962
0.135281
0.143206
0.149847
0.155308
0.159682
0.163055
0.165504
0.167096
0.167887
0.167924
0.167246
0.165882
0.163857
0.161184
0.157875
0.153934
0.149362
0.144156
0.138312
0.131823
0.124681
0.11688
0.108411
0.0992692
0.0894506
0.0789542
0.0677826
0.0559427
0.0434468
0.0303135
0.0165689
0.00224751
-0.0126063
-0.0279371
-0.0436767
-0.0597431
-0.0760385
-0.0924485
-0.10884
-0.125062
-0.140942
-0.156288
-0.170889
-0.184516
-0.196925
-0.207862
-0.217066
-0.22428
-0.229257
-0.231772
-0.231633
-0.228691
-0.222854
-0.214095
-0.202461
-0.188077
-0.171148
-0.151953
-0.130839
-0.108209
-0.084505
-0.0601943
-0.0357478
-0.0116419
0.0127581
0.0359597
0.0569146
0.0757098
0.0924466
0.107238
0.120205
0.13147
0.141157
0.149388
0.156279
0.161938
0.166469
0.16996
0.172496
0.174145
0.174971
0.175023
0.174343
0.172964
0.17091
0.1682
0.164843
0.160846
0.15621
0.150931
0.145006
0.138426
0.131183
0.123267
0.11467
0.105383
0.0954001
0.0847171
0.0733331
0.0612516
0.0484806
0.0350343
0.0209342
0.00620971
-0.0090999
-0.0249443
-0.0412607
-0.0579718
-0.0749844
-0.0921875
-0.109451
-0.126624
-0.143532
-0.15998
-0.17575
-0.1906
-0.204271
-0.216488
-0.226965
-0.235412
-0.241549
-0.24511
-0.245861
-0.243613
-0.238234
-0.22966
-0.21791
-0.203091
-0.185398
-0.165113
-0.1426
-0.118287
-0.092651
-0.0661984
-0.0394426
-0.0129022
0.0133111
0.0375055
0.0593455
0.0789232
0.0963457
0.111732
0.125209
0.136907
0.146956
0.155486
0.162619
0.168472
0.17315
0.176753
0.179367
0.181069
0.181923
0.181985
0.1813
0.179902
0.17782
0.175072
0.17167
0.167621
0.162927
0.157585
0.15159
0.144933
0.137604
0.129593
0.12089
0.111482
0.101363
0.090524
0.0789616
0.0666751
0.0536685
0.0399514
0.0255402
0.010459
-0.00525853
-0.0215681
-0.0384129
-0.0557216
-0.0734067
-0.0913624
-0.109463
-0.127559
-0.145478
-0.163023
-0.17997
-0.196068
-0.211045
-0.224604
-0.236434
-0.246215
-0.253629
-0.258367
-0.260151
-0.258743
-0.253963
-0.245707
-0.233957
-0.218792
-0.200392
-0.179041
-0.155112
-0.12906
-0.101396
-0.0726701
-0.0434411
-0.0142726
0.0138537
0.039025
0.0617374
0.0820873
0.100186
0.116159
0.130138
0.142261
0.152664
0.161484
0.16885
0.174885
0.179703
0.183407
0.186091
0.187836
0.188711
0.188776
0.188079
0.186659
0.184545
0.181758
0.178312
0.174215
0.169468
0.16407
0.158015
0.151293
0.143895
0.135807
0.127018
0.117516
0.107288
0.0963244
0.0846182
0.0721648
0.058964
0.0450208
0.0303462
0.0149587
-0.00111416
-0.0178346
-0.0351526
-0.0530039
-0.0713079
-0.0899654
-0.108856
-0.127836
-0.146737
-0.165359
-0.183478
-0.200836
-0.217147
-0.232098
-0.245355
-0.256565
-0.26537
-0.27142
-0.274384
-0.273972
-0.26995
-0.262162
-0.250545
-0.235143
-0.216115
-0.193735
-0.168387
-0.140547
-0.110765
-0.0796336
-0.0477613
-0.0157607
0.0143852
0.0405161
0.0640869
0.085197
0.103962
0.120511
0.134982
0.147519
0.158265
0.167364
0.174951
0.181156
0.186101
0.189896
0.192638
0.194414
0.195301
0.19536
0.194644
0.193195
0.191044
0.188215
0.184724
0.180579
0.175784
0.170336
0.164229
0.157455
0.150001
0.141855
0.133003
0.123429
0.11312
0.102064
0.0902491
0.077668
0.064316
0.0501932
0.0353055
0.0196655
0.00329414
-0.0137778
-0.0315076
-0.0498391