/*--------------------------------*- C++ -*----------------------------------*\
  =========                 |
  \\      /  F ield         | OpenFOAM: The Open Source CFD Toolbox
   \\    /   O peration     | Website:  https://openfoam.org
    \\  /    A nd           | Version:  dev
     \\/     M anipulation  |
\*---------------------------------------------------------------------------*/
FoamFile
{
    format      ascii;
    class       volScalarField;
    location    "47.7";
    object      p;
}
// * * * * * * * * * * * * * * * * * * * * * * * * * * * * * * * * * * * * * //

dimensions      [0 2 -2 0 0 0 0];

internalField   nonuniform List<scalar> 
5184
(
8.15169e-07
-1.12156e-05
-9.7246e-05
-0.000250201
-0.000449699
-0.000678472
-0.000922284
-0.00116915
-0.00140993
-0.00163747
-0.00184636
-0.00203256
-0.00219314
-0.002326
-0.00242967
-0.00250314
-0.00254574
-0.00255703
-0.00253674
-0.00248469
-0.0024008
-0.00228505
-0.00213748
-0.00195825
-0.00174758
-0.00150585
-0.00123361
-0.000931598
-0.000600815
-0.000242529
0.000141676
0.000549871
0.000979764
0.00142868
0.00189356
0.00237096
0.00285705
0.00334766
0.00383832
0.00432429
0.00480063
0.00526224
0.00570402
0.00612087
0.00650784
0.00686023
0.00717366
0.0074442
0.00766848
0.00784377
0.00796805
0.00804013
0.00805964
0.00802717
0.00794419
0.00781317
0.00763749
0.00742148
0.00717035
0.00689017
0.00658779
0.00627083
0.0059476
0.00562707
0.00531879
0.00503286
0.00477978
0.00457017
0.004414
0.0043197
0.00429277
0.00432006
1.38587e-05
1.29386e-06
-7.33503e-05
-0.000201175
-0.000366515
-0.000556886
-0.000761354
-0.000970314
-0.00117584
-0.00137154
-0.00155235
-0.00171437
-0.00185463
-0.0019709
-0.00206154
-0.00212535
-0.00216148
-0.00216931
-0.00214842
-0.00209852
-0.00201943
-0.00191107
-0.00177344
-0.00160665
-0.00141092
-0.00118663
-0.000934288
-0.000654637
-0.000348633
-1.74948e-05
0.000337272
0.000713851
0.00111009
0.0015235
0.00195123
0.00239011
0.00283661
0.00328691
0.00373691
0.00418229
0.00461855
0.00504109
0.00544526
0.00582647
0.00618027
0.00650243
0.00678906
0.00703665
0.00724224
0.00740344
0.00751851
0.00758648
0.00760714
0.00758112
0.00750988
0.00739577
0.00724196
0.00705247
0.0068321
0.00658641
0.00632166
0.00604471
0.00576301
0.0054845
0.00521748
0.00497052
0.0047523
0.00457122
0.00443455
0.00434824
0.00431967
0.00434728
0.000100434
7.57241e-05
3.5907e-07
-0.00011724
-0.000265027
-0.00043336
-0.000613528
-0.000797696
-0.00097916
-0.00115236
-0.00131278
-0.00145682
-0.00158169
-0.00168522
-0.00176575
-0.00182205
-0.00185319
-0.00185848
-0.00183742
-0.00178964
-0.00171491
-0.00161309
-0.00148412
-0.00132808
-0.00114516
-0.000935679
-0.000700127
-0.000439185
-0.000153751
0.000155033
0.000485755
0.000836711
0.00120589
0.00159097
0.00198929
0.00239788
0.00281348
0.00323252
0.00365119
0.00406548
0.00447122
0.00486414
0.00523994
0.00559438
0.00592335
0.00622294
0.00648958
0.00672008
0.0069117
0.00706229
0.00717031
0.00723492
0.00725598
0.00723416
0.00717089
0.00706841
0.00692974
0.00675864
0.00655961
0.00633782
0.00609902
0.00584951
0.00559607
0.00534582
0.00510612
0.00488441
0.00468822
0.00452457
0.00439952
0.00431828
0.0042905
0.00432115
0.000255512
0.000204118
0.000116287
-2.71899e-06
-0.000145224
-0.000303447
-0.000470264
-0.000639302
-0.000805016
-0.000962714
-0.00110852
-0.0012393
-0.00135254
-0.0014463
-0.00151902
-0.00156955
-0.00159696
-0.00160058
-0.00157986
-0.00153442
-0.00146397
-0.00136833
-0.0012474
-0.0011012
-0.000929859
-0.000733646
-0.000512983
-0.000268475
-9.35689e-07
0.000288589
0.000598797
0.000928109
0.00127466
0.00163626
0.00201045
0.00239444
0.00278514
0.00317923
0.00357311
0.00396301
0.00434498
0.00471501
0.00506902
0.00540303
0.00571313
0.00599565
0.00624722
0.0064648
0.00664586
0.00678836
0.00689087
0.00695261
0.0069735
0.0069542
0.00689611
0.00680136
0.00667283
0.00651412
0.00632945
0.00612368
0.00590218
0.00567082
0.0054358
0.00520362
0.00498092
0.00477438
0.00459062
0.00443594
0.00431575
0.00423509
0.00420406
0.00422933
0.000460341
0.000371737
0.000263112
0.000135365
-9.05236e-06
-0.000163973
-0.000323627
-0.000483008
-0.000637701
-0.000783904
-0.000918434
-0.00103868
-0.00114253
-0.0012283
-0.00129467
-0.00134056
-0.00136517
-0.00136783
-0.00134803
-0.00130537
-0.00123953
-0.00115028
-0.00103749
-0.000901107
-0.000741194
-0.000557943
-0.00035169
-0.000122947
0.000127576
0.000398948
0.000689992
0.000999264
0.00132504
0.00166531
0.00201775
0.00237976
0.00274845
0.00312065
0.00349298
0.00386184
0.00422349
0.00457409
0.00490976
0.00522667
0.00552109
0.0057895
0.00602864
0.00623562
0.00640798
0.00654378
0.00664164
0.00670083
0.00672125
0.00670355
0.00664907
0.00655986
0.00643869
0.00628896
0.00611469
0.00592047
0.00571133
0.00549275
0.00527047
0.00505046
0.00483875
0.00464137
0.00446423
0.00431299
0.00419259
0.00410778
0.0040674
0.00407726
0.000698742
0.000566702
0.000431504
0.000289419
0.000137433
-1.96794e-05
-0.00017731
-0.000331712
-0.000479547
-0.000617889
-0.000744265
-0.000856627
-0.000953304
-0.00103295
-0.00109447
-0.001137
-0.00115983
-0.00116239
-0.00114418
-0.00110483
-0.00104399
-0.000961406
-0.000856886
-0.000730315
-0.000581677
-0.000411073
-0.000218739
-5.07766e-06
0.000229324
0.000483662
0.000756896
0.00104773
0.00135459
0.00167562
0.00200866
0.00235127
0.00270073
0.00305403
0.00340795
0.00375904
0.0041037
0.00443824
0.00475889
0.00506195
0.00534379
0.00560097
0.00583031
0.00602897
0.00619454
0.00632511
0.0064193
0.00647637
0.00649622
0.00647944
0.0064273
0.00634177
0.0062255
0.00608174
0.00591433
0.00572763
0.00552639
0.00531575
0.00510108
0.0048879
0.00468174
0.0044881
0.0043123
0.00415941
0.004034
0.00394045
0.00388527
0.00387223
0.000956928
0.000778135
0.000612555
0.000451965
0.000287988
0.000124234
-3.5672e-05
-0.000189126
-0.000333792
-0.000467584
-0.000588728
-0.000695755
-0.000787459
-0.000862856
-0.000921143
-0.000961658
-0.000983846
-0.00098723
-0.000971391
-0.000935953
-0.00088058
-0.000804978
-0.000708898
-0.000592157
-0.00045465
-0.000296376
-0.000117457
8.18279e-05
0.000301025
0.000539471
0.000796275
0.00107029
0.0013601
0.001664
0.00197999
0.00230577
0.00263878
0.00297614
0.00331476
0.00365131
0.00398229
0.00430411
0.00461307
0.00490553
0.00517789
0.00542677
0.00564898
0.00584169
0.00600249
0.00612941
0.00622107
0.00627668
0.00629607
0.00627978
0.00622899
0.00614558
0.00603209
0.00589164
0.00572791
0.00554507
0.00534766
0.00514053
0.00492875
0.00471749
0.00451188
0.00431697
0.00413762
0.00397841
0.00384358
0.00373716
0.00366285
0.00362186
0.00122277
0.000995886
0.000797665
0.000615711
0.000436538
0.000262785
9.72477e-05
-5.85029e-05
-0.000203058
-0.000335121
-0.000453598
-0.000557589
-0.000646358
-0.000719302
-0.000775921
-0.000815783
-0.000838503
-0.000843722
-0.00083109
-0.000800264
-0.000750907
-0.000682691
-0.000595314
-0.000488512
-0.000362086
-0.000215921
-5.00165e-05
0.000135486
0.000340277
0.000563845
0.000805453
0.00106411
0.00133857
0.00162726
0.00192835
0.00223967
0.00255879
0.00288295
0.00320917
0.00353419
0.0038546
0.00416684
0.00446725
0.0047522
0.00501809
0.00526149
0.00547921
0.00566835
0.00582642
0.00595141
0.00604185
0.00609684
0.00611617
0.00610025
0.00605018
0.00596775
0.00585537
0.00571605
0.00555335
0.00537126
0.00517417
0.00496671
0.00475371
0.00454006
0.00433059
0.00413002
0.00394282
0.00377316
0.00362506
0.00350226
0.00340548
0.00333331
0.00148599
0.0012108
0.000978769
0.00077362
0.000577028
0.000390827
0.000217103
5.6496e-05
-9.04374e-05
-0.000223141
-0.000341166
-0.000444163
-0.000531863
-0.000604044
-0.000660511
-0.000701074
-0.000725524
-0.000733627
-0.000725111
-0.00069967
-0.000656963
-0.000596632
-0.000518312
-0.000421658
-0.000306366
-0.0001722
-1.90233e-05
0.000153169
0.000344219
0.00055378
0.000781276
0.00102588
0.0012865
0.00156174
0.00184988
0.00214891
0.0024565
0.00277001
0.00308651
0.00340284
0.00371559
0.00402123
0.0043161
0.00459652
0.00485885
0.0050996
0.00531546
0.00550344
0.00566096
0.00578587
0.00587657
0.00593207
0.005952
0.00593667
0.00588708
0.00580489
0.0056924
0.00555252
0.00538869
0.00520478
0.00500503
0.00479394
0.00457616
0.00435636
0.00413918
0.00392907
0.00373023
0.00354653
0.00338184
0.00323971
0.00311796
0.00301262
0.00173761
0.00141461
0.00114837
0.000918962
0.000703488
0.000503104
0.000319288
0.000151835
5.16321e-07
-0.000134802
-0.000254277
-0.000358091
-0.000446421
-0.00051942
-0.000577195
-0.000619793
-0.000647184
-0.00065926
-0.000655827
-0.000636612
-0.000601272
-0.000549411
-0.000480601
-0.000394406
-0.000290408
-0.000168243
-2.76291e-05
0.000131596
0.000309439
0.000505721
0.000720039
0.000951737
0.00119988
0.00146322
0.0017402
0.00202893
0.00232718
0.00263239
0.00294172
0.00325201
0.0035599
0.00386182
0.00415407
0.0044329
0.00469457
0.00493548
0.00515218
0.00534155
0.00550082
0.0056277
0.00572041
0.00577779
0.00579933
0.00578518
0.0057362
0.00565392
0.00554054
0.00539886
0.00523221
0.00504438
0.00483949
0.00462196
0.00439629
0.00416707
0.00393877
0.00371571
0.0035019
0.003301
0.00311686
0.00295294
0.00280428
0.00266456
0.00196969
0.00159983
0.00129949
0.00104533
0.000810094
0.000594362
0.000399078
0.000223264
6.59659e-05
-7.35936e-05
-0.000196144
-0.000302368
-0.00039287
-0.000468161
-0.00052864
-0.000574582
-0.000606132
-0.000623301
-0.000625967
-0.000613887
-0.000586712
-0.000544001
-0.000485255
-0.000409938
-0.000317514
-0.000207477
-7.93928e-05
6.70683e-05
0.000232088
0.000415664
0.000617573
0.000837334
0.00107418
0.00132702
0.00159445
0.00187468
0.0021656
0.00246473
0.00276926
0.00307607
0.00338177
0.00368276
0.00397525
0.00425541
0.00451935
0.0047633
0.00498366
0.00517709
0.00534062
0.00547174
0.00556848
0.00562945
0.00565394
0.00564193
0.0055941
0.00551185
0.00539723
0.00525295
0.00508225
0.00488883
0.00467678
0.00445043
0.00421425
0.00397274
0.00373035
0.00349132
0.00325956
0.00303866
0.00283256
0.00264474
0.00246765
0.00229272
0.00217508
0.00175955
0.00142561
0.00114662
0.000891195
0.000659396
0.000451695
0.000266398
0.000101873
-4.32587e-05
-0.000170264
-0.000280296
-0.000374366
-0.000453322
-0.000517839
-0.000568409
-0.000605337
-0.000628746
-0.000638577
-0.000634612
-0.000616481
-0.000583697
-0.000535677
-0.000471778
-0.000391336
-0.000293694
-0.000178254
-4.45105e-05
0.000107903
0.000279173
0.000469263
0.000677876
0.000904419
0.00114797
0.00140725
0.00168062
0.00196605
0.00226113
0.00256311
0.00286886
0.00317496
0.00347774
0.00377333
0.00405773
0.00432691
0.0045769
0.00480386
0.00500422
0.00517475
0.00531267
0.00541575
0.00548236
0.00551153
0.00550303
0.00545732
0.00537564
0.0052599
0.00511268
0.00493714
0.00473693
0.00451611
0.00427899
0.00403004
0.00377379
0.00351467
0.00325698
0.00300464
0.00276124
0.00253092
0.00231734
0.00211047
0.00189965
0.00234723
0.00188742
0.0015206
0.00121702
0.000941316
0.000693082
0.000472355
0.000276769
0.000104055
-4.77299e-05
-0.00018036
-0.000295433
-0.000394337
-0.00047824
-0.000548073
-0.000604528
-0.000648059
-0.000678885
-0.000697
-0.000702196
-0.00069408
-0.000672101
-0.000635587
-0.000583779
-0.000515869
-0.000431043
-0.000328527
-0.000207629
-6.77867e-05
9.13848e-05
0.000270047
0.000468098
0.000685127
0.000920381
0.00117274
0.00144068
0.00172228
0.0020152
0.00231672
0.00262371
0.00293272
0.00323997
0.00354149
0.0038331
0.00411058
0.0043697
0.00460639
0.00481677
0.0049973
0.0051449
0.005257
0.00533168
0.00536767
0.00536447
0.00532231
0.00524221
0.00512591
0.00497587
0.00479517
0.00458741
0.00435663
0.00410719
0.0038436
0.00357046
0.00329232
0.00301357
0.00273825
0.00247006
0.00221346
0.00197238
0.00173445
0.00148703
0.00248005
0.00197744
0.00157869
0.00125097
0.000955165
0.000690399
0.000456304
0.000249876
6.82435e-05
-9.10735e-05
-0.000230326
-0.000351529
-0.000456428
-0.000546484
-0.000622865
-0.000686447
-0.000737813
-0.000777265
-0.000804838
-0.000820321
-0.000823282
-0.000813101
-0.000789002
-0.000750097
-0.000695428
-0.00062401
-0.000534882
-0.000427152
-0.000300051
-0.000152984
1.44232e-05
0.000202273
0.00041035
0.000638086
0.000884516
0.00114826
0.0014275
0.00171997
0.00202298
0.0023334
0.00264773
0.0029621
0.00327237
0.0035742
0.00386313
0.00413466
0.0043844
0.00460813
0.00480198
0.00496247
0.00508667
0.00517228
0.00521769
0.00522207
0.00518536
0.00510833
0.00499254
0.00484029
0.00465456
0.00443893
0.00419744
0.0039345
0.00365475
0.00336292
0.00306373
0.00276176
0.00246126
0.00216615
0.00188128
0.001611
0.00134069
0.00105575
0.00256781
0.002024
0.00159437
0.00124318
0.000927634
0.000646447
0.000398849
0.000181226
-9.87287e-06
-0.000177437
-0.00032417
-0.00045248
-0.000564445
-0.0006618
-0.000745929
-0.00081787
-0.000878321
-0.000927651
-0.000965919
-0.000992897
-0.0010081
-0.00101083
-0.0010002
-0.000975167
-0.000934622
-0.000877394
-0.00080232
-0.000708298
-0.000594338
-0.000459618
-0.000303539
-0.000125779
7.36598e-05
0.000294403
0.000535664
0.000796212
0.00107435
0.00136789
0.00167418
0.00199009
0.00231206
0.00263614
0.00295801
0.00327313
0.00357678
0.00386414
0.00413048
0.0043712
0.00458201
0.00475899
0.00489878
0.00499865
0.00505657
0.00507132
0.00504251
0.0049706
0.0048569
0.00470355
0.00451342
0.00429005
0.00403751
0.0037603
0.00346321
0.00315118
0.00282917
0.00250204
0.00217431
0.00185023
0.00153516
0.00123396
0.000929798
0.000606158
0.00260509
0.00202178
0.00156245
0.00118856
0.000853801
0.000556464
0.00029539
6.63702e-05
-0.0001346
-0.000311
-0.000465964
-0.00060227
-0.000722309
-0.000828066
-0.000921122
-0.00100266
-0.00107347
-0.00113398
-0.00118425
-0.00122403
-0.00125276
-0.00126965
-0.00127368
-0.00126367
-0.00123832
-0.00119627
-0.00113615
-0.00105661
-0.000956446
-0.000834581
-0.000690177
-0.000522672
-0.00033184
-0.000117838
0.000118741
0.000376834
0.000654879
0.000950793
0.00126197
0.00158529
0.00191713
0.00225345
0.00258976
0.00292129
0.00324304
0.00354985
0.00383659
0.00409823
0.00433
0.0045275
0.00468686
0.00480482
0.00487889
0.00490737
0.00488947
0.00482529
0.00471585
0.00456307
0.00436969
0.00413921
0.00387574
0.00358389
0.00326864
0.00293519
0.00258882
0.00223474
0.00187786
0.00152283
0.00117562
0.000841671
0.00050198
0.000138093
0.00258676
0.0019657
0.00147796
0.00108226
0.000728937
0.000415844
0.00014144
-9.90614e-05
-0.000310202
-0.000495932
-0.000659796
-0.000804926
-0.000933999
-0.00104924
-0.0011524
-0.00124478
-0.00132727
-0.00140032
-0.00146398
-0.00151796
-0.00156163
-0.00159407
-0.00161414
-0.00162049
-0.00161162
-0.00158597
-0.00154193
-0.00147793
-0.00139249
-0.00128428
-0.0011522
-0.000995428
-0.000813482
-0.000606284
-0.000374205
-0.000118115
0.000160583
0.000459926
0.000777378
0.00110984
0.00145366
0.00180466
0.00215823
0.00250935
0.00285268
0.00318274
0.00349393
0.00378075
0.00403788
0.00426038
0.00444378
0.00458425
0.00467869
0.00472489
0.00472155
0.00466835
0.00456596
0.00441603
0.00422113
0.0039847
0.00371089
0.00340444
0.00307057
0.00271478
0.00234275
0.00196011
0.00157225
0.00118429
0.000802928
0.000434295
5.71518e-05
-0.000348931
0.0025079
0.00185097
0.00133619
0.00091967
0.00054851
0.000220149
-6.73467e-05
-0.000319328
-0.00054086
-0.000736346
-0.000909726
-0.00106446
-0.00120351
-0.00132929
-0.00144374
-0.00154826
-0.0016438
-0.00173081
-0.00180935
-0.00187905
-0.00193919
-0.00198875
-0.00202641
-0.00205065
-0.00205978
-0.00205199
-0.00202545
-0.00197832
-0.00190885
-0.00181542
-0.00169665
-0.00155143
-0.001379
-0.00117901
-0.000951596
-0.000697391
-0.000417612
-0.000114073
0.00021079
0.000553919
0.00091164
0.00127969
0.00165329
0.00202717
0.0023957
0.00275296
0.00309291
0.0034095
0.00369682
0.00394927
0.00416174
0.0043297
0.00444941
0.00451799
0.00453357
0.00449531
0.00440344
0.0042593
0.00406525
0.00382461
0.00354157
0.00322103
0.00286847
0.00248974
0.00209097
0.00167833
0.00125772
0.000834867
0.000417264
1.18339e-05
-0.000404969
-0.000855635
0.00236385
0.00167302
0.00113266
0.000696384
0.000308205
-3.48635e-05
-0.000335146
-0.000598545
-0.000830635
-0.00103626
-0.00121973
-0.00138484
-0.00153478
-0.0016722
-0.00179914
-0.00191712
-0.00202712
-0.00212961
-0.00222461
-0.00231167
-0.00238999
-0.00245839
-0.00251539
-0.00255928
-0.00258816
-0.00259998
-0.00259264
-0.00256403
-0.00251209
-0.00243493
-0.00233082
-0.00219836
-0.00203646
-0.00184449
-0.00162228
-0.00137022
-0.00108929
-0.000781122
-0.000448017
-9.29587e-05
0.000280385
0.000667687
0.001064
0.00146383
0.0018612
0.00224979
0.00262305
0.00297433
0.00329706
0.00358494
0.00383208
0.00403319
0.00418374
0.00428012
0.00431974
0.00430115
0.00422407
0.0040894
0.00389925
0.0036568
0.00336624
0.00303263
0.00266173
0.0022598
0.00183348
0.00138953
0.000934495
0.000474756
1.87284e-05
-0.000425794
-0.00088477
-0.00138287
0.00215019
0.00142756
0.000863156
0.000408256
3.93367e-06
-0.000353226
-0.000665939
-0.000940651
-0.00118343
-0.00139955
-0.00159368
-0.00176991
-0.00193169
-0.00208182
-0.00222249
-0.00235531
-0.00248127
-0.00260084
-0.00271399
-0.0028202
-0.00291854
-0.00300768
-0.00308598
-0.00315152
-0.00320217
-0.00323562
-0.0032495
-0.00324139
-0.00320893
-0.00314988
-0.0030622
-0.00294411
-0.00279419
-0.00261147
-0.00239544
-0.00214621
-0.00186447
-0.00155163
-0.00120982
-0.000841888
-0.00045147
-4.29309e-05
0.000378652
0.000807548
0.00123746
0.00166163
0.00207296
0.00246417
0.00282797
0.00315725
0.00344527
0.00368586
0.00387359
0.00400397
0.00407361
0.00408028
0.00402309
0.00390242
0.00372002
0.00347888
0.00318317
0.00283808
0.00244967
0.00202466
0.00157026
0.00109388
0.000602817
0.000104191
-0.00039256
-0.000878666
-0.00138265
-0.00193151
0.00186278
0.00111053
0.000523727
5.13967e-05
-0.00036814
-0.00073873
-0.00106349
-0.00134938
-0.00160296
-0.00182991
-0.00203526
-0.00222338
-0.00239793
-0.0025619
-0.0027176
-0.00286667
-0.00301016
-0.00314851
-0.00328162
-0.00340889
-0.00352926
-0.00364125
-0.00374302
-0.00383245
-0.00390715
-0.00396455
-0.00400199
-0.00401673
-0.00400606
-0.0039674
-0.00389832
-0.00379667
-0.00366065
-0.00348888
-0.00328051
-0.00303526
-0.00275353
-0.00243643
-0.00208585
-0.00170449
-0.00129589
-0.000864396
-0.000415198
4.57713e-05
0.000511888
0.000975947
0.00143029
0.00186696
0.00227788
0.00265506
0.0029908
0.00327791
0.00350996
0.00368143
0.00378795
0.00382643
0.00379517
0.00369395
0.00352404
0.00328816
0.0029904
0.00263608
0.00223155
0.00178402
0.00130132
0.000791622
0.000263017
-0.000276513
-0.000816395
-0.00134678
-0.00189894
-0.00250237
0.00149773
0.00071819
0.000110703
-0.000377803
-0.000811579
-0.00119491
-0.00153129
-0.00182821
-0.0020927
-0.00233083
-0.00254795
-0.00274873
-0.00293703
-0.003116
-0.00328804
-0.00345488
-0.00361754
-0.00377645
-0.00393145
-0.00408184
-0.00422641
-0.00436353
-0.00449116
-0.00460696
-0.00470827
-0.00479227
-0.00485595
-0.00489625
-0.0049101
-0.00489452
-0.00484668
-0.00476402
-0.00464431
-0.00448573
-0.004287
-0.00404744
-0.00376706
-0.00344661
-0.00308771
-0.00269282
-0.00226531
-0.00180951
-0.00133064
-0.000834794
-0.000328912
0.000179362
0.000681787
0.00116969
0.00163415
0.00206621
0.00245711
0.00279854
0.00308286
0.00330342
0.00345469
0.00353253
0.00353431
0.00345902
0.00330734
0.00308161
0.00278576
0.00242519
0.00200656
0.00153758
0.00102675
0.000483079
-8.4445e-05
-0.000666884
-0.00125241
-0.00182996
-0.00243381
-0.00309611
0.00105149
0.000247099
-0.000379273
-0.000882647
-0.00132965
-0.00172499
-0.00207256
-0.00238036
-0.00265585
-0.0029055
-0.00313498
-0.0033492
-0.00355225
-0.0037474
-0.00393717
-0.00412331
-0.00430687
-0.00448823
-0.00466716
-0.00484285
-0.00501396
-0.00517868
-0.00533479
-0.00547968
-0.00561046
-0.00572399
-0.00581693
-0.00588589
-0.00592739
-0.00593803
-0.00591456
-0.00585395
-0.00575348
-0.00561087
-0.00542435
-0.00519276
-0.00491565
-0.00459337
-0.00422715
-0.00381915
-0.00337254
-0.00289151
-0.00238127
-0.00184804
-0.00129903
-0.000742304
-0.000186685
0.000358404
0.00088314
0.00137752
0.00183163
0.00223588
0.00258132
0.00285992
0.00306486
0.00319073
0.00323378
0.00319204
0.00306543
0.00285578
0.00256677
0.0022038
0.00177382
0.00128505
0.000746718
0.000168737
-0.000438916
-0.00106623
-0.00169999
-0.0023278
-0.00298717
-0.00371314
0.00052082
-0.000305847
-0.000949225
-0.00146611
-0.00192529
-0.00233189
-0.00269021
-0.00300872
-0.00329532
-0.00355683
-0.00379925
-0.00402772
-0.00424653
-0.0044591
-0.00466801
-0.00487506
-0.00508131
-0.00528708
-0.00549209
-0.0056954
-0.00589553
-0.00609051
-0.0062779
-0.00645485
-0.00661821
-0.00676451
-0.00689009
-0.00699117
-0.00706386
-0.00710433
-0.00710884
-0.00707385
-0.00699613
-0.00687286
-0.00670172
-0.00648101
-0.00620974
-0.00588778
-0.00551589
-0.00509584
-0.0046305
-0.00412385
-0.00358102
-0.0030083
-0.0024131
-0.00180387
-0.00119001
-0.000581702
1.02855e-05
0.000574834
0.00110074
0.00157704
0.00199327
0.00233989
0.0026085
0.00279226
0.00288605
0.00288672
0.00279327
0.00260682
0.00233066
0.00197013
0.0015324
0.00102619
0.000461525
-0.000150731
-0.000799498
-0.00147359
-0.00215822
-0.00283957
-0.0035586
-0.00435353
-9.71222e-05
-0.000943386
-0.00160182
-0.00213081
-0.00260108
-0.00301819
-0.0033868
-0.00371585
-0.00401365
-0.00428737
-0.00454332
-0.00478687
-0.00502248
-0.00525369
-0.00548319
-0.00571281
-0.00594358
-0.00617581
-0.00640912
-0.00664247
-0.00687425
-0.0071023
-0.00732396
-0.00753617
-0.00773546
-0.00791808
-0.00808
-0.00821702
-0.00832486
-0.0083992
-0.00843578
-0.00843053
-0.00837964
-0.00827969
-0.00812774
-0.00792148
-0.00765932
-0.00734053
-0.00696532
-0.00653499
-0.00605198
-0.00551997
-0.00494393
-0.00433011
-0.00368608
-0.00302061
-0.00234365
-0.00166612
-0.000999779
-0.000356921
0.00024988
0.000808106
0.00130566
0.00173122
0.00207467
0.00232741
0.00248272
0.00253605
0.00248518
0.00233036
0.00207432
0.00172219
0.00128128
0.00076082
0.000171619
-0.000474405
-0.00116498
-0.00188761
-0.0026258
-0.00336408
-0.00414725
-0.00501691
-0.000804789
-0.00166786
-0.00233933
-0.00287898
-0.00335924
-0.00378607
-0.00416451
-0.00450392
-0.00481301
-0.0050993
-0.00536936
-0.0056288
-0.00588224
-0.00613336
-0.00638491
-0.00663875
-0.00689593
-0.0071567
-0.00742061
-0.00768651
-0.00795266
-0.00821671
-0.00847582
-0.00872665
-0.00896548
-0.00918821
-0.00939046
-0.00956762
-0.00971495
-0.00982762
-0.00990086
-0.00992998
-0.00991056
-0.00983852
-0.00971024
-0.00952271
-0.00927364
-0.00896163
-0.00858623
-0.00814815
-0.0076493
-0.00709295
-0.00648378
-0.00582791
-0.00513296
-0.00440798
-0.00366337
-0.00291081
-0.00216302
-0.00143353
-0.000736374
-8.5743e-05
0.000504425
0.00102087
0.00145143
0.00178554
0.00201457
0.00213224
0.00213488
0.00202157
0.00179429
0.00145777
0.00101939
0.000488811
-0.000122354
-0.000801077
-0.00153378
-0.00230653
-0.00310092
-0.00389968
-0.00475174
-0.00570237
-0.00160419
-0.00248119
-0.00316362
-0.00371245
-0.00420158
-0.00463733
-0.00502511
-0.00537469
-0.00569517
-0.00599436
-0.00627911
-0.00655523
-0.00682753
-0.00709979
-0.00737483
-0.00765456
-0.00794002
-0.00823144
-0.00852827
-0.00882929
-0.0091326
-0.0094357
-0.00973552
-0.0100285
-0.0103107
-0.0105775
-0.0108244
-0.0110461
-0.0112377
-0.0113935
-0.0115085
-0.0115771
-0.0115943
-0.0115554
-0.0114559
-0.0112921
-0.0110609
-0.01076
-0.0103884
-0.00994596
-0.00943397
-0.00885514
-0.00821375
-0.00751566
-0.00676843
-0.00598125
-0.00516496
-0.0043319
-0.00349574
-0.00267127
-0.00187406
-0.00112009
-0.000425308
0.00019484
0.000725933
0.00115509
0.00147147
0.00166672
0.00173538
0.00167507
0.00148672
0.00117448
0.000745613
0.000210144
-0.00041952
-0.00112919
-0.00190387
-0.00272806
-0.00358121
-0.00444408
-0.00537006
-0.00640837
-0.00249688
-0.00338486
-0.00407612
-0.00463264
-0.00512949
-0.00557334
-0.00596997
-0.00632952
-0.00666143
-0.00697383
-0.0072738
-0.00756737
-0.0078595
-0.00815409
-0.00845404
-0.00876129
-0.00907689
-0.00940102
-0.0097331
-0.0100718
-0.0104151
-0.0107603
-0.0111042
-0.011443
-0.0117724
-0.0120876
-0.0123835
-0.0126546
-0.0128953
-0.0130996
-0.0132616
-0.0133754
-0.013435
-0.013435
-0.0133701
-0.0132357
-0.0130278
-0.0127433
-0.0123803
-0.0119377
-0.0114162
-0.0108177
-0.010146
-0.0094064
-0.00860637
-0.00775512
-0.00686377
-0.00594527
-0.00501419
-0.00408657
-0.00317955
-0.00231101
-0.00149907
-0.00076157
-0.000115487
0.000423679
0.000842499
0.00113018
0.00127907
0.00128496
0.00114741
0.000869705
0.000458786
-7.5076e-05
-0.000718722
-0.00145676
-0.0022727
-0.00314928
-0.00406363
-0.00499427
-0.00599943
-0.00713258
-0.00348391
-0.00437987
-0.00507782
-0.00564051
-0.00614391
-0.00659504
-0.00699999
-0.00736928
-0.00771264
-0.0080385
-0.00835418
-0.0086659
-0.00897876
-0.0092968
-0.00962299
-0.0099593
-0.0103068
-0.0106657
-0.0110352
-0.0114141
-0.0118002
-0.0121906
-0.012582
-0.0129702
-0.0133508
-0.0137186
-0.0140682
-0.0143937
-0.0146887
-0.014947
-0.0151619
-0.0153268
-0.015435
-0.0154801
-0.0154562
-0.0153575
-0.0151792
-0.0149172
-0.0145684
-0.014131
-0.0136045
-0.0129902
-0.012291
-0.0115117
-0.0106594
-0.00974316
-0.00877426
-0.00776612
-0.00673416
-0.0056956
-0.00466919
-0.00367476
-0.00273274
-0.00186359
-0.00108711
-0.000421769
0.000116028
0.000512619
0.000757705
0.000844845
0.000771792
0.000540639
0.000157741
-0.000366571
-0.00101846
-0.00178134
-0.0026371
-0.00356657
-0.00454432
-0.00554639
-0.0066362
-0.00787178
-0.00456583
-0.00546674
-0.00616922
-0.00673656
-0.00724535
-0.00770291
-0.00811564
-0.00849438
-0.00884917
-0.00918867
-0.00952045
-0.0098509
-0.0101853
-0.0105278
-0.0108814
-0.0112482
-0.0116293
-0.0120247
-0.012434
-0.0128554
-0.013287
-0.0137256
-0.0141677
-0.0146091
-0.0150448
-0.0154696
-0.0158776
-0.0162623
-0.0166172
-0.0169352
-0.017209
-0.0174312
-0.0175946
-0.0176917
-0.0177155
-0.0176596
-0.0175178
-0.0172851
-0.0169571
-0.016531
-0.0160052
-0.0153799
-0.0146572
-0.0138412
-0.0129383
-0.0119572
-0.0109094
-0.00980837
-0.00867038
-0.00751376
-0.00635879
-0.0052273
-0.00414216
-0.00312661
-0.00220356
-0.0013948
-0.000720116
-0.000196524
0.000162549
0.000347894
0.000355008
0.000184351
-0.000158646
-0.000663837
-0.00131685
-0.00209989
-0.00299318
-0.00397549
-0.00501853
-0.00609558
-0.00727568
-0.00862168
-0.00574264
-0.00664551
-0.00735038
-0.00792086
-0.00843386
-0.00889699
-0.00931692
-0.00970477
-0.0100709
-0.0104241
-0.0107722
-0.0111219
-0.0114785
-0.0118462
-0.0122283
-0.0126268
-0.0130429
-0.0134766
-0.0139275
-0.0143938
-0.0148733
-0.015363
-0.015859
-0.016357
-0.0168518
-0.0173378
-0.0178088
-0.0182579
-0.018678
-0.0190615
-0.0194004
-0.0196866
-0.0199119
-0.0200681
-0.0201471
-0.0201414
-0.0200437
-0.0198477
-0.0195479
-0.0191401
-0.0186216
-0.0179914
-0.0172504
-0.0164018
-0.0154512
-0.0144069
-0.0132799
-0.012084
-0.010836
-0.00955505
-0.00826306
-0.00698381
-0.00574265
-0.00456577
-0.00347944
-0.0025091
-0.00167839
-0.00100816
-0.000515518
-0.000213028
-0.000108013
-0.000202157
-0.000491389
-0.000966071
-0.00161149
-0.00240871
-0.00333625
-0.00437063
-0.00548043
-0.00663588
-0.007912
-0.00937679
-0.00701383
-0.0079157
-0.00862087
-0.00919299
-0.00970904
-0.0101768
-0.0106033
-0.0109999
-0.0113771
-0.011744
-0.0121086
-0.0124777
-0.0128569
-0.0132505
-0.0136618
-0.014093
-0.0145453
-0.0150188
-0.0155129
-0.0160261
-0.0165558
-0.0170991
-0.017652
-0.01821
-0.0187676
-0.0193189
-0.0198574
-0.0203758
-0.0208665
-0.0213212
-0.0217314
-0.0220882
-0.0223825
-0.0226051
-0.022747
-0.0227993
-0.0227538
-0.0226026
-0.0223391
-0.0219576
-0.021454
-0.0208259
-0.020073
-0.0191973
-0.0182033
-0.0170986
-0.0158937
-0.0146024
-0.0132415
-0.0118313
-0.0103949
-0.00895799
-0.00754839
-0.00619539
-0.00492883
-0.00377813
-0.0027712
-0.00193327
-0.00128576
-0.000845208
-0.000622418
-0.000621839
-0.000841291
-0.00127207
-0.00189938
-0.00270332
-0.00366062
-0.00474545
-0.00592296
-0.00715998
-0.00853793
-0.0101302
-0.00837832
-0.00927635
-0.00997979
-0.0105521
-0.0110701
-0.0115416
-0.011974
-0.0123788
-0.0127667
-0.013147
-0.013528
-0.0139167
-0.0143186
-0.0147384
-0.0151794
-0.015644
-0.0161333
-0.0166477
-0.0171864
-0.0177479
-0.0183299
-0.0189291
-0.0195415
-0.0201623
-0.0207861
-0.0214066
-0.0220168
-0.0226092
-0.0231757
-0.0237073
-0.024195
-0.0246289
-0.0249992
-0.0252957
-0.0255083
-0.0256269
-0.0256419
-0.0255442
-0.0253256
-0.024979
-0.0244988
-0.0238809
-0.0231236
-0.0222275
-0.0211959
-0.0200352
-0.0187553
-0.0173694
-0.0158947
-0.0143517
-0.0127647
-0.0111613
-0.00957176
-0.00802836
-0.00656473
-0.00521456
-0.00401046
-0.00298258
-0.00215729
-0.00155583
-0.00119324
-0.00107744
-0.00120881
-0.00158009
-0.00217682
-0.00297829
-0.00395951
-0.00509217
-0.00633767
-0.00765909
-0.00914464
-0.0108734
-0.00983452
-0.010726
-0.0114258
-0.0119969
-0.0125156
-0.0129901
-0.0134276
-0.0138399
-0.014238
-0.0146314
-0.0150284
-0.0154363
-0.0158608
-0.0163068
-0.0167776
-0.0172758
-0.0178026
-0.0183584
-0.0189427
-0.0195538
-0.0201895
-0.0208464
-0.0215204
-0.0222068
-0.0228997
-0.0235927
-0.0242786
-0.0249494
-0.0255964
-0.0262104
-0.0267813
-0.0272987
-0.0277519
-0.0281296
-0.0284207
-0.0286138
-0.028698
-0.0286627
-0.0284982
-0.0281958
-0.0277481
-0.0271495
-0.0263964
-0.0254878
-0.0244256
-0.0232149
-0.0218645
-0.0203869
-0.0187989
-0.0171213
-0.0153795
-0.0136023
-0.0118225
-0.0100753
-0.00839833
-0.00682966
-0.00540702
-0.00416603
-0.00313866
-0.00235167
-0.00182512
-0.00157128
-0.00159385
-0.0018877
-0.00243919
-0.0032271
-0.00422485
-0.00540152
-0.0067145
-0.0081227
-0.00972155
-0.0115961
-0.0113803
-0.0122628
-0.0129572
-0.0135258
-0.0140442
-0.0145205
-0.0149623
-0.0153814
-0.015789
-0.0161947
-0.0166071
-0.0170336
-0.0174801
-0.0179517
-0.018452
-0.0189836
-0.0195478
-0.0201453
-0.0207755
-0.0214368
-0.0221271
-0.022843
-0.0235804
-0.0243342
-0.0250987
-0.0258672
-0.0266321
-0.0273852
-0.0281172
-0.0288183
-0.0294779
-0.0300849
-0.0306275
-0.0310936
-0.0314708
-0.0317465
-0.0319085
-0.0319447
-0.0318437
-0.0315951
-0.0311896
-0.03062
-0.0298806
-0.0289687
-0.0278844
-0.0266312
-0.0252164
-0.0236516
-0.0219529
-0.0201411
-0.0182419
-0.0162856
-0.0143068
-0.0123439
-0.0104382
-0.00863257
-0.00697003
-0.00549223
-0.00423742
-0.00323866
-0.00252201
-0.002105
-0.00199558
-0.00219158
-0.00268079
-0.00344196
-0.00444706
-0.00566257
-0.00704153
-0.00853833
-0.010256
-0.0122857
-0.0130132
-0.0138844
-0.0145718
-0.0151367
-0.0156537
-0.0161309
-0.0165761
-0.017001
-0.0174171
-0.0178341
-0.0182608
-0.0187049
-0.0191724
-0.0196687
-0.0201975
-0.0207616
-0.0213627
-0.0220013
-0.0226771
-0.0233888
-0.0241339
-0.0249094