/*--------------------------------*- C++ -*----------------------------------*\
  =========                 |
  \\      /  F ield         | OpenFOAM: The Open Source CFD Toolbox
   \\    /   O peration     | Website:  https://openfoam.org
    \\  /    A nd           | Version:  dev
     \\/     M anipulation  |
\*---------------------------------------------------------------------------*/
FoamFile
{
    format      ascii;
    class       surfaceScalarField;
    location    "47.7";
    object      phi;
}
// * * * * * * * * * * * * * * * * * * * * * * * * * * * * * * * * * * * * * //

dimensions      [0 3 -1 0 0 0 0];

internalField   nonuniform List<scalar> 
10224
(
3.40974e-08
-3.46095e-08
8.80475e-08
-5.39379e-08
1.24566e-07
-3.6529e-08
1.25518e-07
-9.52734e-10
8.38812e-08
4.16414e-08
-1.63156e-09
8.55137e-08
-1.29193e-07
1.27559e-07
-2.95501e-07
1.66307e-07
-4.96494e-07
2.00993e-07
-7.27869e-07
2.31377e-07
-9.85358e-07
2.57489e-07
-1.26486e-06
2.79506e-07
-1.56255e-06
2.97683e-07
-1.87485e-06
3.12303e-07
-2.1985e-06
3.23651e-07
-2.5305e-06
3.31994e-07
-2.86806e-06
3.37569e-07
-3.20864e-06
3.40576e-07
-3.54981e-06
3.41176e-07
-3.88931e-06
3.39492e-07
-4.22492e-06
3.35609e-07
-4.5545e-06
3.2958e-07
-4.87593e-06
3.2143e-07
-5.18709e-06
3.11162e-07
-5.48585e-06
2.98764e-07
-5.77007e-06
2.84214e-07
-6.03756e-06
2.6749e-07
-6.28614e-06
2.48576e-07
-6.5136e-06
2.27468e-07
-6.71778e-06
2.04178e-07
-6.89653e-06
1.78747e-07
-7.04777e-06
1.5124e-07
-7.16953e-06
1.21761e-07
-7.25998e-06
9.04482e-08
-7.31746e-06
5.74832e-08
-7.34055e-06
2.30885e-08
-7.32808e-06
-1.24699e-08
-7.2792e-06
-4.88835e-08
-7.1934e-06
-8.58026e-08
-7.07056e-06
-1.2284e-07
-6.91098e-06
-1.59574e-07
-6.71543e-06
-1.95557e-07
-6.48511e-06
-2.30317e-07
-6.22174e-06
-2.63371e-07
-5.92751e-06
-2.94231e-07
-5.6051e-06
-3.22415e-07
-5.25764e-06
-3.47457e-07
-4.88872e-06
-3.68918e-07
-4.50233e-06
-3.86396e-07
-4.10279e-06
-3.99538e-07
-3.69475e-06
-4.08046e-07
-3.28306e-06
-4.11691e-07
-2.87274e-06
-4.10318e-07
-2.46889e-06
-4.03852e-07
-2.07658e-06
-3.92301e-07
-1.70082e-06
-3.75764e-07
-1.34639e-06
-3.54425e-07
-1.01784e-06
-3.28558e-07
-7.19313e-07
-2.98525e-07
-4.54538e-07
-2.64775e-07
-2.26689e-07
-2.27846e-07
-3.83142e-08
-1.88372e-07
1.08781e-07
-1.47094e-07
2.13659e-07
-1.04881e-07
2.76437e-07
-6.27822e-08
2.98549e-07
-2.21129e-08
2.83178e-07
1.53765e-08
2.35923e-07
4.72615e-08
1.65851e-07
7.00728e-08
8.72638e-08
7.85809e-08
2.25521e-08
6.47032e-08
2.25412e-08
5.40918e-08
-8.86893e-08
1.12653e-07
-1.12519e-07
1.1847e-07
-4.23443e-08
3.91558e-08
7.83695e-08
-1.41708e-07
2.22508e-07
-4.29452e-07
3.73255e-07
-8.22312e-07
5.20419e-07
-1.31414e-06
6.58138e-07
-1.89637e-06
7.8323e-07
-2.5592e-06
8.94204e-07
-3.29233e-06
9.90626e-07
-4.08553e-06
1.0727e-06
-4.92886e-06
1.14101e-06
-5.81287e-06
1.19632e-06
-6.72867e-06
1.23946e-06
-7.66794e-06
1.27127e-06
-8.62286e-06
1.29249e-06
-9.58609e-06
1.30381e-06
-1.05507e-05
1.30575e-06
-1.15099e-05
1.29876e-06
-1.24575e-05
1.28314e-06
-1.3387e-05
1.25911e-06
-1.42923e-05
1.22677e-06
-1.51674e-05
1.18618e-06
-1.60059e-05
1.13734e-06
-1.68019e-05
1.08023e-06
-1.75493e-05
1.01481e-06
-1.82418e-05
9.41081e-07
-1.88734e-05
8.59098e-07
-1.94382e-05
7.68969e-07
-1.99303e-05
6.709e-07
-2.03443e-05
5.652e-07
-2.06748e-05
4.52305e-07
-2.09172e-05
3.32782e-07
-2.1067e-05
2.07348e-07
-2.11208e-05
7.68651e-08
-2.10756e-05
-5.76486e-08
-2.09295e-05
-1.95028e-07
-2.06813e-05
-3.33965e-07
-2.03311e-05
-4.7302e-07
-1.98801e-05
-6.10642e-07
-1.93305e-05
-7.45181e-07
-1.86858e-05
-8.74923e-07
-1.79511e-05
-9.9811e-07
-1.71324e-05
-1.11298e-06
-1.6237e-05
-1.21778e-06
-1.52736e-05
-1.31086e-06
-1.42519e-05
-1.39062e-06
-1.31827e-05
-1.45564e-06
-1.20775e-05
-1.50465e-06
-1.0949e-05
-1.5366e-06
-9.80999e-06
-1.55069e-06
-8.67394e-06
-1.54637e-06
-7.5544e-06
-1.52339e-06
-6.46489e-06
-1.48181e-06
-5.41864e-06
-1.42201e-06
-4.42836e-06
-1.3447e-06
-3.50601e-06
-1.25091e-06
-2.66253e-06
-1.142e-06
-1.90762e-06
-1.01968e-06
-1.24946e-06
-8.86008e-07
-6.9444e-07
-7.43389e-07
-2.46874e-07
-5.9466e-07
9.14001e-08
-4.43153e-07
3.21469e-07
-2.92844e-07
4.47931e-07
-1.48569e-07
4.79787e-07
-1.64818e-08
4.31528e-07
9.55159e-08
3.24616e-07
1.76988e-07
1.89087e-07
2.14126e-07
6.44161e-08
1.8939e-07
8.69528e-08
3.74416e-08
-1.26141e-07
4.34995e-08
-1.18576e-07
-4.30726e-08
4.42349e-08
-2.5856e-07
2.93861e-07
-6.22586e-07
5.86532e-07
-1.14227e-06
8.92933e-07
-1.81587e-06
1.19402e-06
-2.63573e-06
1.478e-06
-3.59049e-06
1.73799e-06
-4.66661e-06
1.97033e-06
-5.84953e-06
2.17354e-06
-7.12434e-06
2.34751e-06
-8.47633e-06
2.493e-06
-9.89125e-06
2.61124e-06
-1.13555e-05
2.70368e-06
-1.2856e-05
2.77184e-06
-1.43807e-05
2.81714e-06
-1.59177e-05
2.84085e-06
-1.7456e-05
2.84404e-06
-1.89848e-05
2.82757e-06
-2.04938e-05
2.7921e-06
-2.19727e-05
2.73806e-06
-2.34117e-05
2.66574e-06
-2.48008e-05
2.57529e-06
-2.61302e-05
2.46677e-06
-2.73902e-05
2.3402e-06
-2.8571e-05
2.19562e-06
-2.96631e-05
2.03311e-06
-3.06568e-05
1.85285e-06
-3.1543e-05
1.6552e-06
-3.23128e-05
1.44066e-06
-3.29576e-05
1.21e-06
-3.34695e-05
9.64227e-07
-3.38414e-05
7.04621e-07
-3.40668e-05
4.32772e-07
-3.41405e-05
1.50575e-07
-3.40584e-05
-1.39764e-07
-3.38177e-05
-4.35737e-07
-3.34171e-05
-7.34547e-07
-3.2857e-05
-1.03314e-06
-3.21394e-05
-1.32822e-06
-3.12683e-05
-1.61633e-06
-3.02493e-05
-1.89385e-06
-2.90903e-05
-2.15711e-06
-2.78009e-05
-2.40243e-06
-2.63925e-05
-2.62618e-06
-2.48785e-05
-2.82488e-06
-2.32738e-05
-2.99527e-06
-2.15951e-05
-3.13436e-06
-1.98602e-05
-3.23956e-06
-1.80881e-05
-3.3087e-06
-1.62987e-05
-3.34012e-06
-1.45123e-05
-3.33271e-06
-1.27497e-05
-3.286e-06
-1.10314e-05
-3.20012e-06
-9.37748e-06
-3.07592e-06
-7.80729e-06
-2.9149e-06
-6.33891e-06
-2.71928e-06
-4.9889e-06
-2.49201e-06
-3.77185e-06
-2.23673e-06
-2.70001e-06
-1.95785e-06
-1.78285e-06
-1.66056e-06
-1.02659e-06
-1.35092e-06
-4.33698e-07
-1.03604e-06
-2.25886e-09
-7.24275e-07
2.74819e-07
-4.25637e-07
4.10597e-07
-1.52264e-07
4.25338e-07
8.07604e-08
3.477e-07
2.54619e-07
2.15906e-07
3.45924e-07
7.86993e-08
3.26607e-07
1.65647e-07
1.96534e-09
-1.28107e-07
-7.88392e-08
-3.77635e-08
-2.97546e-07
2.62946e-07
-6.87901e-07
6.84214e-07
-1.26823e-06
1.16686e-06
-2.0448e-06
1.66951e-06
-3.01484e-06
2.16405e-06
-4.16907e-06
2.63224e-06
-5.4939e-06
3.06282e-06
-6.973e-06
3.44942e-06
-8.5885e-06
3.78905e-06
-1.03219e-05
4.08095e-06
-1.21548e-05
4.32584e-06
-1.40688e-05
4.5253e-06
-1.60465e-05
4.68138e-06
-1.8071e-05
4.79627e-06
-2.01259e-05
4.8721e-06
-2.21959e-05
4.91082e-06
-2.4266e-05
4.9141e-06
-2.63217e-05
4.8833e-06
-2.83491e-05
4.81947e-06
-3.03344e-05
4.72336e-06
-3.22641e-05
4.59548e-06
-3.4125e-05
4.43615e-06
-3.59037e-05
4.24555e-06
-3.75874e-05
4.02382e-06
-3.91629e-05
3.77113e-06
-4.06175e-05
3.48774e-06
-4.19388e-05
3.17411e-06
-4.31145e-05
2.83094e-06
-4.41331e-05
2.45925e-06
-4.49835e-05
2.06044e-06
-4.56556e-05
1.63634e-06
-4.61402e-05
1.18922e-06
-4.64293e-05
7.21866e-07
-4.65163e-05
2.37556e-07
-4.63962e-05
-2.59922e-07
-4.60656e-05
-7.6629e-07
-4.55234e-05
-1.2768e-06
-4.47702e-05
-1.7863e-06
-4.38091e-05
-2.28926e-06
-4.26456e-05
-2.77985e-06
-4.12874e-05
-3.25205e-06
-3.97448e-05
-3.69973e-06
-3.80305e-05
-4.11676e-06
-3.61595e-05
-4.49712e-06
-3.41494e-05
-4.83504e-06
-3.20195e-05
-5.1251e-06
-2.97915e-05
-5.3624e-06
-2.74884e-05
-5.54262e-06
-2.51349e-05
-5.6622e-06
-2.27567e-05
-5.7184e-06
-2.03799e-05
-5.70943e-06
-1.80315e-05
-5.63449e-06
-1.57377e-05
-5.49389e-06
-1.35246e-05
-5.28903e-06
-1.1417e-05
-5.0225e-06
-9.43819e-06
-4.69806e-06
-7.60953e-06
-4.32067e-06
-5.94973e-06
-3.89653e-06
-4.4745e-06
-3.43308e-06
-3.19594e-06
-2.93911e-06
-2.12202e-06
-2.42484e-06
-1.25592e-06
-1.90214e-06
-5.95391e-07
-1.38481e-06
-1.31986e-07
-8.89044e-07
1.49811e-07
-4.34062e-07
2.73488e-07
-4.29086e-08
2.71532e-07
2.56589e-07
1.86453e-07
4.31003e-07
7.227e-08
4.40796e-07
2.37914e-07
-4.20255e-08
-8.60766e-08
-2.30004e-07
1.50217e-07
-6.06597e-07
6.39538e-07
-1.19842e-06
1.27603e-06
-2.01921e-06
1.98765e-06
-3.07216e-06
2.72246e-06
-4.35208e-06
3.44397e-06
-5.84753e-06
4.12769e-06
-7.54264e-06
4.75793e-06
-9.41861e-06
5.32539e-06
-1.14549e-05
5.8253e-06
-1.363e-05
6.25605e-06
-1.59223e-05
6.61816e-06
-1.83104e-05
6.91341e-06
-2.07734e-05
7.14436e-06
-2.32909e-05
7.31382e-06
-2.58435e-05
7.42465e-06
-2.84121e-05
7.47945e-06
-3.09785e-05
7.48054e-06
-3.3525e-05
7.42979e-06
-3.60342e-05
7.32871e-06
-3.84893e-05
7.17839e-06
-4.08734e-05
6.97963e-06
-4.31702e-05
6.73295e-06
-4.53634e-05
6.43874e-06
-4.74369e-05
6.09732e-06
-4.93749e-05
5.70909e-06
-5.11617e-05
5.2746e-06
-5.27823e-05
4.7947e-06
-5.4222e-05
4.2706e-06
-5.54667e-05
3.704e-06
-5.65034e-05
3.09713e-06
-5.732e-05
2.45288e-06
-5.79055e-05
1.77478e-06
-5.82507e-05
1.06709e-06
-5.8348e-05
3.34799e-07
-5.81915e-05
-4.16384e-07
-5.77778e-05
-1.18004e-06
-5.71055e-05
-1.94907e-06
-5.6176e-05
-2.7158e-06
-5.49932e-05
-3.47204e-06
-5.35639e-05
-4.20917e-06
-5.18976e-05
-4.91831e-06
-5.0007e-05
-5.59043e-06
-4.79072e-05
-6.2165e-06
-4.56166e-05
-6.7877e-06
-4.31561e-05
-7.29556e-06
-4.05491e-05
-7.73215e-06
-3.78212e-05
-8.09027e-06
-3.50002e-05
-8.36362e-06
-3.21154e-05
-8.54699e-06
-2.91974e-05
-8.63637e-06
-2.62777e-05
-8.62916e-06
-2.3388e-05
-8.5242e-06
-2.05599e-05
-8.32196e-06
-1.78244e-05
-8.02455e-06
-1.52111e-05
-7.63579e-06
-1.27479e-05
-7.16129e-06
-1.04601e-05
-6.60842e-06
-8.37026e-06
-5.98639e-06
-6.49711e-06
-5.30624e-06
-4.85525e-06
-4.58098e-06
-3.4544e-06
-3.82569e-06
-2.29878e-06
-3.05775e-06
-1.38643e-06
-2.29715e-06
-7.08495e-07
-1.56698e-06
-2.48487e-07
-8.94078e-07
1.84795e-08
-3.09872e-07
1.26477e-07
1.48598e-07
1.19657e-07
4.37809e-07
5.3711e-08
5.06743e-07
2.91628e-07
-8.944e-08
3.36447e-09
-3.95408e-07
4.56184e-07
-9.4532e-07
1.18945e-06
-1.75578e-06
2.08649e-06
-2.83359e-06
3.06547e-06
-4.17701e-06
4.06587e-06
-5.77717e-06
5.04414e-06
-7.61969e-06
5.97022e-06
-9.68609e-06
6.82433e-06
-1.19551e-05
7.59436e-06
-1.44035e-05
8.27378e-06
-1.70075e-05
8.86003e-06
-1.97427e-05
9.35332e-06
-2.25849e-05
9.75558e-06
-2.55103e-05
1.00698e-05
-2.84957e-05
1.02993e-05
-3.15187e-05
1.04477e-05
-3.45574e-05
1.05181e-05
-3.75905e-05
1.05137e-05
-4.05974e-05
1.04366e-05
-4.35577e-05
1.0289e-05
-4.64517e-05
1.00724e-05
-4.92597e-05
9.78768e-06
-5.19626e-05
9.4358e-06
-5.45412e-05
9.01735e-06
-5.69768e-05
8.53294e-06
-5.9251e-05
7.98327e-06
-6.13457e-05
7.36929e-06
-6.32434e-05
6.69236e-06
-6.49271e-05
5.95437e-06
-6.6381e-05
5.15783e-06
-6.75899e-05
4.30603e-06
-6.85401e-05
3.4031e-06
-6.92194e-05
2.45408e-06
-6.96172e-05
1.46497e-06
-6.97252e-05
4.4273e-07
-6.95369e-05
-6.04684e-07
-6.90485e-05
-1.66839e-06
-6.8259e-05
-2.73863e-06
-6.71699e-05
-3.80484e-06
-6.57862e-05
-4.85579e-06
-6.41156e-05
-5.87972e-06
-6.21694e-05
-6.86451e-06
-5.9962e-05
-7.79785e-06
-5.7511e-05
-8.66746e-06
-5.48374e-05
-9.46135e-06
-5.19649e-05
-1.0168e-05
-4.89204e-05
-1.07767e-05
-4.57331e-05
-1.12776e-05
-4.24347e-05
-1.16621e-05
-3.90584e-05
-1.19232e-05
-3.56393e-05
-1.20555e-05
-3.22132e-05
-1.20553e-05
-2.88162e-05
-1.19211e-05
-2.54846e-05
-1.16536e-05
-2.22536e-05
-1.12556e-05
-1.91572e-05
-1.07322e-05
-1.62272e-05
-1.00913e-05
-1.34928e-05
-9.34277e-06
-1.09799e-05
-8.49927e-06
-8.71028e-06
-7.57588e-06
-6.70094e-06
-6.59032e-06
-4.96361e-06
-5.56304e-06
-3.50391e-06
-4.51745e-06
-2.32081e-06
-3.48025e-06
-1.40593e-06
-2.48185e-06
-7.42959e-07
-1.55705e-06
-3.07027e-07
-7.45808e-07
-6.41306e-08
-9.42966e-08
2.94935e-08
3.44174e-07
2.83568e-08
5.07879e-07
3.1999e-07
-1.37675e-07
1.41038e-07
-5.66472e-07
8.8498e-07
-1.29788e-06
1.92085e-06
-2.337e-06
3.12561e-06
-3.68214e-06
4.41062e-06
-5.32524e-06
5.70898e-06
-7.25269e-06
6.97159e-06
-9.44637e-06
8.16389e-06
-1.18847e-05
9.26267e-06
-1.45437e-05
1.02534e-05
-1.73978e-05
1.11279e-05
-2.04206e-05
1.18828e-05
-2.35853e-05
1.2518e-05
-2.68653e-05
1.30356e-05
-3.02345e-05
1.34389e-05
-3.36671e-05
1.37319e-05
-3.71381e-05
1.39186e-05
-4.0623e-05
1.40031e-05
-4.4098e-05
1.39887e-05
-4.75398e-05
1.38785e-05
-5.09256e-05
1.36748e-05
-5.42329e-05
1.33797e-05
-5.74396e-05
1.29944e-05
-6.0524e-05
1.25201e-05
-6.34644e-05
1.19578e-05
-6.62399e-05
1.13084e-05
-6.88295e-05
1.05729e-05
-7.12131e-05
9.75287e-06
-7.3371e-05
8.85025e-06
-7.52843e-05
7.86772e-06
-7.69353e-05
6.8088e-06
-7.83072e-05
5.67798e-06
-7.9385e-05
4.48084e-06
-8.0155e-05
3.22412e-06
-8.06058e-05
1.91578e-06
-8.07281e-05
5.6502e-07
-8.05151e-05
-8.17726e-07
-7.99626e-05
-2.22084e-06
-7.90697e-05
-3.63159e-06
-7.78383e-05
-5.03625e-06
-7.62738e-05
-6.42026e-06
-7.43851e-05
-7.76839e-06
-7.21847e-05
-9.06494e-06
-6.96885e-05
-1.0294e-05
-6.69162e-05
-1.14398e-05
-6.38908e-05
-1.24868e-05
-6.06387e-05
-1.34201e-05
-5.71895e-05
-1.42259e-05
-5.35756e-05
-1.48914e-05
-4.98319e-05
-1.54058e-05
-4.59955e-05
-1.57597e-05
-4.21049e-05
-1.59461e-05
-3.81998e-05
-1.59603e-05
-3.43206e-05
-1.58004e-05
-3.05073e-05
-1.54669e-05
-2.67993e-05
-1.49636e-05
-2.32344e-05
-1.42971e-05
-1.98484e-05
-1.34773e-05
-1.66739e-05
-1.25172e-05
-1.37402e-05
-1.1433e-05
-1.1072e-05
-1.02441e-05
-8.68903e-06
-8.97331e-06
-6.6052e-06
-7.64687e-06
-4.82805e-06
-6.2946e-06
-3.35807e-06
-4.95022e-06
-2.18814e-06
-3.65177e-06
-1.30306e-06
-2.44213e-06
-6.79067e-07
-1.3698e-06
-2.83495e-07
-4.89864e-07
-7.44686e-08
1.35151e-07
-5.42889e-10
4.33955e-07
3.19449e-07
-1.85483e-07
3.2652e-07
-7.38302e-07
1.4378e-06
-1.65448e-06
2.83704e-06
-2.92704e-06
4.39817e-06
-4.54491e-06
6.02848e-06
-6.49275e-06
7.65682e-06
-8.75134e-06
9.23018e-06
-1.12981e-05
1.07107e-05
-1.4108e-05
1.20726e-05
-1.7154e-05
1.32994e-05
-2.0408e-05
1.43818e-05
-2.3841e-05
1.53158e-05
-2.74242e-05
1.61012e-05
-3.11287e-05
1.67401e-05
-3.49261e-05
1.72364e-05
-3.87886e-05
1.75943e-05
-4.26888e-05
1.78188e-05
-4.66001e-05
1.79144e-05
-5.04964e-05
1.7885e-05
-5.43521e-05
1.77342e-05
-5.81421e-05
1.74649e-05
-6.18417e-05
1.70793e-05
-6.54266e-05
1.65792e-05
-6.88726e-05
1.59662e-05
-7.21562e-05
1.52414e-05
-7.5254e-05
1.44062e-05
-7.81432e-05
1.34621e-05
-8.08016e-05
1.24113e-05
-8.32077e-05
1.12564e-05
-8.53409e-05
1.00009e-05
-8.71818e-05
8.64963e-06
-8.87121e-05
7.20831e-06
-8.99154e-05
5.68416e-06
-9.07771e-05
4.0858e-06
-9.12846e-05
2.42333e-06
-9.1428e-05
7.08394e-07
-9.11999e-05
-1.04588e-06
-9.05958e-05
-2.82491e-06
-8.96146e-05
-4.61277e-06
-8.82585e-05
-6.39232e-06
-8.65334e-05
-8.14538e-06
-8.44488e-05
-9.853e-06
-8.20181e-05
-1.14956e-05
-7.92586e-05
-1.30536e-05
-7.61913e-05
-1.4507e-05
-7.28413e-05
-1.58368e-05
-6.92369e-05
-1.70244e-05
-6.54103e-05
-1.80525e-05
-6.13964e-05
-1.89054e-05
-5.7233e-05
-1.95691e-05
-5.29603e-05
-2.00323e-05
-4.86204e-05
-2.02861e-05
-4.42563e-05
-2.03244e-05
-3.99122e-05
-2.01445e-05
-3.56317e-05
-1.97474e-05
-3.1458e-05
-1.91372e-05
-2.74328e-05
-1.83223e-05
-2.35955e-05
-1.73147e-05
-1.99822e-05
-1.61304e-05
-1.66257e-05
-1.47895e-05
-1.35538e-05
-1.3316e-05
-1.0789e-05
-1.17381e-05
-8.34806e-06
-1.00878e-05
-6.24072e-06
-8.40194e-06
-4.46962e-06
-6.72132e-06
-3.02959e-06
-5.0918e-06
-1.9073e-06
-3.56442e-06
-1.08097e-06
-2.19614e-06
-5.2019e-07
-1.05064e-06
-1.85997e-07
-1.99032e-07
-3.10342e-08
2.78996e-07
2.88412e-07
-2.32221e-07
5.58742e-07
-9.08139e-07
2.11372e-06
-2.00915e-06
3.93805e-06
-3.51618e-06
5.90521e-06
-5.40836e-06
7.92066e-06
-7.66254e-06
9.91099e-06
-1.02533e-05
1.18209e-05
-1.3153e-05
1.36105e-05
-1.63327e-05
1.52523e-05
-1.97621e-05
1.67288e-05
-2.34103e-05
1.803e-05
-2.7246e-05
1.91515e-05
-3.1238e-05
2.00932e-05
-3.53554e-05
2.08576e-05
-3.95679e-05
2.14488e-05
-4.38456e-05
2.18721e-05
-4.81593e-05
2.21325e-05
-5.24804e-05
2.22354e-05
-5.67808e-05
2.21854e-05
-6.10329e-05
2.19863e-05
-6.52098e-05
2.16417e-05
-6.92846e-05
2.11541e-05
-7.3231e-05
2.05257e-05
-7.70231e-05
1.97583e-05
-8.06353e-05
1.88536e-05
-8.40424e-05
1.78133e-05
-8.72198e-05
1.66395e-05
-9.01434e-05
1.53349e-05
-9.27902e-05
1.39031e-05
-9.51378e-05
1.23486e-05
-9.71654e-05
1.06772e-05
-9.88535e-05
8.8964e-06
-0.000100184
7.01498e-06
-0.000101142
5.04361e-06
-0.000101714
2.9947e-06
-0.000101888
8.82471e-07
-0.000101656
-1.27707e-06
-0.000101015
-3.4662e-06
-9.99623e-05
-5.66559e-06
-9.85001e-05
-7.85448e-06
-9.66346e-05
-1.00109e-05
-9.43757e-05
-1.21119e-05
-9.17375e-05
-1.41339e-05
-8.87381e-05
-1.60529e-05
-8.53999e-05
-1.78453e-05
-8.17491e-05
-1.94876e-05
-7.7816e-05
-2.09575e-05
-7.36345e-05
-2.22339e-05
-6.92421e-05
-2.32978e-05
-6.46791e-05
-2.41322e-05
-5.99884e-05
-2.4723e-05
-5.52151e-05
-2.50594e-05
-5.04057e-05
-2.51338e-05
-4.56075e-05
-2.49427e-05
-4.08681e-05
-2.44868e-05
-3.62341e-05
-2.37712e-05
-3.17511e-05
-2.28054e-05
-2.7462e-05
-2.16038e-05
-2.34069e-05
-2.01855e-05
-1.96218e-05
-1.85746e-05
-1.61382e-05
-1.67997e-05
-1.29817e-05
-1.48945e-05
-1.0172e-05
-1.28975e-05
-7.72187e-06
-1.08521e-05
-5.6365e-06
-8.8067e-06
-3.91329e-06
-6.815e-06
-2.54144e-06
-4.93626e-06
-1.5018e-06
-3.23577e-06
-7.66912e-07
-1.78553e-06
-3.01276e-07
-6.64665e-07
-6.20173e-08
3.97409e-08
2.26392e-07
-2.77613e-07
8.36357e-07
-1.07445e-06
2.91056e-06
-2.35822e-06
5.22182e-06
-4.0981e-06
7.64508e-06
-6.26333e-06
1.00859e-05
-8.82264e-06
1.24703e-05
-1.1744e-05
1.47422e-05
-1.49945e-05
1.6861e-05
-1.85408e-05
1.87986e-05
-2.23492e-05
2.05371e-05
-2.63856e-05
2.20664e-05
-3.06165e-05
2.33824e-05
-3.50083e-05
2.44851e-05
-3.95284e-05
2.53777e-05
-4.41444e-05
2.60649e-05
-4.88248e-05
2.65524e-05
-5.35385e-05
2.68463e-05
-5.82554e-05
2.69523e-05
-6.29455e-05
2.68755e-05
-6.75797e-05
2.66206e-05
-7.21292e-05
2.61912e-05
-7.65655e-05
2.55904e-05
-8.08607e-05
2.48208e-05
-8.49869e-05
2.38846e-05
-8.89171e-05
2.27837e-05
-9.26242e-05
2.15204e-05
-9.60821e-05
2.00974e-05
-9.92653e-05
1.85181e-05
-0.000102149
1.67868e-05
-0.00010471
1.49091e-05
-0.000106925
1.28924e-05
-0.000108774
1.07453e-05
-0.000110237
8.47872e-06
-0.000111299
6.10534e-06
-0.000111944
3.64e-06
-0.000112161
1.09961e-06
-0.000111942
-1.49683e-06
-0.00011128
-4.12829e-06
-0.000110173
-6.77192e-06
-0.000108625
-9.40316e-06
-0.000106639
-1.1996e-05
-0.000104228
-1.45234e-05
-0.000101404
-1.69575e-05
-9.81874e-05
-1.92699e-05
-9.46002e-05
-2.14325e-05
-9.06702e-05
-2.34177e-05
-8.64289e-05
-2.51988e-05
-8.19119e-05
-2.67509e-05
-7.71586e-05
-2.80511e-05
-7.22115e-05
-2.90792e-05
-6.71163e-05
-2.98183e-05
-6.19207e-05
-3.0255e-05
-5.66743e-05
-3.03801e-05
-5.1428e-05
-3.0189e-05
-4.62326e-05
-2.96822e-05
-4.11387e-05
-2.8865e-05
-3.61955e-05
-2.77486e-05
-3.145e-05
-2.63494e-05
-2.69459e-05
-2.46896e-05
-2.27232e-05
-2.27972e-05
-1.88171e-05
-2.07058e-05
-1.5257e-05
-1.84547e-05
-1.20659e-05
-1.60886e-05
-9.25987e-06
-1.36581e-05
-6.84742e-06
-1.12191e-05
-4.82902e-06
-8.8334e-06
-3.19692e-06
-6.56836e-06
-1.93509e-06
-4.4976e-06
-1.01942e-06
-2.7012e-06
-4.18187e-07
-1.2659e-06
-9.2937e-08
-2.85509e-07
1.33455e-07
-3.21546e-07
1.1579e-06
-1.23638e-06
3.82539e-06
-2.69946e-06
6.6849e-06
-4.66866e-06
9.61428e-06
-7.1035e-06
1.25207e-05
-9.96452e-06
1.53313e-05
-1.32128e-05
1.79906e-05
-1.68101e-05
2.04583e-05
-2.07184e-05
2.27068e-05
-2.49001e-05
2.47188e-05
-2.93183e-05
2.64846e-05
-3.39368e-05
2.80009e-05
-3.872e-05
2.92683e-05
-4.36331e-05
3.02908e-05
-4.86422e-05
3.10739e-05
-5.3714e-05
3.16242e-05
-5.88162e-05
3.19484e-05
-6.39167e-05
3.20528e-05
-6.89846e-05
3.19433e-05
-7.39889e-05
3.16249e-05
-7.88996e-05
3.11018e-05
-8.36866e-05
3.03774e-05
-8.83205e-05
2.94547e-05
-9.27721e-05
2.83362e-05
-9.70126e-05
2.70243e-05
-0.000101014
2.55217e-05
-0.000104748
2.38318e-05
-0.000108189
2.19585e-05
-0.000111309
1.99071e-05
-0.000114084
1.76845e-05
-0.000116491
1.52991e-05
-0.000118507
1.27614e-05
-0.000120113
1.0084e-05
-0.000121289
7.28184e-06
-0.000122021
4.37218e-06
-0.000122296
1.37474e-06
-0.000122105
-1.68839e-06
-0.00012144
-4.79282e-06
-0.0001203
-7.91203e-06
-0.000118686
-1.10175e-05
-0.000116603
-1.40792e-05
-0.00011406
-1.70656e-05
-0.000111073
-1.99444e-05
-0.000107661
-2.26826e-05
-0.000103846
-2.52476e-05
-9.96562e-05
-2.7607e-05
-9.51252e-05
-2.97298e-05
-9.02895e-05
-3.15866e-05
-8.519e-05
-3.31506e-05
-7.98713e-05
-3.4398e-05
-7.43813e-05
-3.53083e-05
-6.87705e-05
-3.58657e-05
-6.30916e-05
-3.60589e-05
-5.73986e-05
-3.5882e-05
-5.17461e-05
-3.53347e-05
-4.61884e-05
-3.44228e-05
-4.07787e-05
-3.31583e-05
-3.5568e-05
-3.15601e-05
-3.06044e-05
-2.96532e-05
-2.5932e-05
-2.74696e-05
-2.15902e-05
-2.50477e-05
-1.76124e-05
-2.24325e-05
-1.40257e-05
-1.96753e-05
-1.08499e-05
-1.68339e-05
-8.09732e-06
-1.39717e-05
-5.77195e-06
-1.11588e-05
-3.86957e-06
-8.47075e-06
-2.37767e-06
-5.98951e-06
-1.27572e-06
-3.80315e-06
-5.35799e-07
-2.00583e-06
-1.23587e-07
-6.97723e-07
9.86892e-09
-3.63977e-07
1.52188e-06
-1.39344e-06
4.85485e-06
-3.03145e-06
8.32291e-06
-5.22511e-06
1.18079e-05
-7.92448e-06
1.52201e-05
-1.1082e-05
1.84888e-05
-1.46519e-05
2.15605e-05
-1.85902e-05
2.43966e-05
-2.28543e-05
2.69709e-05
-2.74027e-05
2.92672e-05
-3.21954e-05
3.12774e-05
-3.71936e-05
3.2999e-05
-4.23595e-05
3.44342e-05
-4.76564e-05
3.55877e-05
-5.30488e-05
3.64663e-05
-5.8502e-05
3.70774e-05
-6.39821e-05
3.74285e-05
-6.94559e-05
3.75267e-05
-7.48912e-05
3.73786e-05
-8.02558e-05
3.69895e-05
-8.55182e-05
3.63642e-05
-9.06474e-05
3.55066e-05
-9.56126e-05
3.44199e-05
-0.000100383
3.31069e-05
-0.00010493
3.15706e-05
-0.000109222
2.98141e-05
-0.000113232
2.78412e-05
-0.00011693
2.56568e-05
-0.00012029
2.32669e-05
-0.000123285
2.06796e-05
-0.00012589
1.79046e-05
-0.000128083
1.4954e-05
-0.000129841
1.18423e-05
-0.000131146
8.58666e-06
-0.000131981
5.2068e-06
-0.000132331
1.72525e-06
-0.000132187
-1.83276e-06
-0.00013154
-5.43942e-06
-0.000130388
-9.06445e-06
-0.00012873
-1.26754e-05
-0.000126571
-1.62378e-05
-0.000123921
-1.97158e-05
-0.000120793
-2.30722e-05
-0.000117206
-2.62695e-05
-0.000113184
-2.927e-05
-0.000108754
-3.20365e-05
-0.000103951
-3.45332e-05
-9.88117e-05
-3.6726e-05
-9.33786e-05
-3.85837e-05
-8.76983e-05
-4.00783e-05
-8.18207e-05
-4.11859e-05
-7.5799e-05
-4.18874e-05
-6.96887e-05
-4.21692e-05
-6.35473e-05
-4.20234e-05
-5.7433e-05
-4.1449e-05
-5.14041e-05
-4.04517e-05
-4.5518e-05
-3.90444e-05
-3.98303e-05
-3.72478e-05
-3.43935e-05
-3.50899e-05
-2.92565e-05
-3.26066e-05
-2.44632e-05
-2.9841e-05
-2.00516e-05
-2.6844e-05
-1.60533e-05
-2.36736e-05
-1.24927e-05
-2.03945e-05
-9.38601e-06
-1.70784e-05
-6.74144e-06
-1.38034e-05
-4.55865e-06
-1.06535e-05
-2.82892e-06
-7.71924e-06
-1.53545e-06
-5.09663e-06
-6.54004e-07
-2.88728e-06
-1.53993e-07
-1.19774e-06
-1.44123e-07
-4.04893e-07
1.92677e-06
-1.54535e-06
5.9953e-06
-3.35326e-06
1.01308e-05
-5.7655e-06
1.42202e-05
-8.72302e-06
1.81776e-05
-1.21703e-05
2.19361e-05
-1.60549e-05
2.54451e-05
-2.03271e-05
2.86688e-05
-2.49395e-05
3.15833e-05
-2.98469e-05
3.41746e-05
-3.5006e-05
3.64365e-05
-4.03754e-05
3.83684e-05
-4.5915e-05
3.99738e-05
-5.15865e-05
4.12592e-05
-5.73527e-05
4.22325e-05
-6.31776e-05
4.29023e-05
-6.90261e-05
4.3277e-05
-7.4864e-05
4.33646e-05
-8.06576e-05
4.31722e-05
-8.6374e-05
4.27059e-05
-9.19807e-05
4.19709e-05
-9.74454e-05
4.09714e-05
-0.000102736
3.97109e-05
-0.000107822
3.81928e-05
-0.000112672
3.64202e-05
-0.000117255
3.43969e-05
-0.00012154
3.2127e-05
-0.0001255
2.96162e-05
-0.000129105
2.68716e-05
-0.000132327
2.39019e-05
-0.000135141
2.07185e-05
-0.000137522
1.7335e-05
-0.000139447
1.37677e-05
-0.000140896
1.00358e-05
-0.000141851
6.16178e-06
-0.000142297
2.17077e-06
-0.000142221
-1.90884e-06
-0.000141614
-6.04576e-06
-0.000140473
-1.0206e-05
-0.000138795
-1.43529e-05
-0.000136585
-1.84478e-05
-0.000133851
-2.245e-05
-0.000130606
-2.63178e-05
-0.000126867
-3.00084e-05
-0.000122658
-3.3479e-05
-0.000118007
-3.66872e-05
-0.000112948
-3.95921e-05
-0.000107519
-4.21547e-05
-0.000101764
-4.43387e-05
-9.5731e-05
-4.61117e-05
-8.94713e-05
-4.74457e-05
-8.30408e-05
-4.8318e-05
-7.64981e-05
-4.87119e-05
-6.99039e-05
-4.86176e-05
-6.33204e-05
-4.80325e-05
-5.68102e-05
-4.69619e-05
-5.04351e-05
-4.54195e-05
-4.42556e-05
-4.34273e-05
-3.83292e-05
-4.10163e-05
-3.27099e-05
-3.82258e-05
-2.74468e-05
-3.51041e-05
-2.25832e-05
-3.17077e-05
-1.81556e-05
-2.81012e-05
-1.41932e-05
-2.43569e-05
-1.07171e-05
-2.05545e-05
-7.74009e-06
-1.67804e-05
-5.26596e-06
-1.31277e-05
-3.29008e-06
-9.69513e-06
-1.79941e-06
-6.58729e-06
-7.73273e-07
-3.91341e-06
-1.84331e-07
-1.78668e-06
-3.28455e-07
-4.44281e-07
2.37105e-06
-1.69187e-06
7.24289e-06
-3.66416e-06
1.21031e-05
-6.28833e-06
1.68443e-05
-9.49659e-06
2.13859e-05
-1.32258e-05
2.56653e-05
-1.74169e-05
2.96362e-05
-2.20145e-05
3.32664e-05
-2.69666e-05
3.65354e-05
-3.2224e-05
3.94321e-05
-3.77405e-05
4.19529e-05
-4.34717e-05
4.40996e-05
-4.93757e-05
4.58779e-05
-5.54123e-05
4.72959e-05
-6.15429e-05
4.83631e-05
-6.77302e-05
4.90896e-05
-7.3938e-05
4.94848e-05
-8.01311e-05
4.95577e-05
-8.62751e-05
4.93161e-05
-9.2336e-05
4.87668e-05
-9.82805e-05
4.79154e-05
-0.000104076
4.67664e-05
-0.000109689
4.53239e-05
-0.000115087
4.35914e-05
-0.000120239
4.15725e-05
-0.000125114
3.92711e-05
-0.000129679
3.66923e-05
-0.000133905
3.38421e-05
-0.000137762
3.07283e-05
-0.000141221
2.73611e-05
-0.000144255
2.37527e-05
-0.000146838
1.99184e-05
-0.000148947
1.58762e-05
-0.000150559
1.16476e-05
-0.000151654
7.25716e-06
-0.000152216
2.733e-06
-0.000152232
-1.89349e-06
-0.00015169
-6.5876e-06
-0.000150584
-1.13115e-05
-0.000148912
-1.60246e-05
-0.000146677
-2.06836e-05
-0.000143883
-2.52432e-05
-0.000140545
-2.96566e-05
-0.000136677
-3.38759e-05
-0.000132303
-3.78528e-05
-0.000127451
-4.15396e-05
-0.000122153
-4.48896e-05
-0.00011645
-4.78583e-05
-0.000110384
-5.04043e-05
-0.000104006
-5.24902e-05
-9.73682e-05
-5.40831e-05
-9.05299e-05
-5.51563e-05
-8.35522e-05
-5.56896e-05
-7.64993e-05
-5.56705e-05
-6.94373e-05
-5.50944e-05
-6.24334e-05
-5.39658e-05
-5.55544e-05
-5.22985e-05
-4.88659e-05
-5.01159e-05
-4.24311e-05
-4.74511e-05
-3.63095e-05
-4.43474e-05
-3.0556e-05
-4.08576e-05
-2.52196e-05
-3.70441e-05
-2.03426e-05
-3.29781e-05
-1.59598e-05
-2.87397e-05
-1.20974e-05
-2.44169e-05
-8.77301e-06
-2.01048e-05
-5.9953e-06
-1.59054e-05
-3.76377e-06
-1.19266e-05
-2.06927e-06
-8.28179e-06
-8.94478e-07
-5.0882e-06
-2.14882e-07
-2.46627e-06
-5.43338e-07
-4.82121e-07
2.85317e-06
-1.83281e-06
8.59359e-06
-3.96355e-06
1.42338e-05
-6.79233e-06
1.96731e-05
-1.02431e-05
2.48366e-05
-1.42452e-05
2.96675e-05
-1.87334e-05
3.41244e-05
-2.36467e-05
3.81797e-05
-2.89286e-05
4.18173e-05
-3.45262e-05
4.50297e-05
-4.03899e-05
4.78166e-05
-4.64729e-05
5.01827e-05
-5.27313e-05
5.21363e-05
-5.91232e-05
5.36877e-05
-6.56084e-05
5.48484e-05
-7.21487e-05
5.56298e-05
-7.87069e-05
5.6043e-05
-8.5247e-05
5.60977e-05
-9.17336e-05
5.58028e-05
-9.81324e-05
5.51656e-05
-0.000104409
5.41922e-05
-0.00011053
5.28876e-05
-0.000116462
5.12561e-05
-0.000122173
4.93016e-05
-0.000127628
4.70279e-05
-0.000132797
4.44395e-05
-0.000137646
4.15416e-05
-0.000142145
3.8341e-05
-0.000146263
3.48463e-05
-0.00014997
3.10684e-05
-0.000153238
2.70207e-05
-0.00015604
2.272e-05
-0.000158349
1.81859e-05
-0.000160144
1.34419e-05
-0.000161401
8.51484e-06
-0.000162104
3.43549e-06
-0.000162236
-1.76176e-06
-0.000161784
-7.03885e-06
-0.000160742
-1.23542e-05
-0.000159103
-1.76632e-05
-0.000156869
-2.2918e-05
-0.000154043
-2.80685e-05
-0.000150637
-3.30628e-05
-0.000146666
-3.78475e-05
-0.00014215
-4.23687e-05
-0.000137116
-4.65729e-05
-0.000131599
-5.04074e-05
-0.000125635
-5.38218e-05
-0.000119271
-5.67689e-05
-0.000112555
-5.92055e-05
-0.000105545
-6.10937e-05
-9.82991e-05
-6.24018e-05
-9.08831e-05
-6.31057e-05
-8.33644e-05
-6.31891e-05
-7.58135e-05
-6.26453e-05
-6.83021e-05
-6.14772e-05
-6.09025e-05
-5.96982e-05
-5.36859e-05
-5.73325e-05
-4.67215e-05
-5.44155e-05
-4.00753e-05
-5.09937e-05
-3.38084e-05
-4.71245e-05
-2.79764e-05
-4.28761e-05
-2.26279e-05
-3.83267e-05
-1.78035e-05
-3.35641e-05
-1.35356e-05
-2.86848e-05
-9.84722e-06
-2.37932e-05
-6.75188e-06
-1.90007e-05
-4.25367e-06
-1.44249e-05
-2.34732e-06
-1.01881e-05
-1.01877e-06
-6.41676e-06
-2.45992e-07
-3.23905e-06
-7.89331e-07
-5.18374e-07
3.37155e-06
-1.96795e-06
1.00432e-05
-4.25083e-06
1.65167e-05
-7.27631e-06
2.26986e-05
-1.09604e-05
2.85208e-05
-1.52257e-05
3.39327e-05
-2.00005e-05
3.88992e-05
-2.52188e-05
4.33981e-05
-3.08195e-05
4.74181e-05
-3.67461e-05
5.09563e-05
-4.2946e-05
5.40164e-05
-4.93699e-05
5.66066e-05
-5.59719e-05
5.87382e-05
-6.27084e-05
6.04242e-05
-6.95382e-05
6.16782e-05
-7.64218e-05
6.25135e-05
-8.33213e-05
6.29425e-05
-9.02e-05
6.29764e-05
-9.7022e-05
6.26248e-05
-0.000103752
6.18958e-05
-0.000110356
6.07961e-05
-0.0001168
5.9331e-05
-0.000123049
5.75053e-05
-0.00012907
5.53229e-05
-0.00013483
5.27881e-05
-0.000140296
4.99054e-05
-0.000145435
4.66806e-05
-0.000150215
4.3121e-05
-0.000154604
3.92356e-05
-0.000158572
3.50362e-05
-0.000162089
3.05374e-05
-0.000165126
2.57569e-05
-0.000167656
2.07161e-05
-0.000169654
1.54402e-05
-0.000171098
9.9582e-06
-0.000171965
4.30338e-06
-0.00017224
-1.48702e-06
-0.000171907
-7.37171e-06
-0.000170956
-1.33055e-05
-0.00016938
-1.92395e-05
-0.000167176
-2.51218e-05
-0.000164347
-3.08971e-05
-0.000160902
-3.65084e-05
-0.000156853
-4.18966e-05
-0.000152219
-4.7002e-05
-0.000147027
-5.17647e-05
-0.000141309
-5.61259e-05
-0.000135102
-6.00286e-05
-0.000128452
-6.34193e-05
-0.000121409
-6.62484e-05
-0.00011403
-6.84722e-05
-0.000106379
-7.00535e-05
-9.85213e-05
-7.0963e-05
-9.05297e-05
-7.11807e-05
-8.24787e-05
-7.06963e-05
-7.44451e-05
-6.95108e-05
-6.65069e-05
-6.76364e-05
-5.87415e-05
-6.50979e-05
-5.12248e-05
-6.19322e-05
-4.40296e-05
-5.81889e-05
-3.72243e-05
-5.39298e-05
-3.08714e-05
-4.9229e-05
-2.50266e-05
-4.41715e-05
-1.97374e-05
-3.88532e-05
-1.50426e-05
-3.33796e-05
-1.09711e-05
-2.78646e-05
-7.54205e-06
-2.24298e-05
-4.76417e-06
-1.72027e-05
-2.63628e-06
-1.2316e-05
-1.1475e-06
-7.90553e-06
-2.78053e-07
-4.1085e-06
-1.06738e-06
-5.52988e-07
3.92453e-06
-2.09702e-06
1.15872e-05
-4.52535e-06
1.89451e-05
-7.73907e-06
2.59123e-05
-1.16468e-05
3.24285e-05
-1.61643e-05
3.84502e-05
-2.12143e-05
4.39492e-05
-2.67257e-05
4.89095e-05
-3.26332e-05
5.33256e-05
-3.88767e-05
5.71998e-05
-4.54007e-05
6.05403e-05
-5.21536e-05
6.33595e-05
-5.90875e-05
6.56721e-05
-6.61574e-05
6.74942e-05
-7.33209e-05
6.88417e-05
-8.05376e-05
6.97302e-05
-8.7769e-05
7.01738e-05
-9.49776e-05
7.0185e-05
-0.000102127
6.97745e-05
-0.000109182
6.89511e-05
-0.000116108