/*--------------------------------*- C++ -*----------------------------------*\
  =========                 |
  \\      /  F ield         | OpenFOAM: The Open Source CFD Toolbox
   \\    /   O peration     | Website:  https://openfoam.org
    \\  /    A nd           | Version:  dev
     \\/     M anipulation  |
\*---------------------------------------------------------------------------*/
FoamFile
{
    format      ascii;
    class       volVectorField;
    location    "47.7";
    object      U;
}
// * * * * * * * * * * * * * * * * * * * * * * * * * * * * * * * * * * * * * //

dimensions      [0 1 -1 0 0 0 0];

internalField   nonuniform List<vector> 
5184
(
(1.24362e-05 -1.26073e-05 0)
(4.53514e-05 -2.08339e-05 0)
(8.04558e-05 -1.72317e-05 0)
(9.60915e-05 -8.19207e-06 0)
(8.2259e-05 2.67179e-06 0)
(3.65554e-05 1.36213e-05 0)
(-4.04794e-05 2.38505e-05 0)
(-0.000146826 3.30557e-05 0)
(-0.000279689 4.11166e-05 0)
(-0.000436014 4.8038e-05 0)
(-0.000612677 5.38812e-05 0)
(-0.000806646 5.87311e-05 0)
(-0.00101505 6.26803e-05 0)
(-0.00123522 6.58203e-05 0)
(-0.0014647 6.8236e-05 0)
(-0.00170123 7.00026e-05 0)
(-0.00194274 7.11845e-05 0)
(-0.00218731 7.1834e-05 0)
(-0.00243315 7.1992e-05 0)
(-0.00267859 7.16881e-05 0)
(-0.00292201 7.09416e-05 0)
(-0.00316186 6.97631e-05 0)
(-0.0033966 6.81555e-05 0)
(-0.0036247 6.61158e-05 0)
(-0.00384465 6.36367e-05 0)
(-0.0040549 6.07085e-05 0)
(-0.00425389 5.73207e-05 0)
(-0.00444005 5.34636e-05 0)
(-0.0046118 4.91302e-05 0)
(-0.00476756 4.43175e-05 0)
(-0.00490577 3.90279e-05 0)
(-0.00502491 3.32707e-05 0)
(-0.00512351 2.70631e-05 0)
(-0.00520019 2.04311e-05 0)
(-0.0052537 1.34105e-05 0)
(-0.00528292 6.04692e-06 0)
(-0.0052869 -1.60337e-06 0)
(-0.00526492 -9.47389e-06 0)
(-0.00521647 -1.74881e-05 0)
(-0.00514133 -2.55601e-05 0)
(-0.00503956 -3.35954e-05 0)
(-0.00491154 -4.14925e-05 0)
(-0.00475797 -4.9144e-05 0)
(-0.0045799 -5.64389e-05 0)
(-0.00437875 -6.32644e-05 0)
(-0.00415626 -6.95088e-05 0)
(-0.00391453 -7.50631e-05 0)
(-0.003656 -7.98246e-05 0)
(-0.00338338 -8.36984e-05 0)
(-0.00309969 -8.66008e-05 0)
(-0.00280816 -8.84611e-05 0)
(-0.00251223 -8.92241e-05 0)
(-0.00221545 -8.88516e-05 0)
(-0.0019215 -8.7324e-05 0)
(-0.00163404 -8.46409e-05 0)
(-0.00135671 -8.08218e-05 0)
(-0.00109307 -7.5906e-05 0)
(-0.000846467 -6.99522e-05 0)
(-0.000620062 -6.30382e-05 0)
(-0.000416703 -5.52597e-05 0)
(-0.000238889 -4.6731e-05 0)
(-8.86975e-05 -3.75855e-05 0)
(3.22819e-05 -2.79787e-05 0)
(0.000123035 -1.80932e-05 0)
(0.000183232 -8.15356e-06 0)
(0.000213378 1.54675e-06 0)
(0.00021506 1.05824e-05 0)
(0.000191332 1.83143e-05 0)
(0.000147225 2.37289e-05 0)
(9.08389e-05 2.51361e-05 0)
(3.6644e-05 1.98515e-05 0)
(6.22962e-06 6.24148e-06 0)
(2.09218e-05 -4.57416e-05 0)
(6.57854e-05 -6.56305e-05 0)
(9.4892e-05 -4.05333e-05 0)
(7.29893e-05 7.64642e-06 0)
(-1.87633e-05 6.56977e-05 0)
(-0.000187193 0.000126024 0)
(-0.000432885 0.000184342 0)
(-0.00075262 0.000238407 0)
(-0.00114085 0.000287075 0)
(-0.0015908 0.000329902 0)
(-0.00209512 0.000366847 0)
(-0.00264636 0.000398101 0)
(-0.00323719 0.000423974 0)
(-0.00386064 0.000444835 0)
(-0.00451009 0.00046106 0)
(-0.00517934 0.000473008 0)
(-0.00586259 0.000481002 0)
(-0.0065544 0.000485318 0)
(-0.00724962 0.000486178 0)
(-0.00794337 0.000483755 0)
(-0.00863095 0.000478169 0)
(-0.0093078 0.000469497 0)
(-0.00996945 0.000457779 0)
(-0.0106115 0.000443022 0)
(-0.0112295 0.000425215 0)
(-0.011819 0.000404335 0)
(-0.0123757 0.000380356 0)
(-0.0128951 0.000353263 0)
(-0.0133728 0.000323055 0)
(-0.0138046 0.00028976 0)
(-0.0141861 0.000253438 0)
(-0.0145132 0.000214192 0)
(-0.0147821 0.000172171 0)
(-0.0149891 0.00012758 0)
(-0.015131 8.06767e-05 0)
(-0.0152049 3.17817e-05 0)
(-0.0152084 -1.87261e-05 0)
(-0.0151398 -7.04085e-05 0)
(-0.0149979 -0.00012277 0)
(-0.0147824 -0.000175263 0)
(-0.0144936 -0.000227293 0)
(-0.0141329 -0.000278228 0)
(-0.0137022 -0.000327406 0)
(-0.0132047 -0.000374147 0)
(-0.0126442 -0.000417767 0)
(-0.0120257 -0.000457591 0)
(-0.0113549 -0.000492965 0)
(-0.0106385 -0.000523276 0)
(-0.0098838 -0.000547961 0)
(-0.00909892 -0.000566526 0)
(-0.00829257 -0.000578559 0)
(-0.00747394 -0.000583739 0)
(-0.00665256 -0.00058185 0)
(-0.00583817 -0.000572791 0)
(-0.00504057 -0.000556576 0)
(-0.00426942 -0.000533346 0)
(-0.00353411 -0.000503364 0)
(-0.00284356 -0.00046702 0)
(-0.00220606 -0.000424829 0)
(-0.00162907 -0.000377431 0)
(-0.00111909 -0.000325594 0)
(-0.000681417 -0.000270226 0)
(-0.000319954 -0.000212388 0)
(-3.69881e-05 -0.000153334 0)
(0.000167119 -9.45734e-05 0)
(0.00029429 -3.79818e-05 0)
(0.000349276 1.3976e-05 0)
(0.000340351 5.79913e-05 0)
(0.000280019 8.94687e-05 0)
(0.000186146 0.000101913 0)
(8.64132e-05 8.65536e-05 0)
(1.96905e-05 3.64955e-05 0)
(1.76747e-05 -8.12723e-05 0)
(4.14363e-05 -9.5017e-05 0)
(1.97445e-05 -1.9127e-05 0)
(-8.38528e-05 0.000105956 0)
(-0.000290147 0.000254712 0)
(-0.000607888 0.000410692 0)
(-0.00103834 0.000563578 0)
(-0.00157768 0.00070723 0)
(-0.00221874 0.000838194 0)
(-0.00295234 0.000954762 0)
(-0.0037682 0.00105633 0)
(-0.0046556 0.00114301 0)
(-0.00560382 0.0012153 0)
(-0.00660238 0.00127393 0)
(-0.00764123 0.00131972 0)
(-0.00871081 0.0013535 0)
(-0.00980202 0.00137604 0)
(-0.0109063 0.001388 0)
(-0.0120153 0.00138996 0)
(-0.0131214 0.00138236 0)
(-0.0142168 0.00136552 0)
(-0.0152943 0.00133967 0)
(-0.0163465 0.00130493 0)
(-0.0173663 0.00126138 0)
(-0.0183468 0.00120901 0)
(-0.0192807 0.00114783 0)
(-0.0201611 0.00107782 0)
(-0.020981 0.000998984 0)
(-0.0217336 0.000911402 0)
(-0.022412 0.000815207 0)
(-0.0230097 0.000710632 0)
(-0.0235204 0.000598021 0)
(-0.0239382 0.000477848 0)
(-0.0242575 0.00035073 0)
(-0.0244735 0.000217431 0)
(-0.0245821 7.88769e-05 0)
(-0.0245796 -6.38525e-05 0)
(-0.0244638 -0.000209521 0)
(-0.024233 -0.000356744 0)
(-0.0238869 -0.000504004 0)
(-0.0234264 -0.000649663 0)
(-0.0228536 -0.000791989 0)
(-0.022172 -0.000929179 0)
(-0.0213864 -0.00105939 0)
(-0.020503 -0.00118076 0)
(-0.0195296 -0.00129149 0)
(-0.018475 -0.00138981 0)
(-0.0173495 -0.00147407 0)
(-0.0161644 -0.00154278 0)
(-0.0149322 -0.00159462 0)
(-0.0136663 -0.00162849 0)
(-0.0123805 -0.00164356 0)
(-0.0110896 -0.00163925 0)
(-0.00980835 -0.00161532 0)
(-0.00855161 -0.00157183 0)
(-0.00733411 -0.00150919 0)
(-0.00617012 -0.00142814 0)
(-0.00507316 -0.00132979 0)
(-0.00405577 -0.00121558 0)
(-0.00312925 -0.00108732 0)
(-0.00230332 -0.000947188 0)
(-0.00158587 -0.00079775 0)
(-0.000982662 -0.000642016 0)
(-0.000496905 -0.00048352 0)
(-0.000128908 -0.00032646 0)
(0.0001244 -0.00017593 0)
(0.000270116 -3.82493e-05 0)
(0.000320095 7.85621e-05 0)
(0.000291485 0.000164208 0)
(0.00020753 0.000205518 0)
(0.000102511 0.000186374 0)
(2.49907e-05 9.04272e-05 0)
(8.86096e-06 -9.777e-05 0)
(-6.94629e-06 -7.31779e-05 0)
(-0.000107495 8.47841e-05 0)
(-0.000322304 0.000318422 0)
(-0.000669624 0.000590231 0)
(-0.00115786 0.000874581 0)
(-0.00178776 0.00115443 0)
(-0.00255456 0.00141899 0)
(-0.00344971 0.00166178 0)
(-0.00446218 0.00187927 0)
(-0.00557948 0.00206989 0)
(-0.0067884 0.00223339 0)
(-0.00807553 0.00237034 0)
(-0.00942761 0.00248177 0)
(-0.0108317 0.00256895 0)
(-0.0122754 0.00263322 0)
(-0.0137469 0.00267585 0)
(-0.0152346 0.002698 0)
(-0.0167276 0.00270065 0)
(-0.0182154 0.00268458 0)
(-0.0196878 0.00265041 0)
(-0.0211348 0.00259854 0)
(-0.0225466 0.00252926 0)
(-0.0239136 0.00244272 0)
(-0.0252263 0.002339 0)
(-0.0264751 0.00221814 0)
(-0.0276506 0.0020802 0)
(-0.0287438 0.00192529 0)
(-0.0297453 0.00175362 0)
(-0.0306463 0.00156554 0)
(-0.0314383 0.00136156 0)
(-0.032113 0.00114244 0)
(-0.0326629 0.000909136 0)
(-0.0330808 0.000662896 0)
(-0.0333606 0.000405234 0)
(-0.0334971 0.000137952 0)
(-0.0334859 -0.000136859 0)
(-0.033324 -0.000416828 0)
(-0.0330098 -0.000699318 0)
(-0.0325431 -0.00098145 0)
(-0.0319252 -0.00126014 0)
(-0.0311592 -0.00153212 0)
(-0.0302498 -0.00179402 0)
(-0.0292034 -0.00204239 0)
(-0.0280284 -0.00227378 0)
(-0.0267348 -0.00248482 0)
(-0.0253344 -0.00267224 0)
(-0.0238403 -0.002833 0)
(-0.0222675 -0.00296432 0)
(-0.020632 -0.00306377 0)
(-0.0189512 -0.00312934 0)
(-0.0172431 -0.00315949 0)
(-0.0155266 -0.00315318 0)
(-0.0138208 -0.00310997 0)
(-0.0121449 -0.00303002 0)
(-0.0105179 -0.0029141 0)
(-0.00895812 -0.00276365 0)
(-0.00748304 -0.00258078 0)
(-0.00610879 -0.00236824 0)
(-0.00484986 -0.00212948 0)
(-0.00371876 -0.00186867 0)
(-0.00272559 -0.00159069 0)
(-0.00187769 -0.00130128 0)
(-0.00117918 -0.00100709 0)
(-0.000630513 -0.000715957 0)
(-0.000227999 -0.000437152 0)
(3.68481e-05 -0.000181828 0)
(0.000177938 3.64029e-05 0)
(0.000215011 0.00020082 0)
(0.000174241 0.000291028 0)
(9.30932e-05 0.000282716 0)
(2.40421e-05 0.00014735 0)
(-2.11286e-06 -8.44589e-05 0)
(-6.72636e-05 2.08526e-05 0)
(-0.000264098 0.000295477 0)
(-0.000609828 0.000668164 0)
(-0.00111696 0.00109109 0)
(-0.00179171 0.00153034 0)
(-0.00263307 0.00196245 0)
(-0.00363468 0.00237194 0)
(-0.00478641 0.00274908 0)
(-0.00607554 0.00308824 0)
(-0.0074877 0.00338664 0)
(-0.00900765 0.00364346 0)
(-0.0106198 0.00385915 0)
(-0.0123085 0.00403496 0)
(-0.0140586 0.00417256 0)
(-0.0158552 0.00427375 0)
(-0.0176839 0.00434033 0)
(-0.0195308 0.00437396 0)
(-0.0213827 0.00437605 0)
(-0.0232265 0.00434778 0)
(-0.0250496 0.00429005 0)
(-0.0268397 0.00420353 0)
(-0.0285848 0.00408867 0)
(-0.0302729 0.00394577 0)
(-0.0318922 0.00377503 0)
(-0.0334311 0.0035766 0)
(-0.034878 0.00335065 0)
(-0.0362217 0.00309748 0)
(-0.037451 0.00281752 0)
(-0.0385553 0.00251144 0)
(-0.0395241 0.00218018 0)
(-0.0403477 0.00182503 0)
(-0.0410169 0.00144762 0)
(-0.0415235 0.00105001 0)
(-0.04186 0.000634692 0)
(-0.0420205 0.000204578 0)
(-0.042 -0.000236967 0)
(-0.0417952 -0.000686153 0)
(-0.0414042 -0.00113879 0)
(-0.0408271 -0.00159031 0)
(-0.0400657 -0.00203586 0)
(-0.0391239 -0.00247031 0)
(-0.0380075 -0.00288837 0)
(-0.0367245 -0.00328464 0)
(-0.0352849 -0.00365376 0)
(-0.0337009 -0.00399043 0)
(-0.0319866 -0.0042896 0)
(-0.0301578 -0.00454654 0)
(-0.0282325 -0.00475692 0)
(-0.0262298 -0.004917 0)
(-0.0241704 -0.00502364 0)
(-0.0220758 -0.00507445 0)
(-0.0199686 -0.00506788 0)
(-0.0178715 -0.00500322 0)
(-0.0158075 -0.00488075 0)
(-0.0137992 -0.00470173 0)
(-0.0118685 -0.00446843 0)
(-0.0100362 -0.00418417 0)
(-0.00832155 -0.00385335 0)
(-0.00674191 -0.00348142 0)
(-0.00531222 -0.00307496 0)
(-0.00404462 -0.00264171 0)
(-0.00294797 -0.00219067 0)
(-0.00202741 -0.00173226 0)
(-0.00128388 -0.00127853 0)
(-0.000713609 -0.000843543 0)
(-0.000307603 -0.000443786 0)
(-5.10767e-05 -9.88287e-05 0)
(7.68641e-05 0.000167982 0)
(0.00010373 0.000328909 0)
(6.75656e-05 0.000351206 0)
(1.96783e-05 0.000194237 0)
(-1.3691e-05 -3.7579e-05 0)
(-0.000132843 0.000197347 0)
(-0.000435898 0.000627004 0)
(-0.000924841 0.00117062 0)
(-0.00160431 0.00177221 0)
(-0.00247687 0.00239091 0)
(-0.00353867 0.00299763 0)
(-0.00478103 0.00357259 0)
(-0.00619183 0.0041029 0)
(-0.00775657 0.00458082 0)
(-0.00945908 0.00500226 0)
(-0.0112823 0.00536571 0)
(-0.0132088 0.00567144 0)
(-0.0152209 0.00592081 0)
(-0.0173014 0.00611579 0)
(-0.0194335 0.00625864 0)
(-0.0216005 0.00635166 0)
(-0.0237866 0.00639698 0)
(-0.0259762 0.00639646 0)
(-0.0281542 0.00635167 0)
(-0.030306 0.00626385 0)
(-0.0324171 0.00613393 0)
(-0.0344733 0.00596257 0)
(-0.0364607 0.00575026 0)
(-0.0383654 0.00549733 0)
(-0.0401739 0.00520412 0)
(-0.0418727 0.00487101 0)
(-0.0434487 0.00449852 0)
(-0.044889 0.00408741 0)
(-0.0461813 0.00363879 0)
(-0.0473136 0.00315413 0)
(-0.0482747 0.0026354 0)
(-0.0490543 0.00208509 0)
(-0.049643 0.00150623 0)
(-0.0500325 0.000902476 0)
(-0.0502159 0.000278088 0)
(-0.0501879 -0.000362068 0)
(-0.0499447 -0.00101254 0)
(-0.0494846 -0.00166731 0)
(-0.0488077 -0.00231987 0)
(-0.0479164 -0.0029633 0)
(-0.0468151 -0.00359032 0)
(-0.0455108 -0.00419342 0)
(-0.0440126 -0.00476499 0)
(-0.0423321 -0.00529742 0)
(-0.0404832 -0.00578328 0)
(-0.0384821 -0.00621544 0)
(-0.036347 -0.00658721 0)
(-0.0340981 -0.00689253 0)
(-0.0317574 -0.00712611 0)
(-0.0293484 -0.00728355 0)
(-0.0268957 -0.00736148 0)
(-0.024425 -0.00735771 0)
(-0.0219622 -0.00727127 0)
(-0.0195335 -0.00710256 0)
(-0.0171648 -0.00685335 0)
(-0.014881 -0.00652691 0)
(-0.012706 -0.00612794 0)
(-0.0106619 -0.0056627 0)
(-0.00876861 -0.00513896 0)
(-0.00704339 -0.00456608 0)
(-0.00550035 -0.00395503 0)
(-0.00414997 -0.00331852 0)
(-0.00299859 -0.00267117 0)
(-0.00204799 -0.0020297 0)
(-0.0012949 -0.00141332 0)
(-0.000730522 -0.000844175 0)
(-0.000340131 -0.000347946 0)
(-0.000102749 4.53728e-05 0)
(9.27097e-06 0.000300829 0)
(3.25483e-05 0.000377606 0)
(1.36319e-05 0.000224647 0)
(-2.51891e-05 4.40612e-05 0)
(-0.000200056 0.000461319 0)
(-0.000614236 0.00108729 0)
(-0.00125325 0.00183519 0)
(-0.00211265 0.00264312 0)
(-0.00319026 0.00346482 0)
(-0.00447854 0.00426663 0)
(-0.00596575 0.00502509 0)
(-0.00763739 0.00572459 0)
(-0.0094769 0.00635543 0)
(-0.0114663 0.00691229 0)
(-0.0135867 0.007393 0)
(-0.015819 0.00779757 0)
(-0.0181439 0.00812745 0)
(-0.0205423 0.00838488 0)
(-0.0229955 0.00857255 0)
(-0.0254852 0.00869318 0)
(-0.0279937 0.00874938 0)
(-0.0305035 0.00874345 0)
(-0.0329977 0.00867736 0)
(-0.0354597 0.00855266 0)
(-0.0378732 0.00837057 0)
(-0.0402222 0.00813199 0)
(-0.0424909 0.00783762 0)
(-0.0446636 0.007488 0)
(-0.0467251 0.00708367 0)
(-0.0486602 0.00662527 0)
(-0.0504542 0.00611366 0)
(-0.0520925 0.00555001 0)
(-0.0535615 0.00493594 0)
(-0.0548477 0.0042736 0)
(-0.0559388 0.00356577 0)
(-0.0568233 0.0028159 0)
(-0.0574907 0.0020282 0)
(-0.0579321 0.00120766 0)
(-0.0581399 0.000360065 0)
(-0.0581081 -0.000508018 0)
(-0.057833 -0.00138925 0)
(-0.0573126 -0.00227558 0)
(-0.0565471 -0.00315832 0)
(-0.0555393 -0.00402823 0)
(-0.0542943 -0.00487564 0)
(-0.0528197 -0.0056906 0)
(-0.0511257 -0.00646301 0)
(-0.0492252 -0.0071828 0)
(-0.0471336 -0.00784013 0)
(-0.0448687 -0.00842556 0)
(-0.0424507 -0.00893026 0)
(-0.0399019 -0.00934621 0)
(-0.0372467 -0.0096664 0)
(-0.0345111 -0.009885 0)
(-0.0317224 -0.00999755 0)
(-0.0289088 -0.0100011 0)
(-0.0260992 -0.00989441 0)
(-0.0233228 -0.00967793 0)
(-0.0206082 -0.00935402 0)
(-0.0179834 -0.00892698 0)
(-0.0154749 -0.00840305 0)
(-0.0131075 -0.00779053 0)
(-0.0109037 -0.00709972 0)
(-0.00888303 -0.00634303 0)
(-0.00706156 -0.00553497 0)
(-0.00545154 -0.00469229 0)
(-0.00406084 -0.0038341 0)
(-0.00289243 -0.0029821 0)
(-0.00194403 -0.0021609 0)
(-0.00120769 -0.00139843 0)
(-0.000669455 -0.000726569 0)
(-0.0003091 -0.000181807 0)
(-9.97741e-05 0.000194029 0)
(-7.67237e-06 0.000352812 0)
(6.8704e-06 0.000235146 0)
(-3.63491e-05 0.000160459 0)
(-0.000267017 0.000814642 0)
(-0.000793987 0.00168014 0)
(-0.00158613 0.00266691 0)
(-0.00262927 0.00370922 0)
(-0.00391587 0.00475701 0)
(-0.00543395 0.00577322 0)
(-0.00716822 0.00673155 0)
(-0.00910133 0.00761419 0)
(-0.0112144 0.00840986 0)
(-0.0134875 0.00911224 0)
(-0.0159001 0.00971858 0)
(-0.0184311 0.0102287 0)
(-0.0210598 0.0106442 0)
(-0.0237656 0.0109675 0)
(-0.0265281 0.0112017 0)
(-0.0293275 0.0113499 0)
(-0.0321444 0.0114153 0)
(-0.0349598 0.0114006 0)
(-0.0377551 0.011308 0)
(-0.040512 0.0111395 0)
(-0.0432127 0.0108965 0)
(-0.0458395 0.0105803 0)
(-0.0483749 0.0101918 0)
(-0.0508017 0.00973167 0)
(-0.0531032 0.00920081 0)
(-0.0552625 0.00860016 0)
(-0.0572636 0.00793095 0)
(-0.0590906 0.00719485 0)
(-0.0607284 0.0063941 0)
(-0.0621624 0.00553162 0)
(-0.0633791 0.0046111 0)
(-0.064366 0.00363712 0)
(-0.0651119 0.00261517 0)
(-0.0656068 0.00155173 0)
(-0.0658427 0.000454269 0)
(-0.0658132 -0.000668767 0)
(-0.0655141 -0.00180798 0)
(-0.0649433 -0.0029531 0)
(-0.0641012 -0.00409304 0)
(-0.0629905 -0.00521608 0)
(-0.061617 -0.00630993 0)
(-0.0599887 -0.00736198 0)
(-0.0581168 -0.00835943 0)
(-0.056015 -0.00928955 0)
(-0.0537 -0.0101399 0)
(-0.051191 -0.0108984 0)
(-0.0485098 -0.011554 0)
(-0.0456807 -0.0120965 0)
(-0.0427298 -0.012517 0)
(-0.0396855 -0.0128081 0)
(-0.0365773 -0.012964 0)
(-0.0334361 -0.012981 0)
(-0.0302933 -0.0128574 0)
(-0.0271806 -0.0125937 0)
(-0.0241295 -0.0121929 0)
(-0.0211706 -0.0116604 0)
(-0.0183333 -0.0110039 0)
(-0.0156449 -0.0102339 0)
(-0.0131303 -0.00936353 0)
(-0.0108115 -0.00840831 0)
(-0.00870676 -0.00738654 0)
(-0.0068303 -0.00631924 0)
(-0.00519175 -0.00523025 0)
(-0.00379571 -0.00414645 0)
(-0.00264133 -0.00309797 0)
(-0.00172201 -0.00211864 0)
(-0.0010252 -0.00124645 0)
(-0.000532039 -0.000524186 0)
(-0.000217162 -1.01669e-07 0)
(-5.04301e-05 0.000271251 0)
(-7.59769e-08 0.000224023 0)
(-4.70746e-05 0.000310978 0)
(-0.000332743 0.00125723 0)
(-0.000972153 0.0024065 0)
(-0.00191784 0.00366763 0)
(-0.00314578 0.00497283 0)
(-0.00464262 0.00626973 0)
(-0.00639154 0.00751904 0)
(-0.00837324 0.00869256 0)
(-0.0105672 0.00977092 0)
(-0.012952 0.0107418 0)
(-0.0155055 0.011598 0)
(-0.0182053 0.0123367 0)
(-0.0210289 0.0129575 0)
(-0.0239538 0.013462 0)
(-0.026958 0.0138533 0)
(-0.0300198 0.0141346 0)
(-0.0331179 0.0143096 0)
(-0.0362315 0.0143817 0)
(-0.0393403 0.0143542 0)
(-0.0424241 0.0142297 0)
(-0.0454634 0.0140104 0)
(-0.0484387 0.0136981 0)
(-0.0513311 0.0132942 0)
(-0.0541216 0.0128 0)
(-0.0567917 0.0122164 0)
(-0.0593232 0.0115446 0)
(-0.0616979 0.0107859 0)
(-0.0638985 0.00994189 0)
(-0.065908 0.00901491 0)
(-0.0677098 0.00800785 0)
(-0.0692885 0.00692449 0)
(-0.0706295 0.00576954 0)
(-0.0717193 0.00454877 0)
(-0.0725458 0.00326911 0)
(-0.0730985 0.00193863 0)
(-0.0733685 0.00056661 0)
(-0.0733491 -0.00083648 0)
(-0.0730356 -0.00225904 0)
(-0.0724256 -0.00368842 0)
(-0.0715195 -0.00511099 0)
(-0.0703201 -0.00651235 0)
(-0.0688331 -0.00787744 0)
(-0.0670673 -0.00919079 0)
(-0.0650341 -0.0104367 0)
(-0.0627482 -0.0115996 0)
(-0.060227 -0.0126642 0)
(-0.0574911 -0.0136158 0)
(-0.0545635 -0.0144407 0)
(-0.0514699 -0.0151263 0)
(-0.0482385 -0.0156617 0)
(-0.0448992 -0.0160377 0)
(-0.041484 -0.0162471 0)
(-0.0380258 -0.0162854 0)
(-0.0345586 -0.0161501 0)
(-0.0311166 -0.0158419 0)
(-0.0277339 -0.0153641 0)
(-0.0244438 -0.0147233 0)
(-0.0212784 -0.0139289 0)
(-0.0182676 -0.0129936 0)
(-0.0154391 -0.0119332 0)
(-0.0128172 -0.0107666 0)
(-0.0104226 -0.00951621 0)
(-0.00827185 -0.0082073 0)
(-0.00637667 -0.00686866 0)
(-0.0047436 -0.00553246 0)
(-0.00337368 -0.00423449 0)
(-0.00226213 -0.00301447 0)
(-0.00139822 -0.00191643 0)
(-0.000764989 -0.000989238 0)
(-0.000338985 -0.000287098 0)
(-9.41665e-05 0.000129808 0)
(-6.93775e-06 0.000190628 0)
(-5.73543e-05 0.000494714 0)
(-0.000396753 0.00178784 0)
(-0.001147 0.0032655 0)
(-0.00224486 0.00483698 0)
(-0.00365659 0.00643394 0)
(-0.00536285 0.00800302 0)
(-0.00734171 0.00950386 0)
(-0.00956957 0.0109073 0)
(-0.0120225 0.012193 0)
(-0.0146763 0.0133483 0)
(-0.0175065 0.0143656 0)
(-0.0204888 0.015242 0)
(-0.0235989 0.0159773 0)
(-0.0268131 0.0165734 0)
(-0.0301078 0.0170335 0)
(-0.0334602 0.0173616 0)
(-0.0368476 0.0175617 0)
(-0.040248 0.0176377 0)
(-0.0436398 0.0175932 0)
(-0.0470018 0.0174311 0)
(-0.0503131 0.0171542 0)
(-0.053553 0.0167643 0)
(-0.0567014 0.0162633 0)
(-0.059738 0.0156525 0)
(-0.0626432 0.0149333 0)
(-0.0653974 0.0141071 0)
(-0.0679815 0.0131756 0)
(-0.0703768 0.0121411 0)
(-0.0725652 0.0110062 0)
(-0.0745292 0.00977479 0)
(-0.0762523 0.00845145 0)
(-0.077719 0.00704203 0)
(-0.0789147 0.00555358 0)
(-0.0798267 0.0039945 0)
(-0.0804436 0.00237458 0)
(-0.0807559 0.000705025 0)
(-0.0807562 -0.00100159 0)
(-0.0804394 -0.00273135 0)
(-0.0798027 -0.00446907 0)
(-0.0788462 -0.00619848 0)
(-0.0775726 -0.00790234 0)
(-0.0759876 -0.00956266 0)
(-0.0741 -0.011161 0)
(-0.0719216 -0.0126785 0)
(-0.0694676 -0.0140966 0)
(-0.0667561 -0.015397 0)
(-0.0638084 -0.016562 0)
(-0.0606487 -0.0175752 0)
(-0.057304 -0.0184216 0)
(-0.053804 -0.0190878 0)
(-0.0501804 -0.0195627 0)
(-0.0464669 -0.0198375 0)
(-0.0426988 -0.0199065 0)
(-0.0389124 -0.0197667 0)
(-0.0351442 -0.0194185 0)
(-0.0314311 -0.0188658 0)
(-0.0278091 -0.018116 0)
(-0.024313 -0.0171802 0)
(-0.0209756 -0.0160733 0)
(-0.0178272 -0.014814 0)
(-0.014895 -0.0134248 0)
(-0.0122024 -0.0119319 0)
(-0.00976842 -0.0103652 0)
(-0.00760722 -0.00875846 0)
(-0.00572774 -0.00714935 0)
(-0.00413325 -0.00557934 0)
(-0.00282118 -0.00409404 0)
(-0.00178305 -0.00274345 0)
(-0.00100408 -0.00158235 0)
(-0.000463028 -0.000670508 0)
(-0.000138062 -7.31348e-05 0)
(-1.35987e-05 0.000134878 0)
(-6.72061e-05 0.000710633 0)
(-0.000458819 0.00240456 0)
(-0.00131751 0.00425505 0)
(-0.00256498 0.006173 0)
(-0.00415799 0.00809073 0)
(-0.00607122 0.00995512 0)
(-0.00827751 0.0117258 0)
(-0.0107488 0.0133734 0)
(-0.0134576 0.0148777 0)
(-0.0163767 0.0162258 0)
(-0.0194793 0.0174106 0)
(-0.022739 0.0184292 0)
(-0.0261299 0.0192818 0)
(-0.0296268 0.019971 0)
(-0.0332048 0.0205004 0)
(-0.0368399 0.0208743 0)
(-0.0405083 0.0210974 0)
(-0.044187 0.021174 0)
(-0.0478532 0.0211081 0)
(-0.0514847 0.020903 0)
(-0.0550595 0.0205617 0)
(-0.058556 0.0200865 0)
(-0.0619528 0.0194793 0)
(-0.0652288 0.0187419 0)
(-0.0683631 0.0178759 0)
(-0.0713352 0.016883 0)
(-0.0741249 0.0157653 0)
(-0.0767126 0.0145257 0)
(-0.079079 0.0131675 0)
(-0.0812059 0.0116951 0)
(-0.0830755 0.0101143 0)
(-0.0846716 0.00843204 0)
(-0.0859787 0.00665665 0)
(-0.0869831 0.00479809 0)
(-0.0876728 0.00286794 0)
(-0.0880374 0.00087937 0)
(-0.0880689 -0.00115284 0)
(-0.0877615 -0.00321237 0)
(-0.0871119 -0.00528145 0)
(-0.0861197 -0.007341 0)
(-0.0847872 -0.00937086 0)
(-0.0831199 -0.01135 0)
(-0.0811264 -0.0132567 0)
(-0.0788187 -0.015069 0)
(-0.076212 -0.0167651 0)
(-0.073325 -0.0183234 0)
(-0.0701794 -0.0197232 0)
(-0.0668004 -0.020945 0)
(-0.063216 -0.021971 0)
(-0.0594572 -0.0227854 0)
(-0.0555572 -0.0233748 0)
(-0.0515517 -0.0237288 0)
(-0.0474778 -0.02384 0)
(-0.0433742 -0.0237048 0)
(-0.0392801 -0.0233232 0)
(-0.0352347 -0.0226993 0)
(-0.0312771 -0.0218416 0)
(-0.0274448 -0.0207626 0)
(-0.0237737 -0.0194794 0)
(-0.0202973 -0.0180138 0)
(-0.0170456 -0.0163914 0)
(-0.014045 -0.0146428 0)
(-0.0113176 -0.0128025 0)
(-0.00888016 -0.0109093 0)
(-0.00674446 -0.00900635 0)
(-0.00491637 -0.00714095 0)
(-0.00339587 -0.00536465 0)
(-0.002177 -0.00373339 0)
(-0.00124745 -0.00230772 0)
(-0.000588276 -0.00115278 0)
(-0.000181788 -0.000338417 0)
(-2.00313e-05 5.69427e-05 0)
(-7.66541e-05 0.000957657 0)
(-0.000518839 0.0031051 0)
(-0.00148309 0.00537227 0)
(-0.00287675 0.00767258 0)
(-0.00464742 0.00994008 0)
(-0.00676391 0.0121229 0)
(-0.00919383 0.0141815 0)
(-0.0119046 0.0160873 0)
(-0.014865 0.0178209 0)
(-0.0180449 0.01937 0)
(-0.0214148 0.0207279 0)
(-0.0249464 0.0218927 0)
(-0.0286122 0.0228651 0)
(-0.0323853 0.0236483 0)
(-0.0362398 0.0242467 0)
(-0.0401504 0.0246651 0)
(-0.0440924 0.0249088 0)
(-0.0480418 0.0249826 0)
(-0.0519748 0.0248909 0)
(-0.0558685 0.0246375 0)
(-0.0596999 0.0242255 0)
(-0.0634464 0.0236577 0)
(-0.0670859 0.0229361 0)
(-0.0705963 0.0220629 0)
(-0.0739558 0.0210398 0)
(-0.077143 0.019869 0)
(-0.0801368 0.0185531 0)
(-0.0829166 0.0170953 0)
(-0.0854624 0.0154996 0)
(-0.0877547 0.0137714 0)
(-0.0897753 0.0119173 0)
(-0.0915066 0.0099453 0)
(-0.0929326 0.00786528 0)
(-0.0940385 0.00568873 0)
(-0.0948114 0.00342901 0)
(-0.0952403 0.00110131 0)
(-0.0953161 -0.00127735 0)
(-0.0950323 -0.00368818 0)
(-0.0943849 -0.00611073 0)
(-0.0933728 -0.00852309 0)
(-0.0919976 -0.010902 0)
(-0.0902644 -0.0132233 0)
(-0.0881814 -0.015462 0)
(-0.0857603 -0.0175928 0)
(-0.0830163 -0.0195903 0)
(-0.079968 -0.0214295 0)
(-0.0766378 -0.0230866 0)
(-0.0730512 -0.0245386 0)
(-0.0692372 -0.0257649 0)
(-0.0652277 -0.0267467 0)
(-0.0610576 -0.0274682 0)
(-0.0567641 -0.027917 0)
(-0.0523864 -0.0280841 0)
(-0.0479655 -0.0279646 0)
(-0.0435429 -0.0275581 0)
(-0.0391609 -0.0268689 0)
(-0.0348614 -0.025906 0)
(-0.0306851 -0.0246836 0)
(-0.0266711 -0.0232208 0)
(-0.0228562 -0.0215422 0)
(-0.0192739 -0.019677 0)
(-0.0159538 -0.0176599 0)
(-0.0129212 -0.01553 0)
(-0.0101963 -0.0133315 0)
(-0.00779387 -0.0111131 0)
(-0.00572267 -0.00892784 0)
(-0.00398562 -0.00683342 0)
(-0.00257955 -0.00489173 0)
(-0.00149473 -0.00316908 0)
(-0.000714571 -0.00173591 0)
(-0.000225345 -0.0006666 0)
(-2.62618e-05 -4.2962e-05 0)
(-8.57196e-05 0.0012347 0)
(-0.00057676 0.00388692 0)
(-0.00164337 0.00661372 0)
(-0.00317919 0.00933182 0)
(-0.00512306 0.0119778 0)
(-0.0074381 0.0145019 0)
(-0.0100867 0.0168665 0)
(-0.013032 0.0190445 0)
(-0.0162388 0.0210179 0)
(-0.0196739 0.0227756 0)
(-0.0233054 0.0243122 0)
(-0.027103 0.0256266 0)
(-0.0310373 0.0267207 0)
(-0.0350802 0.0275986 0)
(-0.0392043 0.0282655 0)
(-0.0433835 0.0287269 0)
(-0.0475922 0.0289888 0)
(-0.0518054 0.0290565 0)
(-0.0559987 0.0289348 0)
(-0.0601483 0.0286281 0)
(-0.0642304 0.0281397 0)
(-0.0682219 0.0274725 0)
(-0.0720996 0.0266292 0)
(-0.075841 0.0256118 0)
(-0.0794233 0.0244226 0)
(-0.0828244 0.0230641 0)
(-0.0860224 0.021539 0)
(-0.0889959 0.0198513 0)
(-0.091724 0.0180057 0)
(-0.0941865 0.0160082 0)
(-0.0963641 0.0138663 0)
(-0.0982385 0.0115895 0)
(-0.0997927 0.00918871 0)
(-0.101011 0.00667713 0)
(-0.101879 0.00406988 0)
(-0.102386 0.0013842 0)
(-0.102521 -0.00136065 0)
(-0.102276 -0.00414338 0)
(-0.101648 -0.00694085 0)
(-0.100633 -0.0097282 0)
(-0.099232 -0.0124791 0)
(-0.0974502 -0.0151661 0)
(-0.0952947 -0.0177607 0)
(-0.0927766 -0.0202341 0)
(-0.0899108 -0.0225573 0)
(-0.0867157 -0.0247018 0)
(-0.0832138 -0.02664 0)
(-0.0794309 -0.0283457 0)
(-0.0753966 -0.0297946 0)
(-0.0711438 -0.030965 0)
(-0.0667086 -0.0318385 0)
(-0.0621298 -0.0324 0)
(-0.0574488 -0.0326387 0)
(-0.0527085 -0.0325484 0)
(-0.0479533 -0.0321278 0)
(-0.0432284 -0.0313809 0)
(-0.0385787 -0.0303175 0)
(-0.0340484 -0.0289529 0)
(-0.0296802 -0.0273084 0)
(-0.0255145 -0.025411 0)
(-0.0215885 -0.0232939 0)
(-0.0179357 -0.0209955 0)
(-0.0145849 -0.0185599 0)
(-0.0115599 -0.0160366 0)
(-0.00887902 -0.0134799 0)
(-0.00655437 -0.0109491 0)
(-0.004592 -0.00850782 0)
(-0.00299176 -0.00622415 0)
(-0.00174664 -0.00417025 0)
(-0.000842363 -0.00242197 0)
(-0.000268955 -0.00105833 0)
(-3.2349e-05 -0.000164703 0)
(-9.44175e-05 0.00154065 0)
(-0.000632545 0.0047473 0)
(-0.00179806 0.0079756 0)
(-0.00347154 0.0111462 0)
(-0.0055835 0.0141989 0)
(-0.00809153 0.0170869 0)
(-0.0109531 0.0197753 0)
(-0.0141267 0.0222393 0)
(-0.0175737 0.0244628 0)
(-0.0212578 0.0264366 0)
(-0.0251445 0.0281571 0)
(-0.0292014 0.0296245 0)
(-0.0333975 0.0308422 0)
(-0.0377033 0.0318153 0)
(-0.0420903 0.03255 0)
(-0.0465314 0.033053 0)
(-0.0510001 0.0333307 0)
(-0.0554707 0.0333892 0)
(-0.0599182 0.0332338 0)
(-0.064318 0.0328692 0)
(-0.0686459 0.0322991 0)
(-0.0728781 0.0315269 0)
(-0.0769909 0.0305552 0)
(-0.0809608 0.0293866 0)
(-0.0847649 0.0280233 0)
(-0.08838 0.0264683 0)
(-0.0917838 0.0247247 0)
(-0.094954 0.022797 0)
(-0.097869 0.0206903 0)
(-0.100508 0.0184116 0)
(-0.10285 0.0159694 0)
(-0.104877 0.013374 0)
(-0.10657 0.0106379 0)
(-0.107913 0.00777565 0)
(-0.108891 0.00480427 0)
(-0.10949 0.00174295 0)
(-0.1097 -0.0013868 0)
(-0.109512 -0.00456121 0)
(-0.10892 -0.00775441 0)
(-0.10792 -0.0109386 0)
(-0.106513 -0.0140843 0)
(-0.104701 -0.0171606 0)
(-0.102491 -0.0201355 0)
(-0.0998928 -0.0229766 0)
(-0.0969214 -0.025651 0)
(-0.0935944 -0.0281265 0)
(-0.089934 -0.0303714 0)
(-0.0859662 -0.0323558 0)
(-0.0817209 -0.034052 0)
(-0.0772317 -0.0354347 0)
(-0.072536 -0.0364822 0)
(-0.067674 -0.0371769 0)
(-0.0626889 -0.0375055 0)
(-0.0576262 -0.0374601 0)
(-0.0525329 -0.0370383 0)
(-0.0474571 -0.0362436 0)
(-0.0424474 -0.0350861 0)
(-0.0375515 -0.0335821 0)
(-0.032816 -0.0317548 0)
(-0.0282854 -0.0296339 0)
(-0.024001 -0.0272559 0)
(-0.0200004 -0.0246635 0)
(-0.0163166 -0.0219057 0)
(-0.0129776 -0.0190373 0)
(-0.0100053 -0.0161185 0)
(-0.00741565 -0.0132148 0)
(-0.00521817 -0.0103961 0)
(-0.0034159 -0.00773696 0)
(-0.00200469 -0.00531558 0)
(-0.000972526 -0.00321347 0)
(-0.000312988 -0.00151459 0)
(-3.83712e-05 -0.000308317 0)
(-0.000102755 0.00187442 0)
(-0.000686148 0.0056834 0)
(-0.0019469 0.00945378 0)
(-0.00375319 0.0131106 0)
(-0.00602754 0.0165977 0)
(-0.00872233 0.0198719 0)
(-0.0117902 0.0229016 0)
(-0.0151853 0.0256651 0)
(-0.0188655 0.0281489 0)
(-0.0227913 0.0303463 0)
(-0.026926 0.0322558 0)
(-0.031235 0.0338796 0)
(-0.0356857 0.0352226 0)
(-0.0402472 0.0362914 0)
(-0.04489 0.0370935 0)
(-0.049586 0.0376366 0)
(-0.0543081 0.0379281 0)
(-0.0590299 0.0379746 0)
(-0.0637258 0.0377822 0)
(-0.0683707 0.0373558 0)
(-0.07294 0.0366998 0)
(-0.0774093 0.0358175 0)
(-0.0817545 0.034712 0)
(-0.0859517 0.0333859 0)
(-0.0899772 0.0318419 0)
(-0.0938075 0.0300831 0)
(-0.0974196 0.0281131 0)
(-0.100791 0.0259366 0)
(-0.103898 0.0235595 0)
(-0.10672 0.0209894 0)
(-0.109237 0.0182356 0)
(-0.111426 0.0153096 0)
(-0.113271 0.0122251 0)
(-0.114752 0.00899811 0)
(-0.115854 0.00564733 0)
(-0.116563 0.0021939 0)
(-0.116866 -0.00133845 0)
(-0.116753 -0.00492352 0)
(-0.116216 -0.00853273 0)
(-0.115251 -0.0121353 0)
(-0.113856 -0.0156986 0)
(-0.112034 -0.0191882 0)
(-0.109788 -0.0225685 0)
(-0.107129 -0.0258032 0)
(-0.104069 -0.0288556 0)
(-0.100626 -0.0316891 0)
(-0.096821 -0.0342682 0)
(-0.0926802 -0.0365588 0)
(-0.0882336 -0.038529 0)
(-0.0835154 -0.0401499 0)
(-0.0785636 -0.0413963 0)
(-0.0734203 -0.0422472 0)
(-0.0681302 -0.0426866 0)
(-0.0627413 -0.0427045 0)
(-0.0573035 -0.0422969 0)
(-0.0518682 -0.0414665 0)
(-0.0464873 -0.0402232 0)
(-0.0412128 -0.0385843 0)
(-0.0360955 -0.0365745 0)
(-0.0311842 -0.0342261 0)
(-0.026525 -0.0315789 0)
(-0.02216 -0.0286798 0)
(-0.0181269 -0.0255827 0)
(-0.0144581 -0.0223479 0)
(-0.0111799 -0.0190418 0)
(-0.00831224 -0.0157361 0)
(-0.00586849 -0.0125077 0)
(-0.00385515 -0.0094375 0)
(-0.00227098 -0.00661029 0)
(-0.00110624 -0.00411362 0)
(-0.000357918 -0.00203688 0)
(-4.44188e-05 -0.00047407 0)
(-0.000110734 0.00223487 0)
(-0.000737511 0.00669225 0)
(-0.00208965 0.0110438 0)
(-0.00402351 0.0152196 0)
(-0.00645408 0.0191679 0)
(-0.00932874 0.02285 0)
(-0.0125955 0.0262382 0)
(-0.0162045 0.0293145 0)
(-0.0201099 0.0320687 0)
(-0.0242696 0.0344971 0)
(-0.0286443 0.0366008 0)
(-0.0331975 0.0383842 0)
(-0.0378949 0.0398543 0)
(-0.0427044 0.0410196 0)
(-0.0475955 0.0418888 0)
(-0.0525394 0.042471 0)
(-0.057508 0.0427745 0)
(-0.0624747 0.0428068 0)
(-0.0674133 0.0425746 0)
(-0.0722984 0.0420834 0)
(-0.0771049 0.0413377 0)
(-0.0818081 0.0403414 0)
(-0.0863835 0.0390976 0)
(-0.0908069 0.0376093 0)
(-0.0950542 0.0358792 0)
(-0.0991015 0.0339107 0)
(-0.102925 0.0317078 0)