/*--------------------------------*- C++ -*----------------------------------*\
  =========                 |
  \\      /  F ield         | OpenFOAM: The Open Source CFD Toolbox
   \\    /   O peration     | Website:  https://openfoam.org
    \\  /    A nd           | Version:  dev
     \\/     M anipulation  |
\*---------------------------------------------------------------------------*/
FoamFile
{
    format      ascii;
    class       volScalarField;
    location    "4.05";
    object      p;
}
// * * * * * * * * * * * * * * * * * * * * * * * * * * * * * * * * * * * * * //

dimensions      [0 2 -2 0 0 0 0];

internalField   nonuniform List<scalar> 
400
(
-7.0989e-09
-0.00050976
-0.00103528
-0.00138654
-0.00146582
-0.00123365
-0.000680725
0.000186893
0.0013473
0.00275316
0.00432084
0.00592393
0.00740088
0.00857589
0.00929705
0.0094825
0.00916259
0.00849811
0.00772177
0.00723359
0.000498001
-3.01672e-05
-0.000430415
-0.000645621
-0.000648478
-0.000413055
7.1069e-05
0.000802712
0.00176763
0.00293007
0.0042236
0.00554974
0.00677551
0.0077588
0.00837693
0.00856478
0.00834721
0.00784744
0.0072474
0.00674875
0.0010482
0.000328601
-9.52606e-05
-0.000276814
-0.000263167
-4.81172e-05
0.000374867
0.00100869
0.00184943
0.00287567
0.00403701
0.00524789
0.00638736
0.00731697
0.00790994
0.00809074
0.00787033
0.00735325
0.00667598
0.00596221
0.00142451
0.000454964
-6.13132e-05
-0.000267707
-0.000278491
-0.000106179
0.000252056
0.000804807
0.00156139
0.00251703
0.00363667
0.0048472
0.00602431
0.00701501
0.00766482
0.00786466
0.00759884
0.00695998
0.00606313
0.00501131
0.00144342
0.000226362
-0.000398968
-0.00065538
-0.000716357
-0.000609202
-0.000331652
0.000133906
0.000813855
0.00172423
0.0028481
0.00413604
0.00544894
0.00661097
0.00742173
0.00771414
0.00742433
0.00662633
0.0054269
0.00393879
0.00095091
-0.000495213
-0.00123302
-0.00155725
-0.00169366
-0.00168065
-0.00151319
-0.00116093
-0.000575442
0.000290169
0.00145579
0.00286601
0.00441097
0.0058795
0.00700427
0.00752717
0.00729912
0.0063511
0.00477869
0.00272784
-0.000184835
-0.00183617
-0.00268608
-0.00309595
-0.0033388
-0.00346215
-0.00345621
-0.00327472
-0.00284121
-0.00207003
-0.000897073
0.000672997
0.00254232
0.00447963
0.00613743
0.00712355
0.00714282
0.00612787
0.00413018
0.00134194
-0.00207822
-0.00390762
-0.00486826
-0.0053843
-0.00577326
-0.00609258
-0.00632833
-0.00641715
-0.00624927
-0.00568753
-0.00460002
-0.00291274
-0.000668228
0.00190925
0.0043902
0.00620044
0.00680777
0.00594104
0.00351844
-0.000232322
-0.00482324
-0.00680169
-0.00787064
-0.00851419
-0.00909472
-0.0096841
-0.0102689
-0.0107713
-0.0110461
-0.0108928
-0.0100841
-0.00842453
-0.00583979
-0.0024866
0.00115454
0.00429353
0.0060456
0.00576129
0.00303747
-0.001933
-0.00848628
-0.0105853
-0.0117541
-0.0125367
-0.0133462
-0.0142786
-0.0153303
-0.016417
-0.0173615
-0.0178928
-0.0176639
-0.0163081
-0.0135584
-0.00940427
-0.00429221
0.000788074
0.00449078
0.00554232
0.0028801
-0.00354091
-0.0131013
-0.0152973
-0.0165391
-0.0174394
-0.0184789
-0.0197942
-0.0214056
-0.0232348
-0.0250822
-0.0266082
-0.027332
-0.0266765
-0.0240998
-0.0193051
-0.0125555
-0.00492999
0.00173138
0.00525631
0.00340516
-0.00453697
-0.0186769
-0.0209562
-0.0222019
-0.0231269
-0.0243179
-0.025977
-0.0281648
-0.030823
-0.0337421
-0.0365236
-0.038555
-0.039033
-0.0370771
-0.0320005
-0.0236949
-0.0131052
-0.00243917
0.00503684
0.00526005
-0.00385684
-0.0252303
-0.0275877
-0.0286807
-0.0294087
-0.0305408
-0.0323773
-0.0350326
-0.0384766
-0.0424974
-0.0466478
-0.0501962
-0.0521204
-0.051197
-0.046283
-0.0367365
-0.0230784
-0.00755841
0.00549829
0.00961946
0.000500113
-0.0328765
-0.0352826
-0.0358935
-0.0359966
-0.0366794
-0.0383711
-0.0412387
-0.0452717
-0.0502484
-0.0556707
-0.0606974
-0.0641116
-0.0643801
-0.0599116
-0.0494588
-0.0328722
-0.0119919
0.00818268
0.0185833
0.011981
-0.042036
-0.0442992
-0.0437518
-0.0425033
-0.0421456
-0.0432312
-0.0459433
-0.0502534
-0.0558979
-0.0622995
-0.0685004
-0.0731065
-0.0743275
-0.070143
-0.0587777
-0.0393119
-0.0127792
0.0158842
0.035557
0.0357859
-0.0539041
-0.0552318
-0.0521465
-0.048428
-0.046278
-0.0462383
-0.0484088
-0.0526646
-0.0586453
-0.065628
-0.0725127
-0.0777127
-0.07919
-0.0745962
-0.0616733
-0.0388195
-0.00610167
0.0326554
0.0652496
0.0785185
-0.0715728
-0.0692976
-0.0609734
-0.0532379
-0.0484911
-0.0468647
-0.048208
-0.0521785
-0.0582002
-0.0653753
-0.0723949
-0.0774526
-0.0782549
-0.0721117
-0.056303
-0.0286477
0.011671
0.0633246
0.113547
0.149256
-0.103524
-0.0884706
-0.0700803
-0.0564278
-0.0483444
-0.0448225
-0.0452635
-0.0489026
-0.0548406
-0.0619318
-0.0686454
-0.072951
-0.072292
-0.0635823
-0.04357
-0.00909433
0.0421775
0.110033
0.187849
0.268354
-0.176016
-0.112653
-0.0743128
-0.0535611
-0.0424942
-0.0378668
-0.0381702
-0.042084
-0.0483295
-0.055544
-0.0620642
-0.0657484
-0.0638988
-0.0529703
-0.0293308
0.0116921
0.0753917
0.167415
0.294809
0.469693
-0.343746
-0.133979
-0.0551402
-0.0325056
-0.0237725
-0.0213004
-0.0237844
-0.0296903
-0.0375192
-0.0458897
-0.0532069
-0.0574148
-0.0559463
-0.0457706
-0.0221009
0.0204806
0.0910112
0.207606
0.405362
0.736193
)
;

boundaryField
{
    movingWall
    {
        type            zeroGradient;
    }
    fixedWalls
    {
        type            zeroGradient;
    }
    frontAndBack
    {
        type            empty;
    }
}


// ************************************************************************* //
