/*--------------------------------*- C++ -*----------------------------------*\
  =========                 |
  \\      /  F ield         | OpenFOAM: The Open Source CFD Toolbox
   \\    /   O peration     | Website:  https://openfoam.org
    \\  /    A nd           | Version:  dev
     \\/     M anipulation  |
\*---------------------------------------------------------------------------*/
FoamFile
{
    format      ascii;
    class       surfaceScalarField;
    location    "4.05";
    object      phi;
}
// * * * * * * * * * * * * * * * * * * * * * * * * * * * * * * * * * * * * * //

dimensions      [0 3 -1 0 0 0 0];

internalField   nonuniform List<scalar> 
760
(
6.9393e-07
-6.93893e-07
-3.05796e-06
3.75189e-06
-1.10483e-05
7.99031e-06
-2.17324e-05
1.06841e-05
-3.37071e-05
1.19747e-05
-4.58532e-05
1.21461e-05
-5.7232e-05
1.13788e-05
-6.69611e-05
9.7291e-06
-7.41432e-05
7.18204e-06
-7.78883e-05
3.74516e-06
-7.7429e-05
-4.59258e-07
-7.2332e-05
-5.09698e-06
-6.27202e-05
-9.61176e-06
-4.94665e-05
-1.32536e-05
-3.42341e-05
-1.52324e-05
-1.93028e-05
-1.49313e-05
-7.149e-06
-1.21538e-05
1.89665e-07
-7.33865e-06
2.05127e-06
-1.86158e-06
2.05127e-06
-3.84592e-06
3.15199e-06
-1.73411e-05
1.72471e-05
-3.89765e-05
2.96257e-05
-6.59979e-05
3.77055e-05
-9.56206e-05
4.15974e-05
-0.000125327
4.18523e-05
-0.000152831
3.8883e-05
-0.000175964
3.2862e-05
-0.000192621
2.38394e-05
-0.000200859
1.19829e-05
-0.000199168
-2.14985e-06
-0.000186791
-1.74742e-05
-0.000164221
-3.2182e-05
-0.000133446
-4.40283e-05
-9.80031e-05
-5.06754e-05
-6.25973e-05
-5.0337e-05
-3.22486e-05
-4.25024e-05
-1.10658e-05
-2.85215e-05
-1.039e-06
-1.18884e-05
1.01223e-06
-9.03149e-06
1.21835e-05
-3.26407e-05
4.08563e-05
-6.69962e-05
6.39812e-05
-0.000108138
7.88476e-05
-0.00015233
8.57893e-05
-0.000196164
8.56866e-05
-0.000236481
7.91994e-05
-0.000270249
6.66308e-05
-0.00029455
4.81405e-05
-0.000306722
2.4155e-05
-0.000304695
-4.17772e-06
-0.000287434
-3.47344e-05
-0.000255502
-6.4114e-05
-0.000211437
-8.80938e-05
-0.000159864
-0.000102248
-0.000107102
-0.0001031
-6.01235e-05
-8.94805e-05
-2.49942e-05
-6.36508e-05
-5.13753e-06
-3.17451e-05
-4.12534e-06
-1.37268e-05
2.59102e-05
-4.6939e-05
7.40684e-05
-9.32504e-05
0.000110293
-0.00014731
0.000132907
-0.000204544
0.000143024
-0.000260936
0.000142078
-0.000312778
0.000131041
-0.000356483
0.000110336
-0.00038854
8.01975e-05
-0.000405665
4.12797e-05
-0.000405182
-4.65988e-06
-0.000385456
-5.44611e-05
-0.000346685
-0.000102885
-0.000291404
-0.000143375
-0.000224841
-0.000168812
-0.000154696
-0.000173244
-9.00855e-05
-0.000154091
-3.9622e-05
-0.000114114
-9.1432e-06
-6.2224e-05
-1.32686e-05
-1.79018e-05
4.3812e-05
-5.99777e-05
0.000116144
-0.000117426
0.000167741
-0.000183518
0.000198999
-0.000252944
0.00021245
-0.000321273
0.000210407
-0.000384487
0.000194255
-0.000438658
0.000164508
-0.000479813
0.000121353
-0.000504008
6.54747e-05
-0.000507843
-8.24944e-07
-0.000488552
-7.3752e-05
-0.000445484
-0.000145953
-0.000380513
-0.000208345
-0.000298976
-0.000250349
-0.000209854
-0.000262366
-0.000124882
-0.000239063
-5.62547e-05
-0.000182742
-1.33782e-05
-0.000105101
-2.66468e-05
-2.1619e-05
6.54311e-05
-7.17435e-05
0.000166269
-0.000139431
0.000235428
-0.000216714
0.000276282
-0.000297691
0.000293426
-0.000377697
0.000290414
-0.000452614
0.000269173
-0.000518358
0.000230251
-0.000570605
0.000173599
-0.000604791
9.96613e-05
-0.000616225
1.06089e-05
-0.00060115
-8.88273e-05
-0.000557058
-0.000190045
-0.000484449
-0.000280954
-0.000388052
-0.000346746
-0.000277802
-0.000372616
-0.000168485
-0.00034838
-7.7192e-05
-0.000274035
-1.86208e-05
-0.000163672
-4.52676e-05
-2.48811e-05
9.03122e-05
-8.21398e-05
0.000223527
-0.000158991
0.000312279
-0.000246422
0.000363713
-0.000338102
0.000385107
-0.000429328
0.000381639
-0.000516086
0.000355931
-0.000594344
0.000308509
-0.000659587
0.000238843
-0.000706633
0.000146708
-0.000729733
3.37089e-05
-0.000723271
-9.52897e-05
-0.000682603
-0.000230713
-0.000605869
-0.000357689
-0.000496087
-0.000456527
-0.000363253
-0.000505451
-0.000225163
-0.00048647
-0.000105182
-0.000394016
-2.58206e-05
-0.000243033
-7.10883e-05
-2.76266e-05
0.000117939
-9.09298e-05
0.000286831
-0.000175557
0.000396906
-0.000271625
0.000459782
-0.000372543
0.000486025
-0.000473754
0.000482849
-0.000571581
0.000453757
-0.000662301
0.000399229
-0.000741477
0.000318019
-0.000803568
0.000208798
-0.000841857
7.19986e-05
-0.000848887
-8.82597e-05
-0.000817404
-0.000262196
-0.000742271
-0.000432822
-0.000623312
-0.000575486
-0.000468854
-0.000659909
-0.000298623
-0.000656701
-0.000143142
-0.000549497
-3.60777e-05
-0.000350097
-0.000107166
-2.97687e-05
0.000147707
-9.78136e-05
0.000354876
-0.000188408
0.0004875
-0.000290907
0.000562281
-0.000398586
0.000593704
-0.000507212
0.000591476
-0.000613688
0.000560233
-0.000714916
0.000500458
-0.000806942
0.000410044
-0.000884344
0.000286201
-0.000939918
0.000127572
-0.000964769
-6.34086e-05
-0.000949053
-0.000277912
-0.000883704
-0.000498171
-0.000763707
-0.000695483
-0.000593088
-0.000830528
-0.000390784
-0.000859005
-0.000193833
-0.000746448
-5.0691e-05
-0.000493239
-0.000157857
-3.12838e-05
0.000178991
-0.000102634
0.000426226
-0.000196957
0.000581823
-0.000302837
0.00066816
-0.000413489
0.000704356
-0.000525171
0.000703157
-0.000635605
0.000670667
-0.000742685
0.000607537
-0.000843458
0.000510817
-0.000933332
0.000376075
-0.00100548
0.000199725
-0.00105051
-1.83832e-05
-0.00105671
-0.000271709
-0.00101112
-0.000543769
-0.000902574
-0.000804024
-0.000727666
-0.00100544
-0.00049989
-0.00108678
-0.000259223
-0.000987115
-7.12238e-05
-0.000681238
-0.000229081
-3.2355e-05
0.000211346
-0.000105713
0.000499584
-0.000201244
0.000677354
-0.000306594
0.00077351
-0.000414989
0.000812751
-0.000523348
0.000811517
-0.000630472
0.000777791
-0.000735618
0.000712684
-0.000837408
0.000612607
-0.000932921
0.000471588
-0.00101687
0.000283677
-0.00108081
4.55539e-05
-0.00111265
-0.000239871
-0.00109664
-0.000559778
-0.00101531
-0.000885355
-0.000855066
-0.00116568
-0.000617931
-0.00132392
-0.000339183
-0.00126586
-9.94831e-05
-0.000920938
-0.000328564
-3.35915e-05
0.000244938
-0.000108312
0.000574305
-0.000202549
0.000771591
-0.000302723
0.000873685
-0.000402242
0.000912271
-0.00049898
0.000908254
-0.000593116
0.000871927
-0.000685629
0.000805197
-0.000777229
0.000704207
-0.000867461
0.00056182
-0.000953765
0.000369982
-0.00103037
0.000122163
-0.00108687
-0.000183379
-0.00110712
-0.000539524
-0.00106892
-0.000923558
-0.000947629
-0.00128697
-0.000728035
-0.00154351
-0.000429285
-0.00156461
-0.000137212
-0.00121301
-0.000465776
-3.63771e-05
0.000281315
-0.000113236
0.000651164
-0.000204045
0.0008624
-0.000293769
0.000963408
-0.000376552
0.000995053
-0.000451808
0.000983511
-0.000521524
0.000941642
-0.000588722
0.000872395
-0.000656544
0.000772029
-0.000727512
0.000632787
-0.000802673
0.000445143
-0.000880373
0.000199864
-0.000954215
-0.000109537
-0.00101094
-0.000482804
-0.00102726
-0.000907239
-0.000969817
-0.00134441
-0.000803277
-0.00171005
-0.000517988
-0.0018499
-0.000185109
-0.00154589
-0.000650884
-4.3456e-05
0.000324771
-0.00012556
0.000733268
-0.000211187
0.000948027
-0.000284249
0.00103647
-0.000341075
0.00105188
-0.000383743
0.00102618
-0.000416679
0.000974578
-0.000445233
0.00090095
-0.00047507
0.000801866
-0.00051174
0.000669457
-0.000560119
0.000493523
-0.000623404
0.000263149
-0.000700991
-3.1951e-05
-0.000785797
-0.000397997
-0.000858754
-0.000834282
-0.000883875
-0.00131928
-0.000808233
-0.00178569
-0.000584144
-0.00207399
-0.000240647
-0.00188939
-0.000891532
-5.9931e-05
0.000384702
-0.000153247
0.000826584
-0.000231002
0.00102578
-0.000278634
0.0010841
-0.000297814
0.00107106
-0.000295154
0.00102352
-0.000278386
0.00095781
-0.000255385
0.000877948
-0.000234153
0.000780634
-0.000222789
0.000658093
-0.000229472
0.000500206
-0.000261869
0.000295546
-0.000325982
3.21622e-05
-0.000422634
-0.000301346
-0.000542668
-0.000714247
-0.000656458
-0.00120549
-0.000702968
-0.00173918
-0.000595701
-0.00218126
-0.000294288
-0.0021908
-0.00118582
-9.45997e-05
0.000479301
-0.000206193
0.000938177
-0.000267187
0.00108678
-0.000273234
0.00109015
-0.000237314
0.00103514
-0.000173147
0.000959351
-9.26162e-05
0.00087728
-6.07184e-06
0.000791404
7.69318e-05
0.000697631
0.000146589
0.000588435
0.000192589
0.000454206
0.000203966
0.000284169
0.000169504
6.66243e-05
7.98295e-05
-0.000211671
-6.84616e-05
-0.000565956
-0.000261549
-0.00101241
-0.000447199
-0.00155353
-0.000509265
-0.00211919
-0.000324919
-0.00237515
-0.00151074
-0.000159886
0.000639187
-0.000285969
0.00106426
-0.000299636
0.00110044
-0.000229554
0.00102007
-0.00010943
0.000915015
3.81194e-05
0.000811802
0.000197489
0.00071791
0.000357218
0.000631675
0.000507537
0.000547312
0.000638789
0.000457184
0.000740248
0.000352747
0.000799523
0.000224895
0.000802171
6.39761e-05
0.000732529
-0.00014203
0.000575322
-0.000408749
0.000324658
-0.000761744
1.00298e-05
-0.0012389
-0.000268683
-0.00184048
-0.000297816
-0.00234602
-0.00180855
-0.00026132
0.000900507
-0.000332847
0.00113579
-0.000211349
0.000978946
3.86682e-07
0.000808331
0.000245256
0.000670146
0.000496328
0.00056073
0.000740619
0.000473619
0.000970174
0.00040212
0.00117859
0.000338896
0.00135893
0.000276841
0.00150238
0.000209301
0.00159731
0.000129963
0.00162859
3.26928e-05
0.0015782
-9.16375e-05
0.00142238
-0.000252925
0.00113518
-0.000474544
0.000704168
-0.000807896
0.000202127
-0.00133844
-0.000131247
-0.00201264
-0.0019398
-0.000259709
0.00116022
-5.14365e-06
0.000881221
0.000419013
0.000554789
0.000828672
0.000398672
0.00119685
0.000301972
0.00152414
0.000233434
0.00181329
0.000184475
0.00206695
0.000148455
0.0022863
0.000119545
0.00246987
9.32749e-05
0.00261296
6.62083e-05
0.00270721
3.57101e-05
0.00273905
8.60861e-07
0.00269453
-4.71227e-05
0.00254659
-0.000104984
0.00225941
-0.000187363
0.00178141
-0.000329894
0.00108291
-0.000639941
0.000315378
-0.00124511
-0.00162442
0.00116022
0.00204144
0.00259623
0.0029949
0.00329687
0.0035303
0.00371478
0.00386324
0.00398278
0.00407606
0.00414226
0.00417797
0.00417883
0.00413171
0.00402673
0.00383936
0.00350947
0.00286953
0.00162442
)
;

boundaryField
{
    movingWall
    {
        type            calculated;
        value           uniform 0;
    }
    fixedWalls
    {
        type            calculated;
        value           uniform 0;
    }
    frontAndBack
    {
        type            empty;
    }
}


// ************************************************************************* //
