/*--------------------------------*- C++ -*----------------------------------*\
  =========                 |
  \\      /  F ield         | OpenFOAM: The Open Source CFD Toolbox
   \\    /   O peration     | Website:  https://openfoam.org
    \\  /    A nd           | Version:  dev
     \\/     M anipulation  |
\*---------------------------------------------------------------------------*/
FoamFile
{
    format      ascii;
    class       volVectorField;
    location    "4.05";
    object      U;
}
// * * * * * * * * * * * * * * * * * * * * * * * * * * * * * * * * * * * * * //

dimensions      [0 1 -1 0 0 0 0];

internalField   nonuniform List<vector> 
400
(
(0.000177494 -0.000178835 0)
(-4.08755e-05 0.000144445 0)
(-0.00126993 0.000487362 0)
(-0.00319742 0.000702175 0)
(-0.00551506 0.000805223 0)
(-0.00797229 0.000826839 0)
(-0.0103658 0.000784988 0)
(-0.0125159 0.000684139 0)
(-0.0142449 0.000520466 0)
(-0.0153708 0.000290351 0)
(-0.0157218 -7.90076e-07 0)
(-0.0151697 -0.000332463 0)
(-0.013676 -0.000661568 0)
(-0.0113368 -0.000929433 0)
(-0.00840899 -0.00107181 0)
(-0.00529935 -0.00103688 0)
(-0.00250047 -0.000805949 0)
(-0.000469933 -0.000413462 0)
(0.000451057 2.32802e-05 0)
(0.000299588 0.000282919 0)
(-0.000150552 3.09771e-05 0)
(-0.00167565 0.00162255 0)
(-0.00529598 0.00312066 0)
(-0.0103115 0.00409977 0)
(-0.0161037 0.00457797 0)
(-0.0221509 0.0046376 0)
(-0.0279789 0.00433666 0)
(-0.0331445 0.00369593 0)
(-0.0372187 0.00271507 0)
(-0.0397885 0.00140419 0)
(-0.040494 -0.00018207 0)
(-0.039091 -0.00191854 0)
(-0.0355375 -0.00359648 0)
(-0.0300748 -0.00494552 0)
(-0.023263 -0.00568273 0)
(-0.0159532 -0.00559091 0)
(-0.00916144 -0.00460744 0)
(-0.00384922 -0.00289876 0)
(-0.000697872 -0.000923446 0)
(0.000137675 0.000474613 0)
(-0.000561382 0.00133289 0)
(-0.00352691 0.00534434 0)
(-0.00949642 0.00874887 0)
(-0.0172729 0.0109745 0)
(-0.0259862 0.0120413 0)
(-0.0349498 0.0120828 0)
(-0.0435176 0.011203 0)
(-0.051072 0.00944849 0)
(-0.0570142 0.0068396 0)
(-0.0607745 0.00343314 0)
(-0.0618613 -0.000608833 0)
(-0.0599415 -0.00496776 0)
(-0.0549465 -0.00914728 0)
(-0.0471758 -0.0125221 0)
(-0.0373518 -0.0144458 0)
(-0.0266002 -0.0144237 0)
(-0.0163047 -0.0123115 0)
(-0.00782856 -0.00847537 0)
(-0.00224491 -0.00386605 0)
(-0.000143544 -0.000128279 0)
(-0.000923642 0.00362974 0)
(-0.00524144 0.0110734 0)
(-0.013446 0.0168869 0)
(-0.0237836 0.0205872 0)
(-0.0351326 0.0222877 0)
(-0.0466867 0.0222051 0)
(-0.0576927 0.0204976 0)
(-0.0674238 0.0172387 0)
(-0.075166 0.0124714 0)
(-0.0802278 0.00630793 0)
(-0.0819929 -0.00096266 0)
(-0.0800027 -0.00879725 0)
(-0.0740849 -0.0163532 0)
(-0.0644934 -0.0225671 0)
(-0.0520004 -0.0263184 0)
(-0.0379258 -0.02671 0)
(-0.0240098 -0.0234138 0)
(-0.0120952 -0.0169594 0)
(-0.003817 -0.00884309 0)
(-0.000387169 -0.0015426 0)
(-0.00123626 0.00681005 0)
(-0.00678475 0.0186389 0)
(-0.0170696 0.0273071 0)
(-0.0297937 0.032648 0)
(-0.0435964 0.0349939 0)
(-0.0575824 0.0347024 0)
(-0.0709373 0.0320032 0)
(-0.0828734 0.0269923 0)
(-0.0925993 0.0197195 0)
(-0.0993147 0.0103298 0)
(-0.10226 -0.000781633 0)
(-0.100789 -0.0128361 0)
(-0.0945234 -0.0246473 0)
(-0.083546 -0.0346444 0)
(-0.0685555 -0.0410981 0)
(-0.0509949 -0.042519 0)
(-0.0329922 -0.0381937 0)
(-0.0170265 -0.0286859 0)
(-0.00554487 -0.0160536 0)
(-0.000612645 -0.00375632 0)
(-0.0015093 0.0107798 0)
(-0.00816476 0.0278968 0)
(-0.0203519 0.039865 0)
(-0.035281 0.0470273 0)
(-0.0513809 0.0500654 0)
(-0.0676984 0.0495481 0)
(-0.0833989 0.0458001 0)
(-0.0976763 0.0389312 0)
(-0.109696 0.0289663 0)
(-0.118559 0.0160355 0)
(-0.123321 0.000583506 0)
(-0.123103 -0.0164409 0)
(-0.117226 -0.0335076 0)
(-0.105432 -0.0484837 0)
(-0.0881879 -0.0588722 0)
(-0.0669405 -0.0623166 0)
(-0.0441993 -0.0573822 0)
(-0.0232537 -0.0444073 0)
(-0.00771318 -0.0259939 0)
(-0.000881456 -0.00688404 0)
(-0.00174592 0.0154493 0)
(-0.00937663 0.0386795 0)
(-0.0232578 0.0543745 0)
(-0.0401702 0.0635557 0)
(-0.0583691 0.0673806 0)
(-0.0768777 0.0667038 0)
(-0.0948815 0.061973 0)
(-0.111599 0.0532995 0)
(-0.12619 0.0406382 0)
(-0.137683 0.024033 0)
(-0.144966 0.00388393 0)
(-0.146866 -0.0188019 0)
(-0.142298 -0.0421949 0)
(-0.130528 -0.0635876 0)
(-0.111577 -0.0795596 0)
(-0.0866751 -0.0865428 0)
(-0.0585843 -0.0818786 0)
(-0.0315124 -0.0651975 0)
(-0.0106789 -0.0394978 0)
(-0.00127101 -0.011216 0)
(-0.00194263 0.0207224 0)
(-0.0103966 0.0507889 0)
(-0.0257153 0.070594 0)
(-0.0443114 0.0819871 0)
(-0.0643031 0.0867235 0)
(-0.0847226 0.0860222 0)
(-0.104818 0.0804867 0)
(-0.123882 0.0702191 0)
(-0.141122 0.0550532 0)
(-0.155549 0.0348564 0)
(-0.165923 0.00986299 0)
(-0.170793 -0.0189843 0)
(-0.168623 -0.0497055 0)
(-0.158073 -0.0790808 0)
(-0.13848 -0.102673 0)
(-0.110516 -0.115349 0)
(-0.0768583 -0.112555 0)
(-0.04254 -0.092391 0)
(-0.0148574 -0.0577737 0)
(-0.00187841 -0.0172496 0)
(-0.00209374 0.0264866 0)
(-0.0111943 0.0639857 0)
(-0.0276342 0.088207 0)
(-0.0475049 0.101958 0)
(-0.0688133 0.107715 0)
(-0.090629 0.107145 0)
(-0.112303 0.101051 0)
(-0.133261 0.089525 0)
(-0.152829 0.0722381 0)
(-0.170087 0.0487954 0)
(-0.183771 0.0191349 0)
(-0.192242 -0.0160403 0)
(-0.193568 -0.0548046 0)
(-0.185755 -0.0936114 0)
(-0.167237 -0.127068 0)
(-0.137698 -0.14823 0)
(-0.0991354 -0.149897 0)
(-0.0569286 -0.127379 0)
(-0.0207239 -0.0823846 0)
(-0.00283728 -0.025725 0)
(-0.00220033 0.0326142 0)
(-0.0117622 0.07799 0)
(-0.0289576 0.106807 0)
(-0.0495699 0.122948 0)
(-0.071505 0.129739 0)
(-0.0938925 0.129397 0)
(-0.116227 0.122979 0)
(-0.138123 0.110588 0)
(-0.159117 0.0917143 0)
(-0.17848 0.0656417 0)
(-0.195079 0.0318967 0)
(-0.20728 -0.00924458 0)
(-0.212931 -0.0561794 0)
(-0.209478 -0.105361 0)
(-0.194355 -0.15074 0)
(-0.165841 -0.183593 0)
(-0.124437 -0.193445 0)
(-0.0748616 -0.171181 0)
(-0.0287997 -0.115133 0)
(-0.00434549 -0.0376745 0)
(-0.00228514 0.0389879 0)
(-0.0121642 0.0925138 0)
(-0.0297445 0.125909 0)
(-0.0504553 0.144259 0)
(-0.0720971 0.151898 0)
(-0.0938854 0.151711 0)
(-0.115501 0.145086 0)
(-0.13681 0.132182 0)
(-0.157646 0.112328 0)
(-0.177613 0.084475 0)
(-0.195912 0.0476707 0)
(-0.211174 0.0016064 0)
(-0.221335 -0.0527335 0)
(-0.223562 -0.112251 0)
(-0.214425 -0.17082 0)
(-0.190559 -0.218419 0)
(-0.150124 -0.241131 0)
(-0.0956658 -0.223744 0)
(-0.0395647 -0.157763 0)
(-0.00669753 -0.0544843 0)
(-0.00241684 0.0455607 0)
(-0.0126063 0.107338 0)
(-0.03028 0.144996 0)
(-0.0503761 0.165029 0)
(-0.0705875 0.173005 0)
(-0.0902712 0.172619 0)
(-0.109355 0.165675 0)
(-0.128019 0.152457 0)
(-0.146478 0.132194 0)
(-0.164792 0.10355 0)
(-0.18269 0.0651032 0)
(-0.199363 0.0158771 0)
(-0.213215 -0.044004 0)
(-0.221601 -0.112399 0)
(-0.220661 -0.183916 0)
(-0.205537 -0.248251 0)
(-0.171494 -0.288713 0)
(-0.117218 -0.282978 0)
(-0.0532093 -0.21134 0)
(-0.0102987 -0.0779309 0)
(-0.00275209 0.0524735 0)
(-0.013539 0.122443 0)
(-0.031203 0.163591 0)
(-0.049939 0.184268 0)
(-0.0673821 0.191614 0)
(-0.0831668 0.190296 0)
(-0.0975736 0.182617 0)
(-0.111165 0.169049 0)
(-0.124599 0.148806 0)
(-0.138471 0.120365 0)
(-0.153167 0.0819263 0)
(-0.168662 0.0318819 0)
(-0.1842 -0.0306139 0)
(-0.197889 -0.104795 0)
(-0.206163 -0.186882 0)
(-0.203344 -0.267759 0)
(-0.18191 -0.3297 0)
(-0.13543 -0.343821 0)
(-0.0691264 -0.275167 0)
(-0.0156023 -0.110084 0)
(-0.00361347 0.0602639 0)
(-0.0158095 0.138186 0)
(-0.0336264 0.181316 0)
(-0.0501776 0.200856 0)
(-0.0632559 0.206042 0)
(-0.0730697 0.202655 0)
(-0.080432 0.193516 0)
(-0.0863739 0.179313 0)
(-0.0920244 0.15932 0)
(-0.0985221 0.131942 0)
(-0.106927 0.0951593 0)
(-0.118073 0.0468935 0)
(-0.132279 -0.0145808 0)
(-0.148899 -0.0900275 0)
(-0.165517 -0.177933 0)
(-0.176842 -0.27198 0)
(-0.173622 -0.356162 0)
(-0.144136 -0.397876 0)
(-0.0851209 -0.345304 0)
(-0.0228481 -0.152842 0)
(-0.00562977 0.0702402 0)
(-0.0208702 0.155493 0)
(-0.0391473 0.197828 0)
(-0.0522751 0.21342 0)
(-0.0588367 0.214297 0)
(-0.0601743 0.207366 0)
(-0.0579027 0.195852 0)
(-0.0536119 0.18059 0)
(-0.0488942 0.160921 0)
(-0.0453553 0.135269 0)
(-0.0446168 0.101561 0)
(-0.0482725 0.0574942 0)
(-0.0577227 0.000761634 0)
(-0.0737719 -0.0706559 0)
(-0.095861 -0.157669 0)
(-0.120567 -0.257972 0)
(-0.138979 -0.360501 0)
(-0.135475 -0.434248 0)
(-0.0964997 -0.413381 0)
(-0.0314113 -0.207042 0)
(-0.00993336 0.08517 0)
(-0.0309111 0.175899 0)
(-0.0492918 0.212419 0)
(-0.0562352 0.219887 0)
(-0.0527237 0.213758 0)
(-0.0421394 0.201708 0)
(-0.0271935 0.186999 0)
(-0.0100735 0.170377 0)
(0.0072479 0.151147 0)
(0.0228628 0.127786 0)
(0.0348089 0.0983011 0)
(0.0409826 0.0604174 0)
(0.0391686 0.0116682 0)
(0.0272559 -0.0506149 0)
(0.00371115 -0.129194 0)
(-0.03106 -0.225954 0)
(-0.071242 -0.337448 0)
(-0.100404 -0.441277 0)
(-0.0954833 -0.466609 0)
(-0.0386245 -0.271781 0)
(-0.0181741 0.11069 0)
(-0.0480276 0.200596 0)
(-0.0624047 0.222191 0)
(-0.055984 0.215852 0)
(-0.0357539 0.200013 0)
(-0.00811361 0.181845 0)
(0.023156 0.163857 0)
(0.0554885 0.146247 0)
(0.0868488 0.128072 0)
(0.115359 0.107826 0)
(0.139039 0.0836872 0)
(0.155636 0.053634 0)
(0.1625 0.0154459 0)
(0.156673 -0.0335088 0)
(0.134975 -0.0966367 0)
(0.0946374 -0.17884 0)
(0.0360299 -0.285016 0)
(-0.0286196 -0.407742 0)
(-0.071393 -0.488059 0)
(-0.0382334 -0.342514 0)
(-0.0307994 0.157435 0)
(-0.0680745 0.225035 0)
(-0.0602647 0.214785 0)
(-0.0237823 0.189407 0)
(0.0236733 0.16392 0)
(0.0740433 0.141475 0)
(0.124019 0.122427 0)
(0.171676 0.105949 0)
(0.215687 0.0907029 0)
(0.254801 0.0751991 0)
(0.287511 0.0579078 0)
(0.311849 0.037272 0)
(0.32515 0.0116474 0)
(0.324256 -0.0209624 0)
(0.305048 -0.0633113 0)
(0.26244 -0.120879 0)
(0.191754 -0.204382 0)
(0.093979 -0.325136 0)
(-0.00888032 -0.454489 0)
(-0.016567 -0.397437 0)
(-0.0280576 0.228129 0)
(-0.0415547 0.224433 0)
(0.0375211 0.165646 0)
(0.125326 0.126581 0)
(0.204132 0.0997476 0)
(0.273665 0.0799315 0)
(0.335174 0.0650847 0)
(0.389349 0.0536437 0)
(0.436588 0.044145 0)
(0.476901 0.035337 0)
(0.509714 0.0261581 0)
(0.533789 0.0156706 0)
(0.546882 0.00297546 0)
(0.546466 -0.0126173 0)
(0.528428 -0.0328727 0)
(0.486906 -0.0611097 0)
(0.413342 -0.106707 0)
(0.294855 -0.193538 0)
(0.130918 -0.332941 0)
(0.0662588 -0.370039 0)
(0.261249 0.138282 0)
(0.324411 0.118722 0)
(0.456523 0.0776279 0)
(0.561269 0.0519155 0)
(0.632882 0.0361759 0)
(0.685215 0.0258306 0)
(0.726144 0.018875 0)
(0.759024 0.0141153 0)
(0.785585 0.0106603 0)
(0.806734 0.00785817 0)
(0.822663 0.00523295 0)
(0.83296 0.00243599 0)
(0.836714 -0.000862984 0)
(0.832426 -0.0045824 0)
(0.817549 -0.00937546 0)
(0.788632 -0.0161034 0)
(0.738111 -0.0272212 0)
(0.648366 -0.051721 0)
(0.474114 -0.111465 0)
(0.340759 -0.15629 0)
)
;

boundaryField
{
    movingWall
    {
        type            fixedValue;
        value           uniform (1 0 0);
    }
    fixedWalls
    {
        type            noSlip;
    }
    frontAndBack
    {
        type            empty;
    }
}


// ************************************************************************* //
