/*--------------------------------*- C++ -*----------------------------------*\
  =========                 |
  \\      /  F ield         | OpenFOAM: The Open Source CFD Toolbox
   \\    /   O peration     | Website:  https://openfoam.org
    \\  /    A nd           | Version:  dev
     \\/     M anipulation  |
\*---------------------------------------------------------------------------*/
FoamFile
{
    format      ascii;
    class       volScalarField;
    location    "4.05";
    object      Ux;
}
// * * * * * * * * * * * * * * * * * * * * * * * * * * * * * * * * * * * * * //

dimensions      [0 1 -1 0 0 0 0];

internalField   nonuniform List<scalar> 
400
(
0.000177494
-4.08755e-05
-0.00126993
-0.00319742
-0.00551506
-0.00797229
-0.0103658
-0.0125159
-0.0142449
-0.0153708
-0.0157218
-0.0151697
-0.013676
-0.0113368
-0.00840899
-0.00529935
-0.00250047
-0.000469933
0.000451057
0.000299588
-0.000150552
-0.00167565
-0.00529598
-0.0103115
-0.0161037
-0.0221509
-0.0279789
-0.0331445
-0.0372187
-0.0397885
-0.040494
-0.039091
-0.0355375
-0.0300748
-0.023263
-0.0159532
-0.00916144
-0.00384922
-0.000697872
0.000137675
-0.000561382
-0.00352691
-0.00949642
-0.0172729
-0.0259862
-0.0349498
-0.0435176
-0.051072
-0.0570142
-0.0607745
-0.0618613
-0.0599415
-0.0549465
-0.0471758
-0.0373518
-0.0266002
-0.0163047
-0.00782856
-0.00224491
-0.000143544
-0.000923642
-0.00524144
-0.013446
-0.0237836
-0.0351326
-0.0466867
-0.0576927
-0.0674238
-0.075166
-0.0802278
-0.0819929
-0.0800027
-0.0740849
-0.0644934
-0.0520004
-0.0379258
-0.0240098
-0.0120952
-0.003817
-0.000387169
-0.00123626
-0.00678475
-0.0170696
-0.0297937
-0.0435964
-0.0575824
-0.0709373
-0.0828734
-0.0925993
-0.0993147
-0.10226
-0.100789
-0.0945234
-0.083546
-0.0685555
-0.0509949
-0.0329922
-0.0170265
-0.00554487
-0.000612645
-0.0015093
-0.00816476
-0.0203519
-0.035281
-0.0513809
-0.0676984
-0.0833989
-0.0976763
-0.109696
-0.118559
-0.123321
-0.123103
-0.117226
-0.105432
-0.0881879
-0.0669405
-0.0441993
-0.0232537
-0.00771318
-0.000881456
-0.00174592
-0.00937663
-0.0232578
-0.0401702
-0.0583691
-0.0768777
-0.0948815
-0.111599
-0.12619
-0.137683
-0.144966
-0.146866
-0.142298
-0.130528
-0.111577
-0.0866751
-0.0585843
-0.0315124
-0.0106789
-0.00127101
-0.00194263
-0.0103966
-0.0257153
-0.0443114
-0.0643031
-0.0847226
-0.104818
-0.123882
-0.141122
-0.155549
-0.165923
-0.170793
-0.168623
-0.158073
-0.13848
-0.110516
-0.0768583
-0.04254
-0.0148574
-0.00187841
-0.00209374
-0.0111943
-0.0276342
-0.0475049
-0.0688133
-0.090629
-0.112303
-0.133261
-0.152829
-0.170087
-0.183771
-0.192242
-0.193568
-0.185755
-0.167237
-0.137698
-0.0991354
-0.0569286
-0.0207239
-0.00283728
-0.00220033
-0.0117622
-0.0289576
-0.0495699
-0.071505
-0.0938925
-0.116227
-0.138123
-0.159117
-0.17848
-0.195079
-0.20728
-0.212931
-0.209478
-0.194355
-0.165841
-0.124437
-0.0748616
-0.0287997
-0.00434549
-0.00228514
-0.0121642
-0.0297445
-0.0504553
-0.0720971
-0.0938854
-0.115501
-0.13681
-0.157646
-0.177613
-0.195912
-0.211174
-0.221335
-0.223562
-0.214425
-0.190559
-0.150124
-0.0956658
-0.0395647
-0.00669753
-0.00241684
-0.0126063
-0.03028
-0.0503761
-0.0705875
-0.0902712
-0.109355
-0.128019
-0.146478
-0.164792
-0.18269
-0.199363
-0.213215
-0.221601
-0.220661
-0.205537
-0.171494
-0.117218
-0.0532093
-0.0102987
-0.00275209
-0.013539
-0.031203
-0.049939
-0.0673821
-0.0831668
-0.0975736
-0.111165
-0.124599
-0.138471
-0.153167
-0.168662
-0.1842
-0.197889
-0.206163
-0.203344
-0.18191
-0.13543
-0.0691264
-0.0156023
-0.00361347
-0.0158095
-0.0336264
-0.0501776
-0.0632559
-0.0730697
-0.080432
-0.0863739
-0.0920244
-0.0985221
-0.106927
-0.118073
-0.132279
-0.148899
-0.165517
-0.176842
-0.173622
-0.144136
-0.0851209
-0.0228481
-0.00562977
-0.0208702
-0.0391473
-0.0522751
-0.0588367
-0.0601743
-0.0579027
-0.0536119
-0.0488942
-0.0453553
-0.0446168
-0.0482725
-0.0577227
-0.0737719
-0.095861
-0.120567
-0.138979
-0.135475
-0.0964997
-0.0314113
-0.00993336
-0.0309111
-0.0492918
-0.0562352
-0.0527237
-0.0421394
-0.0271935
-0.0100735
0.0072479
0.0228628
0.0348089
0.0409826
0.0391686
0.0272559
0.00371115
-0.03106
-0.071242
-0.100404
-0.0954833
-0.0386245
-0.0181741
-0.0480276
-0.0624047
-0.055984
-0.0357539
-0.00811361
0.023156
0.0554885
0.0868488
0.115359
0.139039
0.155636
0.1625
0.156673
0.134975
0.0946374
0.0360299
-0.0286196
-0.071393
-0.0382334
-0.0307994
-0.0680745
-0.0602647
-0.0237823
0.0236733
0.0740433
0.124019
0.171676
0.215687
0.254801
0.287511
0.311849
0.32515
0.324256
0.305048
0.26244
0.191754
0.093979
-0.00888032
-0.016567
-0.0280576
-0.0415547
0.0375211
0.125326
0.204132
0.273665
0.335174
0.389349
0.436588
0.476901
0.509714
0.533789
0.546882
0.546466
0.528428
0.486906
0.413342
0.294855
0.130918
0.0662588
0.261249
0.324411
0.456523
0.561269
0.632882
0.685215
0.726144
0.759024
0.785585
0.806734
0.822663
0.83296
0.836714
0.832426
0.817549
0.788632
0.738111
0.648366
0.474114
0.340759
)
;

boundaryField
{
    movingWall
    {
        type            calculated;
        value           uniform 1;
    }
    fixedWalls
    {
        type            calculated;
        value           uniform 0;
    }
    frontAndBack
    {
        type            empty;
    }
}


// ************************************************************************* //
