/*--------------------------------*- C++ -*----------------------------------*\
  =========                 |
  \\      /  F ield         | OpenFOAM: The Open Source CFD Toolbox
   \\    /   O peration     | Website:  https://openfoam.org
    \\  /    A nd           | Version:  dev
     \\/     M anipulation  |
\*---------------------------------------------------------------------------*/
FoamFile
{
    format      ascii;
    class       volScalarField;
    location    "4.05";
    object      Uy;
}
// * * * * * * * * * * * * * * * * * * * * * * * * * * * * * * * * * * * * * //

dimensions      [0 1 -1 0 0 0 0];

internalField   nonuniform List<scalar> 
400
(
-0.000178835
0.000144445
0.000487362
0.000702175
0.000805223
0.000826839
0.000784988
0.000684139
0.000520466
0.000290351
-7.90076e-07
-0.000332463
-0.000661568
-0.000929433
-0.00107181
-0.00103688
-0.000805949
-0.000413462
2.32802e-05
0.000282919
3.09771e-05
0.00162255
0.00312066
0.00409977
0.00457797
0.0046376
0.00433666
0.00369593
0.00271507
0.00140419
-0.00018207
-0.00191854
-0.00359648
-0.00494552
-0.00568273
-0.00559091
-0.00460744
-0.00289876
-0.000923446
0.000474613
0.00133289
0.00534434
0.00874887
0.0109745
0.0120413
0.0120828
0.011203
0.00944849
0.0068396
0.00343314
-0.000608833
-0.00496776
-0.00914728
-0.0125221
-0.0144458
-0.0144237
-0.0123115
-0.00847537
-0.00386605
-0.000128279
0.00362974
0.0110734
0.0168869
0.0205872
0.0222877
0.0222051
0.0204976
0.0172387
0.0124714
0.00630793
-0.00096266
-0.00879725
-0.0163532
-0.0225671
-0.0263184
-0.02671
-0.0234138
-0.0169594
-0.00884309
-0.0015426
0.00681005
0.0186389
0.0273071
0.032648
0.0349939
0.0347024
0.0320032
0.0269923
0.0197195
0.0103298
-0.000781633
-0.0128361
-0.0246473
-0.0346444
-0.0410981
-0.042519
-0.0381937
-0.0286859
-0.0160536
-0.00375632
0.0107798
0.0278968
0.039865
0.0470273
0.0500654
0.0495481
0.0458001
0.0389312
0.0289663
0.0160355
0.000583506
-0.0164409
-0.0335076
-0.0484837
-0.0588722
-0.0623166
-0.0573822
-0.0444073
-0.0259939
-0.00688404
0.0154493
0.0386795
0.0543745
0.0635557
0.0673806
0.0667038
0.061973
0.0532995
0.0406382
0.024033
0.00388393
-0.0188019
-0.0421949
-0.0635876
-0.0795596
-0.0865428
-0.0818786
-0.0651975
-0.0394978
-0.011216
0.0207224
0.0507889
0.070594
0.0819871
0.0867235
0.0860222
0.0804867
0.0702191
0.0550532
0.0348564
0.00986299
-0.0189843
-0.0497055
-0.0790808
-0.102673
-0.115349
-0.112555
-0.092391
-0.0577737
-0.0172496
0.0264866
0.0639857
0.088207
0.101958
0.107715
0.107145
0.101051
0.089525
0.0722381
0.0487954
0.0191349
-0.0160403
-0.0548046
-0.0936114
-0.127068
-0.14823
-0.149897
-0.127379
-0.0823846
-0.025725
0.0326142
0.07799
0.106807
0.122948
0.129739
0.129397
0.122979
0.110588
0.0917143
0.0656417
0.0318967
-0.00924458
-0.0561794
-0.105361
-0.15074
-0.183593
-0.193445
-0.171181
-0.115133
-0.0376745
0.0389879
0.0925138
0.125909
0.144259
0.151898
0.151711
0.145086
0.132182
0.112328
0.084475
0.0476707
0.0016064
-0.0527335
-0.112251
-0.17082
-0.218419
-0.241131
-0.223744
-0.157763
-0.0544843
0.0455607
0.107338
0.144996
0.165029
0.173005
0.172619
0.165675
0.152457
0.132194
0.10355
0.0651032
0.0158771
-0.044004
-0.112399
-0.183916
-0.248251
-0.288713
-0.282978
-0.21134
-0.0779309
0.0524735
0.122443
0.163591
0.184268
0.191614
0.190296
0.182617
0.169049
0.148806
0.120365
0.0819263
0.0318819
-0.0306139
-0.104795
-0.186882
-0.267759
-0.3297
-0.343821
-0.275167
-0.110084
0.0602639
0.138186
0.181316
0.200856
0.206042
0.202655
0.193516
0.179313
0.15932
0.131942
0.0951593
0.0468935
-0.0145808
-0.0900275
-0.177933
-0.27198
-0.356162
-0.397876
-0.345304
-0.152842
0.0702402
0.155493
0.197828
0.21342
0.214297
0.207366
0.195852
0.18059
0.160921
0.135269
0.101561
0.0574942
0.000761634
-0.0706559
-0.157669
-0.257972
-0.360501
-0.434248
-0.413381
-0.207042
0.08517
0.175899
0.212419
0.219887
0.213758
0.201708
0.186999
0.170377
0.151147
0.127786
0.0983011
0.0604174
0.0116682
-0.0506149
-0.129194
-0.225954
-0.337448
-0.441277
-0.466609
-0.271781
0.11069
0.200596
0.222191
0.215852
0.200013
0.181845
0.163857
0.146247
0.128072
0.107826
0.0836872
0.053634
0.0154459
-0.0335088
-0.0966367
-0.17884
-0.285016
-0.407742
-0.488059
-0.342514
0.157435
0.225035
0.214785
0.189407
0.16392
0.141475
0.122427
0.105949
0.0907029
0.0751991
0.0579078
0.037272
0.0116474
-0.0209624
-0.0633113
-0.120879
-0.204382
-0.325136
-0.454489
-0.397437
0.228129
0.224433
0.165646
0.126581
0.0997476
0.0799315
0.0650847
0.0536437
0.044145
0.035337
0.0261581
0.0156706
0.00297546
-0.0126173
-0.0328727
-0.0611097
-0.106707
-0.193538
-0.332941
-0.370039
0.138282
0.118722
0.0776279
0.0519155
0.0361759
0.0258306
0.018875
0.0141153
0.0106603
0.00785817
0.00523295
0.00243599
-0.000862984
-0.0045824
-0.00937546
-0.0161034
-0.0272212
-0.051721
-0.111465
-0.15629
)
;

boundaryField
{
    movingWall
    {
        type            calculated;
        value           uniform 0;
    }
    fixedWalls
    {
        type            calculated;
        value           uniform 0;
    }
    frontAndBack
    {
        type            empty;
    }
}


// ************************************************************************* //
