/*--------------------------------*- C++ -*----------------------------------*\
  =========                 |
  \\      /  F ield         | OpenFOAM: The Open Source CFD Toolbox
   \\    /   O peration     | Website:  https://openfoam.org
    \\  /    A nd           | Version:  dev
     \\/     M anipulation  |
\*---------------------------------------------------------------------------*/
FoamFile
{
    format      ascii;
    class       volScalarField;
    location    "29.7";
    object      p;
}
// * * * * * * * * * * * * * * * * * * * * * * * * * * * * * * * * * * * * * //

dimensions      [0 2 -2 0 0 0 0];

internalField   nonuniform List<scalar> 
5184
(
2.21307e-06
-8.80539e-06
-9.45452e-05
-0.000247379
-0.000446748
-0.000675375
-0.000919014
-0.0011657
-0.00140629
-0.00163365
-0.00184235
-0.00202837
-0.00218878
-0.00232147
-0.00242497
-0.00249829
-0.00254074
-0.00255188
-0.00253145
-0.00247927
-0.00239526
-0.00227941
-0.00213175
-0.00195244
-0.00174171
-0.00149993
-0.00122766
-0.000925626
-0.000594837
-0.000236561
0.00014762
0.000555777
0.000985618
0.00143447
0.00189928
0.00237659
0.00286259
0.00335312
0.00384369
0.00432957
0.00480582
0.00526737
0.00570908
0.00612588
0.00651281
0.00686518
0.0071786
0.00744916
0.00767348
0.00784882
0.00797318
0.00804535
0.00806499
0.00803265
0.00794984
0.007819
0.00764352
0.00742771
0.0071768
0.00689683
0.00659466
0.00627791
0.00595488
0.00563453
0.00532642
0.00504063
0.00478765
0.00457812
0.004422
0.00432775
0.00430084
0.00432814
1.62833e-05
3.89494e-06
-7.06585e-05
-0.000198383
-0.000363594
-0.000553828
-0.000758153
-0.000966955
-0.00117231
-0.00136783
-0.00154847
-0.00171033
-0.00185043
-0.00196655
-0.00205703
-0.00212069
-0.00215666
-0.00216435
-0.00214332
-0.00209329
-0.00201408
-0.00190561
-0.00176789
-0.00160102
-0.00140522
-0.00118087
-0.000928483
-0.0006488
-0.000342776
-1.16313e-05
0.000343129
0.000719687
0.00111589
0.00152926
0.00195694
0.00239576
0.00284219
0.00329242
0.00374236
0.00418767
0.00462387
0.00504635
0.00545047
0.00583165
0.00618543
0.00650758
0.00679421
0.00704183
0.00724746
0.00740871
0.00752386
0.00759193
0.0076127
0.00758681
0.00751572
0.00740177
0.00724814
0.00705884
0.00683866
0.00659317
0.00632861
0.00605185
0.00577032
0.00549197
0.0052251
0.00497827
0.00476016
0.00457914
0.0044425
0.0043562
0.00432765
0.00435529
0.000103081
7.83598e-05
3.03258e-06
-0.000114482
-0.000262153
-0.000430356
-0.000610389
-0.000794414
-0.000975724
-0.00114876
-0.00130902
-0.00145291
-0.00157763
-0.001681
-0.00176139
-0.00181754
-0.00184853
-0.00185368
-0.00183248
-0.00178457
-0.00170972
-0.00160778
-0.00147872
-0.00132259
-0.00113959
-0.000930043
-0.000694436
-0.00043345
-0.000147984
0.000160819
0.000491549
0.000842501
0.00121167
0.00159671
0.001995
0.00240355
0.0028191
0.00323809
0.00365671
0.00407095
0.00447664
0.00486952
0.00524529
0.0055997
0.00592866
0.00622825
0.00649491
0.00672543
0.00691709
0.00706774
0.00717584
0.00724053
0.00726171
0.00724001
0.00717689
0.00707456
0.00693606
0.00676513
0.00656628
0.00634467
0.00610605
0.00585672
0.00560344
0.00535333
0.00511376
0.00489218
0.00469608
0.00453251
0.00440749
0.00432626
0.00429846
0.00432911
0.000258117
0.000206715
0.000118925
-6.89195e-09
-0.000142413
-0.000300516
-0.000467199
-0.000636098
-0.000801668
-0.000959218
-0.00110487
-0.0012355
-0.0013486
-0.00144221
-0.00151479
-0.00156517
-0.00159244
-0.00159591
-0.00157506
-0.00152948
-0.00145891
-0.00136315
-0.00124212
-0.00109582
-0.000924399
-0.000728111
-0.000507384
-0.000262822
4.76121e-06
0.000294318
0.000604547
0.000933869
0.00128041
0.00164201
0.00201618
0.00240013
0.00279081
0.00318486
0.0035787
0.00396856
0.0043505
0.00472049
0.00507449
0.00540847
0.00571857
0.0060011
0.00625268
0.0064703
0.0066514
0.00679396
0.00689654
0.00695837
0.00697938
0.0069602
0.00690224
0.00680763
0.00667927
0.00652072
0.00633622
0.00613062
0.0059093
0.0056781
0.00544323
0.00521118
0.0049886
0.00478217
0.00459851
0.00444389
0.00432374
0.0042431
0.00421204
0.00423729
0.000462843
0.000374257
0.000265687
0.000138014
-6.31322e-06
-0.000161123
-0.000320647
-0.00047989
-0.000634444
-0.000780508
-0.0009149
-0.001035
-0.00113871
-0.00122434
-0.00129056
-0.00133631
-0.00136078
-0.0013633
-0.00134336
-0.00130056
-0.00123459
-0.00114523
-0.00103232
-0.000895836
-0.000735831
-0.000552495
-0.000346168
-0.00011736
0.000133218
0.000404634
0.000695712
0.00100501
0.0013308
0.00167107
0.0020235
0.0023855
0.00275416
0.00312634
0.00349865
0.00386748
0.00422911
0.00457968
0.00491534
0.00523224
0.00552666
0.00579507
0.00603424
0.00624125
0.00641366
0.00654952
0.00664746
0.00670673
0.00672726
0.00670968
0.00665533
0.00656627
0.00644525
0.00629568
0.00612157
0.0059275
0.00571853
0.00550011
0.00527798
0.00505809
0.00484649
0.00464922
0.00447217
0.00432099
0.00420063
0.00411585
0.00407545
0.00408527
0.000701115
0.000569111
0.000433982
0.000291981
0.000140091
-1.69133e-05
-0.00017442
-0.00032869
-0.00047639
-0.000614598
-0.00074084
-0.000853067
-0.000949606
-0.00102911
-0.00109049
-0.00113287
-0.00115556
-0.00115797
-0.00113963
-0.00110013
-0.00103916
-0.000956454
-0.000851815
-0.000725135
-0.000576395
-0.000405698
-0.000213279
4.59565e-07
0.000234928
0.000489323
0.000762605
0.00105347
0.00136036
0.0016814
0.00201445
0.00235707
0.00270651
0.0030598
0.0034137
0.00376477
0.00410942
0.00444394
0.00476458
0.00506764
0.00534948
0.00560667
0.00583604
0.00603474
0.00620036
0.00633098
0.00642525
0.0064824
0.00650236
0.00648569
0.00643369
0.00634831
0.00623218
0.00608858
0.00592133
0.00573477
0.00553369
0.0053232
0.00510867
0.00489561
0.00468957
0.00449602
0.00432031
0.00416748
0.00404211
0.00394859
0.0038934
0.00388031
0.000959147
0.000780415
0.000614915
0.000454421
0.000290553
0.000126912
-3.28748e-05
-0.000186203
-0.00033074
-0.000464399
-0.000585412
-0.000692305
-0.000783871
-0.000859127
-0.00091727
-0.000957639
-0.000979682
-0.000982921
-0.000966939
-0.000931359
-0.000875849
-0.000800115
-0.00070391
-0.000587051
-0.000449433
-0.000291054
-0.000112039
8.73354e-05
0.000306612
0.000545129
0.000801992
0.00107606
0.0013659
0.00166983
0.00198584
0.00231164
0.00264464
0.002982
0.00332061
0.00365715
0.00398812
0.00430993
0.00461888
0.00491134
0.00518371
0.0054326
0.00565484
0.00584759
0.00600844
0.00613542
0.00622716
0.00628285
0.00630234
0.00628616
0.0062355
0.00615224
0.0060389
0.0058986
0.00573502
0.00555233
0.00535507
0.00514808
0.00493644
0.00472529
0.00451979
0.00432498
0.00414572
0.00398658
0.00385179
0.0037454
0.00367109
0.00363007
0.00122481
0.000998029
0.000799903
0.000618054
0.000438998
0.000265367
9.99492e-05
-5.56807e-05
-0.000200111
-0.000332044
-0.000450388
-0.000554242
-0.000642872
-0.000715674
-0.000772148
-0.000811864
-0.000834436
-0.000839507
-0.000826728
-0.000795757
-0.000746256
-0.000677901
-0.000590389
-0.000483459
-0.000356911
-0.00021063
-4.46168e-05
0.000140988
0.000345871
0.000569523
0.000811204
0.00106993
0.00134443
0.00163317
0.00193428
0.00224563
0.00256476
0.00288893
0.00321514
0.00354016
0.00386056
0.00417279
0.0044732
0.00475815
0.00502405
0.00526747
0.00548521
0.00567439
0.00583251
0.00595757
0.00604807
0.00610315
0.00612257
0.00610676
0.00605682
0.00597453
0.0058623
0.00572313
0.00556058
0.00537864
0.0051817
0.00497438
0.00476151
0.00454798
0.00433862
0.00413814
0.00395102
0.00378144
0.00363339
0.00351062
0.00341385
0.00334167
0.00148785
0.00121279
0.000980883
0.000775848
0.000579378
0.000393304
0.000219704
5.92185e-05
-8.75906e-05
-0.000220165
-0.000338054
-0.000440912
-0.000528469
-0.000600506
-0.000656827
-0.00069724
-0.00072154
-0.000729492
-0.000720825
-0.000695232
-0.000652374
-0.000591894
-0.00051343
-0.000416637
-0.00030121
-0.000166915
-1.36166e-05
0.00015869
0.000349848
0.000559506
0.00078709
0.00103177
0.00129246
0.00156774
0.00185593
0.00215499
0.0024626
0.00277612
0.00309263
0.00340895
0.0037217
0.00402734
0.0043222
0.00460262
0.00486497
0.00510573
0.00532161
0.00550964
0.0056672
0.00579217
0.00588294
0.00593852
0.00595855
0.00594333
0.00589386
0.0058118
0.00569946
0.00555973
0.00539605
0.00521228
0.00501268
0.00480174
0.00458408
0.00436441
0.00414733
0.00393732
0.00373856
0.00355494
0.00339032
0.00324822
0.00312648
0.00302114
0.00173928
0.00141645
0.00115036
0.000921076
0.000705728
0.000505474
0.000321787
0.00015446
3.26951e-06
-0.000131916
-0.000251254
-0.000354925
-0.000443109
-0.000515959
-0.000573585
-0.000616031
-0.000643269
-0.000655189
-0.000651598
-0.000632223
-0.000596723
-0.000544704
-0.000475738
-0.00038939
-0.000285245
-0.000162937
-2.21858e-05
0.000137169
0.000315134
0.000511528
0.000725947
0.000957734
0.00120595
0.00146936
0.00174639
0.00203516
0.00233343
0.00263867
0.002948
0.0032583
0.00356619
0.0038681
0.00416035
0.00443918
0.00470086
0.00494178
0.00515851
0.00534791
0.00550723
0.00563416
0.00572694
0.0057844
0.00580603
0.00579199
0.00574312
0.00566098
0.00554774
0.0054062
0.0052397
0.00505201
0.00484727
0.00462988
0.00440435
0.00417526
0.00394707
0.00372411
0.00351038
0.00330956
0.00312549
0.00296161
0.00281298
0.00267327
0.00197118
0.00160151
0.00130135
0.00104733
0.000812228
0.00059663
0.000401479
0.000225799
6.86349e-05
-7.07875e-05
-0.000193197
-0.000299274
-0.000389625
-0.000464763
-0.000525088
-0.000570875
-0.000602266
-0.000619273
-0.000621774
-0.000609526
-0.00058218
-0.000539299
-0.000480383
-0.0004049
-0.000312312
-0.000202117
-7.38793e-05
7.27273e-05
0.000237884
0.000421587
0.000623612
0.000843476
0.00108041
0.00133333
0.00160081
0.0018811
0.00217205
0.0024712
0.00277575
0.00308256
0.00338827
0.00368925
0.00398174
0.00426189
0.00452584
0.0047698
0.00499018
0.00518364
0.00534721
0.00547838
0.00557518
0.00563623
0.00566081
0.00564889
0.00560118
0.00551905
0.00540457
0.00526043
0.00508987
0.0048966
0.0046847
0.00445849
0.00422244
0.00398107
0.0037388
0.00349987
0.00326821
0.00304739
0.00284136
0.0026536
0.00247655
0.00230164
0.00217639
0.00176109
0.00142734
0.00114851
0.000893231
0.000661573
0.000454011
0.000268854
0.00010447
-4.05178e-05
-0.000167376
-0.000277257
-0.000371172
-0.00044997
-0.000514327
-0.000564735
-0.000601499
-0.000624739
-0.000634396
-0.000630251
-0.000611938
-0.000578969
-0.000530764
-0.000466683
-0.00038606
-0.000288243
-0.000172633
-3.87267e-05
0.000113841
0.000285253
0.000475474
0.000684204
0.000910848
0.00115448
0.00141384
0.00168726
0.00197273
0.00226785
0.00256984
0.0028756
0.0031817
0.00348447
0.00378006
0.00406445
0.00433364
0.00458363
0.0048106
0.00501098
0.00518154
0.00531951
0.00542265
0.00548933
0.00551858
0.00551016
0.00546457
0.005383
0.00526739
0.0051203
0.0049449
0.00474485
0.00452417
0.00428719
0.00403838
0.00378226
0.00352327
0.00326569
0.00301345
0.00277015
0.00253991
0.0023264
0.00211958
0.00190881
0.00234838
0.00188882
0.00152222
0.00121881
0.000943264
0.000695183
0.000474603
0.000279162
0.000106596
-4.50377e-05
-0.000177514
-0.000292429
-0.000391173
-0.000474912
-0.000544579
-0.000600866
-0.000644225
-0.000674871
-0.000692802
-0.000697806
-0.000689492
-0.000667313
-0.000630598
-0.000578589
-0.00051048
-0.000425461
-0.000322756
-0.000201678
-6.16645e-05
9.76658e-05
0.000276474
0.000474656
0.000691799
0.000927152
0.00117959
0.00144759
0.00172924
0.0020222
0.00232374
0.00263074
0.00293974
0.00324699
0.00354849
0.0038401
0.00411757
0.00437669
0.00461338
0.00482377
0.00500433
0.00515196
0.00526411
0.00533885
0.00537492
0.0053718
0.00532974
0.00524974
0.00513356
0.00498366
0.00480309
0.00459548
0.00436484
0.00411554
0.00385209
0.0035791
0.00330109
0.00302246
0.00274725
0.00247916
0.00222264
0.00198164
0.00174378
0.00149642
0.00248105
0.00197873
0.0015802
0.00125268
0.000957043
0.000692442
0.000458503
0.000252227
7.07491e-05
-8.841e-05
-0.000227501
-0.00034854
-0.000453271
-0.000543156
-0.000619364
-0.000682769
-0.000733953
-0.000773215
-0.00080059
-0.000815866
-0.000818614
-0.000808213
-0.000783894
-0.000744769
-0.000689882
-0.000618251
-0.000528915
-0.000420986
-0.000293697
-0.000146454
2.1115e-05
0.00020911
0.000417315
0.000645159
0.00089168
0.00115549
0.00143479
0.0017273
0.00203033
0.00234076
0.00265508
0.00296944
0.0032797
0.00358152
0.00387043
0.00414195
0.00439168
0.00461542
0.00480927
0.00496979
0.00509402
0.00517968
0.00522515
0.0052296
0.00519298
0.00511606
0.00500038
0.00484825
0.00466265
0.00444716
0.00420581
0.00394302
0.00366341
0.00337172
0.00307267
0.00277083
0.00247045
0.00217545
0.00189068
0.00162049
0.00135026
0.0010654
0.00256869
0.0020252
0.00159581
0.00124482
0.000929465
0.000648454
0.000401022
0.000183559
-7.37904e-06
-0.000174779
-0.000321343
-0.000449481
-0.00056127
-0.000658446
-0.000742393
-0.000814147
-0.000874404
-0.000923531
-0.000961585
-0.000988339
-0.00100331
-0.0010058
-0.000994926
-0.000969656
-0.000928872
-0.000871409
-0.000796108
-0.000701867
-0.0005877
-0.000452787
-0.000296531
-0.00011861
8.09694e-05
0.000301833
0.000543194
0.00080382
0.00108201
0.0013756
0.00168191
0.00199783
0.0023198
0.00264386
0.00296571
0.00328081
0.00358443
0.00387177
0.00413809
0.0043788
0.0045896
0.00476659
0.00490641
0.00500631
0.00506428
0.00507909
0.00505035
0.00497853
0.00486493
0.0047117
0.0045217
0.00429846
0.00404606
0.003769
0.00347206
0.00316017
0.0028383
0.0025113
0.00218371
0.00185975
0.00154479
0.00124369
0.000939617
0.00061607
0.00260589
0.00202291
0.00156385
0.00119017
0.000855612
0.000558461
0.000297562
6.87101e-05
-0.000132092
-0.000308321
-0.000463109
-0.000599235
-0.000719089
-0.000824657
-0.00091752
-0.000998859
-0.00106946
-0.00112975
-0.00117979
-0.00121932
-0.0012478
-0.00126443
-0.0012682
-0.00125793
-0.00123232
-0.00119001
-0.00112964
-0.00104986
-0.00094947
-0.000827394
-0.000682796
-0.000515116
-0.000324129
-0.000109995
0.000126693
0.000384873
0.000662983
0.000958941
0.00127014
0.00159347
0.00192531
0.0022616
0.00259788
0.00292938
0.00325109
0.00355786
0.00384457
0.00410619
0.00433794
0.00453543
0.00469479
0.00481278
0.00488688
0.0049154
0.00489756
0.00483345
0.0047241
0.00457143
0.00437817
0.00414782
0.00388448
0.00359277
0.00327767
0.00294437
0.00259815
0.00224421
0.00188747
0.00153257
0.00118548
0.000851643
0.000512059
0.000148281
0.0025875
0.00196681
0.00147935
0.00108388
0.000730759
0.000417859
0.000143637
-9.66872e-05
-0.000307653
-0.000493204
-0.000656884
-0.000801825
-0.000930704
-0.00104574
-0.00114869
-0.00124087
-0.00132314
-0.00139595
-0.00145936
-0.00151307
-0.00155646
-0.00158862
-0.0016084
-0.00161446
-0.00160531
-0.00157938
-0.00153507
-0.00147081
-0.00138512
-0.00127668
-0.00114439
-0.000987424
-0.000805309
-0.000597966
-0.000365767
-0.000109582
0.000169187
0.000468576
0.000786056
0.00111852
0.00146233
0.00181331
0.00216684
0.00251791
0.0028612
0.0031912
0.00350234
0.00378911
0.00404621
0.00426868
0.00445207
0.00459253
0.00468699
0.00473322
0.00472992
0.00467677
0.00457446
0.00442462
0.00422983
0.00399352
0.00371983
0.00341353
0.0030798
0.00272417
0.00235228
0.0019698
0.00158208
0.00119426
0.000813032
0.000444523
6.75008e-05
-0.000338456
0.00250863
0.00185209
0.0013376
0.000921321
0.000550376
0.000222215
-6.50914e-05
-0.000316889
-0.000538239
-0.000733538
-0.000906726
-0.00106126
-0.0012001
-0.00132568
-0.00143991
-0.0015442
-0.00163949
-0.00172625
-0.00180451
-0.00187392
-0.00193377
-0.00198302
-0.00202036
-0.00204429
-0.00205311
-0.00204502
-0.00201818
-0.00197077
-0.00190102
-0.00180734
-0.00168834
-0.00154291
-0.0013703
-0.00117016
-0.000942606
-0.000688296
-0.00040844
-0.00010485
0.000220041
0.000563175
0.000920882
0.0012889
0.00166245
0.00203627
0.00240473
0.00276192
0.00310181
0.00341833
0.00370559
0.00395799
0.00417042
0.00433836
0.00445806
0.00452665
0.00454225
0.00450402
0.00441221
0.00426815
0.00407419
0.00383366
0.00355074
0.00323034
0.00287792
0.00249935
0.00210073
0.00168824
0.00126779
0.000845081
0.000427622
2.23263e-05
-0.000394341
-0.000844863
0.00236462
0.00167419
0.00113413
0.000698105
0.000310149
-3.27125e-05
-0.000332799
-0.000596009
-0.00082791
-0.00103334
-0.00121661
-0.00138151
-0.00153124
-0.00166842
-0.00179513
-0.00191286
-0.0020226
-0.00212482
-0.00221952
-0.00230627
-0.00238426
-0.00245232
-0.00250898
-0.00255253
-0.00258107
-0.00259256
-0.0025849
-0.00255598
-0.00250375
-0.00242631
-0.00232196
-0.00218927
-0.00202717
-0.00183502
-0.00161267
-0.00136049
-0.00107947
-0.000771252
-0.000438119
-8.30574e-05
0.000290267
0.000677529
0.00107379
0.00147354
0.00187083
0.00225933
0.0026325
0.00298369
0.00330634
0.00359414
0.00384121
0.00404227
0.00419278
0.00428914
0.00432877
0.00431019
0.00423314
0.00409854
0.00390846
0.0036661
0.00337566
0.00304218
0.00267142
0.00226964
0.00184347
0.00139968
0.000944805
0.000485224
2.93495e-05
-0.000415026
-0.000873853
-0.00137179
0.00215105
0.00142882
0.000864733
0.000410087
5.99382e-06
-0.000350953
-0.000663466
-0.000937983
-0.00118057
-0.00139648
-0.00159041
-0.00176642
-0.00192796
-0.00207785
-0.00221828
-0.00235082
-0.0024765
-0.00259577
-0.0027086
-0.00281447
-0.00291245
-0.00300122
-0.00307916
-0.00314433
-0.00319461
-0.0032277
-0.00324123
-0.00323279
-0.00320001
-0.00314066
-0.0030527
-0.00293437
-0.00278423
-0.00260132
-0.00238514
-0.00213577
-0.00185394
-0.00154104
-0.00119919
-0.000831263
-0.00044087
-3.238e-05
0.000389133
0.000817944
0.00124776
0.00167182
0.00208303
0.00247412
0.00283781
0.00316698
0.00345491
0.00369541
0.00388308
0.00401342
0.00408302
0.00408969
0.0040325
0.00391187
0.00372953
0.00348847
0.00319286
0.00284789
0.00245961
0.00203475
0.0015805
0.00110429
0.000613385
0.000114924
-0.000381664
-0.000867612
-0.00137144
-0.00192011
0.00186376
0.00111193
0.00052545
5.33782e-05
-0.000365925
-0.000736298
-0.00106085
-0.00134654
-0.00159992
-0.00182666
-0.00203179
-0.00221968
-0.00239399
-0.0025577
-0.00271313
-0.00286192
-0.0030051
-0.00314312
-0.00327588
-0.00340278
-0.00352276
-0.00363435
-0.00373573
-0.00382475
-0.00389905
-0.00395607
-0.00399313
-0.00400751
-0.0039965
-0.00395751
-0.00388813
-0.00378621
-0.00364995
-0.00347798
-0.00326943
-0.00302405
-0.00274221
-0.00242504
-0.00207443
-0.00169307
-0.00128449
-0.000853056
-0.00040394
5.69268e-05
0.000522925
0.000986852
0.00144105
0.00187758
0.00228835
0.00266539
0.003001
0.00328799
0.00351994
0.00369133
0.00379779
0.00383623
0.00380495
0.00370375
0.00353388
0.00329806
0.00300038
0.00264616
0.00224176
0.00179438
0.00131183
0.000802293
0.000273856
-0.000265502
-0.000805212
-0.00133543
-0.00188742
-0.00249065
0.0014989
0.000719779
0.000112618
-0.000375627
-0.000809167
-0.00119227
-0.00152844
-0.00182516
-0.00208944
-0.00232735
-0.00254425
-0.00274478
-0.00293283
-0.00311152
-0.00328328
-0.0034498
-0.00361213
-0.00377069
-0.00392531
-0.00407529
-0.00421945
-0.00435614
-0.00448334
-0.0045987
-0.00469959
-0.00478317
-0.00484644
-0.00488634
-0.00489982
-0.00488389
-0.00483573
-0.00475278
-0.0046328
-0.00447399
-0.00427507
-0.00403536
-0.00375486
-0.00343434
-0.0030754
-0.00268051
-0.00225304
-0.0017973
-0.00131852
-0.000822798
-0.000317056
0.000191061
0.000693319
0.00118105
0.00164533
0.00207721
0.00246794
0.00280921
0.0030934
0.00331383
0.00346501
0.00354278
0.00354451
0.0034692
0.00331753
0.00309183
0.00279605
0.00243557
0.00201706
0.00154821
0.00103754
0.000494029
-7.33241e-05
-0.000655586
-0.00124093
-0.0018183
-0.00242196
-0.00308405
0.00105288
0.000248925
-0.00037712
-0.000880232
-0.001327
-0.00172211
-0.00206947
-0.00237706
-0.00265234
-0.00290176
-0.003131
-0.00334496
-0.00354774
-0.0037426
-0.00393206
-0.00411786
-0.00430106
-0.00448204
-0.00466056
-0.00483582
-0.00500648
-0.00517075
-0.00532639
-0.00547081
-0.00560113
-0.0057142
-0.00580671
-0.00587524
-0.00591633
-0.0059266
-0.00590278
-0.00584185
-0.0057411
-0.00559824
-0.0054115
-0.00517974
-0.0049025
-0.00458014
-0.00421388
-0.00380588
-0.00335931
-0.00287835
-0.00236822
-0.00183513
-0.00128628
-0.00072973
-0.000174309
0.000370572
0.000895096
0.00138927
0.00184316
0.00224721
0.00259246
0.00287091
0.0030757
0.00320146
0.00324443
0.00320263
0.003076
0.00286636
0.0025774
0.0022145
0.00178462
0.00129598
0.000757794
0.000179974
-0.000427505
-0.00105464
-0.0016882
-0.00231583
-0.00297499
-0.00370074
0.000522505
-0.000303734
-0.000946787
-0.00146341
-0.00192235
-0.00232873
-0.00268684
-0.00300513
-0.0032915
-0.00355278
-0.00379495
-0.00402315
-0.00424167
-0.00445393
-0.0046625
-0.0048692
-0.00507505
-0.00528042
-0.00548498
-0.00568783
-0.00588748
-0.00608197
-0.00626885
-0.00644531
-0.00660817
-0.00675398
-0.0068791
-0.00697971
-0.00705197
-0.00709203
-0.00709615
-0.00706082
-0.00698279
-0.00685925
-0.00668788
-0.00646698
-0.00619557
-0.00587351
-0.00550157
-0.00508153
-0.00461623
-0.00410967
-0.00356696
-0.00299439
-0.00239937
-0.00179035
-0.00117671
-0.000568648
2.30889e-05
0.000587384
0.00111304
0.00158909
0.00200509
0.00235149
0.00261992
0.00280352
0.00289718
0.00289776
0.00280425
0.00261778
0.00234164
0.00198117
0.00154352
0.00103743
0.000472899
-0.000139197
-0.000787788
-0.00146169
-0.00214613
-0.00282727
-0.00354609
-0.00434077
-9.50939e-05
-0.000940936
-0.00159904
-0.00212778
-0.00259781
-0.0030147
-0.00338309
-0.00371192
-0.00400949
-0.00428298
-0.00453866
-0.00478192
-0.00501722
-0.00524811
-0.00547725
-0.00570647
-0.00593683
-0.00616862
-0.00640146
-0.00663432
-0.00686558
-0.0070931
-0.00731423
-0.0075259
-0.00772466
-0.00790675
-0.00806816
-0.0082047
-0.00831207
-0.00838597
-0.00842214
-0.00841651
-0.00836529
-0.00826504
-0.00811284
-0.00790638
-0.00764406
-0.00732516
-0.0069499
-0.00651956
-0.00603659
-0.00550468
-0.00492877
-0.00431513
-0.0036713
-0.00300606
-0.00232935
-0.00165211
-0.000986055
-0.000343494
0.000263009
0.000820944
0.00131821
0.00174351
0.00208672
0.00233925
0.00249439
0.00254758
0.00249661
0.00234173
0.00208568
0.00173358
0.00129273
0.000772374
0.000183302
-0.000462567
-0.00115297
-0.00187541
-0.00261339
-0.00335146
-0.00413441
-0.0050038
-0.000802363
-0.00166502
-0.00233617
-0.00287557
-0.0033556
-0.0037822
-0.00416042
-0.00449961
-0.00480847
-0.00509451
-0.0053643
-0.00562343
-0.00587655
-0.00612732
-0.00637848
-0.00663191
-0.00688864
-0.00714894
-0.00741234
-0.00767772
-0.00794332
-0.00820681
-0.00846534
-0.0087156
-0.00895386
-0.00917603
-0.00937774
-0.00955438
-0.0097012
-0.00981341
-0.00988619
-0.00991491
-0.00989513
-0.00982276
-0.00969421
-0.00950646
-0.00925723
-0.00894509
-0.00856963
-0.00813154
-0.00763273
-0.00707648
-0.00646746
-0.00581178
-0.00511706
-0.00439233
-0.00364801
-0.00289577
-0.00214831
-0.00141916
-0.000722347
-7.20582e-05
0.000517776
0.0010339
0.00146416
0.001798
0.00202681
0.00214429
0.00214678
0.00203339
0.00180605
0.00146954
0.0010312
0.000500698
-0.000110352
-0.000788927
-0.00152146
-0.00229401
-0.00308819
-0.00388674
-0.00473856
-0.00568891
-0.00160132
-0.00247792
-0.00316003
-0.00370862
-0.00419752
-0.00463305
-0.00502061
-0.00536997
-0.0056902
-0.00598914
-0.00627359
-0.0065494
-0.00682136
-0.00709324
-0.00736788
-0.00764717
-0.00793215
-0.00822306
-0.00851936
-0.00881982
-0.00912254
-0.00942504
-0.00972426
-0.0100166
-0.0102982
-0.0105644
-0.0108107
-0.0110319
-0.0112229
-0.0113783
-0.0114927
-0.0115609
-0.0115778
-0.0115385
-0.0114387
-0.0112747
-0.0110432
-0.0107423
-0.0103706
-0.00992811
-0.00941616
-0.00883744
-0.0081962
-0.00749831
-0.00675133
-0.00596444
-0.00514847
-0.00431575
-0.00347996
-0.00265588
-0.00185907
-0.00110549
-0.000411104
0.000208667
0.000739404
0.00116824
0.00148433
0.00167934
0.0017478
0.00168736
0.00149891
0.00118664
0.000757785
0.000222375
-0.000407188
-0.00111672
-0.00189124
-0.00271522
-0.00356817
-0.00443082
-0.00535655
-0.00639456
-0.0024935
-0.0033811
-0.00407206
-0.00462835
-0.00512497
-0.0055686
-0.00596501
-0.00632434
-0.006656
-0.00696813
-0.0072678
-0.00756104
-0.00785281
-0.008147
-0.00844652
-0.0087533
-0.00906839
-0.00939199
-0.0097235
-0.0100616
-0.0104043
-0.0107489
-0.0110921
-0.0114303
-0.011759
-0.0120735
-0.0123688
-0.0126394
-0.0128795
-0.0130833
-0.0132448
-0.0133581
-0.0134173
-0.0134169
-0.0133516
-0.013217
-0.0130089
-0.0127243
-0.0123612
-0.0119186
-0.0113971
-0.0107987
-0.0101271
-0.00938777
-0.00858802
-0.00773708
-0.00684609
-0.00592797
-0.0049973
-0.00407011
-0.00316354
-0.00229545
-0.00148396
-0.000746895
-0.000101228
0.000437551
0.000856023
0.00114341
0.00129204
0.00129774
0.00116006
0.000882276
0.000471339
-6.24879e-05
-0.000706052
-0.00144397
-0.00225975
-0.00313613
-0.00405027
-0.00498068
-0.00598559
-0.00711843
-0.00347998
-0.00437557
-0.00507324
-0.00563571
-0.00613889
-0.00658981
-0.00699454
-0.0073636
-0.00770672
-0.0080323
-0.00834766
-0.00865903
-0.00897152
-0.00928914
-0.00961486
-0.00995068
-0.0102976
-0.0106559
-0.0110249
-0.0114032
-0.0117886
-0.0121784
-0.012569
-0.0129566
-0.0133365
-0.0137036
-0.0140526
-0.0143774
-0.0146719
-0.0149296
-0.0151439
-0.0153083
-0.015416
-0.0154608
-0.0154365
-0.0153375
-0.015159
-0.0148968
-0.014548
-0.0141105
-0.0135841
-0.0129699
-0.0122708
-0.0114918
-0.0106398
-0.00972385
-0.00875533
-0.00774761
-0.0067161
-0.00567802
-0.00465211
-0.00365818
-0.00271667
-0.00184802
-0.00107202
-0.000407127
0.000130257
0.000526485
0.000771264
0.000858156
0.000784919
0.000553646
0.000170692
-0.000353616
-0.00100545
-0.00176822
-0.00262383
-0.00355312
-0.00453066
-0.00553249
-0.00662203
-0.0078573
-0.0045613
-0.00546187
-0.00616409
-0.00673122
-0.0072398
-0.00769715
-0.00810967
-0.00848818
-0.00884271
-0.00918193
-0.00951338
-0.00984347
-0.0101775
-0.0105195
-0.0108726
-0.0112389
-0.0116194
-0.0120143
-0.0124229
-0.0128437
-0.0132746
-0.0137125
-0.0141539
-0.0145945
-0.0150296
-0.0154536
-0.0158609
-0.016245
-0.0165992
-0.0169166
-0.0171898
-0.0174115
-0.0175744
-0.0176711
-0.0176946
-0.0176383
-0.0174963
-0.0172634
-0.0169353
-0.0165091
-0.0159834
-0.0153582
-0.0146357
-0.0138199
-0.0129173
-0.0119366
-0.0108892
-0.00978862
-0.00865112
-0.00749502
-0.0063406
-0.00520967
-0.00412509
-0.0031101
-0.00218759
-0.00137934
-0.000705142
-0.000181979
0.000176724
0.000361763
0.000368639
0.000197813
-0.000145283
-0.000650505
-0.00130349
-0.00208644
-0.0029796
-0.00396173
-0.00500457
-0.00608138
-0.00726121
-0.00860688
-0.00573747
-0.00664003
-0.00734466
-0.00791494
-0.00842774
-0.00889067
-0.00931039
-0.00969801
-0.0100638
-0.0104168
-0.0107646
-0.0111139
-0.01147
-0.0118373
-0.0122189
-0.0126168
-0.0130323
-0.0134655
-0.0139156
-0.0143812
-0.0148601
-0.015349
-0.0158443
-0.0163415
-0.0168356
-0.0173208
-0.0177911
-0.0182395
-0.0186589
-0.0190417
-0.01938
-0.0196657
-0.0198904
-0.0200462
-0.0201249
-0.0201188
-0.0200208
-0.0198246
-0.0195247
-0.0191169
-0.0185985
-0.0179684
-0.0172275
-0.0163792
-0.0154289
-0.014385
-0.0132584
-0.012063
-0.0108155
-0.00953512
-0.00824373
-0.00696509
-0.00572455
-0.00454828
-0.00346256
-0.00249281
-0.00166264
-0.000992902
-0.0005007
-0.000198577
-9.38571e-05
-0.000188223
-0.0004776
-0.000952353
-0.00159777
-0.00239494
-0.00332236
-0.00435657
-0.00546618
-0.00662139
-0.00789724
-0.00936169
-0.00700798
-0.00790957
-0.00861452
-0.00918646
-0.00970233
-0.0101699
-0.0105962
-0.0109926
-0.0113695
-0.0117361
-0.0121004
-0.0124691
-0.0128478
-0.013241
-0.0136518
-0.0140824
-0.014534
-0.0150069
-0.0155003
-0.0160127
-0.0165417
-0.0170843
-0.0176364
-0.0181935
-0.0187503
-0.0193009
-0.0198386
-0.0203563
-0.0208462
-0.0213003
-0.0217099
-0.0220661
-0.0223598
-0.022582
-0.0227235
-0.0227755
-0.0227296
-0.0225783
-0.0223146
-0.0219331
-0.0214295
-0.0208015
-0.0200488
-0.0191733
-0.0181797
-0.0170754
-0.0158709
-0.0145801
-0.0132198
-0.0118102
-0.0103744
-0.00893816
-0.00752924
-0.00617691
-0.00491102
-0.00376097
-0.00275465
-0.00191728
-0.00127027
-0.000830154
-0.00060772
-0.000607418
-0.000827066
-0.00125796
-0.00188531
-0.00268922
-0.00364643
-0.00473111
-0.00590844
-0.00714523
-0.0085229
-0.0101148
-0.00837176
-0.00926955
-0.00997279
-0.0105449
-0.0110627
-0.0115341
-0.0119663
-0.0123708
-0.0127585
-0.0131385
-0.0135192
-0.0139074
-0.0143089
-0.0147282
-0.0151687
-0.0156326
-0.0161213
-0.016635
-0.017173
-0.0177338
-0.018315
-0.0189133
-0.0195249
-0.0201449
-0.0207679
-0.0213876
-0.021997
-0.0225887
-0.0231544
-0.0236853
-0.0241723
-0.0246056
-0.0249753
-0.0252713
-0.0254835
-0.0256017
-0.0256164
-0.0255185
-0.0252998
-0.0249532
-0.024473
-0.0238552
-0.0230981
-0.0222022
-0.0211709
-0.0200107
-0.0187312
-0.0173459
-0.0158717
-0.0143294
-0.0127431
-0.0111404
-0.00955155
-0.00800888
-0.00654597
-0.00519651
-0.00399309
-0.00296584
-0.00214112
-0.00154016
-0.00117798
-0.00106252
-0.00119414
-0.00156558
-0.0021624
-0.00296387
-0.00394503
-0.00507756
-0.00632289
-0.00764409
-0.00912937
-0.0108578
-0.00982723
-0.0107185
-0.0114181
-0.0119891
-0.0125077
-0.0129819
-0.0134193
-0.0138313
-0.0142292
-0.0146222
-0.0150189
-0.0154264
-0.0158504
-0.0162959
-0.0167661
-0.0172637
-0.0177898
-0.018345
-0.0189285
-0.0195388
-0.0201737
-0.0208297
-0.021503
-0.0221884
-0.0228805
-0.0235727
-0.0242578
-0.0249278
-0.025574
-0.0261872
-0.0267575
-0.0272743
-0.0277269
-0.0281041
-0.0283947
-0.0285874
-0.0286713
-0.0286358
-0.0284712
-0.0281687
-0.027721
-0.0271225
-0.0263696
-0.0254613
-0.0243995
-0.0231892
-0.0218392
-0.0203622
-0.0187747
-0.0170979
-0.0153567
-0.0135803
-0.0118012
-0.0100549
-0.00837863
-0.00681073
-0.00538883
-0.00414853
-0.0031218
-0.00233537
-0.00180931
-0.00155587
-0.00157874
-0.00187281
-0.00242443
-0.00321238
-0.0042101
-0.00538667
-0.00669949
-0.00810748
-0.00970607
-0.0115802
-0.0113723
-0.0122546
-0.0129488
-0.0135173
-0.0140356
-0.0145117
-0.0149533
-0.0153722
-0.0157795
-0.0161849
-0.016597
-0.017023
-0.0174691
-0.0179402
-0.0184399
-0.0189708
-0.0195343
-0.0201311
-0.0207605
-0.0214211
-0.0221105
-0.0228255
-0.023562
-0.024315
-0.0250786
-0.0258463
-0.0266103
-0.0273625
-0.0280937
-0.0287941
-0.029453
-0.0300594
-0.0306014
-0.0310669
-0.0314436
-0.031719
-0.0318807
-0.0319167
-0.0318155
-0.0315668
-0.0311614
-0.0305918
-0.0298526
-0.028941
-0.0278571
-0.0266043
-0.02519
-0.0236257
-0.0219277
-0.0201165
-0.0182181
-0.0162625
-0.0142845
-0.0123225
-0.0104176
-0.00861278
-0.00695103
-0.00547398
-0.00421987
-0.00322174
-0.00250564
-0.00208909
-0.00198003
-0.0021763
-0.0026657
-0.00342695
-0.00443206
-0.00564749
-0.00702632
-0.00852293
-0.0102403
-0.0122697
-0.0130043
-0.0138755
-0.0145627
-0.0151276
-0.0156444
-0.0161215
-0.0165665
-0.0169912
-0.017407
-0.0178237
-0.0182501
-0.0186937
-0.0191608
-0.0196565
-0.0201847
-0.0207481
-0.0213485
-0.0219864
-0.0226614
-0.0233722
-0.0241165
-0.0248912
-0.0256919
-0.0265138