/*--------------------------------*- C++ -*----------------------------------*\
  =========                 |
  \\      /  F ield         | OpenFOAM: The Open Source CFD Toolbox
   \\    /   O peration     | Website:  https://openfoam.org
    \\  /    A nd           | Version:  dev
     \\/     M anipulation  |
\*---------------------------------------------------------------------------*/
FoamFile
{
    format      ascii;
    class       volVectorField;
    location    "29.7";
    object      U;
}
// * * * * * * * * * * * * * * * * * * * * * * * * * * * * * * * * * * * * * //

dimensions      [0 1 -1 0 0 0 0];

internalField   nonuniform List<vector> 
5184
(
(1.22493e-05 -1.27825e-05 0)
(4.50468e-05 -2.09297e-05 0)
(8.02612e-05 -1.72624e-05 0)
(9.59453e-05 -8.20092e-06 0)
(8.21269e-05 2.66692e-06 0)
(3.64368e-05 1.36157e-05 0)
(-4.05724e-05 2.38441e-05 0)
(-0.000146879 3.30461e-05 0)
(-0.00027969 4.11024e-05 0)
(-0.000435951 4.80193e-05 0)
(-0.00061254 5.38588e-05 0)
(-0.000806424 5.87061e-05 0)
(-0.00101474 6.26535e-05 0)
(-0.00123481 6.57919e-05 0)
(-0.00146418 6.8206e-05 0)
(-0.0017006 6.99712e-05 0)
(-0.001942 7.1152e-05 0)
(-0.00218645 7.18008e-05 0)
(-0.00243218 7.19584e-05 0)
(-0.0026775 7.16544e-05 0)
(-0.0029208 7.0908e-05 0)
(-0.00316053 6.97298e-05 0)
(-0.00339515 6.81228e-05 0)
(-0.00362315 6.60839e-05 0)
(-0.00384299 6.36058e-05 0)
(-0.00405314 6.0679e-05 0)
(-0.00425203 5.72929e-05 0)
(-0.0044381 5.34378e-05 0)
(-0.00460977 4.91067e-05 0)
(-0.00476546 4.42965e-05 0)
(-0.0049036 3.90098e-05 0)
(-0.00502268 3.32558e-05 0)
(-0.00512124 2.70517e-05 0)
(-0.00519789 2.04235e-05 0)
(-0.00525139 1.34068e-05 0)
(-0.0052806 6.04736e-06 0)
(-0.0052846 -1.59866e-06 0)
(-0.00526264 -9.46485e-06 0)
(-0.00521424 -1.74747e-05 0)
(-0.00513916 -2.55424e-05 0)
(-0.00503746 -3.35735e-05 0)
(-0.00490951 -4.14665e-05 0)
(-0.00475604 -4.91142e-05 0)
(-0.00457808 -5.64057e-05 0)
(-0.00437704 -6.32282e-05 0)
(-0.00415468 -6.947e-05 0)
(-0.00391309 -7.50223e-05 0)
(-0.00365469 -7.97822e-05 0)
(-0.00338222 -8.3655e-05 0)
(-0.00309868 -8.6557e-05 0)
(-0.00280729 -8.84176e-05 0)
(-0.0025115 -8.91817e-05 0)
(-0.00221487 -8.88111e-05 0)
(-0.00192105 -8.72858e-05 0)
(-0.00163371 -8.46056e-05 0)
(-0.00135651 -8.07898e-05 0)
(-0.00109296 -7.58777e-05 0)
(-0.000846458 -6.9928e-05 0)
(-0.000620132 -6.30184e-05 0)
(-0.000416837 -5.5245e-05 0)
(-0.000239072 -4.67218e-05 0)
(-8.89152e-05 -3.75815e-05 0)
(3.2046e-05 -2.79791e-05 0)
(0.000122797 -1.80972e-05 0)
(0.000183006 -8.16143e-06 0)
(0.000213175 1.53359e-06 0)
(0.00021489 1.05647e-05 0)
(0.000191201 1.82952e-05 0)
(0.000147136 2.37133e-05 0)
(9.07888e-05 2.51268e-05 0)
(3.6625e-05 1.98496e-05 0)
(6.22653e-06 6.24487e-06 0)
(2.07994e-05 -4.59933e-05 0)
(6.55341e-05 -6.57811e-05 0)
(9.46397e-05 -4.0589e-05 0)
(7.27509e-05 7.62025e-06 0)
(-1.89715e-05 6.56681e-05 0)
(-0.00018734 0.000125977 0)
(-0.000432937 0.000184276 0)
(-0.000752546 0.000238318 0)
(-0.00114062 0.000286961 0)
(-0.00159037 0.000329763 0)
(-0.00209447 0.000366687 0)
(-0.00264545 0.000397923 0)
(-0.00323602 0.000423782 0)
(-0.00385918 0.000444631 0)
(-0.00450832 0.000460846 0)
(-0.00517725 0.000472787 0)
(-0.00586017 0.000480775 0)
(-0.00655164 0.000485086 0)
(-0.00724653 0.000485944 0)
(-0.00793994 0.000483521 0)
(-0.00862718 0.000477937 0)
(-0.0093037 0.000469269 0)
(-0.00996502 0.000457555 0)
(-0.0106067 0.000442805 0)
(-0.0112244 0.000425007 0)
(-0.0118137 0.000404137 0)
(-0.0123701 0.000380172 0)
(-0.0128892 0.000353093 0)
(-0.0133667 0.000322902 0)
(-0.0137983 0.000289626 0)
(-0.0141796 0.000253324 0)
(-0.0145066 0.0002141 0)
(-0.0147754 0.000172103 0)
(-0.0149824 0.000127537 0)
(-0.0151242 8.06607e-05 0)
(-0.0151981 3.17933e-05 0)
(-0.0152016 -1.86865e-05 0)
(-0.0151331 -7.03404e-05 0)
(-0.0149914 -0.000122674 0)
(-0.014776 -0.000175139 0)
(-0.0144874 -0.000227142 0)
(-0.0141269 -0.000278051 0)
(-0.0136965 -0.000327205 0)
(-0.0131993 -0.000373924 0)
(-0.0126392 -0.000417525 0)
(-0.012021 -0.000457333 0)
(-0.0113506 -0.000492694 0)
(-0.0106346 -0.000522995 0)
(-0.00988027 -0.000547675 0)
(-0.00909579 -0.000566238 0)
(-0.00828985 -0.000578272 0)
(-0.00747162 -0.000583458 0)
(-0.00665063 -0.00058158 0)
(-0.00583662 -0.000572535 0)
(-0.00503937 -0.000556338 0)
(-0.00426855 -0.000533129 0)
(-0.00353354 -0.00050317 0)
(-0.00284326 -0.000466851 0)
(-0.00220598 -0.000424687 0)
(-0.00162919 -0.000377319 0)
(-0.00111937 -0.000325513 0)
(-0.0006818 -0.000270176 0)
(-0.000320406 -0.000212367 0)
(-3.74714e-05 -0.000153338 0)
(0.000166638 -9.46018e-05 0)
(0.000293843 -3.80354e-05 0)
(0.000348892 1.39021e-05 0)
(0.000340052 5.79063e-05 0)
(0.000279814 8.9386e-05 0)
(0.000186027 0.000101846 0)
(8.63562e-05 8.65153e-05 0)
(1.96763e-05 3.64894e-05 0)
(1.76147e-05 -8.13527e-05 0)
(4.12811e-05 -9.5077e-05 0)
(1.95437e-05 -1.91646e-05 0)
(-8.40494e-05 0.000105905 0)
(-0.000290284 0.000254621 0)
(-0.000607906 0.000410543 0)
(-0.00103818 0.000563361 0)
(-0.00157729 0.000706942 0)
(-0.00221808 0.00083784 0)
(-0.00295136 0.000954345 0)
(-0.00376684 0.00105586 0)
(-0.00465382 0.00114249 0)
(-0.00560159 0.00121474 0)
(-0.00659967 0.00127333 0)
(-0.00763802 0.0013191 0)
(-0.00870708 0.00135286 0)
(-0.00979776 0.00137537 0)
(-0.0109015 0.00138733 0)
(-0.01201 0.00138928 0)
(-0.0131155 0.00138168 0)
(-0.0142104 0.00136485 0)
(-0.0152873 0.00133901 0)
(-0.016339 0.00130429 0)
(-0.0173583 0.00126076 0)
(-0.0183383 0.00120842 0)
(-0.0192717 0.00114727 0)
(-0.0201517 0.00107729 0)
(-0.0209713 0.000998506 0)
(-0.0217235 0.000910973 0)
(-0.0224016 0.000814833 0)
(-0.022999 0.000710318 0)
(-0.0235095 0.000597771 0)
(-0.0239271 0.000477668 0)
(-0.0242463 0.000350622 0)
(-0.0244623 0.000217399 0)
(-0.0245709 7.89226e-05 0)
(-0.0245685 -6.37274e-05 0)
(-0.0244528 -0.000209316 0)
(-0.0242222 -0.000356459 0)
(-0.0238764 -0.000503641 0)
(-0.0234162 -0.000649226 0)
(-0.0228438 -0.000791481 0)
(-0.0221626 -0.000928604 0)
(-0.0213775 -0.00105875 0)
(-0.0204947 -0.00118008 0)
(-0.0195218 -0.00129076 0)
(-0.0184678 -0.00138904 0)
(-0.0173429 -0.00147328 0)
(-0.0161585 -0.00154197 0)
(-0.0149269 -0.0015938 0)
(-0.0136616 -0.00162768 0)
(-0.0123765 -0.00164276 0)
(-0.0110862 -0.00163849 0)
(-0.00980552 -0.00161459 0)
(-0.00854934 -0.00157115 0)
(-0.00733238 -0.00150857 0)
(-0.00616886 -0.00142758 0)
(-0.00507233 -0.0013293 0)
(-0.00405533 -0.00121516 0)
(-0.00312912 -0.00108698 0)
(-0.00230345 -0.000946931 0)
(-0.00158621 -0.000797574 0)
(-0.000983128 -0.000641919 0)
(-0.000497449 -0.000483497 0)
(-0.000129481 -0.000326507 0)
(0.000123845 -0.000176036 0)
(0.000269624 -3.84009e-05 0)
(0.000319702 7.83816e-05 0)
(0.000291208 0.000164017 0)
(0.000207366 0.000205341 0)
(0.000102436 0.000186249 0)
(2.49723e-05 9.03858e-05 0)
(8.82865e-06 -9.77506e-05 0)
(-7.03792e-06 -7.31631e-05 0)
(-0.000107611 8.47567e-05 0)
(-0.000322379 0.000318319 0)
(-0.000669585 0.000590025 0)
(-0.00115763 0.000874251 0)
(-0.00178727 0.00115397 0)
(-0.00255373 0.00141839 0)
(-0.00344847 0.00166106 0)
(-0.00446047 0.00187842 0)
(-0.00557724 0.00206894 0)
(-0.00678558 0.00223235 0)
(-0.00807209 0.00236922 0)
(-0.0094235 0.00248059 0)
(-0.0108269 0.00256771 0)
(-0.0122699 0.00263194 0)
(-0.0137406 0.00267454 0)
(-0.0152276 0.00269668 0)
(-0.0167199 0.00269932 0)
(-0.018207 0.00268326 0)
(-0.0196786 0.0026491 0)
(-0.0211249 0.00259726 0)
(-0.022536 0.00252801 0)
(-0.0239023 0.00244151 0)
(-0.0252143 0.00233785 0)
(-0.0264625 0.00221706 0)
(-0.0276375 0.0020792 0)
(-0.0287301 0.00192438 0)
(-0.0297311 0.00175281 0)
(-0.0306318 0.00156483 0)
(-0.0314234 0.00136097 0)
(-0.0320979 0.00114197 0)
(-0.0326475 0.000908805 0)
(-0.0330653 0.000662707 0)
(-0.0333451 0.000405191 0)
(-0.0334816 0.00013806 0)
(-0.0334705 -0.000136599 0)
(-0.0333088 -0.000416415 0)
(-0.0329949 -0.000698753 0)
(-0.0325286 -0.000980737 0)
(-0.0319112 -0.00125928 0)
(-0.0311457 -0.00153113 0)
(-0.0302368 -0.0017929 0)
(-0.0291911 -0.00204116 0)
(-0.0280168 -0.00227246 0)
(-0.026724 -0.00248341 0)
(-0.0253243 -0.00267076 0)
(-0.023831 -0.00283147 0)
(-0.0222591 -0.00296276 0)
(-0.0206245 -0.0030622 0)
(-0.0189445 -0.00312778 0)
(-0.0172373 -0.00315796 0)
(-0.0155216 -0.0031517 0)
(-0.0138165 -0.00310856 0)
(-0.0121414 -0.00302869 0)
(-0.0105151 -0.00291288 0)
(-0.008956 -0.00276255 0)
(-0.00748151 -0.0025798 0)
(-0.00610778 -0.0023674 0)
(-0.0048493 -0.0021288 0)
(-0.00371857 -0.00186813 0)
(-0.0027257 -0.00159031 0)
(-0.00187801 -0.00130104 0)
(-0.00117963 -0.001007 0)
(-0.000631047 -0.000715989 0)
(-0.000228546 -0.000437295 0)
(3.6345e-05 -0.000182056 0)
(0.00017752 3.61184e-05 0)
(0.000214701 0.000200512 0)
(0.000174054 0.000290735 0)
(9.30114e-05 0.000282497 0)
(2.40233e-05 0.000147263 0)
(-2.13022e-06 -8.44014e-05 0)
(-6.73028e-05 2.0893e-05 0)
(-0.00026411 0.000295419 0)
(-0.000609736 0.000667954 0)
(-0.00111668 0.0010907 0)
(-0.00179114 0.00152973 0)
(-0.00263214 0.00196163 0)
(-0.00363329 0.00237091 0)
(-0.00478448 0.00274785 0)
(-0.00607298 0.00308682 0)
(-0.00748446 0.00338506 0)
(-0.00900366 0.00364173 0)
(-0.010615 0.0038573 0)
(-0.0123029 0.00403301 0)
(-0.0140521 0.00417052 0)
(-0.0158478 0.00427165 0)
(-0.0176755 0.0043382 0)
(-0.0195215 0.0043718 0)
(-0.0213725 0.00437388 0)
(-0.0232153 0.00434562 0)
(-0.0250376 0.00428792 0)
(-0.0268268 0.00420144 0)
(-0.028571 0.00408665 0)
(-0.0302582 0.00394383 0)
(-0.0318767 0.00377318 0)
(-0.0334149 0.00357486 0)
(-0.0348611 0.00334904 0)
(-0.0362042 0.00309602 0)
(-0.037433 0.00281622 0)
(-0.0385367 0.00251032 0)
(-0.0395051 0.00217925 0)
(-0.0403284 0.0018243 0)
(-0.0409974 0.00144711 0)
(-0.0415038 0.00104974 0)
(-0.0418403 0.000634651 0)
(-0.0420009 0.000204779 0)
(-0.0419805 -0.000236521 0)
(-0.041776 -0.000685462 0)
(-0.0413853 -0.00113786 0)
(-0.0408087 -0.00158915 0)
(-0.0400478 -0.00203447 0)
(-0.0391067 -0.00246871 0)
(-0.037991 -0.00288656 0)
(-0.0367088 -0.00328266 0)
(-0.0352701 -0.00365161 0)
(-0.033687 -0.00398815 0)
(-0.0319736 -0.00428722 0)
(-0.0301459 -0.00454407 0)
(-0.0282216 -0.00475441 0)
(-0.02622 -0.00491447 0)
(-0.0241616 -0.00502113 0)
(-0.0220681 -0.00507199 0)
(-0.0199618 -0.00506549 0)
(-0.0178658 -0.00500094 0)
(-0.0158027 -0.00487861 0)
(-0.0137953 -0.00469974 0)
(-0.0118654 -0.00446663 0)
(-0.0100338 -0.00418257 0)
(-0.00831982 -0.00385196 0)
(-0.00674076 -0.00348026 0)
(-0.00531156 -0.00307403 0)
(-0.00404435 -0.00264102 0)
(-0.002948 -0.00219021 0)
(-0.00202766 -0.00173202 0)
(-0.00128427 -0.0012785 0)
(-0.000714059 -0.000843684 0)
(-0.000308047 -0.000444068 0)
(-5.14645e-05 -9.92079e-05 0)
(7.65653e-05 0.000167559 0)
(0.000103544 0.000328504 0)
(6.7487e-05 0.000350893 0)
(1.96617e-05 0.000194104 0)
(-1.36961e-05 -3.75144e-05 0)
(-0.00013283 0.000197362 0)
(-0.000435797 0.000626853 0)
(-0.000924557 0.00117023 0)
(-0.00160374 0.00177153 0)
(-0.00247591 0.00238992 0)
(-0.00353723 0.00299634 0)
(-0.00477899 0.00357098 0)
(-0.00618911 0.00410102 0)
(-0.00775307 0.00457867 0)
(-0.00945474 0.00499987 0)
(-0.0112771 0.00536313 0)
(-0.0132025 0.00566869 0)
(-0.0152137 0.00591791 0)
(-0.0172931 0.00611277 0)
(-0.0194241 0.00625554 0)
(-0.02159 0.00634851 0)
(-0.0237749 0.00639379 0)
(-0.0259634 0.00639327 0)
(-0.0281404 0.0063485 0)
(-0.0302911 0.00626073 0)
(-0.0324011 0.00613087 0)
(-0.0344563 0.00595961 0)
(-0.0364427 0.00574742 0)
(-0.0383465 0.00549464 0)
(-0.0401541 0.0052016 0)
(-0.0418521 0.00486868 0)
(-0.0434273 0.00449641 0)
(-0.044867 0.00408555 0)
(-0.0461587 0.00363718 0)
(-0.0472906 0.00315281 0)
(-0.0482514 0.00263439 0)
(-0.0490307 0.00208439 0)
(-0.0496192 0.00150586 0)
(-0.0500087 0.000902454 0)
(-0.0501922 0.000278417 0)
(-0.0501644 -0.000361386 0)
(-0.0499215 -0.0010115 0)
(-0.0494618 -0.00166592 0)
(-0.0487855 -0.00231815 0)
(-0.0478948 -0.00296125 0)
(-0.0467943 -0.00358796 0)
(-0.0454908 -0.00419078 0)
(-0.0439936 -0.0047621 0)
(-0.0423141 -0.00529431 0)
(-0.0404663 -0.00577998 0)
(-0.0384663 -0.00621198 0)
(-0.0363324 -0.00658363 0)
(-0.0340847 -0.00688889 0)
(-0.0317452 -0.00712244 0)
(-0.0293374 -0.0072799 0)
(-0.026886 -0.0073579 0)
(-0.0244164 -0.00735423 0)
(-0.0219548 -0.00726794 0)
(-0.0195272 -0.00709941 0)
(-0.0171595 -0.00685044 0)
(-0.0148767 -0.00652425 0)
(-0.0127026 -0.00612557 0)
(-0.0106593 -0.00566063 0)
(-0.00876674 -0.00513721 0)
(-0.00704213 -0.00456466 0)
(-0.0054996 -0.00395394 0)
(-0.00414961 -0.00331776 0)
(-0.00299853 -0.00267072 0)
(-0.00204815 -0.00202954 0)
(-0.00129518 -0.00141341 0)
(-0.000730851 -0.000844466 0)
(-0.000340444 -0.000348385 0)
(-0.000103003 4.48594e-05 0)
(9.10596e-06 0.000300327 0)
(3.24772e-05 0.000377209 0)
(1.36172e-05 0.00022447 0)
(-2.5184e-05 4.41103e-05 0)
(-0.000199993 0.000461252 0)
(-0.000614016 0.00108697 0)
(-0.00125276 0.00183452 0)
(-0.00211177 0.00264205 0)
(-0.00318888 0.00346333 0)
(-0.00447653 0.00426472 0)
(-0.00596301 0.00502278 0)
(-0.00763381 0.0057219 0)
(-0.00947239 0.00635239 0)
(-0.0114608 0.00690894 0)
(-0.0135801 0.00738938 0)
(-0.0158113 0.00779373 0)
(-0.0181349 0.00812342 0)
(-0.0205321 0.00838071 0)
(-0.022984 0.00856827 0)
(-0.0254725 0.00868883 0)
(-0.0279797 0.00874499 0)
(-0.0304882 0.00873907 0)
(-0.0329811 0.00867301 0)
(-0.0354419 0.00854838 0)
(-0.0378542 0.00836639 0)
(-0.040202 0.00812796 0)
(-0.0424696 0.00783376 0)
(-0.0446413 0.00748434 0)
(-0.0467018 0.00708025 0)
(-0.048636 0.00662213 0)
(-0.0504291 0.00611082 0)
(-0.0520668 0.0055475 0)
(-0.0535351 0.0049338 0)
(-0.0548208 0.00427185 0)
(-0.0559115 0.00356443 0)
(-0.0567957 0.002815 0)
(-0.057463 0.00202775 0)
(-0.0579044 0.00120768 0)
(-0.0581122 0.000360556 0)
(-0.0580808 -0.000507049 0)
(-0.057806 -0.00138781 0)
(-0.0572861 -0.00227367 0)
(-0.0565213 -0.00315595 0)
(-0.0555142 -0.00402543 0)
(-0.05427 -0.00487243 0)
(-0.0527964 -0.00568701 0)
(-0.0511034 -0.00645908 0)
(-0.0492041 -0.00717857 0)
(-0.0471137 -0.00783564 0)
(-0.0448501 -0.00842086 0)
(-0.0424334 -0.00892541 0)
(-0.039886 -0.00934127 0)
(-0.0372322 -0.00966142 0)
(-0.034498 -0.00988005 0)
(-0.0317106 -0.00999268 0)
(-0.0288984 -0.00999638 0)
(-0.0260901 -0.00988987 0)
(-0.023315 -0.00967363 0)
(-0.0206016 -0.00935002 0)
(-0.0179779 -0.00892331 0)
(-0.0154704 -0.00839976 0)
(-0.013104 -0.00778764 0)
(-0.0109011 -0.00709726 0)
(-0.00888108 -0.006341 0)
(-0.00706022 -0.00553338 0)
(-0.00545071 -0.00469113 0)
(-0.0040604 -0.00383335 0)
(-0.00289229 -0.00298173 0)
(-0.00194409 -0.00216087 0)
(-0.00120786 -0.00139868 0)
(-0.000669659 -0.000727025 0)
(-0.000309285 -0.000182379 0)
(-9.99045e-05 0.000193448 0)
(-7.73348e-06 0.000352341 0)
(6.85683e-06 0.000234929 0)
(-3.6336e-05 0.000160469 0)
(-0.000266908 0.000814434 0)
(-0.000793647 0.00167956 0)
(-0.00158542 0.00266586 0)
(-0.00262807 0.00370765 0)
(-0.00391404 0.00475489 0)
(-0.00543135 0.00577056 0)
(-0.00716473 0.00672837 0)
(-0.00909686 0.00761054 0)
(-0.0112089 0.00840578 0)
(-0.0134808 0.00910776 0)
(-0.0158921 0.00971377 0)
(-0.0184218 0.0102236 0)
(-0.0210492 0.0106388 0)
(-0.0237535 0.010962 0)
(-0.0265146 0.011196 0)
(-0.0293126 0.0113442 0)
(-0.032128 0.0114096 0)
(-0.034942 0.0113948 0)
(-0.0377358 0.0113023 0)
(-0.0404914 0.0111339 0)
(-0.0431907 0.0108911 0)
(-0.0458161 0.0105751 0)
(-0.0483503 0.0101868 0)
(-0.050776 0.00972693 0)
(-0.0530763 0.0091964 0)
(-0.0552347 0.00859611 0)
(-0.0572349 0.0079273 0)
(-0.0590611 0.00719164 0)
(-0.0606982 0.00639137 0)
(-0.0621317 0.0055294 0)
(-0.063348 0.00460942 0)
(-0.0643346 0.00363601 0)
(-0.0650803 0.00261464 0)
(-0.0655752 0.00155181 0)
(-0.0658113 0.000454958 0)
(-0.0657821 -0.000667463 0)
(-0.0654834 -0.00180607 0)
(-0.0649132 -0.00295058 0)
(-0.0640717 -0.00408995 0)
(-0.0629619 -0.00521242 0)
(-0.0615893 -0.00630576 0)
(-0.0599621 -0.00735732 0)
(-0.0580913 -0.00835434 0)
(-0.0559908 -0.00928407 0)
(-0.0536772 -0.010134 0)
(-0.0511696 -0.0108923 0)
(-0.0484899 -0.0115478 0)
(-0.0456623 -0.0120901 0)
(-0.042713 -0.0125106 0)
(-0.0396702 -0.0128016 0)
(-0.0365635 -0.0129577 0)
(-0.0334238 -0.0129748 0)
(-0.0302824 -0.0128515 0)
(-0.0271712 -0.0125881 0)
(-0.0241214 -0.0121877 0)
(-0.0211638 -0.0116555 0)
(-0.0183277 -0.0109995 0)
(-0.0156403 -0.0102301 0)
(-0.0131267 -0.00936022 0)
(-0.0108088 -0.00840554 0)
(-0.00870477 -0.00738433 0)
(-0.00682893 -0.00631758 0)
(-0.00519088 -0.00522912 0)
(-0.00379522 -0.0041458 0)
(-0.00264112 -0.00309775 0)
(-0.00172199 -0.00211879 0)
(-0.00102527 -0.00124687 0)
(-0.000532141 -0.000524779 0)
(-0.000217248 -7.35261e-07 0)
(-5.0477e-05 0.000270724 0)
(-8.79343e-08 0.000223777 0)
(-4.70547e-05 0.000310924 0)
(-0.00033259 0.00125682 0)
(-0.000971693 0.00240557 0)
(-0.00191691 0.00366609 0)
(-0.00314424 0.00497063 0)
(-0.00464032 0.00626685 0)
(-0.00638833 0.00751549 0)
(-0.00836899 0.00868837 0)
(-0.0105618 0.00976615 0)
(-0.0129454 0.0107365 0)
(-0.0154976 0.0115923 0)
(-0.0181959 0.0123305 0)
(-0.021018 0.0129509 0)
(-0.0239414 0.0134553 0)
(-0.026944 0.0138463 0)
(-0.0300042 0.0141274 0)
(-0.0331007 0.0143023 0)
(-0.0362127 0.0143745 0)
(-0.0393199 0.014347 0)
(-0.0424021 0.0142225 0)
(-0.0454399 0.0140033 0)
(-0.0484138 0.0136913 0)
(-0.0513047 0.0132877 0)
(-0.0540939 0.0127937 0)
(-0.0567627 0.0122105 0)
(-0.059293 0.0115391 0)
(-0.0616667 0.0107808 0)
(-0.0638663 0.00993736 0)
(-0.0658749 0.00901094 0)
(-0.067676 0.00800449 0)
(-0.0692542 0.00692177 0)
(-0.0705947 0.0057675 0)
(-0.0716842 0.00454745 0)
(-0.0725106 0.00326851 0)
(-0.0730633 0.00193878 0)
(-0.0733335 0.000567528 0)
(-0.0733144 -0.000834799 0)
(-0.0730013 -0.0022566 0)
(-0.072392 -0.00368523 0)
(-0.0714866 -0.00510709 0)
(-0.0702881 -0.00650776 0)
(-0.0688022 -0.0078722 0)
(-0.0670375 -0.00918496 0)
(-0.0650056 -0.0104303 0)
(-0.0627211 -0.0115928 0)
(-0.0602014 -0.0126569 0)
(-0.057467 -0.0136082 0)
(-0.0545409 -0.0144328 0)
(-0.051449 -0.0151183 0)
(-0.0482192 -0.0156536 0)
(-0.0448817 -0.0160296 0)
(-0.0414681 -0.0162392 0)
(-0.0380116 -0.0162776 0)
(-0.0345459 -0.0161427 0)
(-0.0311055 -0.0158348 0)
(-0.0277243 -0.0153575 0)
(-0.0244356 -0.0147172 0)
(-0.0212715 -0.0139234 0)
(-0.018262 -0.0129887 0)
(-0.0154345 -0.0119289 0)
(-0.0128136 -0.010763 0)
(-0.0104199 -0.00951326 0)
(-0.00826989 -0.00820502 0)
(-0.00637531 -0.00686703 0)
(-0.00474272 -0.00553143 0)
(-0.00337317 -0.00423401 0)
(-0.00226188 -0.00301445 0)
(-0.00139814 -0.00191676 0)
(-0.000764997 -0.000989801 0)
(-0.000339021 -0.000287746 0)
(-9.41945e-05 0.00012925 0)
(-6.94674e-06 0.000190361 0)
(-5.73274e-05 0.000494572 0)
(-0.000396557 0.00178717 0)
(-0.00114642 0.00326414 0)
(-0.00224372 0.00483485 0)
(-0.00365471 0.00643098 0)
(-0.00536007 0.00799923 0)
(-0.00733788 0.00949927 0)
(-0.00956456 0.0109019 0)
(-0.0120162 0.012187 0)
(-0.0146685 0.0133416 0)
(-0.0174972 0.0143584 0)
(-0.0204779 0.0152343 0)
(-0.0235865 0.0159691 0)
(-0.0267989 0.0165649 0)
(-0.0300919 0.0170249 0)
(-0.0334425 0.0173528 0)
(-0.0368282 0.0175528 0)
(-0.0402268 0.0176288 0)
(-0.0436169 0.0175843 0)
(-0.0469772 0.0174224 0)
(-0.0502868 0.0171456 0)
(-0.0535252 0.016756 0)
(-0.056672 0.0162553 0)
(-0.0597072 0.0156449 0)
(-0.062611 0.0149261 0)
(-0.065364 0.0141004 0)
(-0.0679469 0.0131695 0)
(-0.0703412 0.0121356 0)
(-0.0725287 0.0110014 0)
(-0.074492 0.00977076 0)
(-0.0762145 0.00844822 0)
(-0.0776806 0.00703962 0)
(-0.0788761 0.00555203 0)
(-0.0797879 0.00399384 0)
(-0.0804048 0.00237484 0)
(-0.0807173 0.000706203 0)
(-0.080718 -0.000999492 0)
(-0.0804017 -0.00272833 0)
(-0.0797657 -0.00446516 0)
(-0.07881 -0.00619371 0)
(-0.0775374 -0.00789674 0)
(-0.0759535 -0.00955629 0)
(-0.0740671 -0.0111539 0)
(-0.0718901 -0.0126708 0)
(-0.0694376 -0.0140883 0)
(-0.0667276 -0.0153882 0)
(-0.0637816 -0.0165528 0)
(-0.0606236 -0.0175658 0)
(-0.0572807 -0.0184119 0)
(-0.0537824 -0.019078 0)
(-0.0501606 -0.0195529 0)
(-0.046449 -0.0198279 0)
(-0.0426827 -0.0198971 0)
(-0.0388979 -0.0197576 0)
(-0.0351315 -0.0194099 0)
(-0.03142 -0.0188577 0)
(-0.0277996 -0.0181084 0)
(-0.0243049 -0.0171733 0)
(-0.0209688 -0.0160671 0)
(-0.0178217 -0.0148086 0)
(-0.0148906 -0.0134202 0)
(-0.012199 -0.0119281 0)
(-0.00976582 -0.0103622 0)
(-0.00760534 -0.00875624 0)
(-0.00572644 -0.00714786 0)
(-0.00413241 -0.0055785 0)
(-0.00282069 -0.00409376 0)
(-0.0017828 -0.00274362 0)
(-0.00100398 -0.00158283 0)
(-0.000463009 -0.000671125 0)
(-0.000138069 -7.36963e-05 0)
(-1.36038e-05 0.000134601 0)
(-6.71718e-05 0.00071038 0)
(-0.00045858 0.00240357 0)
(-0.00131681 0.00425318 0)
(-0.00256362 0.00617016 0)
(-0.00415577 0.0080869 0)
(-0.00606797 0.0099503 0)
(-0.00827307 0.01172 0)
(-0.0107431 0.0133667 0)
(-0.0134504 0.0148702 0)
(-0.0163679 0.0162176 0)
(-0.0194688 0.0174017 0)
(-0.0227268 0.0184198 0)
(-0.0261159 0.019272 0)
(-0.0296109 0.0199608 0)
(-0.0331871 0.0204899 0)
(-0.0368203 0.0208637 0)
(-0.0404868 0.0210867 0)
(-0.0441635 0.0211633 0)
(-0.0478279 0.0210974 0)
(-0.0514576 0.0208925 0)
(-0.0550306 0.0205514 0)
(-0.0585254 0.0200765 0)
(-0.0619206 0.0194697 0)
(-0.065195 0.0187328 0)
(-0.0683279 0.0178673 0)
(-0.0712986 0.0168751 0)
(-0.0740872 0.0157581 0)
(-0.0766738 0.0145192 0)
(-0.0790393 0.0131618 0)
(-0.0811653 0.0116904 0)
(-0.0830343 0.0101106 0)
(-0.0846299 0.00842925 0)
(-0.0859367 0.00665488 0)
(-0.086941 0.00479739 0)
(-0.0876307 0.00286832 0)
(-0.0879955 0.000880834 0)
(-0.0880274 -0.00115029 0)
(-0.0877206 -0.00320874 0)
(-0.0870717 -0.00527676 0)
(-0.0860803 -0.0073353 0)
(-0.0847489 -0.00936419 0)
(-0.0830827 -0.0113424 0)
(-0.0810906 -0.0132483 0)
(-0.0787843 -0.0150598 0)
(-0.0761792 -0.0167552 0)
(-0.0732938 -0.0183129 0)
(-0.07015 -0.0197123 0)
(-0.0667728 -0.0209337 0)
(-0.0631903 -0.0219595 0)
(-0.0594333 -0.0227738 0)
(-0.0555352 -0.0233632 0)
(-0.0515316 -0.0237173 0)
(-0.0474597 -0.0238288 0)
(-0.043358 -0.0236939 0)
(-0.0392656 -0.0233128 0)
(-0.035222 -0.0226895 0)
(-0.0312661 -0.0218324 0)
(-0.0274354 -0.0207542 0)
(-0.0237658 -0.0194719 0)
(-0.0202907 -0.0180071 0)
(-0.0170403 -0.0163857 0)
(-0.0140408 -0.014638 0)
(-0.0113143 -0.0127986 0)
(-0.00887774 -0.0109064 0)
(-0.00674273 -0.00900427 0)
(-0.00491519 -0.00713966 0)
(-0.00339513 -0.00536403 0)
(-0.00217658 -0.00373333 0)
(-0.00124725 -0.00230805 0)
(-0.0005882 -0.00115332 0)
(-0.000181774 -0.000338952 0)
(-2.00328e-05 5.66662e-05 0)
(-7.66125e-05 0.000957272 0)
(-0.000518556 0.00310374 0)
(-0.00148228 0.00536979 0)
(-0.00287517 0.00766893 0)
(-0.00464487 0.00993524 0)
(-0.0067602 0.0121169 0)
(-0.00918879 0.0141744 0)
(-0.0118981 0.0160792 0)
(-0.0148569 0.0178118 0)
(-0.018035 0.01936 0)
(-0.0214031 0.0207173 0)
(-0.0249329 0.0218814 0)
(-0.0285967 0.0228533 0)
(-0.0323678 0.0236362 0)
(-0.0362203 0.0242342 0)
(-0.0401288 0.0246525 0)
(-0.0440688 0.0248961 0)
(-0.0480161 0.0249699 0)
(-0.0519472 0.0248783 0)
(-0.055839 0.0246251 0)
(-0.0596685 0.0242134 0)
(-0.0634132 0.023646 0)
(-0.067051 0.0229249 0)
(-0.0705597 0.0220522 0)
(-0.0739177 0.0210298 0)
(-0.0771035 0.0198598 0)
(-0.0800961 0.0185447 0)
(-0.0828747 0.0170878 0)
(-0.0854195 0.0154931 0)
(-0.0877111 0.013766 0)
(-0.0897309 0.0119129 0)
(-0.0914618 0.00994211 0)
(-0.0928874 0.00786329 0)
(-0.0939932 0.00568798 0)
(-0.0947662 0.00342952 0)
(-0.0951953 0.00110308 0)
(-0.0952715 -0.00127432 0)
(-0.0949883 -0.0036839 0)
(-0.0943417 -0.00610523 0)
(-0.0933304 -0.00851641 0)
(-0.0919563 -0.0108942 0)
(-0.0902243 -0.0132145 0)
(-0.0881427 -0.0154522 0)
(-0.0857231 -0.0175821 0)
(-0.0829807 -0.0195788 0)
(-0.0799342 -0.0214174 0)
(-0.0766058 -0.0230738 0)
(-0.0730211 -0.0245255 0)
(-0.069209 -0.0257514 0)
(-0.0652015 -0.0267331 0)
(-0.0610334 -0.0274546 0)
(-0.056742 -0.0279035 0)
(-0.0523663 -0.0280709 0)
(-0.0479474 -0.0279518 0)
(-0.0435268 -0.0275459 0)
(-0.0391467 -0.0268573 0)
(-0.0348489 -0.0258952 0)
(-0.0306744 -0.0246736 0)
(-0.026662 -0.0232118 0)
(-0.0228486 -0.0215342 0)
(-0.0192676 -0.0196701 0)
(-0.0159488 -0.017654 0)
(-0.0129173 -0.0155252 0)
(-0.0101934 -0.0133278 0)
(-0.00779168 -0.0111103 0)
(-0.00572115 -0.008926 0)
(-0.00398462 -0.00683238 0)
(-0.00257895 -0.00489136 0)
(-0.00149441 -0.00316921 0)
(-0.000714438 -0.00173633 0)
(-0.000225311 -0.00066708 0)
(-2.62602e-05 -4.3228e-05 0)
(-8.56711e-05 0.00123416 0)
(-0.000576436 0.00388512 0)
(-0.00164245 0.00661056 0)
(-0.00317741 0.00932725 0)
(-0.00512019 0.0119718 0)
(-0.00743394 0.0144946 0)
(-0.0100811 0.0168579 0)
(-0.0130247 0.0190348 0)
(-0.0162298 0.0210071 0)
(-0.019663 0.0227638 0)
(-0.0232926 0.0242996 0)
(-0.0270882 0.0256133 0)
(-0.0310204 0.0267069 0)
(-0.0350611 0.0275844 0)
(-0.0391831 0.0282509 0)
(-0.0433601 0.0287122 0)
(-0.0475666 0.028974 0)
(-0.0517777 0.0290417 0)
(-0.0559689 0.0289202 0)
(-0.0601164 0.0286137 0)
(-0.0641966 0.0281257 0)
(-0.0681862 0.027459 0)
(-0.0720621 0.0266163 0)
(-0.0758018 0.0255996 0)
(-0.0793825 0.0244112 0)
(-0.0827822 0.0230535 0)
(-0.0859789 0.0215294 0)
(-0.0889512 0.0198428 0)
(-0.0916783 0.0179983 0)
(-0.09414 0.016002 0)
(-0.0963169 0.0138614 0)
(-0.0981908 0.0115859 0)
(-0.0997446 0.0091865 0)
(-0.100963 0.00667633 0)
(-0.101831 0.00407053 0)
(-0.102338 0.00138629 0)
(-0.102473 -0.00135712 0)
(-0.10223 -0.00413842 0)
(-0.101602 -0.0069345 0)
(-0.100587 -0.00972051 0)
(-0.099188 -0.0124701 0)
(-0.0974074 -0.0151559 0)
(-0.0952533 -0.0177494 0)
(-0.0927367 -0.0202218 0)
(-0.0898726 -0.0225441 0)
(-0.0866793 -0.0246878 0)
(-0.0831793 -0.0266254 0)
(-0.0793983 -0.0283305 0)
(-0.0753661 -0.0297791 0)
(-0.0711154 -0.0309494 0)
(-0.0666823 -0.0318228 0)
(-0.0621057 -0.0323845 0)
(-0.0574267 -0.0326235 0)
(-0.0526885 -0.0325336 0)
(-0.0479355 -0.0321136 0)
(-0.0432125 -0.0313674 0)
(-0.0385648 -0.0303049 0)
(-0.0340363 -0.0289412 0)
(-0.0296699 -0.0272977 0)
(-0.0255058 -0.0254015 0)
(-0.0215813 -0.0232856 0)
(-0.0179298 -0.0209884 0)
(-0.0145802 -0.018554 0)
(-0.0115564 -0.0160319 0)
(-0.00887637 -0.0134764 0)
(-0.00655249 -0.0109466 0)
(-0.00459074 -0.00850628 0)
(-0.00299097 -0.0062234 0)
(-0.00174621 -0.00417012 0)
(-0.00084217 -0.00242223 0)
(-0.0002689 -0.00105873 0)
(-3.23446e-05 -0.000164948 0)
(-9.43629e-05 0.00153994 0)
(-0.000632182 0.00474501 0)
(-0.00179703 0.00797167 0)
(-0.00346957 0.0111406 0)
(-0.00558033 0.0141917 0)
(-0.00808696 0.0170782 0)
(-0.0109469 0.0197651 0)
(-0.0141188 0.0222278 0)
(-0.0175639 0.0244501 0)
(-0.0212459 0.0264229 0)
(-0.0251306 0.0281424 0)
(-0.0291853 0.0296091 0)
(-0.0333792 0.0308262 0)
(-0.0376827 0.0317989 0)
(-0.0420675 0.0325333 0)
(-0.0465063 0.0330361 0)
(-0.0509727 0.0333137 0)
(-0.055441 0.0333722 0)
(-0.0598863 0.0332171 0)
(-0.064284 0.0328528 0)
(-0.0686099 0.0322832 0)
(-0.0728401 0.0315116 0)
(-0.076951 0.0305406 0)
(-0.0809192 0.0293727 0)
(-0.0847216 0.0280103 0)
(-0.0883353 0.0264563 0)
(-0.0917377 0.0247139 0)
(-0.0949067 0.0227873 0)
(-0.0978206 0.020682 0)
(-0.100459 0.0184046 0)
(-0.1028 0.0159639 0)
(-0.104826 0.01337 0)
(-0.106519 0.0106354 0)
(-0.107862 0.00777481 0)
(-0.10884 0.00480506 0)
(-0.10944 0.00174537 0)
(-0.10965 -0.00138275 0)
(-0.109463 -0.00455556 0)
(-0.108871 -0.00774719 0)
(-0.107873 -0.0109299 0)
(-0.106466 -0.0140741 0)
(-0.104655 -0.017149 0)
(-0.102447 -0.0201227 0)
(-0.0998504 -0.0229627 0)
(-0.0968807 -0.0256361 0)
(-0.0935556 -0.0281106 0)
(-0.0898971 -0.0303548 0)
(-0.0859313 -0.0323387 0)
(-0.0816881 -0.0340344 0)
(-0.0772011 -0.0354169 0)
(-0.0725076 -0.0364644 0)
(-0.0676478 -0.0371592 0)
(-0.062665 -0.0374881 0)
(-0.0576044 -0.0374432 0)
(-0.0525133 -0.037022 0)
(-0.0474397 -0.0362281 0)
(-0.042432 -0.0350715 0)
(-0.0375381 -0.0335685 0)
(-0.0328045 -0.0317424 0)
(-0.0282756 -0.0296228 0)
(-0.0239929 -0.0272461 0)
(-0.0199937 -0.0246551 0)
(-0.0163113 -0.0218987 0)
(-0.0129734 -0.0190316 0)
(-0.0100022 -0.0161141 0)
(-0.00741341 -0.0132116 0)
(-0.00521663 -0.010394 0)
(-0.00341493 -0.00773576 0)
(-0.00200414 -0.00531512 0)
(-0.000972274 -0.00321351 0)
(-0.000312913 -0.00151487 0)
(-3.83639e-05 -0.00030853 0)
(-0.000102695 0.00187351 0)
(-0.00068575 0.00568057 0)
(-0.00194578 0.009449 0)
(-0.00375103 0.0131039 0)
(-0.00602409 0.0165891 0)
(-0.00871736 0.0198616 0)
(-0.0117835 0.0228897 0)
(-0.0151767 0.0256517 0)
(-0.0188549 0.0281342 0)
(-0.0227786 0.0303305 0)
(-0.0269111 0.032239 0)
(-0.0312178 0.0338619 0)
(-0.0356661 0.0352043 0)
(-0.0402252 0.0362726 0)
(-0.0448657 0.0370744 0)
(-0.0495593 0.0376174 0)
(-0.054279 0.0379088 0)
(-0.0589985 0.0379554 0)
(-0.0636921 0.0377632 0)
(-0.0683348 0.0373373 0)
(-0.072902 0.0366818 0)
(-0.0773693 0.0358002 0)
(-0.0817125 0.0346954 0)
(-0.0859079 0.0333702 0)
(-0.0899317 0.0318273 0)
(-0.0937605 0.0300696 0)
(-0.0973712 0.0281009 0)
(-0.100741 0.0259258 0)
(-0.103847 0.0235502 0)
(-0.106669 0.0209816 0)
(-0.109184 0.0182295 0)
(-0.111373 0.0153052 0)
(-0.113218 0.0122224 0)
(-0.114699 0.00899723 0)
(-0.115801 0.00564826 0)
(-0.11651 0.00219665 0)
(-0.116813 -0.00133389 0)
(-0.116701 -0.00491717 0)
(-0.116165 -0.00852463 0)
(-0.115201 -0.0121255 0)
(-0.113807 -0.0156872 0)
(-0.111986 -0.0191752 0)
(-0.109742 -0.0225542 0)
(-0.107084 -0.0257876 0)
(-0.104026 -0.0288388 0)
(-0.100585 -0.0316713 0)
(-0.0967818 -0.0342496 0)
(-0.0926431 -0.0365395 0)
(-0.0881987 -0.0385093 0)
(-0.0834827 -0.0401299 0)
(-0.0785332 -0.0413762 0)
(-0.0733921 -0.0422271 0)
(-0.0681044 -0.0426669 0)
(-0.0627178 -0.0426853 0)
(-0.0572823 -0.0422784 0)
(-0.0518492 -0.0414488 0)
(-0.0464705 -0.0402066 0)
(-0.0411981 -0.0385688 0)
(-0.0360827 -0.0365602 0)
(-0.0311734 -0.0342132 0)
(-0.0265159 -0.0315675 0)
(-0.0221525 -0.0286699 0)
(-0.0181209 -0.0255743 0)
(-0.0144533 -0.022341 0)
(-0.0111763 -0.0190364 0)
(-0.00830962 -0.0157321 0)
(-0.00586669 -0.0125049 0)
(-0.00385399 -0.00943577 0)
(-0.00227032 -0.00660943 0)
(-0.00110593 -0.0041134 0)
(-0.000357822 -0.00203702 0)
(-4.44083e-05 -0.000474241 0)
(-0.000110668 0.00223375 0)
(-0.00073708 0.00668884 0)
(-0.00208844 0.0110381 0)
(-0.00402118 0.0152116 0)
(-0.00645037 0.0191579 0)
(-0.00932341 0.022838 0)
(-0.0125883 0.0262244 0)
(-0.0161953 0.0292991 0)
(-0.0200987 0.0320519 0)
(-0.0242561 0.034479 0)
(-0.0286284 0.0365816 0)
(-0.0331792 0.0383641 0)
(-0.0378742 0.0398336 0)
(-0.0426812 0.0409984 0)
(-0.0475699 0.0418673 0)
(-0.0525112 0.0424493 0)
(-0.0574774 0.0427528 0)
(-0.0624417 0.0427853 0)
(-0.067378 0.0425534 0)
(-0.0722608 0.0420627 0)
(-0.0770651 0.0413176 0)
(-0.0817662 0.0403221 0)
(-0.0863396 0.0390792 0)
(-0.0907611 0.0375919 0)
(-0.0950067 0.035863 0)