/*--------------------------------*- C++ -*----------------------------------*\
  =========                 |
  \\      /  F ield         | OpenFOAM: The Open Source CFD Toolbox
   \\    /   O peration     | Website:  https://openfoam.org
    \\  /    A nd           | Version:  dev
     \\/     M anipulation  |
\*---------------------------------------------------------------------------*/
FoamFile
{
    format      ascii;
    class       volScalarField;
    location    "29.7";
    object      Ux;
}
// * * * * * * * * * * * * * * * * * * * * * * * * * * * * * * * * * * * * * //

dimensions      [0 1 -1 0 0 0 0];

internalField   nonuniform List<scalar> 
5184
(
1.22493e-05
4.50468e-05
8.02612e-05
9.59453e-05
8.21269e-05
3.64368e-05
-4.05724e-05
-0.000146879
-0.00027969
-0.000435951
-0.00061254
-0.000806424
-0.00101474
-0.00123481
-0.00146418
-0.0017006
-0.001942
-0.00218645
-0.00243218
-0.0026775
-0.0029208
-0.00316053
-0.00339515
-0.00362315
-0.00384299
-0.00405314
-0.00425203
-0.0044381
-0.00460977
-0.00476546
-0.0049036
-0.00502268
-0.00512124
-0.00519789
-0.00525139
-0.0052806
-0.0052846
-0.00526264
-0.00521424
-0.00513916
-0.00503746
-0.00490951
-0.00475604
-0.00457808
-0.00437704
-0.00415468
-0.00391309
-0.00365469
-0.00338222
-0.00309868
-0.00280729
-0.0025115
-0.00221487
-0.00192105
-0.00163371
-0.00135651
-0.00109296
-0.000846458
-0.000620132
-0.000416837
-0.000239072
-8.89152e-05
3.2046e-05
0.000122797
0.000183006
0.000213175
0.00021489
0.000191201
0.000147136
9.07888e-05
3.6625e-05
6.22653e-06
2.07994e-05
6.55341e-05
9.46397e-05
7.27509e-05
-1.89715e-05
-0.00018734
-0.000432937
-0.000752546
-0.00114062
-0.00159037
-0.00209447
-0.00264545
-0.00323602
-0.00385918
-0.00450832
-0.00517725
-0.00586017
-0.00655164
-0.00724653
-0.00793994
-0.00862718
-0.0093037
-0.00996502
-0.0106067
-0.0112244
-0.0118137
-0.0123701
-0.0128892
-0.0133667
-0.0137983
-0.0141796
-0.0145066
-0.0147754
-0.0149824
-0.0151242
-0.0151981
-0.0152016
-0.0151331
-0.0149914
-0.014776
-0.0144874
-0.0141269
-0.0136965
-0.0131993
-0.0126392
-0.012021
-0.0113506
-0.0106346
-0.00988027
-0.00909579
-0.00828985
-0.00747162
-0.00665063
-0.00583662
-0.00503937
-0.00426855
-0.00353354
-0.00284326
-0.00220598
-0.00162919
-0.00111937
-0.0006818
-0.000320406
-3.74714e-05
0.000166638
0.000293843
0.000348892
0.000340052
0.000279814
0.000186027
8.63562e-05
1.96763e-05
1.76147e-05
4.12811e-05
1.95437e-05
-8.40494e-05
-0.000290284
-0.000607906
-0.00103818
-0.00157729
-0.00221808
-0.00295136
-0.00376684
-0.00465382
-0.00560159
-0.00659967
-0.00763802
-0.00870708
-0.00979776
-0.0109015
-0.01201
-0.0131155
-0.0142104
-0.0152873
-0.016339
-0.0173583
-0.0183383
-0.0192717
-0.0201517
-0.0209713
-0.0217235
-0.0224016
-0.022999
-0.0235095
-0.0239271
-0.0242463
-0.0244623
-0.0245709
-0.0245685
-0.0244528
-0.0242222
-0.0238764
-0.0234162
-0.0228438
-0.0221626
-0.0213775
-0.0204947
-0.0195218
-0.0184678
-0.0173429
-0.0161585
-0.0149269
-0.0136616
-0.0123765
-0.0110862
-0.00980552
-0.00854934
-0.00733238
-0.00616886
-0.00507233
-0.00405533
-0.00312912
-0.00230345
-0.00158621
-0.000983128
-0.000497449
-0.000129481
0.000123845
0.000269624
0.000319702
0.000291208
0.000207366
0.000102436
2.49723e-05
8.82865e-06
-7.03792e-06
-0.000107611
-0.000322379
-0.000669585
-0.00115763
-0.00178727
-0.00255373
-0.00344847
-0.00446047
-0.00557724
-0.00678558
-0.00807209
-0.0094235
-0.0108269
-0.0122699
-0.0137406
-0.0152276
-0.0167199
-0.018207
-0.0196786
-0.0211249
-0.022536
-0.0239023
-0.0252143
-0.0264625
-0.0276375
-0.0287301
-0.0297311
-0.0306318
-0.0314234
-0.0320979
-0.0326475
-0.0330653
-0.0333451
-0.0334816
-0.0334705
-0.0333088
-0.0329949
-0.0325286
-0.0319112
-0.0311457
-0.0302368
-0.0291911
-0.0280168
-0.026724
-0.0253243
-0.023831
-0.0222591
-0.0206245
-0.0189445
-0.0172373
-0.0155216
-0.0138165
-0.0121414
-0.0105151
-0.008956
-0.00748151
-0.00610778
-0.0048493
-0.00371857
-0.0027257
-0.00187801
-0.00117963
-0.000631047
-0.000228546
3.6345e-05
0.00017752
0.000214701
0.000174054
9.30114e-05
2.40233e-05
-2.13022e-06
-6.73028e-05
-0.00026411
-0.000609736
-0.00111668
-0.00179114
-0.00263214
-0.00363329
-0.00478448
-0.00607298
-0.00748446
-0.00900366
-0.010615
-0.0123029
-0.0140521
-0.0158478
-0.0176755
-0.0195215
-0.0213725
-0.0232153
-0.0250376
-0.0268268
-0.028571
-0.0302582
-0.0318767
-0.0334149
-0.0348611
-0.0362042
-0.037433
-0.0385367
-0.0395051
-0.0403284
-0.0409974
-0.0415038
-0.0418403
-0.0420009
-0.0419805
-0.041776
-0.0413853
-0.0408087
-0.0400478
-0.0391067
-0.037991
-0.0367088
-0.0352701
-0.033687
-0.0319736
-0.0301459
-0.0282216
-0.02622
-0.0241616
-0.0220681
-0.0199618
-0.0178658
-0.0158027
-0.0137953
-0.0118654
-0.0100338
-0.00831982
-0.00674076
-0.00531156
-0.00404435
-0.002948
-0.00202766
-0.00128427
-0.000714059
-0.000308047
-5.14645e-05
7.65653e-05
0.000103544
6.7487e-05
1.96617e-05
-1.36961e-05
-0.00013283
-0.000435797
-0.000924557
-0.00160374
-0.00247591
-0.00353723
-0.00477899
-0.00618911
-0.00775307
-0.00945474
-0.0112771
-0.0132025
-0.0152137
-0.0172931
-0.0194241
-0.02159
-0.0237749
-0.0259634
-0.0281404
-0.0302911
-0.0324011
-0.0344563
-0.0364427
-0.0383465
-0.0401541
-0.0418521
-0.0434273
-0.044867
-0.0461587
-0.0472906
-0.0482514
-0.0490307
-0.0496192
-0.0500087
-0.0501922
-0.0501644
-0.0499215
-0.0494618
-0.0487855
-0.0478948
-0.0467943
-0.0454908
-0.0439936
-0.0423141
-0.0404663
-0.0384663
-0.0363324
-0.0340847
-0.0317452
-0.0293374
-0.026886
-0.0244164
-0.0219548
-0.0195272
-0.0171595
-0.0148767
-0.0127026
-0.0106593
-0.00876674
-0.00704213
-0.0054996
-0.00414961
-0.00299853
-0.00204815
-0.00129518
-0.000730851
-0.000340444
-0.000103003
9.10596e-06
3.24772e-05
1.36172e-05
-2.5184e-05
-0.000199993
-0.000614016
-0.00125276
-0.00211177
-0.00318888
-0.00447653
-0.00596301
-0.00763381
-0.00947239
-0.0114608
-0.0135801
-0.0158113
-0.0181349
-0.0205321
-0.022984
-0.0254725
-0.0279797
-0.0304882
-0.0329811
-0.0354419
-0.0378542
-0.040202
-0.0424696
-0.0446413
-0.0467018
-0.048636
-0.0504291
-0.0520668
-0.0535351
-0.0548208
-0.0559115
-0.0567957
-0.057463
-0.0579044
-0.0581122
-0.0580808
-0.057806
-0.0572861
-0.0565213
-0.0555142
-0.05427
-0.0527964
-0.0511034
-0.0492041
-0.0471137
-0.0448501
-0.0424334
-0.039886
-0.0372322
-0.034498
-0.0317106
-0.0288984
-0.0260901
-0.023315
-0.0206016
-0.0179779
-0.0154704
-0.013104
-0.0109011
-0.00888108
-0.00706022
-0.00545071
-0.0040604
-0.00289229
-0.00194409
-0.00120786
-0.000669659
-0.000309285
-9.99045e-05
-7.73348e-06
6.85683e-06
-3.6336e-05
-0.000266908
-0.000793647
-0.00158542
-0.00262807
-0.00391404
-0.00543135
-0.00716473
-0.00909686
-0.0112089
-0.0134808
-0.0158921
-0.0184218
-0.0210492
-0.0237535
-0.0265146
-0.0293126
-0.032128
-0.034942
-0.0377358
-0.0404914
-0.0431907
-0.0458161
-0.0483503
-0.050776
-0.0530763
-0.0552347
-0.0572349
-0.0590611
-0.0606982
-0.0621317
-0.063348
-0.0643346
-0.0650803
-0.0655752
-0.0658113
-0.0657821
-0.0654834
-0.0649132
-0.0640717
-0.0629619
-0.0615893
-0.0599621
-0.0580913
-0.0559908
-0.0536772
-0.0511696
-0.0484899
-0.0456623
-0.042713
-0.0396702
-0.0365635
-0.0334238
-0.0302824
-0.0271712
-0.0241214
-0.0211638
-0.0183277
-0.0156403
-0.0131267
-0.0108088
-0.00870477
-0.00682893
-0.00519088
-0.00379522
-0.00264112
-0.00172199
-0.00102527
-0.000532141
-0.000217248
-5.0477e-05
-8.79343e-08
-4.70547e-05
-0.00033259
-0.000971693
-0.00191691
-0.00314424
-0.00464032
-0.00638833
-0.00836899
-0.0105618
-0.0129454
-0.0154976
-0.0181959
-0.021018
-0.0239414
-0.026944
-0.0300042
-0.0331007
-0.0362127
-0.0393199
-0.0424021
-0.0454399
-0.0484138
-0.0513047
-0.0540939
-0.0567627
-0.059293
-0.0616667
-0.0638663
-0.0658749
-0.067676
-0.0692542
-0.0705947
-0.0716842
-0.0725106
-0.0730633
-0.0733335
-0.0733144
-0.0730013
-0.072392
-0.0714866
-0.0702881
-0.0688022
-0.0670375
-0.0650056
-0.0627211
-0.0602014
-0.057467
-0.0545409
-0.051449
-0.0482192
-0.0448817
-0.0414681
-0.0380116
-0.0345459
-0.0311055
-0.0277243
-0.0244356
-0.0212715
-0.018262
-0.0154345
-0.0128136
-0.0104199
-0.00826989
-0.00637531
-0.00474272
-0.00337317
-0.00226188
-0.00139814
-0.000764997
-0.000339021
-9.41945e-05
-6.94674e-06
-5.73274e-05
-0.000396557
-0.00114642
-0.00224372
-0.00365471
-0.00536007
-0.00733788
-0.00956456
-0.0120162
-0.0146685
-0.0174972
-0.0204779
-0.0235865
-0.0267989
-0.0300919
-0.0334425
-0.0368282
-0.0402268
-0.0436169
-0.0469772
-0.0502868
-0.0535252
-0.056672
-0.0597072
-0.062611
-0.065364
-0.0679469
-0.0703412
-0.0725287
-0.074492
-0.0762145
-0.0776806
-0.0788761
-0.0797879
-0.0804048
-0.0807173
-0.080718
-0.0804017
-0.0797657
-0.07881
-0.0775374
-0.0759535
-0.0740671
-0.0718901
-0.0694376
-0.0667276
-0.0637816
-0.0606236
-0.0572807
-0.0537824
-0.0501606
-0.046449
-0.0426827
-0.0388979
-0.0351315
-0.03142
-0.0277996
-0.0243049
-0.0209688
-0.0178217
-0.0148906
-0.012199
-0.00976582
-0.00760534
-0.00572644
-0.00413241
-0.00282069
-0.0017828
-0.00100398
-0.000463009
-0.000138069
-1.36038e-05
-6.71718e-05
-0.00045858
-0.00131681
-0.00256362
-0.00415577
-0.00606797
-0.00827307
-0.0107431
-0.0134504
-0.0163679
-0.0194688
-0.0227268
-0.0261159
-0.0296109
-0.0331871
-0.0368203
-0.0404868
-0.0441635
-0.0478279
-0.0514576
-0.0550306
-0.0585254
-0.0619206
-0.065195
-0.0683279
-0.0712986
-0.0740872
-0.0766738
-0.0790393
-0.0811653
-0.0830343
-0.0846299
-0.0859367
-0.086941
-0.0876307
-0.0879955
-0.0880274
-0.0877206
-0.0870717
-0.0860803
-0.0847489
-0.0830827
-0.0810906
-0.0787843
-0.0761792
-0.0732938
-0.07015
-0.0667728
-0.0631903
-0.0594333
-0.0555352
-0.0515316
-0.0474597
-0.043358
-0.0392656
-0.035222
-0.0312661
-0.0274354
-0.0237658
-0.0202907
-0.0170403
-0.0140408
-0.0113143
-0.00887774
-0.00674273
-0.00491519
-0.00339513
-0.00217658
-0.00124725
-0.0005882
-0.000181774
-2.00328e-05
-7.66125e-05
-0.000518556
-0.00148228
-0.00287517
-0.00464487
-0.0067602
-0.00918879
-0.0118981
-0.0148569
-0.018035
-0.0214031
-0.0249329
-0.0285967
-0.0323678
-0.0362203
-0.0401288
-0.0440688
-0.0480161
-0.0519472
-0.055839
-0.0596685
-0.0634132
-0.067051
-0.0705597
-0.0739177
-0.0771035
-0.0800961
-0.0828747
-0.0854195
-0.0877111
-0.0897309
-0.0914618
-0.0928874
-0.0939932
-0.0947662
-0.0951953
-0.0952715
-0.0949883
-0.0943417
-0.0933304
-0.0919563
-0.0902243
-0.0881427
-0.0857231
-0.0829807
-0.0799342
-0.0766058
-0.0730211
-0.069209
-0.0652015
-0.0610334
-0.056742
-0.0523663
-0.0479474
-0.0435268
-0.0391467
-0.0348489
-0.0306744
-0.026662
-0.0228486
-0.0192676
-0.0159488
-0.0129173
-0.0101934
-0.00779168
-0.00572115
-0.00398462
-0.00257895
-0.00149441
-0.000714438
-0.000225311
-2.62602e-05
-8.56711e-05
-0.000576436
-0.00164245
-0.00317741
-0.00512019
-0.00743394
-0.0100811
-0.0130247
-0.0162298
-0.019663
-0.0232926
-0.0270882
-0.0310204
-0.0350611
-0.0391831
-0.0433601
-0.0475666
-0.0517777
-0.0559689
-0.0601164
-0.0641966
-0.0681862
-0.0720621
-0.0758018
-0.0793825
-0.0827822
-0.0859789
-0.0889512
-0.0916783
-0.09414
-0.0963169
-0.0981908
-0.0997446
-0.100963
-0.101831
-0.102338
-0.102473
-0.10223
-0.101602
-0.100587
-0.099188
-0.0974074
-0.0952533
-0.0927367
-0.0898726
-0.0866793
-0.0831793
-0.0793983
-0.0753661
-0.0711154
-0.0666823
-0.0621057
-0.0574267
-0.0526885
-0.0479355
-0.0432125
-0.0385648
-0.0340363
-0.0296699
-0.0255058
-0.0215813
-0.0179298
-0.0145802
-0.0115564
-0.00887637
-0.00655249
-0.00459074
-0.00299097
-0.00174621
-0.00084217
-0.0002689
-3.23446e-05
-9.43629e-05
-0.000632182
-0.00179703
-0.00346957
-0.00558033
-0.00808696
-0.0109469
-0.0141188
-0.0175639
-0.0212459
-0.0251306
-0.0291853
-0.0333792
-0.0376827
-0.0420675
-0.0465063
-0.0509727
-0.055441
-0.0598863
-0.064284
-0.0686099
-0.0728401
-0.076951
-0.0809192
-0.0847216
-0.0883353
-0.0917377
-0.0949067
-0.0978206
-0.100459
-0.1028
-0.104826
-0.106519
-0.107862
-0.10884
-0.10944
-0.10965
-0.109463
-0.108871
-0.107873
-0.106466
-0.104655
-0.102447
-0.0998504
-0.0968807
-0.0935556
-0.0898971
-0.0859313
-0.0816881
-0.0772011
-0.0725076
-0.0676478
-0.062665
-0.0576044
-0.0525133
-0.0474397
-0.042432
-0.0375381
-0.0328045
-0.0282756
-0.0239929
-0.0199937
-0.0163113
-0.0129734
-0.0100022
-0.00741341
-0.00521663
-0.00341493
-0.00200414
-0.000972274
-0.000312913
-3.83639e-05
-0.000102695
-0.00068575
-0.00194578
-0.00375103
-0.00602409
-0.00871736
-0.0117835
-0.0151767
-0.0188549
-0.0227786
-0.0269111
-0.0312178
-0.0356661
-0.0402252
-0.0448657
-0.0495593
-0.054279
-0.0589985
-0.0636921
-0.0683348
-0.072902
-0.0773693
-0.0817125
-0.0859079
-0.0899317
-0.0937605
-0.0973712
-0.100741
-0.103847
-0.106669
-0.109184
-0.111373
-0.113218
-0.114699
-0.115801
-0.11651
-0.116813
-0.116701
-0.116165
-0.115201
-0.113807
-0.111986
-0.109742
-0.107084
-0.104026
-0.100585
-0.0967818
-0.0926431
-0.0881987
-0.0834827
-0.0785332
-0.0733921
-0.0681044
-0.0627178
-0.0572823
-0.0518492
-0.0464705
-0.0411981
-0.0360827
-0.0311734
-0.0265159
-0.0221525
-0.0181209
-0.0144533
-0.0111763
-0.00830962
-0.00586669
-0.00385399
-0.00227032
-0.00110593
-0.000357822
-4.44083e-05
-0.000110668
-0.00073708
-0.00208844
-0.00402118
-0.00645037
-0.00932341
-0.0125883
-0.0161953
-0.0200987
-0.0242561
-0.0286284
-0.0331792
-0.0378742
-0.0426812
-0.0475699
-0.0525112
-0.0574774
-0.0624417
-0.067378
-0.0722608
-0.0770651
-0.0817662
-0.0863396
-0.0907611
-0.0950067
-0.0990524
-0.102875
-0.10645
-0.109755
-0.112768
-0.115467
-0.117831
-0.11984
-0.121474
-0.122717
-0.123553
-0.123967
-0.123949
-0.123489
-0.122581
-0.121221
-0.11941
-0.117151
-0.114451
-0.111323
-0.107783
-0.103851
-0.0995525
-0.0949175
-0.0899805
-0.0847804
-0.0793603
-0.0737669
-0.0680506
-0.062264
-0.056462
-0.0507005
-0.0450356
-0.0395228
-0.0342158
-0.0291657
-0.0244198
-0.0200209
-0.0160063
-0.0124072
-0.009248
-0.00654619
-0.00431198
-0.00254725
-0.00124454
-0.000404168
-5.05757e-05
-0.000118276
-0.000786088
-0.00222471
-0.0042794
-0.00685808
-0.00990343
-0.0133591
-0.0171714
-0.0212913
-0.0256737
-0.0302772
-0.0350634
-0.0399964
-0.0450431
-0.0501721
-0.0553536
-0.0605592
-0.0657617
-0.0709348
-0.0760526
-0.0810898
-0.0860216
-0.0908232
-0.0954701
-0.099938
-0.104203
-0.10824
-0.112026
-0.115537
-0.118751
-0.121643
-0.124194
-0.12638
-0.128183
-0.129584
-0.130565
-0.13111
-0.131207
-0.130845
-0.130014
-0.128711
-0.126932
-0.12468
-0.12196
-0.118782
-0.115161
-0.111117
-0.106673
-0.10186
-0.0967115
-0.0912672
-0.0855713
-0.0796725
-0.0736232
-0.0674792
-0.0612989
-0.0551424
-0.0490704
-0.0431434
-0.0374206
-0.0319585
-0.0268103
-0.0220244
-0.0176435
-0.0137044
-0.0102362
-0.00726107
-0.00479319
-0.00283775
-0.00138964
-0.000452542
-5.69681e-05
-0.000125505
-0.00083267
-0.00235428
-0.00452501
-0.00724606
-0.0104557
-0.0140935
-0.018102
-0.022429
-0.0270269
-0.031852
-0.0368641
-0.0420261
-0.0473035
-0.0526641
-0.0580776
-0.063515
-0.0689489
-0.0743524
-0.0796998
-0.0849655
-0.0901245
-0.0951519
-0.100023
-0.104714
-0.109199
-0.113455
-0.117457
-0.121181
-0.124604
-0.127701
-0.13045
-0.132829
-0.134816
-0.136392
-0.137537
-0.138234
-0.138467
-0.138225
-0.137496
-0.136272
-0.134549
-0.132328
-0.12961
-0.126405
-0.122724
-0.118586
-0.114014
-0.109037
-0.103688
-0.0980074
-0.0920407
-0.0858379
-0.0794536
-0.0729467
-0.0663793
-0.0598158
-0.0533219
-0.0469636
-0.0408058
-0.0349114
-0.0293396
-0.0241452
-0.0193772
-0.015078
-0.0112826
-0.00801775
-0.00530226
-0.00314484
-0.00154288
-0.000503563
-6.36906e-05
-0.000132339
-0.000876701
-0.00247677
-0.00475729
-0.00761315
-0.0109785
-0.014789
-0.0189839
-0.0235079
-0.028311
-0.0333474
-0.0385752
-0.0439561
-0.0494545
-0.0550375
-0.0606741
-0.066335
-0.0719925
-0.0776197
-0.0831906
-0.0886797
-0.094062
-0.0993126
-0.104407
-0.10932
-0.114028
-0.118505
-0.122728
-0.126671
-0.130311
-0.133623
-0.136583
-0.139168
-0.141356
-0.143124
-0.144452
-0.145321
-0.145714
-0.145615
-0.145011
-0.143892
-0.142251
-0.140085
-0.137395
-0.134185
-0.130468
-0.126257
-0.121576
-0.116451
-0.110916
-0.10501
-0.0987798
-0.0922764
-0.0855568
-0.078683
-0.0717206
-0.0647388
-0.0578085
-0.0510016
-0.0443893
-0.0380411
-0.0320233
-0.0263976
-0.0212198
-0.0165388
-0.0123957
-0.00882295
-0.00584406
-0.00347169
-0.00170599
-0.000557874
-7.085e-05
-0.000138754
-0.000918037
-0.00259179
-0.00497545
-0.00795807
-0.01147
-0.0154433
-0.0198139
-0.024524
-0.0295212
-0.0347577
-0.0401903
-0.0457792
-0.0514881
-0.0572833
-0.0631333
-0.0690087
-0.0748814
-0.0807245
-0.0865121
-0.0922188
-0.0978195
-0.10329
-0.108605
-0.11374
-0.11867
-0.123372
-0.127819
-0.131988
-0.135853
-0.139389
-0.142571
-0.145376
-0.147779
-0.149757
-0.151288
-0.152351
-0.152925
-0.152993
-0.152539
-0.151551
-0.150018
-0.147934
-0.145298
-0.142111
-0.138382
-0.134123
-0.129354
-0.124101
-0.118396
-0.112279
-0.105795
-0.0989967
-0.091944
-0.0847011
-0.0773378
-0.0699276
-0.0625473
-0.0552747
-0.0481881
-0.0413643
-0.0348771
-0.0287958
-0.0231839
-0.0180976
-0.0135846
-0.00968359
-0.00642358
-0.00382156
-0.00188073
-0.00061613
-7.85538e-05
-0.000144726
-0.000956518
-0.00269889
-0.00517867
-0.00827952
-0.0119283
-0.0160537
-0.0205889
-0.0254735
-0.0306528
-0.0360775
-0.0417028
-0.0474881
-0.053396
-0.0593922
-0.065445
-0.0715247
-0.0776032
-0.0836536
-0.0896501
-0.0955674
-0.101381
-0.107066
-0.112598
-0.117953
-0.123106
-0.128033
-0.132708
-0.137106
-0.141202
-0.144971
-0.148387
-0.151424
-0.154057
-0.156262
-0.158014
-0.15929
-0.160068
-0.160328
-0.16005
-0.159219
-0.157822
-0.155849
-0.153296
-0.15016
-0.146446
-0.142166
-0.137334
-0.131976
-0.126122
-0.119809
-0.113085
-0.106002
-0.0986213
-0.0910101
-0.0832421
-0.0753955
-0.0675528
-0.0597985
-0.0522183
-0.0448967
-0.037916
-0.0313539
-0.0252822
-0.0197651
-0.0148581
-0.0106067
-0.00704591
-0.00419775
-0.00206889
-0.000678994
-8.69103e-05
-0.000150226
-0.000991976
-0.00279761
-0.00536609
-0.00857616
-0.0123514
-0.0166178
-0.0213056
-0.0263521
-0.0317009
-0.037301
-0.0431063
-0.0490752
-0.0551696
-0.0613548
-0.0675988
-0.0738716
-0.0801453
-0.0863931
-0.0925894
-0.0987092
-0.104728
-0.110622
-0.116367
-0.121938
-0.127312
-0.132463
-0.137366
-0.141998
-0.14633
-0.150339
-0.153996
-0.157277
-0.160154
-0.162601
-0.164592
-0.166102
-0.167106
-0.16758
-0.167504
-0.166859
-0.165626
-0.163794
-0.161354
-0.158299
-0.154632
-0.150359
-0.145494
-0.140057
-0.134077
-0.127591
-0.120644
-0.113289
-0.105589
-0.0976141
-0.0894407
-0.0811522
-0.0728369
-0.0645863
-0.0564939
-0.0486529
-0.0411543
-0.0340853
-0.0275268
-0.0215521
-0.0162251
-0.0115992
-0.00771616
-0.0046036
-0.00227228
-0.000747134
-9.60286e-05
-0.000155225
-0.00102424
-0.00288749
-0.00553685
-0.00884663
-0.0127376
-0.017133
-0.0219608
-0.0271561
-0.0326608
-0.0384226
-0.0443941
-0.0505329
-0.0568004
-0.0631614
-0.0695837
-0.0760373
-0.0824943
-0.0889283
-0.0953138
-0.101626
-0.107842
-0.113937
-0.119888
-0.12567
-0.13126
-0.136633
-0.141765
-0.14663
-0.151203
-0.155456
-0.159362
-0.162896
-0.166028
-0.168731
-0.170978
-0.17274
-0.17399
-0.174704
-0.174855
-0.174422
-0.173384
-0.171724
-0.169428
-0.166488
-0.162901
-0.158668
-0.153801
-0.148316
-0.142238
-0.135604
-0.128456
-0.120847
-0.112842
-0.104511
-0.0959355
-0.087203
-0.0784077
-0.0696485
-0.061027
-0.0526455
-0.0446049
-0.0370024
-0.0299294
-0.0234689
-0.0176944
-0.012668
-0.00843938
-0.00504244
-0.0024927
-0.000821224
-0.000106018
-0.000159693
-0.00105312
-0.00296807
-0.00569009
-0.00908961
-0.0130849
-0.0175968
-0.0225512
-0.0278814
-0.0335278
-0.0394366
-0.0455597
-0.0518538
-0.0582798
-0.0648022
-0.0713887
-0.0780093
-0.0846364
-0.0912438
-0.0978065
-0.104301
-0.110702
-0.116989
-0.123137
-0.129123
-0.134923
-0.140514
-0.145871
-0.150969
-0.155781
-0.160281
-0.164442
-0.168235
-0.171631
-0.174603
-0.177119
-0.17915
-0.180668
-0.181642
-0.182046
-0.181853
-0.181038
-0.179581
-0.177464
-0.174674
-0.171202
-0.167046
-0.162212
-0.156713
-0.150572
-0.143819
-0.136497
-0.128658
-0.120365
-0.111693
-0.102723
-0.0935481
-0.0842691
-0.0749918
-0.0658264
-0.056885
-0.0482791
-0.0401168
-0.0325008
-0.0255253
-0.0192744
-0.01382
-0.00922057
-0.00551755
-0.00273197
-0.000901934
-0.00011699
-0.000163601
-0.00107847
-0.0030389
-0.00582499
-0.00930382
-0.0133915
-0.0180069
-0.0230739
-0.0285244
-0.0342972
-0.0403377
-0.0465968
-0.0530305
-0.0595993
-0.0662675
-0.0730028
-0.0797753
-0.0865577
-0.0933241
-0.10005
-0.106712
-0.113288
-0.119754
-0.126088
-0.132268
-0.13827
-0.144072
-0.149648
-0.154974
-0.160024
-0.164771
-0.169187
-0.173244
-0.176912
-0.18016
-0.182958
-0.185273
-0.187075
-0.188332
-0.189011
-0.189085
-0.188524
-0.187302
-0.185398
-0.182794
-0.179475
-0.175435
-0.170674
-0.1652
-0.159032
-0.152197
-0.144734
-0.136693
-0.128138
-0.119142
-0.109791
-0.100182
-0.0904197
-0.0806187
-0.0708978
-0.0613794
-0.0521861
-0.0434383
-0.0352508
-0.0277304
-0.0209729
-0.0150615
-0.0100646
-0.00603219
-0.00299187
-0.000989937
-0.000129056
-0.000166921
-0.00110011
-0.00309956
-0.0059408
-0.00948809
-0.0136558
-0.018361
-0.0235261
-0.0290815
-0.0349649
-0.0411208
-0.0474992
-0.0540558
-0.0607506
-0.0675479
-0.0744151
-0.081323
-0.0882442
-0.0951534
-0.102027
-0.108842
-0.115576
-0.122208
-0.128715
-0.135077
-0.141269
-0.147271
-0.153058
-0.158605
-0.163887
-0.168877
-0.173547
-0.177869
-0.181811
-0.185342
-0.188431
-0.191043
-0.193144
-0.1947
-0.195678
-0.196044
-0.195765
-0.194811
-0.193155
-0.190774
-0.187648
-0.183765
-0.17912
-0.173715
-0.167563
-0.160686
-0.153121
-0.144914
-0.136127
-0.126834
-0.117122
-0.107091
-0.0968521
-0.0865266
-0.0762426
-0.066133
-0.0563327
-0.0469748
-0.038188
-0.0300925
-0.0227975
-0.0163987
-0.0109762
-0.00658954
-0.00327417
-0.0010859
-0.000142328
-0.00016963
-0.00111793
-0.0031497
-0.00603685
-0.00964141
-0.0138763
-0.0186572
-0.0239052
-0.0295496
-0.035527
-0.0417812
-0.0482616
-0.0549232
-0.0617261
-0.0686342
-0.0756154
-0.0826403
-0.0896822
-0.0967164
-0.10372
-0.11067
-0.117546
-0.124326
-0.130991
-0.137518
-0.143887
-0.150076
-0.15606
-0.161818
-0.167323
-0.172549
-0.177468
-0.182051
-0.186267
-0.190084
-0.193469
-0.196385
-0.198798
-0.200671
-0.201966
-0.202647
-0.202677
-0.202022
-0.200649
-0.19853
-0.195639
-0.191958
-0.187474
-0.182185
-0.176096
-0.169226
-0.161603
-0.153273
-0.144292
-0.134734
-0.124688
-0.114255
-0.103552
-0.0927074
-0.0818574
-0.0711466
-0.0607224
-0.0507322
-0.0413191
-0.0326186
-0.0247548
-0.0178374
-0.0119597
-0.00719267
-0.0035806
-0.0011905
-0.000156923
-0.000171706
-0.00113179
-0.00318903
-0.00611262
-0.00976296
-0.0140519
-0.018894
-0.0242092
-0.029926
-0.0359803
-0.0423149
-0.0488789
-0.0556269
-0.0625187
-0.0695184
-0.0765938
-0.083716
-0.0908587
-0.0979978
-0.105111
-0.112177
-0.119174
-0.126085
-0.132887
-0.139563
-0.14609
-0.152448
-0.158616
-0.164569
-0.170284
-0.175735
-0.180893
-0.185731
-0.190216
-0.194317
-0.197998
-0.201224
-0.203957
-0.206158
-0.207787
-0.208804
-0.209169
-0.208843
-0.207787
-0.205968
-0.203355
-0.199921
-0.195648
-0.190526
-0.184553
-0.177741
-0.170113
-0.161707
-0.152579
-0.142798
-0.132452
-0.121646
-0.110499
-0.0991461
-0.0877334
-0.0764164
-0.0653556
-0.0547134
-0.0446491
-0.0353146
-0.0268506
-0.0193829
-0.0130196
-0.00784454
-0.00391287
-0.0013044
-0.000172958
-0.000173135
-0.00114163
-0.00321735
-0.00616775
-0.00985215
-0.0141817
-0.0190701
-0.0244366
-0.0302089
-0.0363221
-0.0427186
-0.049347
-0.0561617
-0.0631222
-0.0701928
-0.0773415
-0.0845396
-0.0917616
-0.0989837
-0.106185
-0.113344
-0.120441
-0.127459
-0.134378
-0.14118
-0.147845
-0.154353
-0.160683
-0.166814
-0.172722
-0.178381
-0.183765
-0.188845
-0.193591
-0.197969
-0.201944
-0.205479
-0.208536
-0.211073
-0.213049
-0.21442
-0.215141
-0.215171
-0.214465
-0.212985
-0.210691
-0.207552
-0.203541
-0.19864
-0.19284
-0.186144
-0.178569
-0.170145
-0.160923
-0.150968
-0.140367
-0.129224
-0.117662
-0.105821
-0.0938557
-0.0819335
-0.0702285
-0.0589186
-0.0481806
-0.0381847
-0.0290898
-0.0210398
-0.0141595
-0.00854796
-0.00427263
-0.00142825
-0.00019055
-0.00017391
-0.0011474
-0.00323456
-0.00620205
-0.00990871
-0.0142652
-0.019185
-0.0245865
-0.0303968
-0.0365506
-0.0429899
-0.0496628
-0.0565236
-0.0635317
-0.0706513
-0.0778508
-0.085102
-0.0923797
-0.0996611
-0.106925
-0.114153
-0.121326
-0.128427
-0.135437
-0.14234
-0.149118
-0.155752
-0.162222
-0.168507
-0.174586
-0.180435
-0.186026
-0.191332
-0.196324
-0.200967
-0.205228
-0.209068
-0.212448
-0.215325
-0.217655
-0.219392
-0.22049
-0.2209
-0.220574
-0.219468
-0.217536
-0.214739
-0.211043
-0.206421
-0.200854
-0.194338
-0.186879
-0.178502
-0.169248
-0.159178
-0.148374
-0.13694
-0.125001
-0.112701
-0.100202
-0.0876833
-0.0753325
-0.0633442
-0.0519138
-0.0412312
-0.031476
-0.0228118
-0.015383
-0.00930555
-0.00466146
-0.0015627
-0.000209824
-0.000174028
-0.00114911
-0.00324069
-0.00621559
-0.00993272
-0.0143027
-0.0192386
-0.0246586
-0.0304893
-0.0366652
-0.0431276
-0.0498245
-0.05671
-0.0637434
-0.0708891
-0.0781157
-0.0853955
-0.0927038
-0.100019
-0.10732
-0.11459
-0.121811
-0.128966
-0.13604
-0.143017
-0.149879
-0.156611
-0.163193
-0.169607
-0.175831
-0.181843
-0.187619
-0.19313
-0.198348
-0.20324
-0.207772
-0.211907
-0.215603
-0.218818
-0.221506
-0.223619
-0.225106
-0.225917
-0.225998
-0.2253
-0.22377
-0.221363
-0.218034
-0.213749
-0.20848
-0.202211
-0.194939
-0.186679
-0.177464
-0.167346
-0.156404
-0.144736
-0.132468
-0.119747
-0.106743
-0.0936448
-0.080654
-0.0679826
-0.0558456
-0.0444545
-0.0340113
-0.0247022
-0.016693
-0.0101197
-0.00508086
-0.0017084
-0.000230902
-0.0001735
-0.00114683
-0.00323593
-0.00620871
-0.00992466
-0.0142946
-0.0192316
-0.0246537
-0.0304872
-0.0366662
-0.0431318
-0.0498316
-0.0567197
-0.0637554
-0.0709031
-0.0781318
-0.0854143
-0.0927264
-0.100047
-0.107357
-0.11464
-0.121878
-0.129058
-0.136165
-0.143184
-0.1501
-0.156898
-0.163561
-0.170072
-0.176411
-0.182558
-0.188489
-0.194178
-0.199598
-0.204717
-0.209501
-0.213914
-0.217915
-0.22146
-0.224503
-0.226994
-0.22888
-0.230107
-0.230619
-0.230358
-0.229268
-0.227295
-0.224387
-0.220499
-0.215593
-0.209642
-0.202633
-0.194568
-0.18547
-0.175382
-0.164374
-0.15254
-0.140002
-0.126911
-0.113441
-0.09979
-0.0861737
-0.0728216
-0.0599696
-0.0478523
-0.0366962
-0.0267127
-0.018092
-0.0109925
-0.00553223
-0.00186594
-0.00025391
-0.000172344
-0.00114068
-0.00322062
-0.00618204
-0.0098855
-0.0142423
-0.0191657
-0.0245736
-0.0303923
-0.0365554
-0.0430039
-0.0496853
-0.0565533
-0.0635674
-0.0706922
-0.0778969
-0.0851546
-0.0924422
-0.0997391
-0.107027
-0.114291
-0.121516
-0.128687
-0.135793
-0.142819
-0.149754
-0.156583
-0.163292
-0.169865
-0.176284
-0.182531
-0.188585
-0.194421
-0.200012
-0.20533
-0.210342
-0.215011
-0.219298
-0.22316
-0.226549
-0.229415
-0.231703
-0.233356
-0.234315
-0.234518
-0.233901
-0.232405
-0.229968
-0.226536
-0.22206
-0.216501
-0.209834
-0.202048
-0.193152
-0.18318
-0.17219
-0.160269
-0.147534
-0.134135
-0.120249
-0.106083
-0.0918656
-0.0778441
-0.0642756
-0.0514196
-0.0395295
-0.0288443
-0.0195817
-0.0119257
-0.00601685
-0.00203594
-0.000278978
-0.000170591
-0.00113086
-0.00319531
-0.00613657
-0.00981674
-0.0141478
-0.0190432
-0.0244211
-0.0302075
-0.0363361
-0.0427473
-0.0493885
-0.0562135
-0.0631815
-0.0702575
-0.0774109
-0.0846154
-0.0918485
-0.0990906
-0.106325
-0.113536
-0.120712
-0.127839
-0.134907
-0.141904
-0.148819
-0.155641
-0.162356
-0.168952
-0.175413
-0.181723
-0.187861
-0.193806
-0.199535
-0.205018
-0.210226
-0.215124
-0.219673
-0.223831
-0.227551
-0.230782
-0.233468
-0.235552
-0.236969
-0.237654
-0.23754
-0.236558
-0.234639
-0.23172
-0.227741
-0.222649
-0.216406
-0.208987
-0.200387
-0.190625
-0.179747
-0.167828
-0.15498
-0.141348
-0.12711
-0.112479
-0.097697
-0.083027
-0.0687488
-0.0551482
-0.0425075
-0.0310963
-0.0211631
-0.0129208
-0.00653585
-0.00221896
-0.000306235
-0.000168286
-0.00111765
-0.00316075
-0.00607369
-0.00972046
-0.0140138
-0.0188677
-0.0242003
-0.0299377
-0.0360131
-0.0423669
-0.0489464
-0.0557049
-0.062602
-0.0696026
-0.0766766
-0.0837982
-0.0909457
-0.0981003
-0.105246
-0.11237
-0.11946
-0.126505
-0.133496
-0.140423
-0.147278
-0.15405
-0.16073
-0.167307
-0.173767
-0.180095
-0.186276
-0.19229
-0.198115
-0.203725
-0.209093
-0.214185
-0.218966
-0.223393
-0.227421
-0.231001
-0.234075
-0.236585
-0.238465
-0.239646
-0.240056
-0.239621
-0.238264
-0.235912
-0.232492
-0.227942
-0.222207
-0.215247
-0.207041
-0.19759
-0.186927
-0.175113
-0.162248
-0.148471
-0.133958
-0.118927
-0.103628
-0.0883415
-0.07337
-0.0590264
-0.0456242
-0.0334666
-0.0228361
-0.0139786
-0.00709017
-0.00241551
-0.000335811
-0.000165486
-0.00110142
-0.00311792
-0.00599522
-0.00959941
-0.0138441
-0.0186438
-0.0239168
-0.0295889
-0.0355933
-0.0418701
-0.0483661
-0.0550348
-0.0618357
-0.0687339
-0.0756996
-0.0827077
-0.0897371
-0.0967701
-0.103792
-0.110791
-0.117756
-0.124679
-0.131551
-0.138367
-0.145117
-0.151796
-0.158396
-0.164906
-0.171319
-0.17762
-0.183798
-0.189834
-0.19571
-0.201404
-0.20689
-0.212137
-0.217112
-0.221775
-0.226083
-0.229987
-0.233431
-0.236356
-0.238696
-0.240378
-0.241328
-0.241465
-0.240706
-0.238969
-0.23617
-0.232233
-0.227089
-0.220681
-0.21297
-0.20394
-0.193603
-0.182006
-0.169233
-0.155412
-0.140717
-0.125363
-0.109609
-0.0937518
-0.0781145
-0.0630387
-0.048871
-0.0359511
-0.0245998
-0.0150996
-0.00768056
-0.00262607
-0.000367837
-0.000162266
-0.00108262
-0.00306809
-0.00590344
-0.00945709
-0.0136435
-0.0183776
-0.0235776
-0.0291694
-0.0350856
-0.0412661
-0.0476575
-0.0542131
-0.0608924
-0.0676607
-0.0744886
-0.0813517
-0.0882296
-0.0951058
-0.101967
-0.108802
-0.115602
-0.12236
-0.129071
-0.135729
-0.14233
-0.148868
-0.155339
-0.161735
-0.168051
-0.174276
-0.180399
-0.186409
-0.192287
-0.198016
-0.203573
-0.20893
-0.214056
-0.218916
-0.223469
-0.227666
-0.231455
-0.234776
-0.237563
-0.239744
-0.24124
-0.241967
-0.241835
-0.240754
-0.238631
-0.235376
-0.230904
-0.225141
-0.218029
-0.209531
-0.19964
-0.18838
-0.17582
-0.162071
-0.147299
-0.131715
-0.115585
-0.0992153
-0.0829521
-0.0671651
-0.0522361
-0.0385442
-0.026452
-0.0162836
-0.00830753
-0.00285108
-0.000402442
-0.000158716
-0.00106183
-0.00301279
-0.0058012
-0.0092978
-0.0134178
-0.0180763
-0.0231916
-0.0286891
-0.034501
-0.0405669
-0.046833
-0.0532525
-0.0597848
-0.0663955
-0.0730557
-0.0797416
-0.0864338
-0.0931167
-0.0997783
-0.106409
-0.113003
-0.119553
-0.126057
-0.132512
-0.138914
-0.145263
-0.151554
-0.157785
-0.163952
-0.170047
-0.176065
-0.181994
-0.187822
-0.193534
-0.19911
-0.204527
-0.209757
-0.214769
-0.219523