/*--------------------------------*- C++ -*----------------------------------*\
  =========                 |
  \\      /  F ield         | OpenFOAM: The Open Source CFD Toolbox
   \\    /   O peration     | Website:  https://openfoam.org
    \\  /    A nd           | Version:  dev
     \\/     M anipulation  |
\*---------------------------------------------------------------------------*/
FoamFile
{
    format      ascii;
    class       volScalarField;
    location    "29.7";
    object      Uy;
}
// * * * * * * * * * * * * * * * * * * * * * * * * * * * * * * * * * * * * * //

dimensions      [0 1 -1 0 0 0 0];

internalField   nonuniform List<scalar> 
5184
(
-1.27825e-05
-2.09297e-05
-1.72624e-05
-8.20092e-06
2.66692e-06
1.36157e-05
2.38441e-05
3.30461e-05
4.11024e-05
4.80193e-05
5.38588e-05
5.87061e-05
6.26535e-05
6.57919e-05
6.8206e-05
6.99712e-05
7.1152e-05
7.18008e-05
7.19584e-05
7.16544e-05
7.0908e-05
6.97298e-05
6.81228e-05
6.60839e-05
6.36058e-05
6.0679e-05
5.72929e-05
5.34378e-05
4.91067e-05
4.42965e-05
3.90098e-05
3.32558e-05
2.70517e-05
2.04235e-05
1.34068e-05
6.04736e-06
-1.59866e-06
-9.46485e-06
-1.74747e-05
-2.55424e-05
-3.35735e-05
-4.14665e-05
-4.91142e-05
-5.64057e-05
-6.32282e-05
-6.947e-05
-7.50223e-05
-7.97822e-05
-8.3655e-05
-8.6557e-05
-8.84176e-05
-8.91817e-05
-8.88111e-05
-8.72858e-05
-8.46056e-05
-8.07898e-05
-7.58777e-05
-6.9928e-05
-6.30184e-05
-5.5245e-05
-4.67218e-05
-3.75815e-05
-2.79791e-05
-1.80972e-05
-8.16143e-06
1.53359e-06
1.05647e-05
1.82952e-05
2.37133e-05
2.51268e-05
1.98496e-05
6.24487e-06
-4.59933e-05
-6.57811e-05
-4.0589e-05
7.62025e-06
6.56681e-05
0.000125977
0.000184276
0.000238318
0.000286961
0.000329763
0.000366687
0.000397923
0.000423782
0.000444631
0.000460846
0.000472787
0.000480775
0.000485086
0.000485944
0.000483521
0.000477937
0.000469269
0.000457555
0.000442805
0.000425007
0.000404137
0.000380172
0.000353093
0.000322902
0.000289626
0.000253324
0.0002141
0.000172103
0.000127537
8.06607e-05
3.17933e-05
-1.86865e-05
-7.03404e-05
-0.000122674
-0.000175139
-0.000227142
-0.000278051
-0.000327205
-0.000373924
-0.000417525
-0.000457333
-0.000492694
-0.000522995
-0.000547675
-0.000566238
-0.000578272
-0.000583458
-0.00058158
-0.000572535
-0.000556338
-0.000533129
-0.00050317
-0.000466851
-0.000424687
-0.000377319
-0.000325513
-0.000270176
-0.000212367
-0.000153338
-9.46018e-05
-3.80354e-05
1.39021e-05
5.79063e-05
8.9386e-05
0.000101846
8.65153e-05
3.64894e-05
-8.13527e-05
-9.5077e-05
-1.91646e-05
0.000105905
0.000254621
0.000410543
0.000563361
0.000706942
0.00083784
0.000954345
0.00105586
0.00114249
0.00121474
0.00127333
0.0013191
0.00135286
0.00137537
0.00138733
0.00138928
0.00138168
0.00136485
0.00133901
0.00130429
0.00126076
0.00120842
0.00114727
0.00107729
0.000998506
0.000910973
0.000814833
0.000710318
0.000597771
0.000477668
0.000350622
0.000217399
7.89226e-05
-6.37274e-05
-0.000209316
-0.000356459
-0.000503641
-0.000649226
-0.000791481
-0.000928604
-0.00105875
-0.00118008
-0.00129076
-0.00138904
-0.00147328
-0.00154197
-0.0015938
-0.00162768
-0.00164276
-0.00163849
-0.00161459
-0.00157115
-0.00150857
-0.00142758
-0.0013293
-0.00121516
-0.00108698
-0.000946931
-0.000797574
-0.000641919
-0.000483497
-0.000326507
-0.000176036
-3.84009e-05
7.83816e-05
0.000164017
0.000205341
0.000186249
9.03858e-05
-9.77506e-05
-7.31631e-05
8.47567e-05
0.000318319
0.000590025
0.000874251
0.00115397
0.00141839
0.00166106
0.00187842
0.00206894
0.00223235
0.00236922
0.00248059
0.00256771
0.00263194
0.00267454
0.00269668
0.00269932
0.00268326
0.0026491
0.00259726
0.00252801
0.00244151
0.00233785
0.00221706
0.0020792
0.00192438
0.00175281
0.00156483
0.00136097
0.00114197
0.000908805
0.000662707
0.000405191
0.00013806
-0.000136599
-0.000416415
-0.000698753
-0.000980737
-0.00125928
-0.00153113
-0.0017929
-0.00204116
-0.00227246
-0.00248341
-0.00267076
-0.00283147
-0.00296276
-0.0030622
-0.00312778
-0.00315796
-0.0031517
-0.00310856
-0.00302869
-0.00291288
-0.00276255
-0.0025798
-0.0023674
-0.0021288
-0.00186813
-0.00159031
-0.00130104
-0.001007
-0.000715989
-0.000437295
-0.000182056
3.61184e-05
0.000200512
0.000290735
0.000282497
0.000147263
-8.44014e-05
2.0893e-05
0.000295419
0.000667954
0.0010907
0.00152973
0.00196163
0.00237091
0.00274785
0.00308682
0.00338506
0.00364173
0.0038573
0.00403301
0.00417052
0.00427165
0.0043382
0.0043718
0.00437388
0.00434562
0.00428792
0.00420144
0.00408665
0.00394383
0.00377318
0.00357486
0.00334904
0.00309602
0.00281622
0.00251032
0.00217925
0.0018243
0.00144711
0.00104974
0.000634651
0.000204779
-0.000236521
-0.000685462
-0.00113786
-0.00158915
-0.00203447
-0.00246871
-0.00288656
-0.00328266
-0.00365161
-0.00398815
-0.00428722
-0.00454407
-0.00475441
-0.00491447
-0.00502113
-0.00507199
-0.00506549
-0.00500094
-0.00487861
-0.00469974
-0.00446663
-0.00418257
-0.00385196
-0.00348026
-0.00307403
-0.00264102
-0.00219021
-0.00173202
-0.0012785
-0.000843684
-0.000444068
-9.92079e-05
0.000167559
0.000328504
0.000350893
0.000194104
-3.75144e-05
0.000197362
0.000626853
0.00117023
0.00177153
0.00238992
0.00299634
0.00357098
0.00410102
0.00457867
0.00499987
0.00536313
0.00566869
0.00591791
0.00611277
0.00625554
0.00634851
0.00639379
0.00639327
0.0063485
0.00626073
0.00613087
0.00595961
0.00574742
0.00549464
0.0052016
0.00486868
0.00449641
0.00408555
0.00363718
0.00315281
0.00263439
0.00208439
0.00150586
0.000902454
0.000278417
-0.000361386
-0.0010115
-0.00166592
-0.00231815
-0.00296125
-0.00358796
-0.00419078
-0.0047621
-0.00529431
-0.00577998
-0.00621198
-0.00658363
-0.00688889
-0.00712244
-0.0072799
-0.0073579
-0.00735423
-0.00726794
-0.00709941
-0.00685044
-0.00652425
-0.00612557
-0.00566063
-0.00513721
-0.00456466
-0.00395394
-0.00331776
-0.00267072
-0.00202954
-0.00141341
-0.000844466
-0.000348385
4.48594e-05
0.000300327
0.000377209
0.00022447
4.41103e-05
0.000461252
0.00108697
0.00183452
0.00264205
0.00346333
0.00426472
0.00502278
0.0057219
0.00635239
0.00690894
0.00738938
0.00779373
0.00812342
0.00838071
0.00856827
0.00868883
0.00874499
0.00873907
0.00867301
0.00854838
0.00836639
0.00812796
0.00783376
0.00748434
0.00708025
0.00662213
0.00611082
0.0055475
0.0049338
0.00427185
0.00356443
0.002815
0.00202775
0.00120768
0.000360556
-0.000507049
-0.00138781
-0.00227367
-0.00315595
-0.00402543
-0.00487243
-0.00568701
-0.00645908
-0.00717857
-0.00783564
-0.00842086
-0.00892541
-0.00934127
-0.00966142
-0.00988005
-0.00999268
-0.00999638
-0.00988987
-0.00967363
-0.00935002
-0.00892331
-0.00839976
-0.00778764
-0.00709726
-0.006341
-0.00553338
-0.00469113
-0.00383335
-0.00298173
-0.00216087
-0.00139868
-0.000727025
-0.000182379
0.000193448
0.000352341
0.000234929
0.000160469
0.000814434
0.00167956
0.00266586
0.00370765
0.00475489
0.00577056
0.00672837
0.00761054
0.00840578
0.00910776
0.00971377
0.0102236
0.0106388
0.010962
0.011196
0.0113442
0.0114096
0.0113948
0.0113023
0.0111339
0.0108911
0.0105751
0.0101868
0.00972693
0.0091964
0.00859611
0.0079273
0.00719164
0.00639137
0.0055294
0.00460942
0.00363601
0.00261464
0.00155181
0.000454958
-0.000667463
-0.00180607
-0.00295058
-0.00408995
-0.00521242
-0.00630576
-0.00735732
-0.00835434
-0.00928407
-0.010134
-0.0108923
-0.0115478
-0.0120901
-0.0125106
-0.0128016
-0.0129577
-0.0129748
-0.0128515
-0.0125881
-0.0121877
-0.0116555
-0.0109995
-0.0102301
-0.00936022
-0.00840554
-0.00738433
-0.00631758
-0.00522912
-0.0041458
-0.00309775
-0.00211879
-0.00124687
-0.000524779
-7.35261e-07
0.000270724
0.000223777
0.000310924
0.00125682
0.00240557
0.00366609
0.00497063
0.00626685
0.00751549
0.00868837
0.00976615
0.0107365
0.0115923
0.0123305
0.0129509
0.0134553
0.0138463
0.0141274
0.0143023
0.0143745
0.014347
0.0142225
0.0140033
0.0136913
0.0132877
0.0127937
0.0122105
0.0115391
0.0107808
0.00993736
0.00901094
0.00800449
0.00692177
0.0057675
0.00454745
0.00326851
0.00193878
0.000567528
-0.000834799
-0.0022566
-0.00368523
-0.00510709
-0.00650776
-0.0078722
-0.00918496
-0.0104303
-0.0115928
-0.0126569
-0.0136082
-0.0144328
-0.0151183
-0.0156536
-0.0160296
-0.0162392
-0.0162776
-0.0161427
-0.0158348
-0.0153575
-0.0147172
-0.0139234
-0.0129887
-0.0119289
-0.010763
-0.00951326
-0.00820502
-0.00686703
-0.00553143
-0.00423401
-0.00301445
-0.00191676
-0.000989801
-0.000287746
0.00012925
0.000190361
0.000494572
0.00178717
0.00326414
0.00483485
0.00643098
0.00799923
0.00949927
0.0109019
0.012187
0.0133416
0.0143584
0.0152343
0.0159691
0.0165649
0.0170249
0.0173528
0.0175528
0.0176288
0.0175843
0.0174224
0.0171456
0.016756
0.0162553
0.0156449
0.0149261
0.0141004
0.0131695
0.0121356
0.0110014
0.00977076
0.00844822
0.00703962
0.00555203
0.00399384
0.00237484
0.000706203
-0.000999492
-0.00272833
-0.00446516
-0.00619371
-0.00789674
-0.00955629
-0.0111539
-0.0126708
-0.0140883
-0.0153882
-0.0165528
-0.0175658
-0.0184119
-0.019078
-0.0195529
-0.0198279
-0.0198971
-0.0197576
-0.0194099
-0.0188577
-0.0181084
-0.0171733
-0.0160671
-0.0148086
-0.0134202
-0.0119281
-0.0103622
-0.00875624
-0.00714786
-0.0055785
-0.00409376
-0.00274362
-0.00158283
-0.000671125
-7.36963e-05
0.000134601
0.00071038
0.00240357
0.00425318
0.00617016
0.0080869
0.0099503
0.01172
0.0133667
0.0148702
0.0162176
0.0174017
0.0184198
0.019272
0.0199608
0.0204899
0.0208637
0.0210867
0.0211633
0.0210974
0.0208925
0.0205514
0.0200765
0.0194697
0.0187328
0.0178673
0.0168751
0.0157581
0.0145192
0.0131618
0.0116904
0.0101106
0.00842925
0.00665488
0.00479739
0.00286832
0.000880834
-0.00115029
-0.00320874
-0.00527676
-0.0073353
-0.00936419
-0.0113424
-0.0132483
-0.0150598
-0.0167552
-0.0183129
-0.0197123
-0.0209337
-0.0219595
-0.0227738
-0.0233632
-0.0237173
-0.0238288
-0.0236939
-0.0233128
-0.0226895
-0.0218324
-0.0207542
-0.0194719
-0.0180071
-0.0163857
-0.014638
-0.0127986
-0.0109064
-0.00900427
-0.00713966
-0.00536403
-0.00373333
-0.00230805
-0.00115332
-0.000338952
5.66662e-05
0.000957272
0.00310374
0.00536979
0.00766893
0.00993524
0.0121169
0.0141744
0.0160792
0.0178118
0.01936
0.0207173
0.0218814
0.0228533
0.0236362
0.0242342
0.0246525
0.0248961
0.0249699
0.0248783
0.0246251
0.0242134
0.023646
0.0229249
0.0220522
0.0210298
0.0198598
0.0185447
0.0170878
0.0154931
0.013766
0.0119129
0.00994211
0.00786329
0.00568798
0.00342952
0.00110308
-0.00127432
-0.0036839
-0.00610523
-0.00851641
-0.0108942
-0.0132145
-0.0154522
-0.0175821
-0.0195788
-0.0214174
-0.0230738
-0.0245255
-0.0257514
-0.0267331
-0.0274546
-0.0279035
-0.0280709
-0.0279518
-0.0275459
-0.0268573
-0.0258952
-0.0246736
-0.0232118
-0.0215342
-0.0196701
-0.017654
-0.0155252
-0.0133278
-0.0111103
-0.008926
-0.00683238
-0.00489136
-0.00316921
-0.00173633
-0.00066708
-4.3228e-05
0.00123416
0.00388512
0.00661056
0.00932725
0.0119718
0.0144946
0.0168579
0.0190348
0.0210071
0.0227638
0.0242996
0.0256133
0.0267069
0.0275844
0.0282509
0.0287122
0.028974
0.0290417
0.0289202
0.0286137
0.0281257
0.027459
0.0266163
0.0255996
0.0244112
0.0230535
0.0215294
0.0198428
0.0179983
0.016002
0.0138614
0.0115859
0.0091865
0.00667633
0.00407053
0.00138629
-0.00135712
-0.00413842
-0.0069345
-0.00972051
-0.0124701
-0.0151559
-0.0177494
-0.0202218
-0.0225441
-0.0246878
-0.0266254
-0.0283305
-0.0297791
-0.0309494
-0.0318228
-0.0323845
-0.0326235
-0.0325336
-0.0321136
-0.0313674
-0.0303049
-0.0289412
-0.0272977
-0.0254015
-0.0232856
-0.0209884
-0.018554
-0.0160319
-0.0134764
-0.0109466
-0.00850628
-0.0062234
-0.00417012
-0.00242223
-0.00105873
-0.000164948
0.00153994
0.00474501
0.00797167
0.0111406
0.0141917
0.0170782
0.0197651
0.0222278
0.0244501
0.0264229
0.0281424
0.0296091
0.0308262
0.0317989
0.0325333
0.0330361
0.0333137
0.0333722
0.0332171
0.0328528
0.0322832
0.0315116
0.0305406
0.0293727
0.0280103
0.0264563
0.0247139
0.0227873
0.020682
0.0184046
0.0159639
0.01337
0.0106354
0.00777481
0.00480506
0.00174537
-0.00138275
-0.00455556
-0.00774719
-0.0109299
-0.0140741
-0.017149
-0.0201227
-0.0229627
-0.0256361
-0.0281106
-0.0303548
-0.0323387
-0.0340344
-0.0354169
-0.0364644
-0.0371592
-0.0374881
-0.0374432
-0.037022
-0.0362281
-0.0350715
-0.0335685
-0.0317424
-0.0296228
-0.0272461
-0.0246551
-0.0218987
-0.0190316
-0.0161141
-0.0132116
-0.010394
-0.00773576
-0.00531512
-0.00321351
-0.00151487
-0.00030853
0.00187351
0.00568057
0.009449
0.0131039
0.0165891
0.0198616
0.0228897
0.0256517
0.0281342
0.0303305
0.032239
0.0338619
0.0352043
0.0362726
0.0370744
0.0376174
0.0379088
0.0379554
0.0377632
0.0373373
0.0366818
0.0358002
0.0346954
0.0333702
0.0318273
0.0300696
0.0281009
0.0259258
0.0235502
0.0209816
0.0182295
0.0153052
0.0122224
0.00899723
0.00564826
0.00219665
-0.00133389
-0.00491717
-0.00852463
-0.0121255
-0.0156872
-0.0191752
-0.0225542
-0.0257876
-0.0288388
-0.0316713
-0.0342496
-0.0365395
-0.0385093
-0.0401299
-0.0413762
-0.0422271
-0.0426669
-0.0426853
-0.0422784
-0.0414488
-0.0402066
-0.0385688
-0.0365602
-0.0342132
-0.0315675
-0.0286699
-0.0255743
-0.022341
-0.0190364
-0.0157321
-0.0125049
-0.00943577
-0.00660943
-0.0041134
-0.00203702
-0.000474241
0.00223375
0.00668884
0.0110381
0.0152116
0.0191579
0.022838
0.0262244
0.0292991
0.0320519
0.034479
0.0365816
0.0383641
0.0398336
0.0409984
0.0418673
0.0424493
0.0427528
0.0427853
0.0425534
0.0420627
0.0413176
0.0403221
0.0390792
0.0375919
0.035863
0.0338958
0.0316943
0.0292636
0.0266099
0.0237416
0.0206686
0.0174035
0.013961
0.0103586
0.00661647
0.00275771
-0.00119193
-0.00520385
-0.00924684
-0.0132872
-0.017289
-0.0212145
-0.0250244
-0.0286783
-0.0321352
-0.0353546
-0.0382962
-0.0409218
-0.0431949
-0.0450824
-0.0465549
-0.047588
-0.0481624
-0.0482653
-0.0478907
-0.04704
-0.0457227
-0.0439563
-0.0417672
-0.0391897
-0.036267
-0.0330501
-0.0295978
-0.0259762
-0.0222577
-0.0185211
-0.0148498
-0.011332
-0.00805938
-0.00512602
-0.00262731
-0.000662616
0.0026195
0.00776671
0.0127344
0.017458
0.0218912
0.0260001
0.0297615
0.0331619
0.0361949
0.0388602
0.041162
0.0431076
0.0447062
0.0459683
0.0469044
0.0475249
0.0478392
0.0478559
0.0475823
0.0470244
0.0461871
0.0450747
0.0436904
0.0420374
0.0401186
0.0379376
0.0354985
0.0328066
0.0298688
0.0266937
0.0232922
0.0196775
0.0158654
0.0118747
0.00772704
0.00344714
-0.000937157
-0.005395
-0.00989258
-0.0143933
-0.0188581
-0.0232456
-0.0275126
-0.0316148
-0.0355069
-0.0391435
-0.04248
-0.0454729
-0.0480812
-0.050267
-0.0519964
-0.0532406
-0.0539766
-0.0541883
-0.053867
-0.0530125
-0.0516331
-0.0497466
-0.0473801
-0.0445704
-0.0413635
-0.0378147
-0.0339878
-0.0299547
-0.0257946
-0.021593
-0.0174411
-0.0134346
-0.00967261
-0.00625655
-0.00328861
-0.000874488
0.00302955
0.00891092
0.0145329
0.0198367
0.0247818
0.0293396
0.0334924
0.0372312
0.0405541
0.0434648
0.0459711
0.0480833
0.0498133
0.0511739
0.0521776
0.0528364
0.0531609
0.0531609
0.0528442
0.0522176
0.0512866
0.0500554
0.0485277
0.0467067
0.0445955
0.0421977
0.0395177
0.036561
0.0333347
0.0298478
0.0261118
0.0221405
0.0179507
0.0135622
0.00899798
0.00428437
-0.000548964
-0.00546901
-0.0104395
-0.015421
-0.0203712
-0.0252454
-0.0299965
-0.0345758
-0.0389335
-0.0430195
-0.0467841
-0.0501786
-0.0531567
-0.0556752
-0.0576951
-0.0591827
-0.0601106
-0.0604586
-0.060215
-0.0593769
-0.0579513
-0.0559554
-0.053417
-0.0503747
-0.0468773
-0.0429843
-0.0387646
-0.0342962
-0.029665
-0.0249643
-0.0202931
-0.0157552
-0.0114582
-0.00751135
-0.00402461
-0.001111
0.00346265
0.010118
0.0164283
0.022341
0.0278217
0.032848
0.0374077
0.0414973
0.0451197
0.0482831
0.0509991
0.0532816
0.0551455
0.0566062
0.0576784
0.0583757
0.0587104
0.0586932
0.0583331
0.0576373
0.0566118
0.0552611
0.0535892
0.0515993
0.0492946
0.0466788
0.0437563
0.0405327
0.0370152
0.0332133
0.0291386
0.0248056
0.0202318
0.0154377
0.0104477
0.00528932
-6.05863e-06
-0.00540342
-0.0108642
-0.0163462
-0.0218041
-0.0271896
-0.0324518
-0.0375377
-0.0423928
-0.0469618
-0.0511897
-0.0550223
-0.0584075
-0.0612961
-0.0636434
-0.0654102
-0.0665638
-0.0670795
-0.0669414
-0.0661435
-0.0646906
-0.0625989
-0.0598963
-0.0566227
-0.0528298
-0.0485809
-0.0439502
-0.0390219
-0.0338892
-0.0286533
-0.0234218
-0.0183074
-0.0134267
-0.00889801
-0.00483981
-0.00137363
0.00391747
0.0113844
0.0184151
0.0249639
0.0310028
0.0365161
0.0414977
0.0459499
0.0498811
0.0533042
0.0562352
0.0586919
0.0606925
0.0622552
0.0633971
0.0641338
0.0644793
0.0644454
0.0640422
0.0632775
0.0621579
0.0606882
0.0588725
0.0567142
0.0542165
0.0513829
0.0482179
0.0447271
0.0409177
0.0367993
0.0323837
0.0276858
0.0227234
0.017518
0.0120946
0.0064821
0.000713225
-0.00517521
-0.0111424
-0.0171438
-0.023131
-0.0290523
-0.0348528
-0.0404752
-0.0458602
-0.0509472
-0.0556755
-0.0599849
-0.0638169
-0.067116
-0.0698311
-0.0719165
-0.0733336
-0.0740521
-0.0740513
-0.0733211
-0.0718635
-0.0696928
-0.0668364
-0.0633352
-0.0592434
-0.0546279
-0.0495682
-0.0441549
-0.0384891
-0.0326802
-0.0268451
-0.0211064
-0.0155904
-0.0104254
-0.0057396
-0.00166417
0.00439259
0.0127063
0.0204874
0.0276976
0.0343161
0.0403338
0.0457516
0.0505779
0.0548268
0.0585166
0.061668
0.0643029
0.0664432
0.0681101
0.0693234
0.070101
0.0704584
0.070409
0.0699637
0.0691315
0.0679192
0.066332
0.0643743
0.0620493
0.0593604
0.0563109
0.0529052
0.0491486
0.0450485
0.040614
0.0358573
0.0307931
0.0254398
0.0198192
0.0139569
0.00788268
0.00163059
-0.00476104
-0.0112496
-0.0177879
-0.0243251
-0.0308059
-0.0371717
-0.0433607
-0.0493088
-0.0549499
-0.0602172
-0.0650441
-0.0693653
-0.0731184
-0.0762449
-0.0786921
-0.0804144
-0.0813751
-0.0815476
-0.080917
-0.0794812
-0.077252
-0.0742556
-0.0705332
-0.0661409
-0.0611495
-0.0556434
-0.0497202
-0.0434885
-0.0370673
-0.0305832
-0.0241694
-0.0179631
-0.0121037
-0.00673026
-0.00198477
0.00488654
0.0140795
0.022639
0.0305344
0.0377522
0.0442909
0.0501582
0.0553694
0.0599447
0.0639081
0.0672851
0.0701023
0.0723855
0.0741592
0.075446
0.0762662
0.0766373
0.0765742
0.0760889
0.0751912
0.0738886
0.0721866
0.0700897
0.0676013
0.0647245
0.0614625
0.0578194
0.0538003
0.0494123
0.0446643
0.0395681
0.0341386
0.028394
0.0223564
0.0160517
0.0095104
0.0027674
-0.00413769
-0.0111606
-0.0182521
-0.0253585
-0.0324217
-0.0393791
-0.0461647
-0.0527093
-0.0589412
-0.0647873
-0.0701743
-0.0750295
-0.0792828
-0.0828678
-0.0857237
-0.0877972
-0.089044
-0.0894305
-0.0889358
-0.0875529
-0.0852899
-0.0821711
-0.0782371
-0.0735457
-0.0681708
-0.0622021
-0.0557438
-0.0489132
-0.0418386
-0.0346578
-0.0275152
-0.0205603
-0.0139445
-0.00781893
-0.00233792
0.00539772
0.0154998
0.0248634
0.0334657
0.0413013
0.0483761
0.0547057
0.060312
0.0652219
0.0694653
0.0730733
0.0760769
0.0785063
0.0803896
0.0817524
0.0826176
0.0830047
0.0829303
0.0824077
0.0814474
0.0800578
0.0782447
0.0760127
0.0733652
0.0703052
0.0668356
0.0629601
0.0586835
0.0540122
0.0489551
0.0435233
0.0377315
0.0315975
0.0251433
0.0183951
0.0113836
0.00414421
-0.00328242
-0.0108506
-0.0185095
-0.026203
-0.0338699
-0.0414442
-0.0488557
-0.0560299
-0.0628896
-0.0693552
-0.0753462
-0.0807822
-0.0855846
-0.0896783
-0.0929939
-0.0954688
-0.0970501
-0.0976963
-0.0973791
-0.0960852
-0.093818
-0.0905987
-0.0864668
-0.0814807
-0.0757173
-0.0692711
-0.0622534
-0.0547902
-0.0470202
-0.0390927
-0.0311649
-0.0233992
-0.0159606
-0.0090137
-0.00272642
0.00592447
0.0169627
0.0271536
0.0364827
0.0449528
0.0525779
0.0593813
0.0653922
0.0706446
0.0751743
0.0790182
0.0822125
0.0847916
0.0867875
0.0882291
0.0891419
0.0895478
0.089465
0.0889083
0.0878893
0.0864167
0.0844971
0.0821351
0.0793341
0.0760968
0.0724259
0.0683246
0.0637971
0.0588494
0.0534894
0.0477279
0.0415788
0.0350596
0.0281918
0.0210014
0.0135189
0.00578029
-0.00217345
-0.0102956
-0.0185338
-0.0268298
-0.03512
-0.0433349
-0.0514001
-0.0592364
-0.0667607
-0.0738868
-0.0805267
-0.0865918
-0.0919946
-0.0966505
-0.10048
-0.103411
-0.10538
-0.106337
-0.106244
-0.105081
-0.102845
-0.099552
-0.0952404
-0.089968
-0.083814
-0.0768778
-0.0692775
-0.0611481
-0.0526395
-0.0439135
-0.0351408
-0.0264984
-0.0181662
-0.0103235
-0.00315347
0.00646502
0.0184635
0.0295024
0.0395762
0.0486959
0.056884
0.0641718
0.0705963
0.0761982
0.0810202
0.085105
0.0884939
0.0912262
0.0933378
0.0948611
0.0958245
0.0962523
0.0961646
0.0955776
0.094504
0.0929534
0.0909328
0.0884468
0.0854989
0.0820916
0.078227
0.0739079
0.0691378
0.0639218
0.0582673
0.052184
0.0456851
0.0387873
0.0315113
0.0238825
0.0159312
0.0076931
-0.000790514
-0.00947235
-0.018299
-0.0272106
-0.036141
-0.045018
-0.0537631
-0.0622925
-0.0705172
-0.0783446
-0.0856787
-0.0924224
-0.0984788
-0.103753
-0.108155
-0.1116
-0.114016
-0.115339
-0.115524
-0.114539
-0.112375
-0.109042
-0.104574
-0.0990283
-0.0924857
-0.0850496
-0.0768451
-0.0680166
-0.0587256
-0.0491472
-0.0394672
-0.0298783
-0.0205768
-0.0117583
-0.00362255
0.00701753
0.019997
0.0319022
0.0427363
0.0525191
0.0612817
0.0690635
0.0759094
0.0818676
0.0869874
0.0913176
0.094905
0.0977938
0.100024
0.101632
0.102649
0.103102
0.103014
0.1024
0.101277
0.099654
0.0975384
0.0949353
0.0918481
0.0882789
0.0842296
0.079702
0.0746991
0.069225
0.063286
0.0568909
0.0500518
0.0427842
0.035108
0.0270475
0.0186324
0.0098977
0.000884581
-0.00835953
-0.0177805
-0.0273175
-0.0369023
-0.04646
-0.0559087
-0.06516
-0.0741195
-0.0826877
-0.0907611
-0.0982335
-0.104998
-0.110949
-0.115984
-0.120007
-0.122932
-0.124684
-0.125205
-0.124452
-0.122408
-0.119074
-0.11448
-0.10868
-0.101755
-0.0938134
-0.0849856
-0.0754261
-0.0653086
-0.0548226
-0.0441699
-0.0335608
-0.0232091
-0.0133287
-0.00413754
0.00758008
0.0215583
0.0343452
0.0459531
0.0564106
0.0657576
0.0740419
0.0813164
0.0876368
0.0930593
0.0976391
0.101429
0.104477
0.10683
0.108525
0.109599
0.110081
0.109995
0.10936
0.108192
0.106502
0.104298
0.101586
0.0983674
0.0946455
0.0904213
0.0856959
0.0804713
0.0747507
0.0685391
0.0618443
0.0546767
0.0470508
0.0389849
0.0305023
0.0216313
0.0124062
0.00286736
-0.00693805
-0.0169558
-0.0271242
-0.0373738
-0.0476275
-0.0578002
-0.0677994
-0.0775255
-0.0868725
-0.0957289
-0.10398
-0.111507
-0.118195
-0.123927
-0.128594
-0.132096
-0.134345
-0.135267
-0.134809
-0.132939
-0.129652
-0.124968
-0.118939
-0.111644
-0.103195
-0.0937277
-0.0834073
-0.0724195
-0.0609694
-0.0492763
-0.037569
-0.0260812
-0.0150464
-0.00470263
0.00815067
0.023142
0.0368233
0.0492162
0.0603583
0.0702982
0.0790922
0.0868015
0.0934892
0.0992188
0.104052
0.108047
0.111258
0.113735
0.115521
0.116655
0.117169
0.117089
0.116438
0.11523
0.11348
0.111195
0.10838
0.10504
0.101175
0.0967867
0.0918751
0.0864412
0.0804872
0.0740166
0.0670358
0.0595538
0.0515832
0.043141
0.0342486
0.0249331
0.0152271
0.00517005
-0.00519178
-0.0158045
-0.0266063
-0.037527
-0.0484877
-0.0594008
-0.0701703
-0.0806915
-0.0908523
-0.100534
-0.109611
-0.117957
-0.125442
-0.131937
-0.137318
-0.14147
-0.144288
-0.145684
-0.145588
-0.143956
-0.14077
-0.136041
-0.129815
-0.12217
-0.113217
-0.103099
-0.0919906
-0.0800899
-0.0676186
-0.0548146
-0.0419275
-0.0292122
-0.0169238
-0.00532236
0.00872726
0.0247425
0.0393282
0.0525151
0.0643496
0.0748893
0.0841991
0.0923482
0.0994076
0.105448
0.110537
0.11474
0.118117
0.120721
0.1226
0.123797
0.124346
0.124276
0.123612
0.122371
0.120566
0.118206
0.115298
0.111845
0.107848
0.103307
0.0982215
0.0925919
0.0864187
0.0797042
0.072453
0.0646725
0.0563735
0.0475708
0.0382841
0.0285384
0.0183648
0.00780094
-0.00310824
-0.0143098
-0.0257423
-0.0373355
-0.0490094
-0.0606747
-0.0722321
-0.0835728
-0.0945788
-0.105124
-0.115075
-0.124292
-0.132635
-0.13996
-0.146128
-0.151006
-0.154472
-0.15642
-0.156763
-0.155439
-0.152418
-0.147698
-0.141317
-0.133348
-0.123902
-0.113127
-0.101206
-0.0883514
-0.0748016
-0.0608145
-0.046662
-0.0326223
-0.0189742
-0.00600163
0.00930779
0.0263545
0.0418516
0.055839
0.0683719
0.0795168
0.089347
0.0979399
0.105374
0.111728
0.117076
0.12149
0.125033
0.127766
0.12974
0.131002
0.131589
0.131533
0.13086
0.12959
0.127736
0.12531
0.122317
0.11876
0.114641
0.109959
0.104713
0.0989022
0.0925253
0.0855833
0.078079
0.0700179
0.0614086
0.052264
0.0426014
0.0324434
0.0218191
0.0107638
-0.000679174
-0.0124586
-0.0245141
-0.0367758
-0.0491638
-0.0615873
-0.0739449
-0.0861242
-0.0980021
-0.109446
-0.120312
-0.130453
-0.139713
-0.147936
-0.154964
-0.160648
-0.164845
-0.167429
-0.168294
-0.16736
-0.164576
-0.159929
-0.153443
-0.145186
-0.135266
-0.123834
-0.111082
-0.0972352
-0.0825502
-0.0673063
-0.0517993
-0.036333
-0.0212118
-0.00674564
0.00989017
0.0279724
0.0443851
0.0591771
0.0724126
0.0841663
0.0945201
0.10356
0.111372
0.118041
0.123649
0.128274
0.131985
0.134848
0.136919
0.138247
0.138874
0.138835
0.138157
0.136862
0.134966
0.132479
0.129409
0.125758
0.121528
0.116718
0.111325
0.105347
0.0987829
0.0916309
0.0838921
0.07557
0.0666709
0.0572053
0.0471879
0.0366388
0.0255843
0.0140574
0.00209872
-0.0102425
-0.0229077
-0.0358284
-0.048925
-0.0621067
-0.0752705
-0.0883014
-0.101072
-0.113443
-0.125264
-0.136375
-0.14661
-0.155796
-0.16376
-0.17033
-0.175346
-0.178658
-0.180136
-0.17968
-0.177217
-0.172716
-0.166188
-0.157688
-0.147321
-0.135241
-0.121644
-0.106771
-0.090896
-0.0743208
-0.0573671
-0.0403665
-0.0236514
-0.00755995
0.0104723
0.0295907
0.0469203
0.0625189
0.0764588
0.0888233
0.0997027
0.10919
0.117381
0.124366
0.130235
0.135072
0.138952
0.141945
0.144112
0.145508
0.146177
0.146156
0.145476
0.144161
0.142227
0.139686
0.136546
0.13281
0.12848
0.123553
0.118027
0.111898
0.105163
0.0978193
0.0898659
0.0813039
0.0721373
0.0623739
0.0520257
0.0411098
0.0296495
0.0176747
0.00522328
-0.00765844
-0.0209144
-0.0344781
-0.0482715
-0.0622044
-0.0761733
-0.0900614
-0.103738
-0.117059
-0.129867
-0.141992
-0.153254
-0.163468
-0.17244
-0.179981
-0.185905
-0.19004
-0.192231
-0.19235
-0.190302
-0.186032
-0.179534
-0.170849
-0.160075
-0.147363
-0.132917
-0.116988
-0.09987
-0.0818888
-0.0633935
-0.0447458
-0.0263086
-0.00845046
0.0110522
0.031204
0.0494492
0.0658538
0.0804982
0.0934739
0.104879
0.114815
0.123384
0.130685
0.136814
0.141861
0.145909
0.149031
0.151295
0.152758
0.153469
0.153468
0.152788
0.151455
0.149487
0.146898
0.143695
0.139883
0.135463
0.130431
0.124785
0.118521
0.111633
0.104116
0.0959691
0.0871897
0.0777796
0.0677437
0.0570911
0.0458358
0.0339975
0.021603
0.00868636
-0.00470926
-0.0185311
-0.0327155
-0.0471867
-0.0618562
-0.0766212
-0.0913645
-0.105953
-0.120239
-0.134058
-0.147232
-0.15957
-0.17087
-0.180923
-0.189517
-0.196443
-0.201501
-0.204508
-0.205309
-0.20378
-0.199839
-0.193456
-0.184657
-0.173526
-0.160211
-0.144918
-0.127911
-0.109502
-0.090041
-0.0699073
-0.0494947
-0.0291995
-0.00942337
0.011628
0.0328072
0.0519639
0.0691718
0.0845188
0.0981042
0.110034
0.120417
0.129362
0.136978
0.143365
0.148621
0.152833
0.156083
0.158441
0.15997
0.160722
0.16074
0.160061
0.158712
0.156714
0.154081
0.150822
0.146942
0.142441
0.137316
0.131564
0.125179
0.118155
0.110486
0.102166
0.0931925
0.0835643
0.0732831
0.0623549
0.0507903
0.0386054
0.025823
0.0124735
-0.00140416
-0.015761
-0.0305369
-0.0456598
-0.0610435
-0.0765873
-0.0921747
-0.107672
-0.122928
-0.137775
-0.152026
-0.16548
-0.177921
-0.189122
-0.198849
-0.206868
-0.212952
-0.216888
-0.218485
-0.217588
-0.214086
-0.207919
-0.199089
-0.187666
-0.173789
-0.157664
-0.139564
-0.11982
-0.0988074
-0.076937
-0.0546375
-0.032341
-0.0104852
0.0121977
0.0343955
0.0544571
0.0724633
0.0885092
0.102701
0.115152
0.125979
0.135298
0.143224
0.149866
0.155327
0.159701
0.163075
0.165524
0.167116
0.167906
0.167942
0.167264
0.1659
0.163873
0.1612
0.15789
0.153948
0.149374
0.144168
0.138322
0.131832
0.124689
0.116886
0.108416
0.0992728
0.0894529
0.0789552
0.0677822
0.055941
0.0434438
0.0303093
0.0165635
0.00224091
-0.0126141
-0.027946
-0.0436866
-0.059754
-0.0760503
-0.0924613
-0.108854
-0.125077
-0.140957
-0.156304
-0.170905
-0.184533
-0.196943
-0.20788
-0.217084
-0.224298
-0.229276
-0.231791
-0.231651
-0.228709
-0.222871
-0.214111
-0.202476
-0.188091
-0.171161
-0.151964
-0.130849
-0.108217
-0.0845112
-0.0601987
-0.0357504
-0.0116427
0.0127598
0.0359644
0.0569222
0.0757198
0.0924588
0.107252
0.12022
0.131486
0.141175
0.149407
0.156298
0.161958
0.166489
0.169981
0.172516
0.174165
0.17499
0.175042
0.174361
0.172982
0.170927
0.168216
0.164858
0.16086
0.156222
0.150943
0.145016
0.138435
0.131191
0.123274
0.114675
0.105387
0.0954023
0.0847179
0.0733327
0.0612498
0.0484775
0.03503
0.0209287
0.00620304
-0.00910768
-0.0249532
-0.0412706
-0.0579826
-0.0749961
-0.0922002
-0.109464
-0.126638
-0.143547
-0.159996
-0.175766
-0.190617
-0.204289
-0.216506
-0.226983
-0.235431
-0.241567
-0.245128
-0.24588
-0.243631
-0.238251
-0.229676
-0.217926
-0.203105
-0.185411
-0.165125
-0.142611
-0.118295
-0.0926576
-0.0662031
-0.0394454
-0.0129031
0.0133128
0.0375103
0.0593531
0.0789333
0.096358
0.111746
0.125225
0.136924
0.146975
0.155505
0.162639
0.168492
0.173171
0.176774
0.179388
0.181089
0.181943
0.182004
0.181318
0.17992
0.177837
0.175088
0.171685
0.167635
0.16294
0.157597
0.1516
0.144942
0.137612
0.1296
0.120894
0.111486
0.101365
0.0905247
0.078961
0.0666731
0.0536653
0.039947
0.0255346
0.0104523
-0.00526635
-0.021577
-0.0384227
-0.0557324
-0.0734184
-0.091375
-0.109476
-0.127573
-0.145493
-0.163039
-0.179986
-0.196085
-0.211062
-0.224621
-0.236452
-0.246234
-0.253647
-0.258386
-0.26017
-0.258761
-0.253981
-0.245724
-0.233973
-0.218807
-0.200406
-0.179053
-0.155123
-0.129068
-0.101403
-0.0726751
-0.0434441
-0.0142736
0.0138555
0.0390299
0.0617452
0.0820975
0.100199
0.116173
0.130154
0.142278
0.152683
0.161503
0.16887
0.174905
0.179723
0.183428
0.186112
0.187856
0.188731
0.188796
0.188098
0.186677
0.184562
0.181774
0.178327
0.174228
0.169481
0.164081
0.158025
0.151302
0.143902
0.135813
0.127023
0.117519
0.10729
0.0963249
0.0846174
0.0721627
0.0589607
0.0450163
0.0303405
0.0149519
-0.00112203
-0.0178435
-0.0351625
-0.0530147
-0.0713195
-0.0899779
-0.108869
-0.12785
-0.146751
-0.165375
-0.183494
-0.200852
-0.217164
-0.232116
-0.245373
-0.256583
-0.265389
-0.271439
-0.274403
-0.27399
-0.269968
-0.262179
-0.250561
-0.235158
-0.216129
-0.193748
-0.168398
-0.140556
-0.110772
-0.0796389
-0.0477645
-0.0157618
0.014387
0.040521
0.0640946
0.0852073
0.103974
0.120525
0.134998
0.147536
0.158284
0.167383
0.174971
0.181177
0.186122
0.189916
0.192658
0.194435
0.195321
0.195379
0.194663
0.193212
0.191061
0.188231
0.184739
0.180593
0.175797
0.170347
0.164239
0.157464
0.150009
0.141861
0.133007
0.123432
0.113122
0.102064
0.0902481
0.0776657
0.0643125
0.0501886
0.0352997
0.0196586
0.00328623
-0.0137866
-0.0315174
-0.0498498