/*--------------------------------*- C++ -*----------------------------------*\
  =========                 |
  \\      /  F ield         | OpenFOAM: The Open Source CFD Toolbox
   \\    /   O peration     | Website:  https://openfoam.org
    \\  /    A nd           | Version:  dev
     \\/     M anipulation  |
\*---------------------------------------------------------------------------*/
FoamFile
{
    format      ascii;
    class       volScalarField;
    location    "26.1";
    object      p;
}
// * * * * * * * * * * * * * * * * * * * * * * * * * * * * * * * * * * * * * //

dimensions      [0 2 -2 0 0 0 0];

internalField   nonuniform List<scalar> 
5184
(
1.93943e-06
-9.27189e-06
-9.50455e-05
-0.000247861
-0.000447184
-0.000675743
-0.000919296
-0.00116589
-0.00140639
-0.00163365
-0.00184226
-0.00202819
-0.0021885
-0.0023211
-0.00242452
-0.00249775
-0.00254012
-0.00255119
-0.00253068
-0.00247843
-0.00239435
-0.00227843
-0.00213072
-0.00195137
-0.00174059
-0.00149878
-0.00122648
-0.000924427
-0.000593625
-0.000235342
0.000148839
0.000556992
0.000986823
0.00143566
0.00190044
0.00237773
0.0028637
0.00335419
0.00384472
0.00433056
0.00480677
0.00526827
0.00570996
0.00612673
0.00651364
0.00686599
0.00717941
0.00744998
0.00767431
0.00784969
0.0079741
0.00804632
0.00806603
0.00803377
0.00795104
0.00782029
0.00764491
0.00742922
0.00717842
0.00689856
0.00659651
0.00627987
0.00595695
0.00563671
0.00532869
0.00504297
0.00479006
0.00458058
0.00442449
0.00433023
0.0043033
0.00433057
1.58198e-05
3.39924e-06
-7.11565e-05
-0.000198861
-0.000364034
-0.000554209
-0.000758459
-0.000967182
-0.00117245
-0.00136789
-0.00154844
-0.00171021
-0.00185023
-0.00196626
-0.00205666
-0.00212024
-0.00215613
-0.00216374
-0.00214264
-0.00209254
-0.00201327
-0.00190474
-0.00176696
-0.00160003
-0.00140419
-0.0011798
-0.000927383
-0.000647674
-0.00034163
-1.04703e-05
0.0003443
0.000720862
0.00111707
0.00153043
0.0019581
0.0023969
0.00284331
0.00329352
0.00374343
0.00418871
0.00462488
0.00504733
0.00545143
0.00583259
0.00618635
0.0065085
0.00679514
0.00704277
0.00724842
0.0074097
0.0075249
0.00759301
0.00761385
0.00758803
0.00751702
0.00740316
0.00724963
0.00706042
0.00684035
0.00659496
0.0063305
0.00605384
0.00577242
0.00549416
0.00522736
0.00498061
0.00476255
0.00458157
0.00444497
0.00435869
0.00433013
0.00435772
0.000102553
7.78302e-05
2.51594e-06
-0.000114971
-0.000262607
-0.000430761
-0.000610728
-0.000794675
-0.000975906
-0.00114886
-0.00130904
-0.00145286
-0.00157749
-0.00168079
-0.0017611
-0.00181717
-0.00184808
-0.00185315
-0.00183188
-0.0017839
-0.00170898
-0.00160698
-0.00147786
-0.00132168
-0.00113863
-0.000929041
-0.000693397
-0.00043238
-0.000146888
0.000161937
0.000492683
0.000843648
0.00121282
0.00159787
0.00199616
0.0024047
0.00282024
0.00323921
0.00365781
0.00407203
0.0044777
0.00487056
0.00524631
0.00560071
0.00592966
0.00622926
0.00649593
0.00672646
0.00691815
0.00706883
0.00717697
0.00724172
0.00726295
0.00724132
0.00717828
0.00707604
0.00693762
0.00676679
0.00656803
0.00634651
0.00610798
0.00585875
0.00560556
0.00535553
0.00511603
0.00489452
0.00469847
0.00453494
0.00440995
0.00432873
0.00430094
0.00433155
0.000257542
0.000206139
0.000118367
-5.28349e-07
-0.000142892
-0.000300949
-0.000467574
-0.000636402
-0.000801896
-0.00095937
-0.00110495
-0.00123551
-0.00134853
-0.00144206
-0.00151457
-0.00156487
-0.00159206
-0.00159545
-0.00157453
-0.00152888
-0.00145824
-0.00136242
-0.00124132
-0.00109497
-0.000923496
-0.000727161
-0.000506391
-0.000261792
5.82277e-06
0.000295407
0.000605659
0.000935001
0.00128156
0.00164317
0.00201734
0.00240129
0.00279197
0.00318601
0.00357984
0.00396969
0.00435161
0.00472159
0.00507557
0.00540955
0.00571964
0.00600218
0.00625378
0.00647142
0.00665255
0.00679514
0.00689776
0.00695964
0.0069807
0.00696159
0.0069037
0.00680918
0.0066809
0.00652243
0.00633803
0.00613252
0.00591128
0.00568016
0.00544538
0.00521341
0.0049909
0.00478453
0.00460092
0.00444633
0.00432621
0.00424557
0.00421453
0.00423975
0.000462213
0.000373632
0.000265082
0.000137446
-6.83153e-06
-0.00016159
-0.000321059
-0.000480239
-0.000634723
-0.000780714
-0.000915033
-0.00103507
-0.00113871
-0.00122426
-0.0012904
-0.00133608
-0.00136046
-0.0013629
-0.00134289
-0.00130002
-0.00123398
-0.00114455
-0.00103158
-0.000895038
-0.000734976
-0.000551589
-0.000345213
-0.000116363
0.000134254
0.000405704
0.000696811
0.00100613
0.00133194
0.00167223
0.00202468
0.00238668
0.00275535
0.00312752
0.00349982
0.00386865
0.00423027
0.00458083
0.00491648
0.00523338
0.0055278
0.00579623
0.00603541
0.00624244
0.00641489
0.00655078
0.00664876
0.00670808
0.00672866
0.00671115
0.00665687
0.00656789
0.00644694
0.00629745
0.00612343
0.00592946
0.00572057
0.00550222
0.00528016
0.00506035
0.00484882
0.0046516
0.00447461
0.00432346
0.00420312
0.00411835
0.00407795
0.00408775
0.000700418
0.000568433
0.00043333
0.000291365
0.000139524
-1.74238e-05
-0.000174873
-0.000329083
-0.00047672
-0.000614859
-0.00074103
-0.000853186
-0.000949655
-0.00102908
-0.00109039
-0.0011327
-0.0011553
-0.00115764
-0.00113922
-0.00109965
-0.00103861
-0.00095583
-0.000851124
-0.000724379
-0.00057558
-0.000404825
-0.000212353
1.4351e-06
0.000235948
0.000490384
0.000763702
0.0010546
0.00136152
0.00168258
0.00201565
0.00235827
0.00270773
0.00306102
0.00341492
0.00376599
0.00411063
0.00444515
0.00476579
0.00506885
0.0053507
0.0056079
0.00583728
0.006036
0.00620166
0.00633232
0.00642663
0.00648383
0.00650384
0.00648724
0.0064353
0.00634999
0.00623394
0.00609042
0.00592325
0.00573678
0.00553578
0.00532537
0.00511091
0.00489791
0.00469192
0.00449843
0.00432277
0.00416999
0.00404464
0.00395113
0.00389594
0.00388284
0.000958366
0.000779671
0.000614211
0.000453756
0.000289935
0.00012635
-3.33755e-05
-0.000186643
-0.000331119
-0.000464715
-0.000585659
-0.000692482
-0.000783977
-0.000859159
-0.000917226
-0.000957518
-0.000979482
-0.000982642
-0.000966581
-0.000930925
-0.000875341
-0.000799533
-0.000703257
-0.000586329
-0.000448645
-0.000290204
-0.00011113
8.82996e-05
0.000307628
0.000546192
0.000803098
0.0010772
0.00136708
0.00167104
0.00198707
0.00231288
0.0026459
0.00298326
0.00332188
0.00365842
0.0039894
0.0043112
0.00462016
0.00491262
0.00518501
0.00543391
0.00565616
0.00584894
0.00600981
0.00613684
0.00622862
0.00628436
0.0063039
0.00628778
0.00623719
0.006154
0.00604072
0.0059005
0.00573701
0.00555439
0.00535721
0.0051503
0.00493873
0.00472764
0.0045222
0.00432744
0.00414822
0.00398912
0.00385436
0.00374799
0.00367368
0.00363265
0.00122394
0.000997209
0.000799135
0.000617336
0.000438329
0.000264753
9.93964e-05
-5.61706e-05
-0.000200539
-0.000332411
-0.000450688
-0.000554473
-0.000643031
-0.000715758
-0.000772155
-0.000811792
-0.000834284
-0.000839274
-0.000826415
-0.000795364
-0.000745784
-0.000677352
-0.000589764
-0.00048276
-0.00035614
-0.000209791
-4.37127e-05
0.000141954
0.000346895
0.000570601
0.000812332
0.0010711
0.00134564
0.00163441
0.00193556
0.00224693
0.00256607
0.00289025
0.00321647
0.00354149
0.0038619
0.00417414
0.00447455
0.00475951
0.00502542
0.00526885
0.00548662
0.00567582
0.00583397
0.00595906
0.00604961
0.00610474
0.00612421
0.00610846
0.00605858
0.00597636
0.00586419
0.0057251
0.00556262
0.00538076
0.00518389
0.00497665
0.00476386
0.00455038
0.00434108
0.00414065
0.00395358
0.00378403
0.00363602
0.00351326
0.0034165
0.00334432
0.00148688
0.0012119
0.000980046
0.000775072
0.000578658
0.000392639
0.000219099
5.86773e-05
-8.80692e-05
-0.00022058
-0.000338403
-0.000441192
-0.000528675
-0.000600635
-0.000656876
-0.000697209
-0.000721427
-0.000729296
-0.000720546
-0.000694869
-0.000651927
-0.000591365
-0.00051282
-0.000415947
-0.000300443
-0.000166073
-1.27024e-05
0.000159673
0.000350896
0.000560614
0.000788254
0.00103299
0.00129372
0.00156904
0.00185726
0.00215635
0.00246398
0.00277751
0.00309403
0.00341036
0.00372312
0.00402876
0.00432364
0.00460407
0.00486642
0.0051072
0.0053231
0.00551115
0.00566874
0.00579374
0.00588456
0.00594019
0.00596027
0.00594511
0.0058957
0.0058137
0.00570143
0.00556177
0.00539816
0.00521447
0.00501494
0.00480407
0.00458649
0.00436687
0.00414985
0.00393989
0.00374118
0.0035576
0.00339301
0.00325094
0.00312921
0.00302388
0.00173822
0.00141548
0.00114945
0.000920237
0.000704954
0.000504759
0.000321133
0.00015387
2.74282e-06
-0.000132377
-0.000251646
-0.000355246
-0.000443355
-0.000516126
-0.00057367
-0.000616032
-0.000643185
-0.000655019
-0.000651341
-0.000631878
-0.00059629
-0.000544183
-0.000475129
-0.000388696
-0.000284465
-0.000162075
-2.12451e-05
0.000138185
0.000316222
0.000512683
0.000727164
0.000959008
0.00120728
0.00147073
0.0017478
0.00203659
0.00233489
0.00264014
0.00294949
0.0032598
0.0035677
0.00386962
0.00416188
0.00444072
0.00470241
0.00494335
0.00516009
0.00534952
0.00550886
0.00563582
0.00572864
0.00578615
0.00580783
0.00579384
0.00574504
0.00566295
0.00554978
0.00540831
0.00524188
0.00505426
0.00484959
0.00463227
0.00440682
0.00417779
0.00394967
0.00372676
0.00351307
0.0033123
0.00312826
0.00296441
0.0028158
0.0026761
0.00197003
0.00160046
0.00130037
0.00104643
0.0008114
0.000595867
0.000400781
0.000225164
6.80654e-05
-7.12884e-05
-0.000193626
-0.000299628
-0.000389903
-0.000464959
-0.000525199
-0.000570899
-0.000602202
-0.000619118
-0.000621528
-0.000609187
-0.000581747
-0.000538771
-0.000479761
-0.000404184
-0.000311504
-0.000201219
-7.28945e-05
7.37957e-05
0.000239032
0.000422809
0.000624902
0.000844827
0.00108182
0.00133478
0.00160231
0.00188263
0.00217361
0.00247278
0.00277734
0.00308417
0.00338988
0.00369087
0.00398338
0.00426354
0.0045275
0.00477147
0.00499187
0.00518534
0.00534894
0.00548014
0.00557697
0.00563806
0.00566268
0.00565082
0.00560317
0.0055211
0.00540669
0.00526262
0.00509213
0.00489893
0.00468709
0.00446095
0.00422497
0.00398367
0.00374146
0.00350259
0.00327098
0.00305021
0.00284422
0.0026565
0.00247947
0.00230458
0.00217516
0.00175997
0.00142631
0.00114755
0.000892351
0.000660766
0.000453273
0.000268184
0.000103867
-4.10496e-05
-0.000167833
-0.000277636
-0.00037147
-0.000450184
-0.000514453
-0.000564771
-0.000601441
-0.000624585
-0.000634146
-0.000629903
-0.000611489
-0.000578418
-0.000530111
-0.000465929
-0.000385206
-0.000287291
-0.000171585
-3.75868e-05
0.000115068
0.000286562
0.000476857
0.000685653
0.000912357
0.00115604
0.00141544
0.0016889
0.00197441
0.00226955
0.00257156
0.00287733
0.00318344
0.00348623
0.00378182
0.00406622
0.00433542
0.00458542
0.0048124
0.0050128
0.00518338
0.00532138
0.00542455
0.00549126
0.00552055
0.00551218
0.00546664
0.00538513
0.00526959
0.00512257
0.00494724
0.00474725
0.00452664
0.00428973
0.00404099
0.00378494
0.00352602
0.0032685
0.00301632
0.00277306
0.00254287
0.0023294
0.00212261
0.00191186
0.00234707
0.00188764
0.00152113
0.0012178
0.000942342
0.000694338
0.000473833
0.000278466
0.000105972
-4.55885e-05
-0.000177987
-0.000292822
-0.000391482
-0.000475133
-0.000544708
-0.0006009
-0.000644159
-0.000674705
-0.000692533
-0.000697432
-0.00068901
-0.000666721
-0.000629896
-0.000577777
-0.00050956
-0.000424433
-0.000321624
-0.000200445
-6.03361e-05
9.90836e-05
0.000277974
0.000476228
0.000693434
0.000928842
0.00118133
0.00144937
0.00173105
0.00202404
0.0023256
0.00263262
0.00294163
0.00324889
0.0035504
0.00384201
0.00411949
0.00437862
0.00461532
0.00482572
0.00500629
0.00515394
0.00526612
0.00534089
0.00537699
0.00537392
0.0053319
0.00525196
0.00513585
0.00498601
0.00480551
0.00459796
0.0043674
0.00411817
0.00385479
0.00358186
0.00330392
0.00302536
0.00275021
0.00248218
0.00222571
0.00198475
0.00174694
0.00149961
0.00247967
0.00197749
0.00157907
0.00125164
0.000956091
0.00069157
0.000457712
0.000251515
7.01137e-05
-8.89675e-05
-0.000227978
-0.000348933
-0.000453577
-0.000543371
-0.000619483
-0.000682787
-0.000733866
-0.000773021
-0.000800286
-0.000815449
-0.000818081
-0.000807562
-0.000783123
-0.000743878
-0.000688873
-0.000617126
-0.000527676
-0.000419637
-0.000292244
-0.000144903
2.27546e-05
0.000210829
0.000419103
0.000647006
0.000893577
0.00115743
0.00143676
0.00172931
0.00203236
0.00234281
0.00265715
0.00297151
0.00328178
0.0035836
0.00387251
0.00414403
0.00439376
0.00461751
0.00481137
0.0049719
0.00509615
0.00518184
0.00522734
0.00523183
0.00519525
0.00511838
0.00500276
0.00485069
0.00466516
0.00444973
0.00420846
0.00394573
0.0036662
0.00337458
0.0030756
0.00277383
0.00247352
0.00217858
0.00189387
0.00162373
0.00135355
0.00106873
0.00256725
0.00202392
0.00159465
0.00124377
0.000928498
0.000647571
0.000400223
0.000182843
-8.01324e-06
-0.00017533
-0.00032181
-0.000449861
-0.000561561
-0.000658641
-0.000742487
-0.000814135
-0.000874281
-0.000923292
-0.000961228
-0.000987861
-0.00100271
-0.00100507
-0.000994065
-0.000968665
-0.000927752
-0.000870162
-0.000794737
-0.000700378
-0.000586098
-0.000451079
-0.000294725
-0.000116718
8.29375e-05
0.000303866
0.000545281
0.000805953
0.00108418
0.0013778
0.00168414
0.00200008
0.00232206
0.00264613
0.00296798
0.00328308
0.00358669
0.00387403
0.00414035
0.00438105
0.00459185
0.00476885
0.00490868
0.0050086
0.00506659
0.00508143
0.00505273
0.00498095
0.00486741
0.00471424
0.0045243
0.00430113
0.0040488
0.00377181
0.00347494
0.00316313
0.00284133
0.00251441
0.00218689
0.001863
0.0015481
0.00124706
0.000943042
0.000619547
0.00260441
0.0020216
0.00156267
0.00118911
0.000854645
0.000557583
0.00029677
6.80055e-05
-0.000132712
-0.000308854
-0.000463553
-0.000599589
-0.000719348
-0.000824816
-0.000917573
-0.0009988
-0.00106929
-0.00112945
-0.00117936
-0.00121876
-0.00124711
-0.0012636
-0.00126723
-0.00125681
-0.00123106
-0.00118862
-0.00112811
-0.00104821
-0.000947691
-0.0008255
-0.000680797
-0.000513022
-0.000321952
-0.000107746
0.000129002
0.000387232
0.000665382
0.000961374
0.0012726
0.00159595
0.0019278
0.0022641
0.00260038
0.00293187
0.00325356
0.00356033
0.00384702
0.00410862
0.00434036
0.00453785
0.00469722
0.00481521
0.00488933
0.00491788
0.00490007
0.004836
0.00472669
0.00457408
0.00438088
0.00415059
0.00388732
0.00359569
0.00328066
0.00294744
0.00260129
0.00224743
0.00189077
0.00153594
0.00118892
0.000855154
0.000515631
0.000151914
0.00258601
0.0019655
0.00147817
0.00108282
0.000729807
0.000417002
0.000142871
-9.73642e-05
-0.000308242
-0.000493703
-0.000657292
-0.000802137
-0.000930916
-0.00104585
-0.00114869
-0.00124075
-0.00132289
-0.00139556
-0.00145884
-0.00151241
-0.00155565
-0.00158766
-0.00160729
-0.00161319
-0.00160389
-0.00157781
-0.00153335
-0.00146895
-0.00138313
-0.00127457
-0.00114217
-0.000985099
-0.000802893
-0.00059547
-0.000363203
-0.000106963
0.000171849
0.000471274
0.000788779
0.00112127
0.00146508
0.00181607
0.00216959
0.00252065
0.00286391
0.00319389
0.00350501
0.00379176
0.00404884
0.00427129
0.00445467
0.00459513
0.0046896
0.00473584
0.00473257
0.00467946
0.00457718
0.00442739
0.00423266
0.00399641
0.00372279
0.00341656
0.00308291
0.00272735
0.00235555
0.00197314
0.00158551
0.00119777
0.000816617
0.000448179
7.12248e-05
-0.000334662
0.00250714
0.00185079
0.00133645
0.000920291
0.000549457
0.000221396
-6.58159e-05
-0.000317522
-0.000538781
-0.000733988
-0.00090708
-0.00106152
-0.00120025
-0.00132572
-0.00143982
-0.00154399
-0.00163915
-0.00172576
-0.00180388
-0.00187314
-0.00193282
-0.00198191
-0.00201909
-0.00204285
-0.0020515
-0.00204324
-0.00201625
-0.00196868
-0.00189879
-0.00180498
-0.00168586
-0.00154032
-0.00136761
-0.00116738
-0.000939755
-0.000685383
-0.000405478
-0.000101851
0.000223066
0.000566217
0.00092393
0.00129195
0.00166549
0.00203929
0.00240772
0.00276488
0.00310473
0.00342121
0.00370843
0.00396081
0.00417322
0.00434114
0.00446084
0.00452944
0.00454505
0.00450685
0.00441507
0.00427105
0.00407714
0.00383667
0.00355382
0.00323349
0.00288115
0.00250265
0.00210412
0.00169171
0.00127135
0.000848727
0.00043135
2.61322e-05
-0.000390459
-0.000840904
0.00236315
0.00167293
0.00113302
0.000697124
0.000309282
-3.34766e-05
-0.000333465
-0.00059658
-0.000828387
-0.00103372
-0.0012169
-0.00138169
-0.00153131
-0.00166837
-0.00179495
-0.00191255
-0.00202214
-0.00212421
-0.00221875
-0.00230533
-0.00238315
-0.00245103
-0.00250751
-0.00255088
-0.00257924
-0.00259056
-0.00258272
-0.00255364
-0.00250126
-0.00242367
-0.00231918
-0.00218637
-0.00202417
-0.00183193
-0.00160949
-0.00135725
-0.00107618
-0.000767913
-0.000434753
-7.96768e-05
0.00029365
0.000680903
0.00107714
0.00147687
0.00187412
0.00226259
0.0026357
0.00298684
0.00330944
0.0035972
0.00384423
0.00404526
0.00419576
0.00429212
0.00433174
0.00431318
0.00423616
0.00410159
0.00391155
0.00366925
0.00337887
0.00304545
0.00267477
0.00227307
0.00184699
0.00140329
0.000948504
0.000489013
3.32262e-05
-0.000411065
-0.00086981
-0.00136766
0.00214963
0.00142761
0.000863688
0.000409173
5.19659e-06
-0.000351644
-0.000664056
-0.000938475
-0.00118096
-0.00139678
-0.0015906
-0.0017665
-0.00192793
-0.00207769
-0.00221798
-0.00235038
-0.0024759
-0.00259501
-0.00270766
-0.00281336
-0.00291115
-0.00299973
-0.00307747
-0.00314245
-0.00319253
-0.00322543
-0.00323877
-0.00323015
-0.00319721
-0.0031377
-0.0030496
-0.00293114
-0.00278089
-0.00259787
-0.0023816
-0.00213216
-0.00185027
-0.00153733
-0.00119545
-0.000827503
-0.000437111
-2.86368e-05
0.000392849
0.000821621
0.00125139
0.00167539
0.00208654
0.00247757
0.0028412
0.00317031
0.00345818
0.00369864
0.00388628
0.00401659
0.00408619
0.00409286
0.00403568
0.00391508
0.00373277
0.00349176
0.0031962
0.0028513
0.00246309
0.00203832
0.00158415
0.00110803
0.000617226
0.000118859
-0.000377636
-0.000863493
-0.00136723
-0.00191581
0.00186242
0.00111081
0.00052449
5.2552e-05
-0.000366632
-0.000736897
-0.00106134
-0.00134694
-0.00160022
-0.00182686
-0.00203188
-0.00221965
-0.00239383
-0.00255742
-0.0027127
-0.00286133
-0.00300434
-0.00314218
-0.00327476
-0.00340147
-0.00352124
-0.00363263
-0.00373379
-0.00382261
-0.0038967
-0.00395351
-0.00399037
-0.00400455
-0.00399336
-0.0039542
-0.00388467
-0.00378261
-0.00364622
-0.00347413
-0.00326549
-0.00302002
-0.00273812
-0.00242091
-0.00207026
-0.00168889
-0.00128031
-0.000848901
-0.000399823
6.09934e-05
0.000526931
0.00099079
0.00144492
0.00188137
0.00229206
0.00266902
0.00300456
0.00329149
0.00352338
0.00369474
0.00380117
0.0038396
0.00380833
0.00370713
0.00353728
0.0033015
0.00300388
0.00264972
0.00224539
0.00179808
0.00131562
0.00080618
0.000277841
-0.000261418
-0.00080103
-0.00133115
-0.00188304
-0.00248617
0.00149766
0.000718758
0.000111765
-0.000376345
-0.000809764
-0.00119276
-0.00152883
-0.00182544
-0.00208962
-0.00232742
-0.00254421
-0.00274462
-0.00293253
-0.00311108
-0.00328268
-0.00344903
-0.00361118
-0.00376955
-0.00392397
-0.00407375
-0.00421768
-0.00435415
-0.00448113
-0.00459626
-0.00469692
-0.00478028
-0.00484333
-0.00488303
-0.00489631
-0.00488019
-0.00483187
-0.00474876
-0.00462864
-0.00446971
-0.00427069
-0.00403089
-0.00375032
-0.00342975
-0.00307078
-0.00267587
-0.00224841
-0.0017927
-0.00131396
-0.000818299
-0.000312634
0.000195399
0.000697567
0.0011852
0.00164939
0.00208118
0.00247182
0.002813
0.00309712
0.0033175
0.00346863
0.00354637
0.00354808
0.00347277
0.00332111
0.00309545
0.0027997
0.00243928
0.00202083
0.00155206
0.00104147
0.000498059
-6.91933e-05
-0.000651352
-0.00123659
-0.00181387
-0.00241742
-0.0030794
0.00105177
0.000248031
-0.000377844
-0.00088082
-0.00132746
-0.00172247
-0.00206973
-0.00237721
-0.00265238
-0.00290169
-0.00313081
-0.00334465
-0.00354728
-0.00374199
-0.00393128
-0.00411691
-0.00429991
-0.00448069
-0.00465899
-0.00483402
-0.00500445
-0.00516847
-0.00532386
-0.00546804
-0.00559812
-0.00571095
-0.00580323
-0.00587153
-0.00591241
-0.00592248
-0.00589848
-0.00583737
-0.00573647
-0.00559348
-0.00540663
-0.00517478
-0.00489747
-0.00457505
-0.00420876
-0.00380075
-0.00335419
-0.00287326
-0.00236317
-0.00183015
-0.00128139
-0.00072495
-0.000169638
0.000375132
0.000899543
0.0013936
0.00184739
0.00225133
0.00259649
0.00287485
0.00307958
0.00320529
0.00324822
0.00320641
0.00307977
0.00287015
0.00258122
0.00221837
0.00178855
0.00129997
0.000761875
0.000184151
-0.000423227
-0.00105026
-0.00168371
-0.00231124
-0.00297029
-0.00369591
0.000521542
-0.000304477
-0.000947359
-0.00146385
-0.00192267
-0.00232894
-0.00268694
-0.00300512
-0.00329139
-0.00355255
-0.00379459
-0.00402266
-0.00424104
-0.00445313
-0.00466152
-0.00486802
-0.00507367
-0.00527881
-0.00548314
-0.00568574
-0.00588515
-0.00607937
-0.00626599
-0.00644218
-0.00660478
-0.00675034
-0.00687521
-0.00697558
-0.00704761
-0.00708745
-0.00709138
-0.00705586
-0.00697767
-0.00685398
-0.00668249
-0.00646148
-0.00619
-0.00586788
-0.00549591
-0.00507586
-0.00461058
-0.00410404
-0.00356139
-0.00298891
-0.00239399
-0.00178508
-0.00117158
-0.000563644
2.79594e-05
0.000592122
0.00111765
0.00159357
0.00200946
0.00235575
0.00262409
0.00280761
0.00290122
0.00290176
0.00280823
0.00262176
0.00234564
0.0019852
0.0015476
0.00104158
0.000477132
-0.000134872
-0.000783362
-0.00145716
-0.00214149
-0.00282252
-0.00354122
-0.00433578
-9.58814e-05
-0.000941503
-0.00159944
-0.00212804
-0.00259796
-0.00301473
-0.00338302
-0.00371174
-0.0040092
-0.00428256
-0.00453812
-0.00478124
-0.00501638
-0.00524709
-0.00547604
-0.00570505
-0.00593519
-0.00616674
-0.00639933
-0.00663192
-0.00686292
-0.00709015
-0.007311
-0.00752239
-0.00772087
-0.00790269
-0.00806384
-0.00820012
-0.00830725
-0.00838091
-0.00841686
-0.00841103
-0.00835963
-0.00825922
-0.00810689
-0.00790031
-0.00763791
-0.00731895
-0.00694366
-0.00651331
-0.00603037
-0.00549849
-0.00492265
-0.0043091
-0.00366538
-0.00300027
-0.00232371
-0.00164662
-0.000980723
-0.000338318
0.000268033
0.000825817
0.00132294
0.00174811
0.0020912
0.00234363
0.00249869
0.00255182
0.00250081
0.00234592
0.00208987
0.00173778
0.00129698
0.000776685
0.000187689
-0.000458092
-0.00114839
-0.00187073
-0.0026086
-0.00334656
-0.00412938
-0.00499864
-0.000802949
-0.00166539
-0.00233638
-0.00287564
-0.00335556
-0.00378205
-0.00416016
-0.00449924
-0.00480798
-0.0050939
-0.00536355
-0.00562253
-0.00587548
-0.00612606
-0.00637702
-0.00663022
-0.00688671
-0.00714676
-0.00740989
-0.00767499
-0.0079403
-0.0082035
-0.00846173
-0.00871169
-0.00894965
-0.00917153
-0.00937295
-0.00954931
-0.00969588
-0.00980783
-0.00988038
-0.00990888
-0.0098889
-0.00981637
-0.00968767
-0.0094998
-0.00925047
-0.00893827
-0.00856278
-0.00812468
-0.0076259
-0.0070697
-0.00646075
-0.00580517
-0.00511057
-0.00438598
-0.00364182
-0.00288975
-0.00214247
-0.00141351
-0.000716875
-6.6761e-05
0.000522904
0.00103886
0.00146899
0.0018027
0.0020314
0.0021488
0.00215123
0.00203779
0.00181044
0.00147393
0.00103562
0.00050517
-0.00010581
-0.000784301
-0.00151674
-0.00228919
-0.00308325
-0.00388169
-0.00473338
-0.00568359
-0.00160167
-0.00247807
-0.00316002
-0.00370848
-0.00419727
-0.00463268
-0.00502014
-0.00536938
-0.0056895
-0.0059883
-0.00627262
-0.00654826
-0.00682004
-0.00709172
-0.00736614
-0.00764519
-0.00792992
-0.00822056
-0.00851657
-0.00881673
-0.00911915
-0.00942134
-0.00972024
-0.0100123
-0.0102935
-0.0105595
-0.0108054
-0.0110264
-0.011217
-0.0113722
-0.0114863
-0.0115543
-0.011571
-0.0115315
-0.0114316
-0.0112674
-0.0110359
-0.0107348
-0.0103631
-0.00992061
-0.00940868
-0.00883002
-0.00818886
-0.00749109
-0.00674423
-0.0059575
-0.0051417
-0.00430918
-0.00347359
-0.00264972
-0.00185311
-0.00109974
-0.000405549
0.000214034
0.000744597
0.00117327
0.00148923
0.00168413
0.0017525
0.00169199
0.00150351
0.00119123
0.000762385
0.000227013
-0.00040249
-0.00111194
-0.00188637
-0.00271025
-0.00356308
-0.00442562
-0.00535122
-0.00638908
-0.00249361
-0.003381
-0.00407181
-0.00462797
-0.00512448
-0.00556801
-0.00596431
-0.00632352
-0.00665506
-0.00696706
-0.00726658
-0.00755965
-0.00785123
-0.00814521
-0.0084445
-0.00875102
-0.00906584
-0.00938915
-0.00972036
-0.0100581
-0.0104005
-0.0107448
-0.0110877
-0.0114255
-0.0117539
-0.0120681
-0.012363
-0.0126333
-0.0128731
-0.0130766
-0.0132378
-0.0133509
-0.0134098
-0.0134092
-0.0133438
-0.013209
-0.0130008
-0.0127162
-0.012353
-0.0119104
-0.011389
-0.0107906
-0.0101191
-0.0093799
-0.00858029
-0.00772952
-0.00683872
-0.0059208
-0.00499036
-0.0040634
-0.00315707
-0.00228921
-0.00147795
-0.0007411
-9.56381e-05
0.000442952
0.000861256
0.0011485
0.00129701
0.00130263
0.00116488
0.000887068
0.000476126
-5.76781e-05
-0.000701194
-0.00143904
-0.00225473
-0.00313102
-0.00404505
-0.00497534
-0.00598011
-0.0071128
-0.00347981
-0.00437521
-0.00507274
-0.00563508
-0.00613815
-0.00658897
-0.00699359
-0.00736253
-0.00770553
-0.00803097
-0.00834617
-0.00865736
-0.00896965
-0.00928705
-0.00961253
-0.00994808
-0.0102948
-0.0106527
-0.0110214
-0.0113993
-0.0117844
-0.0121738
-0.0125641
-0.0129513
-0.0133309
-0.0136977
-0.0140463
-0.0143707
-0.0146649
-0.0149223
-0.0151364
-0.0153005
-0.015408
-0.0154525
-0.015428
-0.0153289
-0.0151503
-0.014888
-0.0145391
-0.0141017
-0.0135753
-0.0129611
-0.0122621
-0.0114832
-0.0106314
-0.00971564
-0.00874733
-0.00773983
-0.00670856
-0.00567074
-0.00464509
-0.00365142
-0.00271017
-0.00184177
-0.00106601
-0.000401337
0.000135847
0.000531899
0.000776529
0.000863303
0.00078998
0.000558652
0.000175674
-0.000348629
-0.00100043
-0.00176314
-0.00261867
-0.00354787
-0.0045253
-0.00552701
-0.00661642
-0.00785152
-0.00456083
-0.00546123
-0.00616331
-0.00673032
-0.00723879
-0.00769604
-0.00810846
-0.00848685
-0.00884125
-0.00918032
-0.00951161
-0.00984151
-0.0101753
-0.0105171
-0.01087
-0.011236
-0.0116162
-0.0120107
-0.012419
-0.0128395
-0.0132699
-0.0137075
-0.0141485
-0.0145888
-0.0150234
-0.0154472
-0.015854
-0.0162378
-0.0165917
-0.0169087
-0.0171816
-0.0174031
-0.0175657
-0.0176621
-0.0176855
-0.017629
-0.0174869
-0.0172539
-0.0169258
-0.0164996
-0.0159739
-0.0153488
-0.0146263
-0.0138107
-0.0129082
-0.0119278
-0.0108805
-0.00978021
-0.00864297
-0.00748715
-0.00633301
-0.00520237
-0.00411808
-0.00310337
-0.00218114
-0.00137314
-0.000699176
-0.000176222
0.000182299
0.000367189
0.000373949
0.000203043
-0.000140099
-0.000645336
-0.0012983
-0.00208121
-0.0029743
-0.00395635
-0.00499908
-0.00607577
-0.00725546
-0.00860096
-0.00573669
-0.00663908
-0.00734358
-0.00791375
-0.00842645
-0.00888928
-0.0093089
-0.0096964
-0.0100621
-0.0104149
-0.0107625
-0.0111116
-0.0114675
-0.0118346
-0.0122159
-0.0126136
-0.0130287
-0.0134615
-0.0139113
-0.0143766
-0.014855
-0.0153435
-0.0158384
-0.0163353
-0.016829
-0.0173138
-0.0177837
-0.0182317
-0.0186508
-0.0190333
-0.0193712
-0.0196566
-0.0198811
-0.0200366
-0.0201151
-0.0201088
-0.0200108
-0.0198144
-0.0195145
-0.0191067
-0.0185883
-0.0179582
-0.0172175
-0.0163693
-0.0154192
-0.0143754
-0.0132491
-0.0120539
-0.0108067
-0.00952664
-0.00823555
-0.00695723
-0.00571701
-0.00454106
-0.00345564
-0.00248618
-0.00165628
-0.000986785
-0.000494798
-0.00019286
-8.82863e-05
-0.000182761
-0.00047221
-0.000946999
-0.00159242
-0.00238956
-0.00331692
-0.00435105
-0.00546056
-0.00661566
-0.00789137
-0.00935564
-0.00700686
-0.0079083
-0.00861313
-0.00918497
-0.00970074
-0.0101683
-0.0105945
-0.0109907
-0.0113674
-0.0117339
-0.012098
-0.0124665
-0.012845
-0.0132379
-0.0136484
-0.0140787
-0.0145301
-0.0150026
-0.0154956
-0.0160076
-0.0165363
-0.0170784
-0.0176301
-0.0181868
-0.0187432
-0.0192934
-0.0198307
-0.020348
-0.0208376
-0.0212913
-0.0217005
-0.0220564
-0.0223499
-0.0225718
-0.022713
-0.0227649
-0.0227189
-0.0225674
-0.0223037
-0.0219222
-0.0214186
-0.0207907
-0.0200381
-0.0191627
-0.0181693
-0.0170652
-0.015861
-0.0145704
-0.0132104
-0.0118011
-0.0103657
-0.00892973
-0.00752116
-0.00616918
-0.00490362
-0.00375389
-0.00274788
-0.00191079
-0.00126403
-0.000824132
-0.000601879
-0.000601716
-0.000821464
-0.00125242
-0.0018798
-0.00268369
-0.00364085
-0.00472547
-0.0059027
-0.00713938
-0.0085169
-0.0101087
-0.00837029
-0.00926794
-0.00997108
-0.0105431
-0.0110608
-0.0115321
-0.0119642
-0.0123686
-0.0127561
-0.013136
-0.0135165
-0.0139045
-0.0143057
-0.0147248
-0.015165
-0.0156286
-0.016117
-0.0166303
-0.0171679
-0.0177283
-0.018309
-0.018907
-0.0195182
-0.0201377
-0.0207603
-0.0213795
-0.0219885
-0.0225798
-0.0231451
-0.0236757
-0.0241623
-0.0245953
-0.0249647
-0.0252605
-0.0254724
-0.0255904
-0.025605
-0.025507
-0.0252883
-0.0249416
-0.0244614
-0.0238437
-0.0230867
-0.0221909
-0.0211598
-0.0199998
-0.0187206
-0.0173355
-0.0158617
-0.0143197
-0.0127337
-0.0111314
-0.00954292
-0.00800063
-0.00653809
-0.00518899
-0.0039859
-0.00295897
-0.00213453
-0.00153383
-0.00117187
-0.00105658
-0.00118832
-0.00155985
-0.00215672
-0.0029582
-0.00393933
-0.0050718
-0.00631704
-0.00763813
-0.00912327
-0.0108515
-0.00982539
-0.0107166
-0.0114161
-0.011987
-0.0125055
-0.0129796
-0.0134168
-0.0138288
-0.0142265
-0.0146194
-0.0150159
-0.0154231
-0.015847
-0.0162921
-0.0167621
-0.0172593
-0.0177851
-0.0183399
-0.018923
-0.0195329
-0.0201674
-0.020823
-0.0214957
-0.0221808
-0.0228724
-0.0235642
-0.0242488
-0.0249184
-0.0255642
-0.026177
-0.0267469
-0.0272634
-0.0277157
-0.0280926
-0.028383
-0.0285755
-0.0286593
-0.0286237
-0.028459
-0.0281565
-0.0277088
-0.0271103
-0.0263575
-0.0254494
-0.0243877
-0.0231777
-0.021828
-0.0203512
-0.0187641
-0.0170876
-0.0153468
-0.0135708
-0.0117921
-0.0100461
-0.00837027
-0.00680275
-0.00538122
-0.00414127
-0.00311487
-0.00232872
-0.00180291
-0.00154967
-0.00157271
-0.00186689
-0.00241858
-0.00320657
-0.00420427
-0.00538079
-0.00669354
-0.00810143
-0.00969987
-0.0115739
-0.0113701
-0.0122523
-0.0129464
-0.0135149
-0.014033
-0.0145091
-0.0149506
-0.0153694
-0.0157765
-0.0161818
-0.0165936
-0.0170194
-0.0174653
-0.0179361
-0.0184355
-0.018966
-0.0195293
-0.0201256
-0.0207546
-0.0214148
-0.0221037
-0.0228183
-0.0235543
-0.0243069
-0.0250701
-0.0258372
-0.0266008
-0.0273526
-0.0280834
-0.0287834
-0.0294419
-0.0300479
-0.0305896
-0.0310549
-0.0314314
-0.0317066
-0.0318681
-0.0319039
-0.0318027
-0.031554
-0.0311486
-0.030579
-0.02984
-0.0289285
-0.0278448
-0.0265922
-0.0251781
-0.0236142
-0.0219164
-0.0201057
-0.0182076
-0.0162524
-0.0142749
-0.0123132
-0.0104088
-0.00860435
-0.00694301
-0.00546634
-0.00421259
-0.00321478
-0.00249895
-0.00208265
-0.00197379
-0.0021702
-0.00265969
-0.003421
-0.00442611
-0.00564151
-0.00702027
-0.00851678
-0.0102341
-0.0122632
-0.0130017
-0.0138728
-0.01456
-0.0151248
-0.0156416
-0.0161186
-0.0165634
-0.016988
-0.0174037
-0.0178202
-0.0182464
-0.0186898
-0.0191566
-0.019652
-0.0201799
-0.020743
-0.021343
-0.0219805
-0.0226551
-0.0233655
-0.0241094