/*--------------------------------*- C++ -*----------------------------------*\
  =========                 |
  \\      /  F ield         | OpenFOAM: The Open Source CFD Toolbox
   \\    /   O peration     | Website:  https://openfoam.org
    \\  /    A nd           | Version:  dev
     \\/     M anipulation  |
\*---------------------------------------------------------------------------*/
FoamFile
{
    format      ascii;
    class       volVectorField;
    location    "26.1";
    object      U;
}
// * * * * * * * * * * * * * * * * * * * * * * * * * * * * * * * * * * * * * //

dimensions      [0 1 -1 0 0 0 0];

internalField   nonuniform List<vector> 
5184
(
(1.22795e-05 -1.27465e-05 0)
(4.50846e-05 -2.09042e-05 0)
(8.02594e-05 -1.72473e-05 0)
(9.59169e-05 -8.19181e-06 0)
(8.20844e-05 2.67212e-06 0)
(3.63904e-05 1.36173e-05 0)
(-4.0613e-05 2.38428e-05 0)
(-0.000146905 3.30421e-05 0)
(-0.000279696 4.10963e-05 0)
(-0.000435928 4.80112e-05 0)
(-0.000612482 5.38488e-05 0)
(-0.000806327 5.86944e-05 0)
(-0.00101459 6.26406e-05 0)
(-0.00123462 6.57783e-05 0)
(-0.00146394 6.81917e-05 0)
(-0.00170031 6.99561e-05 0)
(-0.00194165 7.11359e-05 0)
(-0.00218605 7.17841e-05 0)
(-0.00243171 7.19413e-05 0)
(-0.00267697 7.16371e-05 0)
(-0.00292022 7.08909e-05 0)
(-0.00315989 6.97128e-05 0)
(-0.00339445 6.81058e-05 0)
(-0.00362239 6.6067e-05 0)
(-0.00384217 6.35893e-05 0)
(-0.00405226 6.06631e-05 0)
(-0.00425111 5.72777e-05 0)
(-0.00443713 5.34236e-05 0)
(-0.00460875 4.90935e-05 0)
(-0.0047644 4.42846e-05 0)
(-0.00490251 3.89992e-05 0)
(-0.00502156 3.32468e-05 0)
(-0.00512009 2.70445e-05 0)
(-0.00519673 2.04182e-05 0)
(-0.00525021 1.34035e-05 0)
(-0.00527942 6.04624e-06 0)
(-0.00528342 -1.59754e-06 0)
(-0.00526147 -9.46145e-06 0)
(-0.00521308 -1.7469e-05 0)
(-0.00513803 -2.55344e-05 0)
(-0.00503636 -3.35632e-05 0)
(-0.00490846 -4.14539e-05 0)
(-0.00475503 -4.90995e-05 0)
(-0.00457712 -5.6389e-05 0)
(-0.00437615 -6.321e-05 0)
(-0.00415385 -6.94505e-05 0)
(-0.00391233 -7.50016e-05 0)
(-0.003654 -7.97606e-05 0)
(-0.0033816 -8.36328e-05 0)
(-0.00309813 -8.65346e-05 0)
(-0.00280683 -8.83953e-05 0)
(-0.00251111 -8.91597e-05 0)
(-0.00221455 -8.87895e-05 0)
(-0.0019208 -8.72652e-05 0)
(-0.00163353 -8.45864e-05 0)
(-0.00135639 -8.07724e-05 0)
(-0.0010929 -7.58623e-05 0)
(-0.000846444 -6.99148e-05 0)
(-0.00062016 -6.30075e-05 0)
(-0.0004169 -5.52365e-05 0)
(-0.000239163 -4.67159e-05 0)
(-8.90245e-05 -3.75785e-05 0)
(3.19255e-05 -2.79787e-05 0)
(0.000122674 -1.80989e-05 0)
(0.000182887 -8.16486e-06 0)
(0.000213068 1.52813e-06 0)
(0.0002148 1.05574e-05 0)
(0.000191132 1.82866e-05 0)
(0.000147091 2.37039e-05 0)
(9.07662e-05 2.51177e-05 0)
(3.66183e-05 1.98436e-05 0)
(6.22588e-06 6.24493e-06 0)
(2.08115e-05 -4.59292e-05 0)
(6.55438e-05 -6.57193e-05 0)
(9.46187e-05 -4.05449e-05 0)
(7.27043e-05 7.64689e-06 0)
(-1.90279e-05 6.56789e-05 0)
(-0.000187387 0.000125973 0)
(-0.000432954 0.000184255 0)
(-0.000752511 0.00023828 0)
(-0.00114051 0.000286909 0)
(-0.00159018 0.0003297 0)
(-0.00209417 0.000366614 0)
(-0.00264504 0.00039784 0)
(-0.00323547 0.000423691 0)
(-0.00385849 0.000444533 0)
(-0.00450748 0.000460742 0)
(-0.00517626 0.000472677 0)
(-0.00585902 0.000480662 0)
(-0.00655032 0.00048497 0)
(-0.00724504 0.000485826 0)
(-0.00793828 0.000483402 0)
(-0.00862535 0.000477818 0)
(-0.00930169 0.00046915 0)
(-0.00996285 0.000457439 0)
(-0.0106044 0.000442691 0)
(-0.0112219 0.000424896 0)
(-0.011811 0.000404032 0)
(-0.0123673 0.000380072 0)
(-0.0128863 0.000353 0)
(-0.0133637 0.000322817 0)
(-0.0137951 0.00028955 0)
(-0.0141764 0.000253258 0)
(-0.0145033 0.000214045 0)
(-0.014772 0.00017206 0)
(-0.0149789 0.000127507 0)
(-0.0151207 8.06445e-05 0)
(-0.0151946 3.17914e-05 0)
(-0.0151982 -1.86736e-05 0)
(-0.0151297 -7.03126e-05 0)
(-0.014988 -0.000122631 0)
(-0.0147727 -0.000175081 0)
(-0.0144842 -0.00022707 0)
(-0.0141238 -0.000277965 0)
(-0.0136935 -0.000327105 0)
(-0.0131964 -0.000373813 0)
(-0.0126365 -0.000417404 0)
(-0.0120185 -0.000457202 0)
(-0.0113483 -0.000492557 0)
(-0.0106325 -0.000522852 0)
(-0.00987838 -0.000547528 0)
(-0.00909412 -0.000566089 0)
(-0.00828838 -0.000578123 0)
(-0.00747036 -0.000583312 0)
(-0.00664958 -0.000581438 0)
(-0.00583576 -0.000572399 0)
(-0.0050387 -0.000556211 0)
(-0.00426806 -0.000533012 0)
(-0.00353321 -0.000503065 0)
(-0.00284307 -0.00046676 0)
(-0.00220592 -0.00042461 0)
(-0.00162923 -0.000377256 0)
(-0.00111949 -0.000325465 0)
(-0.000681983 -0.000270144 0)
(-0.00032063 -0.000212351 0)
(-3.77155e-05 -0.000153338 0)
(0.000166392 -9.4614e-05 0)
(0.000293613 -3.80593e-05 0)
(0.000348692 1.3869e-05 0)
(0.000339893 5.78673e-05 0)
(0.0002797 8.93455e-05 0)
(0.000185962 0.000101809 0)
(8.63341e-05 8.64879e-05 0)
(1.96732e-05 3.6482e-05 0)
(1.76153e-05 -8.12992e-05 0)
(4.1273e-05 -9.49983e-05 0)
(1.95183e-05 -1.90986e-05 0)
(-8.40814e-05 0.000105941 0)
(-0.000290302 0.00025462 0)
(-0.000607886 0.000410503 0)
(-0.00103809 0.00056328 0)
(-0.00157711 0.000706822 0)
(-0.00221777 0.000837681 0)
(-0.00295089 0.000954153 0)
(-0.0037662 0.00105564 0)
(-0.00465299 0.00114224 0)
(-0.00560054 0.00121447 0)
(-0.00659839 0.00127304 0)
(-0.0076365 0.00131879 0)
(-0.00870529 0.00135254 0)
(-0.00979571 0.00137504 0)
(-0.0108991 0.00138699 0)
(-0.0120074 0.00138894 0)
(-0.0131126 0.00138134 0)
(-0.0142072 0.0013645 0)
(-0.0152839 0.00133867 0)
(-0.0163353 0.00130396 0)
(-0.0173544 0.00126043 0)
(-0.0183341 0.00120811 0)
(-0.0192673 0.00114697 0)
(-0.020147 0.00107701 0)
(-0.0209664 0.000998244 0)
(-0.0217184 0.000910735 0)
(-0.0223963 0.000814622 0)
(-0.0229936 0.000710136 0)
(-0.0235039 0.000597622 0)
(-0.0239214 0.000477553 0)
(-0.0242406 0.000350544 0)
(-0.0244566 0.000217361 0)
(-0.0245651 7.8925e-05 0)
(-0.0245628 -6.36835e-05 0)
(-0.0244471 -0.00020923 0)
(-0.0242166 -0.000356332 0)
(-0.0238709 -0.000503472 0)
(-0.0234109 -0.000649017 0)
(-0.0228387 -0.000791233 0)
(-0.0221577 -0.000928321 0)
(-0.0213728 -0.00105844 0)
(-0.0204903 -0.00117973 0)
(-0.0195177 -0.00129039 0)
(-0.018464 -0.00138865 0)
(-0.0173394 -0.00147287 0)
(-0.0161553 -0.00154155 0)
(-0.0149241 -0.00159338 0)
(-0.0136591 -0.00162726 0)
(-0.0123743 -0.00164235 0)
(-0.0110843 -0.00163808 0)
(-0.00980397 -0.00161421 0)
(-0.0085481 -0.00157079 0)
(-0.00733141 -0.00150823 0)
(-0.00616815 -0.00142728 0)
(-0.00507185 -0.00132903 0)
(-0.00405504 -0.00121493 0)
(-0.00312901 -0.00108679 0)
(-0.00230348 -0.000946785 0)
(-0.00158635 -0.00079747 0)
(-0.00098335 -0.000641858 0)
(-0.000497717 -0.000483476 0)
(-0.000129768 -0.000326523 0)
(0.000123566 -0.000176083 0)
(0.000269376 -3.84734e-05 0)
(0.000319498 7.82929e-05 0)
(0.000291059 0.000163924 0)
(0.000207275 0.000205259 0)
(0.0001024 0.000186189 0)
(2.49662e-05 9.03617e-05 0)
(8.82647e-06 -9.76975e-05 0)
(-7.04528e-06 -7.30769e-05 0)
(-0.000107619 8.48258e-05 0)
(-0.000322369 0.000318341 0)
(-0.000669527 0.000589982 0)
(-0.0011575 0.000874136 0)
(-0.00178702 0.00115378 0)
(-0.00255333 0.00141813 0)
(-0.00344788 0.00166073 0)
(-0.00445966 0.00187803 0)
(-0.00557618 0.00206849 0)
(-0.00678424 0.00223186 0)
(-0.00807045 0.00236868 0)
(-0.00942154 0.00248001 0)
(-0.0108246 0.00256711 0)
(-0.0122673 0.00263131 0)
(-0.0137376 0.00267389 0)
(-0.0152242 0.00269601 0)
(-0.0167161 0.00269865 0)
(-0.0182028 0.00268258 0)
(-0.0196741 0.00264843 0)
(-0.02112 0.00259659 0)
(-0.0225308 0.00252736 0)
(-0.0238967 0.00244088 0)
(-0.0252084 0.00233724 0)
(-0.0264562 0.00221648 0)
(-0.0276309 0.00207865 0)
(-0.0287232 0.00192388 0)
(-0.029724 0.00175235 0)
(-0.0306244 0.00156443 0)
(-0.0314159 0.00136063 0)
(-0.0320902 0.00114169 0)
(-0.0326397 0.000908594 0)
(-0.0330574 0.000662568 0)
(-0.0333372 0.000405128 0)
(-0.0334736 0.000138075 0)
(-0.0334626 -0.000136504 0)
(-0.033301 -0.000416239 0)
(-0.0329872 -0.000698498 0)
(-0.0325211 -0.000980403 0)
(-0.0319038 -0.00125887 0)
(-0.0311386 -0.00153064 0)
(-0.03023 -0.00179235 0)
(-0.0291846 -0.00204054 0)
(-0.0280107 -0.00227179 0)
(-0.0267182 -0.00248269 0)
(-0.0253189 -0.00267 0)
(-0.0238261 -0.00283068 0)
(-0.0222546 -0.00296195 0)
(-0.0206204 -0.00306139 0)
(-0.0189409 -0.00312697 0)
(-0.0172341 -0.00315715 0)
(-0.0155188 -0.00315092 0)
(-0.0138142 -0.00310781 0)
(-0.0121395 -0.00302799 0)
(-0.0105136 -0.00291222 0)
(-0.00895481 -0.00276196 0)
(-0.00748064 -0.00257928 0)
(-0.00610718 -0.00236695 0)
(-0.00484895 -0.00212842 0)
(-0.00371842 -0.00186783 0)
(-0.00272571 -0.00159009 0)
(-0.00187814 -0.0013009 0)
(-0.00117985 -0.00100693 0)
(-0.000631306 -0.000715989 0)
(-0.000228815 -0.000437354 0)
(3.60928e-05 -0.000182164 0)
(0.000177307 3.5978e-05 0)
(0.000214543 0.000200359 0)
(0.000173955 0.000290593 0)
(9.29687e-05 0.000282392 0)
(2.4015e-05 0.000147218 0)
(-2.1317e-06 -8.43459e-05 0)
(-6.73e-05 2.09734e-05 0)
(-0.000264086 0.000295465 0)
(-0.000609662 0.000667926 0)
(-0.00111652 0.00109057 0)
(-0.00179085 0.0015295 0)
(-0.00263168 0.00196128 0)
(-0.00363262 0.00237044 0)
(-0.00478355 0.00274728 0)
(-0.00607176 0.00308616 0)
(-0.00748291 0.00338431 0)
(-0.00900175 0.0036409 0)
(-0.0106127 0.0038564 0)
(-0.0123002 0.00403206 0)
(-0.014049 0.00416952 0)
(-0.0158442 0.00427062 0)
(-0.0176715 0.00433713 0)
(-0.019517 0.00437071 0)
(-0.0213675 0.00437278 0)
(-0.0232099 0.00434452 0)
(-0.0250316 0.00428682 0)
(-0.0268204 0.00420036 0)
(-0.0285642 0.00408559 0)
(-0.030251 0.0039428 0)
(-0.0318691 0.0037722 0)
(-0.0334068 0.00357392 0)
(-0.0348526 0.00334817 0)
(-0.0361954 0.00309521 0)
(-0.0374238 0.0028155 0)
(-0.0385273 0.00250968 0)
(-0.0394955 0.00217871 0)
(-0.0403186 0.00182387 0)
(-0.0409874 0.00144679 0)
(-0.0414937 0.00104953 0)
(-0.0418302 0.000634564 0)
(-0.0419908 0.000204818 0)
(-0.0419705 -0.000236354 0)
(-0.041766 -0.000685167 0)
(-0.0413756 -0.00113743 0)
(-0.0407991 -0.0015886 0)
(-0.0400385 -0.0020338 0)
(-0.0390977 -0.00246792 0)
(-0.0379824 -0.00288567 0)
(-0.0367005 -0.00328167 0)
(-0.0352623 -0.00365053 0)
(-0.0336797 -0.003987 0)
(-0.0319668 -0.004286 0)
(-0.0301396 -0.00454281 0)
(-0.0282158 -0.00475312 0)
(-0.0262147 -0.00491316 0)
(-0.0241568 -0.00501982 0)
(-0.0220639 -0.0050707 0)
(-0.0199582 -0.00506423 0)
(-0.0178626 -0.00499973 0)
(-0.0158001 -0.00487747 0)
(-0.0137931 -0.00469869 0)
(-0.0118637 -0.00446566 0)
(-0.0100325 -0.00418171 0)
(-0.00831884 -0.00385121 0)
(-0.00674008 -0.00347963 0)
(-0.00531114 -0.00307352 0)
(-0.00404415 -0.00264063 0)
(-0.00294798 -0.00218995 0)
(-0.00202776 -0.00173187 0)
(-0.00128444 -0.00127846 0)
(-0.000714274 -0.000843735 0)
(-0.000308266 -0.000444195 0)
(-5.1658e-05 -9.93899e-05 0)
(7.64165e-05 0.000167352 0)
(0.00010345 0.000328304 0)
(6.74446e-05 0.00035074 0)
(1.96527e-05 0.000194038 0)
(-1.36955e-05 -3.74611e-05 0)
(-0.000132813 0.000197419 0)
(-0.000435729 0.000626845 0)
(-0.000924401 0.00117011 0)
(-0.00160345 0.00177127 0)
(-0.00247544 0.00238951 0)
(-0.00353652 0.00299576 0)
(-0.004778 0.00357025 0)
(-0.0061878 0.00410014 0)
(-0.00775139 0.00457766 0)
(-0.00945265 0.00499874 0)
(-0.0112745 0.00536188 0)
(-0.0131995 0.00566735 0)
(-0.0152101 0.00591649 0)
(-0.0172891 0.00611129 0)
(-0.0194195 0.00625401 0)
(-0.0215849 0.00634693 0)
(-0.0237693 0.00639219 0)
(-0.0259572 0.00639165 0)
(-0.0281336 0.00634688 0)
(-0.0302838 0.00625912 0)
(-0.0323932 0.00612929 0)
(-0.0344479 0.00595807 0)
(-0.0364337 0.00574593 0)
(-0.038337 0.00549321 0)
(-0.0401442 0.00520025 0)
(-0.0418417 0.00486742 0)
(-0.0434166 0.00449525 0)
(-0.0448559 0.0040845 0)
(-0.0461473 0.00363627 0)
(-0.0472789 0.00315204 0)
(-0.0482395 0.00263377 0)
(-0.0490187 0.00208393 0)
(-0.0496071 0.00150558 0)
(-0.0499965 0.000902347 0)
(-0.05018 0.000278492 0)
(-0.0501522 -0.000361126 0)
(-0.0499095 -0.00101105 0)
(-0.0494501 -0.00166529 0)
(-0.048774 -0.00231734 0)
(-0.0478836 -0.00296027 0)
(-0.0467835 -0.00358681 0)
(-0.0454804 -0.00418948 0)
(-0.0439836 -0.00476065 0)
(-0.0423047 -0.00529274 0)
(-0.0404574 -0.0057783 0)
(-0.038458 -0.00621021 0)
(-0.0363246 -0.0065818 0)
(-0.0340776 -0.00688701 0)
(-0.0317387 -0.00712054 0)
(-0.0293316 -0.007278 0)
(-0.0268808 -0.00735602 0)
(-0.0244119 -0.0073524 0)
(-0.0219508 -0.00726619 0)
(-0.0195238 -0.00709775 0)
(-0.0171567 -0.00684889 0)
(-0.0148744 -0.00652283 0)
(-0.0127008 -0.00612429 0)
(-0.0106579 -0.00565951 0)
(-0.00876568 -0.00513626 0)
(-0.0070414 -0.00456388 0)
(-0.00549914 -0.00395334 0)
(-0.00414937 -0.00331733 0)
(-0.00299846 -0.00267045 0)
(-0.0020482 -0.00202942 0)
(-0.0012953 -0.00141343 0)
(-0.000731005 -0.000844592 0)
(-0.000340597 -0.000348592 0)
(-0.000103127 4.46089e-05 0)
(9.02409e-06 0.000300077 0)
(3.24397e-05 0.000377011 0)
(1.36089e-05 0.000224382 0)
(-2.51808e-05 4.41522e-05 0)
(-0.000199959 0.000461263 0)
(-0.0006139 0.00108687 0)
(-0.00125252 0.00183427 0)
(-0.00211133 0.00264161 0)
(-0.0031882 0.00346268 0)
(-0.00447555 0.00426386 0)
(-0.00596168 0.00502171 0)
(-0.00763208 0.00572064 0)
(-0.00947021 0.00635095 0)
(-0.0114581 0.00690734 0)
(-0.0135769 0.00738764 0)
(-0.0158075 0.00779186 0)
(-0.0181306 0.00812144 0)
(-0.0205271 0.00837865 0)
(-0.0229785 0.00856614 0)
(-0.0254663 0.00868665 0)
(-0.0279728 0.00874278 0)
(-0.0304807 0.00873684 0)
(-0.032973 0.00867079 0)
(-0.0354331 0.00854618 0)
(-0.0378448 0.00836423 0)
(-0.040192 0.00812585 0)
(-0.042459 0.00783172 0)
(-0.0446301 0.0074824 0)
(-0.0466901 0.00707842 0)
(-0.0486238 0.00662042 0)
(-0.0504165 0.00610926 0)
(-0.0520537 0.00554611 0)
(-0.0535217 0.00493258 0)
(-0.0548071 0.00427083 0)
(-0.0558976 0.00356362 0)
(-0.0567816 0.0028144 0)
(-0.0574488 0.00202739 0)
(-0.0578901 0.00120756 0)
(-0.058098 0.000360682 0)
(-0.0580666 -0.000506673 0)
(-0.0577921 -0.00138718 0)
(-0.0572723 -0.00227279 0)
(-0.0565078 -0.00315483 0)
(-0.0555011 -0.00402408 0)
(-0.0542573 -0.00487086 0)
(-0.0527842 -0.00568523 0)
(-0.0510918 -0.00645711 0)
(-0.049193 -0.00717643 0)
(-0.0471032 -0.00783336 0)
(-0.0448402 -0.00841847 0)
(-0.0424243 -0.00892293 0)
(-0.0398776 -0.00933872 0)
(-0.0372245 -0.00965885 0)
(-0.034491 -0.00987747 0)
(-0.0317043 -0.00999013 0)
(-0.0288928 -0.0099939 0)
(-0.0260853 -0.00988748 0)
(-0.0233108 -0.00967136 0)
(-0.020598 -0.00934789 0)
(-0.0179749 -0.00892136 0)
(-0.015468 -0.008398 0)
(-0.0131021 -0.00778608 0)
(-0.0108996 -0.00709592 0)
(-0.00887998 -0.00633989 0)
(-0.00705946 -0.0055325 0)
(-0.00545022 -0.00469048 0)
(-0.00406013 -0.00383292 0)
(-0.00289218 -0.0029815 0)
(-0.00194409 -0.00216081 0)
(-0.00120792 -0.00139878 0)
(-0.000669753 -0.000727234 0)
(-0.000309374 -0.000182655 0)
(-9.99677e-05 0.000193162 0)
(-7.7639e-06 0.000352108 0)
(6.84981e-06 0.000234823 0)
(-3.63295e-05 0.000160488 0)
(-0.000266854 0.000814373 0)
(-0.000793478 0.00167933 0)
(-0.00158507 0.00266541 0)
(-0.00262748 0.00370695 0)
(-0.00391314 0.00475393 0)
(-0.00543009 0.00576933 0)
(-0.00716304 0.00672689 0)
(-0.00909469 0.00760881 0)
(-0.0112062 0.00840382 0)
(-0.0134775 0.0091056 0)
(-0.0158882 0.00971143 0)
(-0.0184173 0.0102211 0)
(-0.021044 0.0106362 0)
(-0.0237476 0.0109592 0)
(-0.026508 0.0111932 0)
(-0.0293052 0.0113414 0)
(-0.0321199 0.0114067 0)
(-0.0349331 0.0113919 0)
(-0.0377263 0.0112994 0)
(-0.0404811 0.011131 0)
(-0.0431797 0.0108883 0)
(-0.0458045 0.0105723 0)
(-0.048338 0.0101841 0)
(-0.0507631 0.00972442 0)
(-0.0530629 0.00919403 0)
(-0.0552207 0.00859391 0)
(-0.0572204 0.00792529 0)
(-0.0590462 0.00718985 0)
(-0.0606829 0.00638981 0)
(-0.0621161 0.0055281 0)
(-0.0633321 0.00460839 0)
(-0.0643185 0.00363527 0)
(-0.0650641 0.00261421 0)
(-0.065559 0.00155168 0)
(-0.0657951 0.00045515 0)
(-0.065766 -0.000666949 0)
(-0.0654675 -0.00180523 0)
(-0.0648975 -0.00294943 0)
(-0.0640564 -0.00408848 0)
(-0.062947 -0.00521066 0)
(-0.0615749 -0.00630371 0)
(-0.0599482 -0.00735501 0)
(-0.058078 -0.00835178 0)
(-0.0559782 -0.0092813 0)
(-0.0536652 -0.0101311 0)
(-0.0511583 -0.0108892 0)
(-0.0484794 -0.0115445 0)
(-0.0456525 -0.0120868 0)
(-0.042704 -0.0125072 0)
(-0.039662 -0.0127983 0)
(-0.0365562 -0.0129544 0)
(-0.0334172 -0.0129716 0)
(-0.0302766 -0.0128484 0)
(-0.0271661 -0.0125852 0)
(-0.0241171 -0.0121849 0)
(-0.0211601 -0.011653 0)
(-0.0183246 -0.0109972 0)
(-0.0156378 -0.010228 0)
(-0.0131248 -0.00935843 0)
(-0.0108073 -0.00840404 0)
(-0.00870366 -0.00738312 0)
(-0.00682815 -0.00631665 0)
(-0.00519037 -0.00522847 0)
(-0.00379492 -0.0041454 0)
(-0.00264097 -0.00309759 0)
(-0.00172195 -0.00211882 0)
(-0.00102529 -0.00124705 0)
(-0.000532185 -0.000525057 0)
(-0.000217288 -1.04151e-06 0)
(-5.04988e-05 0.000270466 0)
(-9.34922e-08 0.000223656 0)
(-4.70448e-05 0.000310911 0)
(-0.000332516 0.00125666 0)
(-0.000971468 0.00240518 0)
(-0.00191646 0.00366541 0)
(-0.00314348 0.00496963 0)
(-0.00463919 0.00626552 0)
(-0.00638676 0.00751384 0)
(-0.00836692 0.0086864 0)
(-0.0105592 0.00976388 0)
(-0.0129421 0.0107339 0)
(-0.0154937 0.0115895 0)
(-0.0181913 0.0123275 0)
(-0.0210127 0.0129478 0)
(-0.0239353 0.0134519 0)
(-0.0269371 0.0138428 0)
(-0.0299965 0.0141239 0)
(-0.0330922 0.0142987 0)
(-0.0362034 0.0143708 0)
(-0.0393098 0.0143433 0)
(-0.0423912 0.0142188 0)
(-0.0454282 0.0139997 0)
(-0.0484013 0.0136877 0)
(-0.0512915 0.0132842 0)
(-0.05408 0.0127904 0)
(-0.0567481 0.0122074 0)
(-0.0592778 0.0115362 0)
(-0.0616509 0.0107781 0)
(-0.06385 0.00993488 0)
(-0.0658581 0.00900873 0)
(-0.0676588 0.00800258 0)
(-0.0692366 0.00692018 0)
(-0.0705769 0.00576625 0)
(-0.0716662 0.00454656 0)
(-0.0724925 0.003268 0)
(-0.0730451 0.00193866 0)
(-0.0733154 0.000567801 0)
(-0.0732964 -0.000834125 0)
(-0.0729836 -0.00225553 0)
(-0.0723745 -0.00368377 0)
(-0.0714695 -0.00510524 0)
(-0.0702715 -0.00650554 0)
(-0.0687861 -0.00786963 0)
(-0.067022 -0.00918206 0)
(-0.0649907 -0.0104272 0)
(-0.0627068 -0.0115893 0)
(-0.0601879 -0.0126533 0)
(-0.0574543 -0.0136043 0)
(-0.0545291 -0.0144288 0)
(-0.051438 -0.0151142 0)
(-0.0482091 -0.0156495 0)
(-0.0448724 -0.0160255 0)
(-0.0414597 -0.0162351 0)
(-0.038004 -0.0162736 0)
(-0.0345392 -0.0161388 0)
(-0.0310996 -0.0158311 0)
(-0.0277192 -0.015354 0)
(-0.0244313 -0.014714 0)
(-0.0212678 -0.0139204 0)
(-0.0182589 -0.012986 0)
(-0.0154321 -0.0119266 0)
(-0.0128117 -0.0107611 0)
(-0.0104184 -0.00951165 0)
(-0.0082688 -0.00820376 0)
(-0.00637454 -0.00686611 0)
(-0.00474222 -0.00553083 0)
(-0.00337287 -0.00423369 0)
(-0.00226173 -0.00301438 0)
(-0.00139808 -0.00191688 0)
(-0.00076499 -0.000990056 0)
(-0.000339034 -0.000288053 0)
(-9.42065e-05 0.00012898 0)
(-6.95067e-06 0.000190231 0)
(-5.73142e-05 0.000494515 0)
(-0.00039646 0.00178688 0)
(-0.00114613 0.00326354 0)
(-0.00224316 0.00483388 0)
(-0.00365379 0.00642961 0)
(-0.00535871 0.00799746 0)
(-0.007336 0.00949711 0)
(-0.0095621 0.0108994 0)
(-0.0120131 0.0121841 0)
(-0.0146648 0.0133384 0)
(-0.0174927 0.0143549 0)
(-0.0204726 0.0152305 0)
(-0.0235803 0.0159652 0)
(-0.026792 0.0165608 0)
(-0.0300841 0.0170205 0)
(-0.0334338 0.0173484 0)
(-0.0368186 0.0175483 0)
(-0.0402163 0.0176243 0)
(-0.0436055 0.0175798 0)
(-0.046965 0.0174179 0)
(-0.0502737 0.0171411 0)
(-0.0535113 0.0167516 0)
(-0.0566573 0.0162511 0)
(-0.0596917 0.0156408 0)
(-0.0625948 0.0149223 0)
(-0.0653471 0.0140969 0)
(-0.0679294 0.0131662 0)
(-0.0703231 0.0121326 0)
(-0.0725101 0.0109988 0)
(-0.074473 0.00976847 0)
(-0.0761951 0.00844632 0)
(-0.077661 0.00703814 0)
(-0.0788563 0.00555099 0)
(-0.079768 0.00399326 0)
(-0.0803849 0.00237473 0)
(-0.0806974 0.000706571 0)
(-0.0806982 -0.00099864 0)
(-0.0803822 -0.002727 0)
(-0.0797465 -0.00446335 0)
(-0.0787912 -0.00619143 0)
(-0.077519 -0.00789402 0)
(-0.0759357 -0.00955315 0)
(-0.0740499 -0.0111503 0)
(-0.0718736 -0.0126669 0)
(-0.0694218 -0.0140841 0)
(-0.0667127 -0.0153837 0)
(-0.0637675 -0.0165481 0)
(-0.0606104 -0.0175609 0)
(-0.0572684 -0.0184069 0)
(-0.053771 -0.0190729 0)
(-0.0501502 -0.0195478 0)
(-0.0464394 -0.0198229 0)
(-0.0426741 -0.0198922 0)
(-0.0388902 -0.0197529 0)
(-0.0351247 -0.0194053 0)
(-0.0314141 -0.0188534 0)
(-0.0277945 -0.0181044 0)
(-0.0243005 -0.0171696 0)
(-0.0209652 -0.0160638 0)
(-0.0178187 -0.0148057 0)
(-0.0148882 -0.0134177 0)
(-0.0121971 -0.011926 0)
(-0.00976441 -0.0103605 0)
(-0.00760431 -0.008755 0)
(-0.00572572 -0.007147 0)
(-0.00413194 -0.00557799 0)
(-0.00282041 -0.00409356 0)
(-0.00178266 -0.00274366 0)
(-0.00100392 -0.00158303 0)
(-0.000462993 -0.000671412 0)
(-0.000138071 -7.39654e-05 0)
(-1.36061e-05 0.000134467 0)
(-6.71552e-05 0.00071027 0)
(-0.000458462 0.00240313 0)
(-0.00131647 0.00425232 0)
(-0.00256295 0.00616884 0)
(-0.00415468 0.0080851 0)
(-0.00606638 0.00994801 0)
(-0.00827089 0.0117172 0)
(-0.0107402 0.0133635 0)
(-0.0134468 0.0148666 0)
(-0.0163636 0.0162136 0)
(-0.0194636 0.0173974 0)
(-0.0227207 0.0184152 0)
(-0.026109 0.0192671 0)
(-0.0296031 0.0199557 0)
(-0.0331783 0.0204847 0)
(-0.0368105 0.0208583 0)
(-0.0404761 0.0210813 0)
(-0.0441519 0.0211578 0)
(-0.0478153 0.021092 0)
(-0.051444 0.0208871 0)
(-0.0550161 0.0205461 0)
(-0.05851 0.0200713 0)
(-0.0619043 0.0194647 0)
(-0.065178 0.018728 0)
(-0.0683101 0.0178628 0)
(-0.0712801 0.0168708 0)
(-0.074068 0.0157542 0)
(-0.076654 0.0145157 0)
(-0.079019 0.0131587 0)
(-0.0811446 0.0116877 0)
(-0.0830133 0.0101083 0)
(-0.0846085 0.00842753 0)
(-0.0859151 0.00665369 0)
(-0.0869193 0.00479674 0)
(-0.087609 0.00286823 0)
(-0.0879739 0.00088131 0)
(-0.0880059 -0.00114924 0)
(-0.0876993 -0.00320713 0)
(-0.0870508 -0.00527459 0)
(-0.0860599 -0.00733258 0)
(-0.0847289 -0.00936094 0)
(-0.0830633 -0.0113386 0)
(-0.0810718 -0.0132441 0)
(-0.0787663 -0.0150552 0)
(-0.076162 -0.0167502 0)
(-0.0732774 -0.0183076 0)
(-0.0701345 -0.0197067 0)
(-0.0667582 -0.0209279 0)
(-0.0631767 -0.0219536 0)
(-0.0594207 -0.0227677 0)
(-0.0555236 -0.0233572 0)
(-0.051521 -0.0237113 0)
(-0.0474501 -0.0238229 0)
(-0.0433493 -0.0236882 0)
(-0.039258 -0.0233073 0)
(-0.0352153 -0.0226844 0)
(-0.0312602 -0.0218276 0)
(-0.0274303 -0.0207498 0)
(-0.0237616 -0.0194679 0)
(-0.0202872 -0.0180036 0)
(-0.0170374 -0.0163827 0)
(-0.0140386 -0.0146355 0)
(-0.0113126 -0.0127965 0)
(-0.00887642 -0.0109047 0)
(-0.00674178 -0.00900311 0)
(-0.00491455 -0.00713891 0)
(-0.00339472 -0.00536365 0)
(-0.00217634 -0.00373324 0)
(-0.00124713 -0.00230818 0)
(-0.000588155 -0.00115356 0)
(-0.000181765 -0.000339206 0)
(-2.00334e-05 5.65318e-05 0)
(-7.65924e-05 0.000957099 0)
(-0.000518418 0.00310311 0)
(-0.00148189 0.00536864 0)
(-0.0028744 0.00766721 0)
(-0.00464362 0.00993294 0)
(-0.00675838 0.012114 0)
(-0.00918631 0.0141709 0)
(-0.0118949 0.0160753 0)
(-0.0148529 0.0178074 0)
(-0.0180301 0.0193552 0)
(-0.0213974 0.0207121 0)
(-0.0249262 0.0218759 0)
(-0.028589 0.0228475 0)
(-0.0323591 0.0236301 0)
(-0.0362106 0.024228 0)
(-0.0401181 0.0246462 0)
(-0.044057 0.0248897 0)
(-0.0480033 0.0249635 0)
(-0.0519334 0.0248719 0)
(-0.0558242 0.0246188 0)
(-0.0596527 0.0242072 0)
(-0.0633965 0.0236399 0)
(-0.0670334 0.0229191 0)
(-0.0705412 0.0220466 0)
(-0.0738984 0.0210245 0)
(-0.0770835 0.0198549 0)
(-0.0800753 0.0185402 0)
(-0.0828534 0.0170837 0)
(-0.0853976 0.0154895 0)
(-0.0876887 0.0137628 0)
(-0.0897082 0.0119104 0)
(-0.0914388 0.00994015 0)
(-0.0928642 0.00786194 0)
(-0.0939699 0.00568727 0)
(-0.0947429 0.00342945 0)
(-0.095172 0.00110367 0)
(-0.0952484 -0.00127306 0)
(-0.0949655 -0.00368198 0)
(-0.0943192 -0.00610267 0)
(-0.0933084 -0.00851321 0)
(-0.0919348 -0.0108904 0)
(-0.0902034 -0.0132101 0)
(-0.0881225 -0.0154473 0)
(-0.0857036 -0.0175767 0)
(-0.0829621 -0.0195729 0)
(-0.0799164 -0.0214112 0)
(-0.0765889 -0.0230673 0)
(-0.0730052 -0.0245187 0)
(-0.0691942 -0.0257445 0)
(-0.0651877 -0.026726 0)
(-0.0610207 -0.0274476 0)
(-0.0567303 -0.0278965 0)
(-0.0523557 -0.028064 0)
(-0.0479378 -0.0279451 0)
(-0.0435182 -0.0275394 0)
(-0.0391391 -0.0268512 0)
(-0.0348423 -0.0258895 0)
(-0.0306686 -0.0246683 0)
(-0.0266572 -0.023207 0)
(-0.0228445 -0.0215299 0)
(-0.0192643 -0.0196664 0)
(-0.0159461 -0.0176509 0)
(-0.0129152 -0.0155226 0)
(-0.0101918 -0.0133257 0)
(-0.0077905 -0.0111088 0)
(-0.00572032 -0.00892496 0)
(-0.00398408 -0.00683177 0)
(-0.00257862 -0.00489111 0)
(-0.00149424 -0.00316922 0)
(-0.000714362 -0.00173651 0)
(-0.000225291 -0.000667304 0)
(-2.62593e-05 -4.33568e-05 0)
(-8.56476e-05 0.00123391 0)
(-0.000576277 0.00388428 0)
(-0.001642 0.00660907 0)
(-0.00317653 0.00932508 0)
(-0.00511878 0.011969 0)
(-0.00743189 0.0144911 0)
(-0.0100783 0.0168537 0)
(-0.0130211 0.01903 0)
(-0.0162253 0.0210018 0)
(-0.0196576 0.0227581 0)
(-0.0232862 0.0242934 0)
(-0.0270808 0.0256068 0)
(-0.0310119 0.0267001 0)
(-0.0350515 0.0275773 0)
(-0.0391725 0.0282437 0)
(-0.0433484 0.0287048 0)
(-0.0475539 0.0289665 0)
(-0.0517638 0.0290342 0)
(-0.055954 0.0289128 0)
(-0.0601004 0.0286064 0)
(-0.0641796 0.0281185 0)
(-0.0681681 0.027452 0)
(-0.0720432 0.0266095 0)
(-0.0757819 0.0255931 0)
(-0.0793618 0.0244051 0)
(-0.0827607 0.0230478 0)
(-0.0859567 0.0215242 0)
(-0.0889284 0.0198381 0)
(-0.0916549 0.0179941 0)
(-0.0941161 0.0159984 0)
(-0.0962926 0.0138585 0)
(-0.0981662 0.0115837 0)
(-0.0997198 0.00918499 0)
(-0.100938 0.00667555 0)
(-0.101806 0.00407049 0)
(-0.102313 0.00138701 0)
(-0.102449 -0.00135564 0)
(-0.102205 -0.00413619 0)
(-0.101578 -0.00693152 0)
(-0.100564 -0.00971681 0)
(-0.099165 -0.0124658 0)
(-0.097385 -0.0151509 0)
(-0.0952316 -0.0177437 0)
(-0.0927159 -0.0202156 0)
(-0.0898526 -0.0225374 0)
(-0.0866603 -0.0246807 0)
(-0.0831612 -0.0266179 0)
(-0.0793813 -0.0283227 0)
(-0.07535 -0.0297711 0)
(-0.0711004 -0.0309413 0)
(-0.0666684 -0.0318147 0)
(-0.0620929 -0.0323764 0)
(-0.0574151 -0.0326155 0)
(-0.052678 -0.0325258 0)
(-0.047926 -0.0321061 0)
(-0.0432042 -0.0313603 0)
(-0.0385574 -0.0302982 0)
(-0.0340299 -0.028935 0)
(-0.0296644 -0.0272921 0)
(-0.0255012 -0.0253965 0)
(-0.0215775 -0.0232811 0)
(-0.0179267 -0.0209846 0)
(-0.0145778 -0.0185509 0)
(-0.0115545 -0.0160294 0)
(-0.00887495 -0.0134745 0)
(-0.00655147 -0.0109452 0)
(-0.00459005 -0.0085054 0)
(-0.00299055 -0.00622294 0)
(-0.00174597 -0.00416999 0)
(-0.000842064 -0.00242232 0)
(-0.00026887 -0.00105891 0)
(-3.23421e-05 -0.000165065 0)
(-9.4336e-05 0.00153961 0)
(-0.000632003 0.00474393 0)
(-0.00179652 0.0079698 0)
(-0.00346859 0.0111379 0)
(-0.00557876 0.0141882 0)
(-0.00808469 0.017074 0)
(-0.0109439 0.0197602 0)
(-0.0141149 0.0222222 0)
(-0.017559 0.0244439 0)
(-0.0212401 0.0264161 0)
(-0.0251237 0.0281352 0)
(-0.0291773 0.0296015 0)
(-0.0333701 0.0308183 0)
(-0.0376724 0.0317907 0)
(-0.042056 0.0325249 0)
(-0.0464937 0.0330275 0)
(-0.0509589 0.0333051 0)
(-0.0554261 0.0333636 0)
(-0.0598703 0.0332085 0)
(-0.0642669 0.0328443 0)
(-0.0685917 0.032275 0)
(-0.0728209 0.0315035 0)
(-0.0769308 0.0305329 0)
(-0.0808981 0.0293653 0)
(-0.0846996 0.0280034 0)
(-0.0883125 0.0264498 0)
(-0.0917142 0.024708 0)
(-0.0948825 0.022782 0)
(-0.0977958 0.0206773 0)
(-0.100433 0.0184007 0)
(-0.102775 0.0159606 0)
(-0.1048 0.0133675 0)
(-0.106493 0.0106337 0)
(-0.107836 0.00777397 0)
(-0.108814 0.00480506 0)
(-0.109414 0.00174622 0)
(-0.109624 -0.00138104 0)
(-0.109437 -0.004553 0)
(-0.108846 -0.0077438 0)
(-0.107848 -0.0109257 0)
(-0.106442 -0.0140691 0)
(-0.104632 -0.0171433 0)
(-0.102424 -0.0201163 0)
(-0.0998282 -0.0229556 0)
(-0.0968594 -0.0256285 0)
(-0.0935353 -0.0281025 0)
(-0.0898778 -0.0303463 0)
(-0.085913 -0.0323298 0)
(-0.0816709 -0.0340253 0)
(-0.0771851 -0.0354076 0)
(-0.0724926 -0.0364551 0)
(-0.067634 -0.0371499 0)
(-0.0626523 -0.037479 0)
(-0.057593 -0.0374343 0)
(-0.052503 -0.0370134 0)
(-0.0474305 -0.0362199 0)
(-0.0424239 -0.0350638 0)
(-0.037531 -0.0335614 0)
(-0.0327984 -0.0317358 0)
(-0.0282705 -0.0296169 0)
(-0.0239885 -0.0272409 0)
(-0.0199902 -0.0246506 0)
(-0.0163085 -0.0218949 0)
(-0.0129712 -0.0190285 0)
(-0.0100005 -0.0161117 0)
(-0.00741221 -0.0132098 0)
(-0.00521581 -0.0103928 0)
(-0.00341441 -0.00773506 0)
(-0.00200385 -0.00531482 0)
(-0.000972137 -0.00321349 0)
(-0.000312872 -0.00151499 0)
(-3.83598e-05 -0.00030863 0)
(-0.000102665 0.00187308 0)
(-0.000685553 0.00567923 0)
(-0.00194522 0.00944671 0)
(-0.00374996 0.0131006 0)
(-0.00602238 0.016585 0)
(-0.00871489 0.0198566 0)
(-0.0117801 0.0228839 0)
(-0.0151725 0.0256451 0)
(-0.0188496 0.028127 0)
(-0.0227722 0.0303227 0)
(-0.0269036 0.0322307 0)
(-0.0312092 0.0338532 0)
(-0.0356563 0.0351952 0)
(-0.0402142 0.0362633 0)
(-0.0448534 0.0370649 0)
(-0.0495459 0.0376076 0)
(-0.0542643 0.037899 0)
(-0.0589826 0.0379457 0)
(-0.0636751 0.0377536 0)
(-0.0683167 0.0373277 0)
(-0.0728827 0.0366724 0)
(-0.0773489 0.0357911 0)
(-0.0816911 0.0346867 0)
(-0.0858856 0.033362 0)
(-0.0899085 0.0318195 0)
(-0.0937365 0.0300624 0)
(-0.0973464 0.0280943 0)
(-0.100715 0.0259198 0)
(-0.103821 0.023545 0)
(-0.106642 0.0209772 0)
(-0.109157 0.0182259 0)
(-0.111346 0.0153025 0)
(-0.11319 0.0122206 0)
(-0.114671 0.00899632 0)
(-0.115773 0.00564829 0)
(-0.116483 0.00219764 0)
(-0.116786 -0.00133194 0)
(-0.116674 -0.00491428 0)
(-0.116138 -0.00852081 0)
(-0.115175 -0.0121208 0)
(-0.113782 -0.0156816 0)
(-0.111961 -0.0191688 0)
(-0.109717 -0.022547 0)
(-0.107061 -0.0257797 0)
(-0.104003 -0.0288303 0)
(-0.100563 -0.0316622 0)
(-0.0967613 -0.03424 0)
(-0.0926237 -0.0365296 0)
(-0.0881803 -0.0384991 0)
(-0.0834655 -0.0401195 0)
(-0.0785172 -0.0413657 0)
(-0.0733773 -0.0422167 0)
(-0.0680908 -0.0426566 0)
(-0.0627054 -0.0426752 0)
(-0.0572711 -0.0422686 0)
(-0.0518392 -0.0414395 0)
(-0.0464616 -0.0401977 0)
(-0.0411903 -0.0385606 0)
(-0.036076 -0.0365527 0)
(-0.0311676 -0.0342064 0)
(-0.0265111 -0.0315614 0)
(-0.0221485 -0.0286646 0)
(-0.0181177 -0.0255698 0)
(-0.0144508 -0.0223373 0)
(-0.0111744 -0.0190334 0)
(-0.00830824 -0.0157299 0)
(-0.00586573 -0.0125033 0)
(-0.00385338 -0.00943478 0)
(-0.00226996 -0.00660892 0)
(-0.00110576 -0.00411324 0)
(-0.00035777 -0.00203706 0)
(-4.44026e-05 -0.000474319 0)
(-0.000110635 0.00223322 0)
(-0.000736864 0.0066872 0)
(-0.00208783 0.0110354 0)
(-0.00402002 0.0152078 0)
(-0.00644852 0.019153 0)
(-0.00932075 0.0228322 0)
(-0.0125848 0.0262177 0)
(-0.0161908 0.0292915 0)
(-0.020093 0.0320436 0)
(-0.0242493 0.0344701 0)
(-0.0286205 0.0365721 0)
(-0.03317 0.0383542 0)
(-0.0378637 0.0398233 0)
(-0.0426695 0.0409878 0)
(-0.0475569 0.0418565 0)
(-0.052497 0.0424384 0)
(-0.0574619 0.0427418 0)
(-0.062425 0.0427744 0)
(-0.06736 0.0425426 0)
(-0.0722417 0.042052 0)
(-0.0770448 0.0413072 0)
(-0.0817448 0.040312 0)
(-0.0863172 0.0390695 0)
(-0.0907378 0.0375827 0)
(-0.0949824 0.0358543 0)
(-0.0990273 0.0338878 0)