/*--------------------------------*- C++ -*----------------------------------*\
  =========                 |
  \\      /  F ield         | OpenFOAM: The Open Source CFD Toolbox
   \\    /   O peration     | Website:  https://openfoam.org
    \\  /    A nd           | Version:  dev
     \\/     M anipulation  |
\*---------------------------------------------------------------------------*/
FoamFile
{
    format      ascii;
    class       volScalarField;
    location    "26.1";
    object      Uy;
}
// * * * * * * * * * * * * * * * * * * * * * * * * * * * * * * * * * * * * * //

dimensions      [0 1 -1 0 0 0 0];

internalField   nonuniform List<scalar> 
5184
(
-1.27465e-05
-2.09042e-05
-1.72473e-05
-8.19181e-06
2.67212e-06
1.36173e-05
2.38428e-05
3.30421e-05
4.10963e-05
4.80112e-05
5.38488e-05
5.86944e-05
6.26406e-05
6.57783e-05
6.81917e-05
6.99561e-05
7.11359e-05
7.17841e-05
7.19413e-05
7.16371e-05
7.08909e-05
6.97128e-05
6.81058e-05
6.6067e-05
6.35893e-05
6.06631e-05
5.72777e-05
5.34236e-05
4.90935e-05
4.42846e-05
3.89992e-05
3.32468e-05
2.70445e-05
2.04182e-05
1.34035e-05
6.04624e-06
-1.59754e-06
-9.46145e-06
-1.7469e-05
-2.55344e-05
-3.35632e-05
-4.14539e-05
-4.90995e-05
-5.6389e-05
-6.321e-05
-6.94505e-05
-7.50016e-05
-7.97606e-05
-8.36328e-05
-8.65346e-05
-8.83953e-05
-8.91597e-05
-8.87895e-05
-8.72652e-05
-8.45864e-05
-8.07724e-05
-7.58623e-05
-6.99148e-05
-6.30075e-05
-5.52365e-05
-4.67159e-05
-3.75785e-05
-2.79787e-05
-1.80989e-05
-8.16486e-06
1.52813e-06
1.05574e-05
1.82866e-05
2.37039e-05
2.51177e-05
1.98436e-05
6.24493e-06
-4.59292e-05
-6.57193e-05
-4.05449e-05
7.64689e-06
6.56789e-05
0.000125973
0.000184255
0.00023828
0.000286909
0.0003297
0.000366614
0.00039784
0.000423691
0.000444533
0.000460742
0.000472677
0.000480662
0.00048497
0.000485826
0.000483402
0.000477818
0.00046915
0.000457439
0.000442691
0.000424896
0.000404032
0.000380072
0.000353
0.000322817
0.00028955
0.000253258
0.000214045
0.00017206
0.000127507
8.06445e-05
3.17914e-05
-1.86736e-05
-7.03126e-05
-0.000122631
-0.000175081
-0.00022707
-0.000277965
-0.000327105
-0.000373813
-0.000417404
-0.000457202
-0.000492557
-0.000522852
-0.000547528
-0.000566089
-0.000578123
-0.000583312
-0.000581438
-0.000572399
-0.000556211
-0.000533012
-0.000503065
-0.00046676
-0.00042461
-0.000377256
-0.000325465
-0.000270144
-0.000212351
-0.000153338
-9.4614e-05
-3.80593e-05
1.3869e-05
5.78673e-05
8.93455e-05
0.000101809
8.64879e-05
3.6482e-05
-8.12992e-05
-9.49983e-05
-1.90986e-05
0.000105941
0.00025462
0.000410503
0.00056328
0.000706822
0.000837681
0.000954153
0.00105564
0.00114224
0.00121447
0.00127304
0.00131879
0.00135254
0.00137504
0.00138699
0.00138894
0.00138134
0.0013645
0.00133867
0.00130396
0.00126043
0.00120811
0.00114697
0.00107701
0.000998244
0.000910735
0.000814622
0.000710136
0.000597622
0.000477553
0.000350544
0.000217361
7.8925e-05
-6.36835e-05
-0.00020923
-0.000356332
-0.000503472
-0.000649017
-0.000791233
-0.000928321
-0.00105844
-0.00117973
-0.00129039
-0.00138865
-0.00147287
-0.00154155
-0.00159338
-0.00162726
-0.00164235
-0.00163808
-0.00161421
-0.00157079
-0.00150823
-0.00142728
-0.00132903
-0.00121493
-0.00108679
-0.000946785
-0.00079747
-0.000641858
-0.000483476
-0.000326523
-0.000176083
-3.84734e-05
7.82929e-05
0.000163924
0.000205259
0.000186189
9.03617e-05
-9.76975e-05
-7.30769e-05
8.48258e-05
0.000318341
0.000589982
0.000874136
0.00115378
0.00141813
0.00166073
0.00187803
0.00206849
0.00223186
0.00236868
0.00248001
0.00256711
0.00263131
0.00267389
0.00269601
0.00269865
0.00268258
0.00264843
0.00259659
0.00252736
0.00244088
0.00233724
0.00221648
0.00207865
0.00192388
0.00175235
0.00156443
0.00136063
0.00114169
0.000908594
0.000662568
0.000405128
0.000138075
-0.000136504
-0.000416239
-0.000698498
-0.000980403
-0.00125887
-0.00153064
-0.00179235
-0.00204054
-0.00227179
-0.00248269
-0.00267
-0.00283068
-0.00296195
-0.00306139
-0.00312697
-0.00315715
-0.00315092
-0.00310781
-0.00302799
-0.00291222
-0.00276196
-0.00257928
-0.00236695
-0.00212842
-0.00186783
-0.00159009
-0.0013009
-0.00100693
-0.000715989
-0.000437354
-0.000182164
3.5978e-05
0.000200359
0.000290593
0.000282392
0.000147218
-8.43459e-05
2.09734e-05
0.000295465
0.000667926
0.00109057
0.0015295
0.00196128
0.00237044
0.00274728
0.00308616
0.00338431
0.0036409
0.0038564
0.00403206
0.00416952
0.00427062
0.00433713
0.00437071
0.00437278
0.00434452
0.00428682
0.00420036
0.00408559
0.0039428
0.0037722
0.00357392
0.00334817
0.00309521
0.0028155
0.00250968
0.00217871
0.00182387
0.00144679
0.00104953
0.000634564
0.000204818
-0.000236354
-0.000685167
-0.00113743
-0.0015886
-0.0020338
-0.00246792
-0.00288567
-0.00328167
-0.00365053
-0.003987
-0.004286
-0.00454281
-0.00475312
-0.00491316
-0.00501982
-0.0050707
-0.00506423
-0.00499973
-0.00487747
-0.00469869
-0.00446566
-0.00418171
-0.00385121
-0.00347963
-0.00307352
-0.00264063
-0.00218995
-0.00173187
-0.00127846
-0.000843735
-0.000444195
-9.93899e-05
0.000167352
0.000328304
0.00035074
0.000194038
-3.74611e-05
0.000197419
0.000626845
0.00117011
0.00177127
0.00238951
0.00299576
0.00357025
0.00410014
0.00457766
0.00499874
0.00536188
0.00566735
0.00591649
0.00611129
0.00625401
0.00634693
0.00639219
0.00639165
0.00634688
0.00625912
0.00612929
0.00595807
0.00574593
0.00549321
0.00520025
0.00486742
0.00449525
0.0040845
0.00363627
0.00315204
0.00263377
0.00208393
0.00150558
0.000902347
0.000278492
-0.000361126
-0.00101105
-0.00166529
-0.00231734
-0.00296027
-0.00358681
-0.00418948
-0.00476065
-0.00529274
-0.0057783
-0.00621021
-0.0065818
-0.00688701
-0.00712054
-0.007278
-0.00735602
-0.0073524
-0.00726619
-0.00709775
-0.00684889
-0.00652283
-0.00612429
-0.00565951
-0.00513626
-0.00456388
-0.00395334
-0.00331733
-0.00267045
-0.00202942
-0.00141343
-0.000844592
-0.000348592
4.46089e-05
0.000300077
0.000377011
0.000224382
4.41522e-05
0.000461263
0.00108687
0.00183427
0.00264161
0.00346268
0.00426386
0.00502171
0.00572064
0.00635095
0.00690734
0.00738764
0.00779186
0.00812144
0.00837865
0.00856614
0.00868665
0.00874278
0.00873684
0.00867079
0.00854618
0.00836423
0.00812585
0.00783172
0.0074824
0.00707842
0.00662042
0.00610926
0.00554611
0.00493258
0.00427083
0.00356362
0.0028144
0.00202739
0.00120756
0.000360682
-0.000506673
-0.00138718
-0.00227279
-0.00315483
-0.00402408
-0.00487086
-0.00568523
-0.00645711
-0.00717643
-0.00783336
-0.00841847
-0.00892293
-0.00933872
-0.00965885
-0.00987747
-0.00999013
-0.0099939
-0.00988748
-0.00967136
-0.00934789
-0.00892136
-0.008398
-0.00778608
-0.00709592
-0.00633989
-0.0055325
-0.00469048
-0.00383292
-0.0029815
-0.00216081
-0.00139878
-0.000727234
-0.000182655
0.000193162
0.000352108
0.000234823
0.000160488
0.000814373
0.00167933
0.00266541
0.00370695
0.00475393
0.00576933
0.00672689
0.00760881
0.00840382
0.0091056
0.00971143
0.0102211
0.0106362
0.0109592
0.0111932
0.0113414
0.0114067
0.0113919
0.0112994
0.011131
0.0108883
0.0105723
0.0101841
0.00972442
0.00919403
0.00859391
0.00792529
0.00718985
0.00638981
0.0055281
0.00460839
0.00363527
0.00261421
0.00155168
0.00045515
-0.000666949
-0.00180523
-0.00294943
-0.00408848
-0.00521066
-0.00630371
-0.00735501
-0.00835178
-0.0092813
-0.0101311
-0.0108892
-0.0115445
-0.0120868
-0.0125072
-0.0127983
-0.0129544
-0.0129716
-0.0128484
-0.0125852
-0.0121849
-0.011653
-0.0109972
-0.010228
-0.00935843
-0.00840404
-0.00738312
-0.00631665
-0.00522847
-0.0041454
-0.00309759
-0.00211882
-0.00124705
-0.000525057
-1.04151e-06
0.000270466
0.000223656
0.000310911
0.00125666
0.00240518
0.00366541
0.00496963
0.00626552
0.00751384
0.0086864
0.00976388
0.0107339
0.0115895
0.0123275
0.0129478
0.0134519
0.0138428
0.0141239
0.0142987
0.0143708
0.0143433
0.0142188
0.0139997
0.0136877
0.0132842
0.0127904
0.0122074
0.0115362
0.0107781
0.00993488
0.00900873
0.00800258
0.00692018
0.00576625
0.00454656
0.003268
0.00193866
0.000567801
-0.000834125
-0.00225553
-0.00368377
-0.00510524
-0.00650554
-0.00786963
-0.00918206
-0.0104272
-0.0115893
-0.0126533
-0.0136043
-0.0144288
-0.0151142
-0.0156495
-0.0160255
-0.0162351
-0.0162736
-0.0161388
-0.0158311
-0.015354
-0.014714
-0.0139204
-0.012986
-0.0119266
-0.0107611
-0.00951165
-0.00820376
-0.00686611
-0.00553083
-0.00423369
-0.00301438
-0.00191688
-0.000990056
-0.000288053
0.00012898
0.000190231
0.000494515
0.00178688
0.00326354
0.00483388
0.00642961
0.00799746
0.00949711
0.0108994
0.0121841
0.0133384
0.0143549
0.0152305
0.0159652
0.0165608
0.0170205
0.0173484
0.0175483
0.0176243
0.0175798
0.0174179
0.0171411
0.0167516
0.0162511
0.0156408
0.0149223
0.0140969
0.0131662
0.0121326
0.0109988
0.00976847
0.00844632
0.00703814
0.00555099
0.00399326
0.00237473
0.000706571
-0.00099864
-0.002727
-0.00446335
-0.00619143
-0.00789402
-0.00955315
-0.0111503
-0.0126669
-0.0140841
-0.0153837
-0.0165481
-0.0175609
-0.0184069
-0.0190729
-0.0195478
-0.0198229
-0.0198922
-0.0197529
-0.0194053
-0.0188534
-0.0181044
-0.0171696
-0.0160638
-0.0148057
-0.0134177
-0.011926
-0.0103605
-0.008755
-0.007147
-0.00557799
-0.00409356
-0.00274366
-0.00158303
-0.000671412
-7.39654e-05
0.000134467
0.00071027
0.00240313
0.00425232
0.00616884
0.0080851
0.00994801
0.0117172
0.0133635
0.0148666
0.0162136
0.0173974
0.0184152
0.0192671
0.0199557
0.0204847
0.0208583
0.0210813
0.0211578
0.021092
0.0208871
0.0205461
0.0200713
0.0194647
0.018728
0.0178628
0.0168708
0.0157542
0.0145157
0.0131587
0.0116877
0.0101083
0.00842753
0.00665369
0.00479674
0.00286823
0.00088131
-0.00114924
-0.00320713
-0.00527459
-0.00733258
-0.00936094
-0.0113386
-0.0132441
-0.0150552
-0.0167502
-0.0183076
-0.0197067
-0.0209279
-0.0219536
-0.0227677
-0.0233572
-0.0237113
-0.0238229
-0.0236882
-0.0233073
-0.0226844
-0.0218276
-0.0207498
-0.0194679
-0.0180036
-0.0163827
-0.0146355
-0.0127965
-0.0109047
-0.00900311
-0.00713891
-0.00536365
-0.00373324
-0.00230818
-0.00115356
-0.000339206
5.65318e-05
0.000957099
0.00310311
0.00536864
0.00766721
0.00993294
0.012114
0.0141709
0.0160753
0.0178074
0.0193552
0.0207121
0.0218759
0.0228475
0.0236301
0.024228
0.0246462
0.0248897
0.0249635
0.0248719
0.0246188
0.0242072
0.0236399
0.0229191
0.0220466
0.0210245
0.0198549
0.0185402
0.0170837
0.0154895
0.0137628
0.0119104
0.00994015
0.00786194
0.00568727
0.00342945
0.00110367
-0.00127306
-0.00368198
-0.00610267
-0.00851321
-0.0108904
-0.0132101
-0.0154473
-0.0175767
-0.0195729
-0.0214112
-0.0230673
-0.0245187
-0.0257445
-0.026726
-0.0274476
-0.0278965
-0.028064
-0.0279451
-0.0275394
-0.0268512
-0.0258895
-0.0246683
-0.023207
-0.0215299
-0.0196664
-0.0176509
-0.0155226
-0.0133257
-0.0111088
-0.00892496
-0.00683177
-0.00489111
-0.00316922
-0.00173651
-0.000667304
-4.33568e-05
0.00123391
0.00388428
0.00660907
0.00932508
0.011969
0.0144911
0.0168537
0.01903
0.0210018
0.0227581
0.0242934
0.0256068
0.0267001
0.0275773
0.0282437
0.0287048
0.0289665
0.0290342
0.0289128
0.0286064
0.0281185
0.027452
0.0266095
0.0255931
0.0244051
0.0230478
0.0215242
0.0198381
0.0179941
0.0159984
0.0138585
0.0115837
0.00918499
0.00667555
0.00407049
0.00138701
-0.00135564
-0.00413619
-0.00693152
-0.00971681
-0.0124658
-0.0151509
-0.0177437
-0.0202156
-0.0225374
-0.0246807
-0.0266179
-0.0283227
-0.0297711
-0.0309413
-0.0318147
-0.0323764
-0.0326155
-0.0325258
-0.0321061
-0.0313603
-0.0302982
-0.028935
-0.0272921
-0.0253965
-0.0232811
-0.0209846
-0.0185509
-0.0160294
-0.0134745
-0.0109452
-0.0085054
-0.00622294
-0.00416999
-0.00242232
-0.00105891
-0.000165065
0.00153961
0.00474393
0.0079698
0.0111379
0.0141882
0.017074
0.0197602
0.0222222
0.0244439
0.0264161
0.0281352
0.0296015
0.0308183
0.0317907
0.0325249
0.0330275
0.0333051
0.0333636
0.0332085
0.0328443
0.032275
0.0315035
0.0305329
0.0293653
0.0280034
0.0264498
0.024708
0.022782
0.0206773
0.0184007
0.0159606
0.0133675
0.0106337
0.00777397
0.00480506
0.00174622
-0.00138104
-0.004553
-0.0077438
-0.0109257
-0.0140691
-0.0171433
-0.0201163
-0.0229556
-0.0256285
-0.0281025
-0.0303463
-0.0323298
-0.0340253
-0.0354076
-0.0364551
-0.0371499
-0.037479
-0.0374343
-0.0370134
-0.0362199
-0.0350638
-0.0335614
-0.0317358
-0.0296169
-0.0272409
-0.0246506
-0.0218949
-0.0190285
-0.0161117
-0.0132098
-0.0103928
-0.00773506
-0.00531482
-0.00321349
-0.00151499
-0.00030863
0.00187308
0.00567923
0.00944671
0.0131006
0.016585
0.0198566
0.0228839
0.0256451
0.028127
0.0303227
0.0322307
0.0338532
0.0351952
0.0362633
0.0370649
0.0376076
0.037899
0.0379457
0.0377536
0.0373277
0.0366724
0.0357911
0.0346867
0.033362
0.0318195
0.0300624
0.0280943
0.0259198
0.023545
0.0209772
0.0182259
0.0153025
0.0122206
0.00899632
0.00564829
0.00219764
-0.00133194
-0.00491428
-0.00852081
-0.0121208
-0.0156816
-0.0191688
-0.022547
-0.0257797
-0.0288303
-0.0316622
-0.03424
-0.0365296
-0.0384991
-0.0401195
-0.0413657
-0.0422167
-0.0426566
-0.0426752
-0.0422686
-0.0414395
-0.0401977
-0.0385606
-0.0365527
-0.0342064
-0.0315614
-0.0286646
-0.0255698
-0.0223373
-0.0190334
-0.0157299
-0.0125033
-0.00943478
-0.00660892
-0.00411324
-0.00203706
-0.000474319
0.00223322
0.0066872
0.0110354
0.0152078
0.019153
0.0228322
0.0262177
0.0292915
0.0320436
0.0344701
0.0365721
0.0383542
0.0398233
0.0409878
0.0418565
0.0424384
0.0427418
0.0427744
0.0425426
0.042052
0.0413072
0.040312
0.0390695
0.0375827
0.0358543
0.0338878
0.031687
0.029257
0.0266042
0.0237367
0.0206647
0.0174005
0.013959
0.0103576
0.00661655
0.00275883
-0.00118974
-0.00520062
-0.00924258
-0.0132819
-0.0172828
-0.0212074
-0.0250164
-0.0286695
-0.0321258
-0.0353445
-0.0382856
-0.0409107
-0.0431835
-0.0450708
-0.0465433
-0.0475763
-0.0481509
-0.048254
-0.0478797
-0.0470295
-0.0457127
-0.043947
-0.0417585
-0.0391819
-0.03626
-0.033044
-0.0295926
-0.0259718
-0.0222542
-0.0185183
-0.0148478
-0.0113307
-0.00805863
-0.00512569
-0.00262726
-0.000662666
0.00261885
0.00776476
0.0127312
0.0174536
0.0218856
0.0259933
0.0297538
0.0331533
0.0361854
0.0388501
0.0411513
0.0430964
0.0446946
0.0459564
0.0468923
0.0475126
0.0478269
0.0478437
0.0475702
0.0470125
0.0461756
0.0450635
0.0436797
0.0420272
0.0401091
0.0379287
0.0354904
0.0327994
0.0298625
0.0266884
0.0232879
0.0196742
0.0158633
0.0118737
0.00772714
0.0034484
-0.000934739
-0.00539143
-0.00988789
-0.0143875
-0.0188512
-0.0232377
-0.0275039
-0.0316052
-0.0354965
-0.0391324
-0.0424683
-0.0454607
-0.0480687
-0.0502542
-0.0519835
-0.0532277
-0.0539638
-0.0541757
-0.0538548
-0.0530007
-0.0516219
-0.0497361
-0.0473704
-0.0445615
-0.0413555
-0.0378077
-0.0339817
-0.0299496
-0.0257904
-0.0215897
-0.0174387
-0.0134329
-0.00967158
-0.00625603
-0.00328845
-0.000874505
0.00302878
0.00890863
0.0145291
0.0198316
0.0247753
0.0293319
0.0334836
0.0372214
0.0405435
0.0434535
0.0459591
0.0480708
0.0498004
0.0511607
0.0521642
0.0528228
0.0531474
0.0531474
0.0528309
0.0522046
0.0512739
0.0500431
0.048516
0.0466955
0.0445851
0.0421881
0.0395089
0.0365531
0.0333278
0.029842
0.0261071
0.0221369
0.0179483
0.0135611
0.00899811
0.00428576
-0.000546317
-0.00546512
-0.0104344
-0.0154147
-0.0203638
-0.0252369
-0.0299869
-0.0345653
-0.0389222
-0.0430074
-0.0467713
-0.0501653
-0.053143
-0.0556612
-0.057681
-0.0591685
-0.0600965
-0.0604448
-0.0602015
-0.0593639
-0.0579389
-0.0559437
-0.0534061
-0.0503647
-0.0468683
-0.0429763
-0.0387576
-0.0342902
-0.0296601
-0.0249604
-0.0202902
-0.0157532
-0.0114568
-0.00751062
-0.00402433
-0.00111098
0.00346176
0.0101154
0.016424
0.0223352
0.0278144
0.0328394
0.0373979
0.0414864
0.0451078
0.0482704
0.0509858
0.0532677
0.0551312
0.0565916
0.0576636
0.0583608
0.0586955
0.0586784
0.0583185
0.057623
0.0565979
0.0552478
0.0535764
0.0515872
0.0492833
0.0466684
0.0437468
0.0405241
0.0370078
0.033207
0.0291335
0.0248018
0.0202292
0.0154365
0.0104478
0.00529083
-3.19178e-06
-0.00539921
-0.0108586
-0.0163394
-0.0217961
-0.0271804
-0.0324415
-0.0375263
-0.0423805
-0.0469487
-0.0511759
-0.0550079
-0.0583925
-0.0612808
-0.063628
-0.0653947
-0.0665484
-0.0670643
-0.0669265
-0.0661291
-0.0646769
-0.0625859
-0.0598842
-0.0566115
-0.0528197
-0.0485719
-0.0439423
-0.0390151
-0.0338836
-0.0286487
-0.0234183
-0.0183049
-0.013425
-0.00889704
-0.00483939
-0.00137356
0.00391644
0.0113814
0.0184102
0.0249572
0.0309946
0.0365064
0.0414867
0.0459378
0.0498679
0.0532902
0.0562206
0.0586766
0.0606768
0.0622392
0.0633809
0.0641175
0.064463
0.0644293
0.0640263
0.063262
0.0621428
0.0606737
0.0588587
0.0567011
0.0542042
0.0513716
0.0482076
0.0447179
0.0409097
0.0367926
0.0323783
0.0276817
0.0227207
0.0175167
0.0120948
0.00648372
0.000716301
-0.00517069
-0.0111365
-0.0171365
-0.0231224
-0.0290424
-0.0348417
-0.040463
-0.045847
-0.0509331
-0.0556606
-0.0599694
-0.0638008
-0.0670995
-0.0698144
-0.0718997
-0.0733168
-0.0740355
-0.074035
-0.0733054
-0.0718484
-0.0696785
-0.066823
-0.0633228
-0.0592321
-0.0546178
-0.0495593
-0.0441473
-0.0384826
-0.032675
-0.0268411
-0.0211034
-0.0155884
-0.0104242
-0.00573903
-0.00166406
0.00439142
0.0127029
0.0204819
0.0276903
0.034307
0.0403231
0.0457395
0.0505645
0.0548124
0.0585013
0.061652
0.0642863
0.0664261
0.0680927
0.0693058
0.0700833
0.0704407
0.0703915
0.0699466
0.0691147
0.0679029
0.0663164
0.0643594
0.0620352
0.0593472
0.0562988
0.0528942
0.0491388
0.0450399
0.0406068
0.0358514
0.0307888
0.0254369
0.0198178
0.013957
0.0078844
0.00163386
-0.00475624
-0.0112432
-0.0177802
-0.0243159
-0.0307953
-0.0371598
-0.0433477
-0.0492947
-0.0549348
-0.0602013
-0.0650274
-0.0693481
-0.0731007
-0.0762269
-0.078674
-0.0803963
-0.0813572
-0.08153
-0.0808999
-0.0794648
-0.0772363
-0.0742409
-0.0705195
-0.0661284
-0.0611382
-0.0556335
-0.0497115
-0.0434812
-0.0370613
-0.0305785
-0.0241658
-0.0179607
-0.0121022
-0.00672952
-0.0019846
0.00488523
0.0140757
0.022633
0.0305262
0.0377421
0.0442791
0.050145
0.0553548
0.059929
0.0638914
0.0672677
0.0700842
0.0723669
0.0741403
0.075427
0.0762471
0.0766184
0.0765554
0.0760705
0.0751732
0.0738712
0.0721699
0.0700738
0.0675863
0.0647104
0.0614496
0.0578076
0.0537899
0.0494031
0.0446565
0.0395619
0.0341339
0.028391
0.0223549
0.0160519
0.0095122
0.00277085
-0.00413262
-0.0111539
-0.0182439
-0.0253488
-0.0324105
-0.0393666
-0.0461509
-0.0526943
-0.0589252
-0.0647704
-0.0701565
-0.0750111
-0.0792639
-0.0828485
-0.0857043
-0.0877778
-0.0890247
-0.0894115
-0.0889174
-0.0875351
-0.0852729
-0.082155
-0.0782222
-0.073532
-0.0681584
-0.0621911
-0.0557342
-0.048905
-0.0418319
-0.0346524
-0.0275112
-0.0205574
-0.0139427
-0.00781801
-0.00233769
0.00539626
0.0154957
0.0248567
0.0334568
0.0412902
0.0483633
0.0546912
0.0602961
0.0652048
0.0694473
0.0730544
0.0760574
0.0784863
0.0803693
0.081732
0.0825972
0.0829844
0.0829102
0.0823879
0.0814282
0.0800392
0.0782268
0.0759957
0.0733492
0.0702902
0.0668218
0.0629476
0.0586724
0.0540026
0.0489469
0.0435167
0.0377265
0.0315942
0.0251418
0.0183953
0.0113855
0.00414782
-0.0032771
-0.0108436
-0.0185009
-0.0261928
-0.0338582
-0.0414311
-0.0488411
-0.0560141
-0.0628727
-0.0693373
-0.0753274
-0.0807626
-0.0855645
-0.0896579
-0.0929731
-0.095448
-0.0970295
-0.097676
-0.0973592
-0.0960659
-0.0937996
-0.0905813
-0.0864505
-0.0814657
-0.0757036
-0.0692589
-0.0622427
-0.054781
-0.0470126
-0.0390866
-0.0311602
-0.0233958
-0.0159585
-0.00901258
-0.00272613
0.00592287
0.0169582
0.0271463
0.036473
0.0449408
0.052564
0.0593656
0.0653751
0.0706262
0.0751549
0.078998
0.0821916
0.0847702
0.0867658
0.0882072
0.0891201
0.0895261
0.0894436
0.0888873
0.0878688
0.086397
0.0844782
0.0821171
0.0793171
0.076081
0.0724114
0.0683114
0.0637854
0.0588391
0.0534807
0.0477209
0.0415736
0.0350562
0.0281902
0.0210015
0.0135209
0.00578405
-0.0021679
-0.0102883
-0.0185247
-0.0268192
-0.0351077
-0.0433211
-0.0513849
-0.0592199
-0.0667429
-0.073868
-0.0805069
-0.0865712
-0.0919734
-0.0966289
-0.100458
-0.103389
-0.105358
-0.106315
-0.106223
-0.10506
-0.102825
-0.0995332
-0.0952227
-0.0899517
-0.0837991
-0.0768644
-0.0692657
-0.061138
-0.0526311
-0.0439066
-0.0351355
-0.0264946
-0.0181637
-0.0103222
-0.0031531
0.00646327
0.0184585
0.0294945
0.0395656
0.0486829
0.056869
0.064155
0.0705779
0.0761785
0.0809995
0.0850833
0.0884716
0.0912034
0.0933147
0.0948379
0.0958013
0.0962293
0.0961419
0.0955554
0.0944824
0.0929326
0.0909128
0.0884278
0.085481
0.0820749
0.0782117
0.073894
0.0691255
0.0639111
0.0582582
0.0521767
0.0456796
0.0387836
0.0315095
0.0238826
0.0159332
0.00769698
-0.000784764
-0.00946477
-0.0182896
-0.0271995
-0.0361283
-0.0450036
-0.0537473
-0.0622752
-0.0704987
-0.0783249
-0.085658
-0.0924009
-0.0984565
-0.10373
-0.108132
-0.111577
-0.113993
-0.115316
-0.115501
-0.114517
-0.112353
-0.109021
-0.104555
-0.0990106
-0.0924695
-0.085035
-0.0768322
-0.0680055
-0.0587162
-0.0491396
-0.0394612
-0.029874
-0.0205739
-0.0117567
-0.00362211
0.00701564
0.0199917
0.0318937
0.0427249
0.0525052
0.0612656
0.0690455
0.0758898
0.0818466
0.0869653
0.0912945
0.0948813
0.0977697
0.0999998
0.101608
0.102625
0.103078
0.10299
0.102377
0.101254
0.0996321
0.0975174
0.0949154
0.0918294
0.0882615
0.0842136
0.0796875
0.0746862
0.0692138
0.0632766
0.0568833
0.0500461
0.0427804
0.0351061
0.0270476
0.0186344
0.0099017
0.000890514
-0.0083517
-0.0177709
-0.027306
-0.0368891
-0.0464451
-0.0558923
-0.0651421
-0.0741003
-0.0826673
-0.0907395
-0.098211
-0.104975
-0.110925
-0.115959
-0.119982
-0.122907
-0.12466
-0.125181
-0.124429
-0.122385
-0.119053
-0.11446
-0.108661
-0.101738
-0.0937975
-0.0849715
-0.0754139
-0.0652982
-0.0548141
-0.0441633
-0.0335559
-0.0232059
-0.0133269
-0.00413701
0.00757805
0.0215526
0.0343361
0.045941
0.0563958
0.0657405
0.0740228
0.0812956
0.0876146
0.0930359
0.0976147
0.101404
0.104452
0.106804
0.108499
0.109574
0.110056
0.10997
0.109336
0.108168
0.106479
0.104276
0.101565
0.0983479
0.0946274
0.0904046
0.0856808
0.0804579
0.074739
0.0685293
0.0618364
0.0546708
0.0470468
0.038983
0.0305023
0.0216334
0.0124103
0.00287346
-0.00692999
-0.0169458
-0.0271123
-0.0373602
-0.0476121
-0.0577832
-0.067781
-0.0775056
-0.0868513
-0.0957066
-0.103956
-0.111483
-0.11817
-0.123901
-0.128568
-0.132071
-0.134319
-0.135242
-0.134784
-0.132915
-0.129629
-0.124946
-0.118918
-0.111625
-0.103178
-0.0937125
-0.0833939
-0.0724082
-0.0609601
-0.0492689
-0.0375635
-0.0260775
-0.0150443
-0.00470202
0.0081485
0.0231358
0.0368136
0.0492034
0.0603426
0.0702801
0.079072
0.0867795
0.0934657
0.0991941
0.104026
0.10802
0.111231
0.113708
0.115494
0.116628
0.117142
0.117063
0.116412
0.115205
0.113456
0.111172
0.108359
0.105019
0.101156
0.0967694
0.0918594
0.0864273
0.0804751
0.0740065
0.0670276
0.0595476
0.0515791
0.043139
0.0342487
0.0249352
0.0152313
0.00517629
-0.00518353
-0.0157943
-0.0265942
-0.037513
-0.048472
-0.0593834
-0.0701513
-0.0806711
-0.0908306
-0.100511
-0.109587
-0.117932
-0.125416
-0.13191
-0.137292
-0.141443
-0.144262
-0.145658
-0.145562
-0.143931
-0.140745
-0.136018
-0.129794
-0.12215
-0.113199
-0.103083
-0.0919762
-0.0800776
-0.0676084
-0.0548065
-0.0419214
-0.029208
-0.0169214
-0.00532166
0.00872497
0.0247361
0.039318
0.0525015
0.0643331
0.0748703
0.0841778
0.0923251
0.0993829
0.105422
0.11051
0.114713
0.118089
0.120692
0.122572
0.123769
0.124318
0.124249
0.123585
0.122345
0.120541
0.118183
0.115276
0.111824
0.107828
0.103289
0.0982054
0.0925775
0.0864062
0.0796938
0.0724446
0.0646662
0.0563693
0.0475687
0.0382842
0.0285406
0.0183691
0.00780732
-0.00309981
-0.0142994
-0.02573
-0.0373212
-0.0489934
-0.0606569
-0.0722127
-0.0835519
-0.0945565
-0.1051
-0.11505
-0.124267
-0.132609
-0.139933
-0.1461
-0.150978
-0.154444
-0.156392
-0.156735
-0.155413
-0.152392
-0.147674
-0.141294
-0.133326
-0.123882
-0.113109
-0.10119
-0.0883381
-0.0747905
-0.0608056
-0.0466553
-0.0326177
-0.0189716
-0.00600082
0.00930538
0.0263477
0.0418409
0.0558247
0.0683546
0.0794968
0.0893247
0.0979157
0.105349
0.111701
0.117048
0.121461
0.125004
0.127736
0.129711
0.130972
0.13156
0.131505
0.130833
0.129563
0.127711
0.125285
0.122294
0.118738
0.114621
0.109941
0.104697
0.0988875
0.0925126
0.0855726
0.0780704
0.0700114
0.0614044
0.0522619
0.0426014
0.0324457
0.0218234
0.0107703
-0.000670585
-0.0124479
-0.0245015
-0.0367613
-0.0491474
-0.0615692
-0.0739252
-0.0861029
-0.0979794
-0.109421
-0.120287
-0.130427
-0.139686
-0.147908
-0.154936
-0.160619
-0.164816
-0.1674
-0.168266
-0.167332
-0.16455
-0.159903
-0.153419
-0.145163
-0.135245
-0.123815
-0.111065
-0.0972208
-0.0825381
-0.0672966
-0.051792
-0.036328
-0.0212089
-0.00674473
0.00988764
0.0279653
0.0443739
0.0591623
0.0723945
0.0841454
0.0944969
0.103534
0.111345
0.118013
0.12362
0.128244
0.131955
0.134818
0.136888
0.138217
0.138844
0.138806
0.138129
0.136835
0.13494
0.132454
0.129385
0.125736
0.121508
0.116699
0.111308
0.105332
0.0987699
0.09162
0.0838834
0.0755634
0.0666666
0.0572032
0.047188
0.0366411
0.0255888
0.014064
0.00210745
-0.0102317
-0.0228949
-0.0358137
-0.0489085
-0.0620884
-0.0752505
-0.0882798
-0.101049
-0.113418
-0.125238
-0.136349
-0.146583
-0.155768
-0.163731
-0.170301
-0.175316
-0.178628
-0.180107
-0.179651
-0.177189
-0.17269
-0.166162
-0.157664
-0.147299
-0.135221
-0.121626
-0.106756
-0.090883
-0.0743102
-0.0573591
-0.0403609
-0.0236482
-0.00755894
0.0104697
0.0295833
0.0469087
0.0625034
0.07644
0.0888017
0.0996786
0.109164
0.117353
0.124337
0.130205
0.135041
0.13892
0.141913
0.144081
0.145477
0.146146
0.146126
0.145447
0.144132
0.142199
0.13966
0.136522
0.132788
0.128459
0.123534
0.118009
0.111883
0.10515
0.0978082
0.0898571
0.0812973
0.072133
0.0623718
0.0520258
0.0411122
0.0296541
0.0176815
0.00523215
-0.0076475
-0.0209015
-0.0344633
-0.0482548
-0.0621859
-0.0761531
-0.0900396
-0.103715
-0.117034
-0.129841
-0.141965
-0.153226
-0.163439
-0.17241
-0.179951
-0.185875
-0.19001
-0.192201
-0.19232
-0.190273
-0.186004
-0.179507
-0.170824
-0.160052
-0.147342
-0.132898
-0.116972
-0.0998561
-0.0818774
-0.0633848
-0.0447397
-0.026305
-0.00844934
0.0110495
0.0311963
0.0494372
0.0658378
0.0804789
0.0934516
0.104854
0.114788
0.123355
0.130655
0.136783
0.141829
0.145876
0.148999
0.151263
0.152726
0.153437
0.153437
0.152758
0.151426
0.149459
0.146871
0.14367
0.13986
0.135441
0.130412
0.124768
0.118505
0.111619
0.104105
0.0959602
0.0871831
0.0777753
0.0677417
0.0570914
0.0458383
0.0340022
0.0216099
0.00869536
-0.0046982
-0.018518
-0.0327005
-0.0471699
-0.0618376
-0.0766009
-0.0913426
-0.10593
-0.120214
-0.134032
-0.147205
-0.159542
-0.170841
-0.180893
-0.189487
-0.196412
-0.20147
-0.204478
-0.205279
-0.20375
-0.19981
-0.193429
-0.184631
-0.173502
-0.160189
-0.144898
-0.127894
-0.109487
-0.0900289
-0.0698979
-0.0494881
-0.0291956
-0.00942214
0.0116252
0.0327993
0.0519515
0.0691553
0.0844989
0.0980812
0.110008
0.120389
0.129333
0.136947
0.143333
0.148588
0.1528
0.15605
0.158408
0.159937
0.160689
0.160709
0.160031
0.158683
0.156686
0.154055
0.150797
0.146918
0.142419
0.137296
0.131546
0.125164
0.118142
0.110474
0.102157
0.093186
0.0835601
0.0732812
0.0623553
0.050793
0.0386103
0.02583
0.0124826
-0.00139297
-0.0157478
-0.0305219
-0.0456428
-0.0610248
-0.076567
-0.0921527
-0.107649
-0.122903
-0.137749
-0.151999
-0.165452
-0.177892
-0.189092
-0.198818
-0.206837
-0.212921
-0.216856
-0.218454
-0.217557
-0.214056
-0.20789
-0.199062
-0.187641
-0.173765
-0.157643
-0.139546
-0.119804
-0.0987945
-0.076927
-0.0546304
-0.0323368
-0.0104838
0.0121949
0.0343874
0.0544444
0.0724465
0.0884888
0.102678
0.115126
0.125951
0.135268
0.143193
0.149834
0.155294
0.159668
0.163041
0.16549
0.167082
0.167873
0.16791
0.167233
0.16587
0.163845
0.161173
0.157864
0.153924
0.149353
0.144148
0.138305
0.131816
0.124676
0.116875
0.108407
0.0992664
0.0894488
0.0789534
0.0677828
0.0559438
0.0434489
0.0303165
0.0165728
0.00225223
-0.0126008
-0.0279308
-0.0436697
-0.0597353
-0.07603
-0.0924394
-0.108831
-0.125052
-0.140931
-0.156276
-0.170877
-0.184504
-0.196912
-0.207849
-0.217053
-0.224267
-0.229244
-0.231759
-0.23162
-0.228679
-0.222842
-0.214083
-0.20245
-0.188067
-0.171139
-0.151945
-0.130832
-0.108203
-0.0845005
-0.0601911
-0.0357459
-0.0116413
0.0127569
0.0359562
0.0569092
0.0757026
0.092438
0.107228
0.120193
0.131457
0.141144
0.149374
0.156265
0.161924
0.166454
0.169946
0.172481
0.174131
0.174957
0.175009
0.17433
0.172951
0.170898
0.168188
0.164832
0.160836
0.1562
0.150923
0.144999
0.13842
0.131177
0.123263
0.114666
0.10538
0.0953984
0.0847164
0.0733334
0.0612528
0.0484827
0.0350374
0.0209381
0.00621448
-0.00909432
-0.024938
-0.0412536
-0.057964
-0.0749759
-0.0921784
-0.109441
-0.126613
-0.143521
-0.159969
-0.175738
-0.190588
-0.204259
-0.216475
-0.226952
-0.235399
-0.241535
-0.245097
-0.245848
-0.243601
-0.238221
-0.229648
-0.217899
-0.20308
-0.185388
-0.165105
-0.142593
-0.118281
-0.0926462
-0.066195
-0.0394406
-0.0129015
0.0133098
0.037502
0.05934
0.0789159
0.0963369
0.111722
0.125198
0.136894
0.146943
0.155473
0.162605
0.168457
0.173136
0.176739
0.179353
0.181055
0.181909
0.181971
0.181287
0.17989
0.177808
0.17506
0.171659
0.167611
0.162918
0.157577
0.151582
0.144926
0.137599
0.129589
0.120886
0.11148
0.101361
0.0905235
0.078962
0.0666764
0.0536707
0.0399546
0.0255442
0.0104639
-0.00525291
-0.0215618
-0.0384058
-0.0557138
-0.0733983
-0.0913534
-0.109453
-0.127549
-0.145468
-0.163012
-0.179958
-0.196056
-0.211032
-0.224591
-0.236421
-0.246202
-0.253615
-0.258354
-0.260138
-0.25873
-0.253951
-0.245695
-0.233945
-0.218781
-0.200383
-0.179032
-0.155105
-0.129053
-0.101391
-0.0726665
-0.0434389
-0.0142719
0.0138525
0.0390215
0.0617319
0.08208
0.100177
0.116149
0.130127
0.142248
0.152651
0.16147
0.168835
0.17487
0.179688
0.183392
0.186076
0.187821
0.188697
0.188762
0.188066
0.186646
0.184533
0.181746
0.178301
0.174205
0.169459
0.164062
0.158007
0.151287
0.143889
0.135803
0.127015
0.117513
0.107286
0.096324
0.0846187
0.0721663
0.0589664
0.0450241
0.0303503
0.0149636
-0.00110851
-0.0178283
-0.0351456
-0.0529962
-0.0712996
-0.0899565
-0.108847
-0.127826
-0.146726
-0.165348
-0.183466
-0.200824
-0.217135
-0.232086
-0.245342
-0.256552
-0.265357
-0.271407
-0.274371
-0.273959
-0.269937
-0.262149
-0.250533
-0.235132
-0.216105
-0.193726
-0.168379
-0.140541
-0.11076
-0.0796298
-0.047759
-0.0157599
0.014384
0.0405126
0.0640814
0.0851897
0.103953
0.120501
0.134971
0.147507
0.158252
0.16735
0.174936
0.181142
0.186087
0.189881
0.192623
0.1944
0.195286
0.195346
0.19463
0.193182
0.191032
0.188204
0.184713
0.180569
0.175775
0.170328
0.164222
0.157449
0.149996
0.141851
0.132999
0.123427
0.113119
0.102064
0.0902498
0.0776696
0.0643185
0.0501966
0.0353097
0.0196705
0.00329984
-0.0137714
-0.0315006
-0.0498314