/*--------------------------------*- C++ -*----------------------------------*\
  =========                 |
  \\      /  F ield         | OpenFOAM: The Open Source CFD Toolbox
   \\    /   O peration     | Website:  https://openfoam.org
    \\  /    A nd           | Version:  dev
     \\/     M anipulation  |
\*---------------------------------------------------------------------------*/
FoamFile
{
    format      ascii;
    class       volVectorField;
    location    "49.5";
    object      U;
}
// * * * * * * * * * * * * * * * * * * * * * * * * * * * * * * * * * * * * * //

dimensions      [0 1 -1 0 0 0 0];

internalField   nonuniform List<vector> 
5184
(
(1.24545e-05 -1.25896e-05 0)
(4.53776e-05 -2.08247e-05 0)
(8.04709e-05 -1.7226e-05 0)
(9.61036e-05 -8.18965e-06 0)
(8.22682e-05 2.67164e-06 0)
(3.65619e-05 1.3621e-05 0)
(-4.04743e-05 2.38511e-05 0)
(-0.000146822 3.30568e-05 0)
(-0.000279687 4.11174e-05 0)
(-0.000436014 4.80385e-05 0)
(-0.00061268 5.38816e-05 0)
(-0.000806652 5.87317e-05 0)
(-0.00101506 6.26812e-05 0)
(-0.00123523 6.58214e-05 0)
(-0.00146472 6.82372e-05 0)
(-0.00170125 7.00038e-05 0)
(-0.00194277 7.11856e-05 0)
(-0.00218734 7.1835e-05 0)
(-0.00243319 7.1993e-05 0)
(-0.00267863 7.1689e-05 0)
(-0.00292205 7.09425e-05 0)
(-0.0031619 6.9764e-05 0)
(-0.00339665 6.81564e-05 0)
(-0.00362476 6.61167e-05 0)
(-0.00384471 6.36376e-05 0)
(-0.00405496 6.07094e-05 0)
(-0.00425395 5.73215e-05 0)
(-0.00444012 5.34644e-05 0)
(-0.00461187 4.91309e-05 0)
(-0.00476763 4.43181e-05 0)
(-0.00490585 3.90285e-05 0)
(-0.00502498 3.32712e-05 0)
(-0.00512358 2.70635e-05 0)
(-0.00520027 2.04314e-05 0)
(-0.00525377 1.34106e-05 0)
(-0.00528299 6.04695e-06 0)
(-0.00528697 -1.6035e-06 0)
(-0.00526499 -9.4742e-06 0)
(-0.00521654 -1.74886e-05 0)
(-0.0051414 -2.55606e-05 0)
(-0.00503963 -3.3596e-05 0)
(-0.0049116 -4.14931e-05 0)
(-0.00475803 -4.91447e-05 0)
(-0.00457996 -5.64398e-05 0)
(-0.0043788 -6.32655e-05 0)
(-0.00415631 -6.95099e-05 0)
(-0.00391458 -7.50642e-05 0)
(-0.00365604 -7.98256e-05 0)
(-0.00338342 -8.36994e-05 0)
(-0.00309972 -8.66019e-05 0)
(-0.00280819 -8.84624e-05 0)
(-0.00251225 -8.92255e-05 0)
(-0.00221547 -8.8853e-05 0)
(-0.00192151 -8.73251e-05 0)
(-0.00163405 -8.46419e-05 0)
(-0.00135672 -8.0823e-05 0)
(-0.00109307 -7.59072e-05 0)
(-0.000846466 -6.99531e-05 0)
(-0.000620059 -6.30384e-05 0)
(-0.000416698 -5.52599e-05 0)
(-0.000238882 -4.67318e-05 0)
(-8.869e-05 -3.75866e-05 0)
(3.22892e-05 -2.79791e-05 0)
(0.000123043 -1.80922e-05 0)
(0.000183241 -8.15233e-06 0)
(0.000213387 1.54632e-06 0)
(0.000215066 1.05803e-05 0)
(0.000191334 1.83131e-05 0)
(0.000147223 2.37316e-05 0)
(9.08339e-05 2.51423e-05 0)
(3.66385e-05 1.98583e-05 0)
(6.22714e-06 6.2448e-06 0)
(2.09321e-05 -4.57176e-05 0)
(6.58077e-05 -6.56128e-05 0)
(9.49141e-05 -4.0521e-05 0)
(7.3007e-05 7.65245e-06 0)
(-1.87494e-05 6.56994e-05 0)
(-0.000187181 0.000126025 0)
(-0.000432876 0.000184345 0)
(-0.000752616 0.000238411 0)
(-0.00114086 0.00028708 0)
(-0.00159081 0.000329906 0)
(-0.00209514 0.000366852 0)
(-0.00264638 0.000398106 0)
(-0.00323723 0.00042398 0)
(-0.00386069 0.000444841 0)
(-0.00451015 0.000461066 0)
(-0.00517941 0.000473015 0)
(-0.00586267 0.000481009 0)
(-0.00655449 0.000485324 0)
(-0.00724972 0.000486185 0)
(-0.00794348 0.000483761 0)
(-0.00863107 0.000478175 0)
(-0.00930794 0.000469504 0)
(-0.00996959 0.000457785 0)
(-0.0106116 0.000443028 0)
(-0.0112296 0.000425221 0)
(-0.0118192 0.00040434 0)
(-0.0123759 0.000380362 0)
(-0.0128953 0.000353268 0)
(-0.013373 0.00032306 0)
(-0.0138048 0.000289764 0)
(-0.0141863 0.000253442 0)
(-0.0145134 0.000214195 0)
(-0.0147823 0.000172173 0)
(-0.0149894 0.000127581 0)
(-0.0151312 8.06772e-05 0)
(-0.0152051 3.17813e-05 0)
(-0.0152086 -1.87275e-05 0)
(-0.01514 -7.04108e-05 0)
(-0.0149981 -0.000122773 0)
(-0.0147826 -0.000175267 0)
(-0.0144938 -0.000227298 0)
(-0.0141331 -0.000278233 0)
(-0.0137024 -0.000327412 0)
(-0.0132048 -0.000374154 0)
(-0.0126444 -0.000417775 0)
(-0.0120259 -0.000457599 0)
(-0.0113551 -0.000492974 0)
(-0.0106386 -0.000523284 0)
(-0.00988391 -0.000547969 0)
(-0.00909902 -0.000566535 0)
(-0.00829265 -0.000578568 0)
(-0.00747401 -0.000583748 0)
(-0.00665261 -0.00058186 0)
(-0.00583822 -0.0005728 0)
(-0.00504061 -0.000556584 0)
(-0.00426945 -0.000533354 0)
(-0.00353413 -0.000503371 0)
(-0.00284357 -0.000467026 0)
(-0.00220606 -0.000424833 0)
(-0.00162907 -0.000377434 0)
(-0.00111909 -0.000325598 0)
(-0.000681404 -0.00027023 0)
(-0.000319937 -0.000212391 0)
(-3.69705e-05 -0.000153333 0)
(0.000167134 -9.45701e-05 0)
(0.000294303 -3.79807e-05 0)
(0.000349287 1.39732e-05 0)
(0.000340364 5.79884e-05 0)
(0.00028003 8.9471e-05 0)
(0.00018615 0.000101921 0)
(8.64046e-05 8.65651e-05 0)
(1.96851e-05 3.65025e-05 0)
(1.76812e-05 -8.12614e-05 0)
(4.14526e-05 -9.5003e-05 0)
(1.97624e-05 -1.91165e-05 0)
(-8.3839e-05 0.000105963 0)
(-0.000290136 0.000254718 0)
(-0.00060788 0.000410699 0)
(-0.00103833 0.000563587 0)
(-0.00157768 0.00070724 0)
(-0.00221876 0.000838206 0)
(-0.00295237 0.000954775 0)
(-0.00376824 0.00105635 0)
(-0.00465566 0.00114303 0)
(-0.00560389 0.00121532 0)
(-0.00660246 0.00127395 0)
(-0.00764133 0.00131974 0)
(-0.00871093 0.00135352 0)
(-0.00980216 0.00137606 0)
(-0.0109064 0.00138802 0)
(-0.0120155 0.00138998 0)
(-0.0131216 0.00138238 0)
(-0.014217 0.00136554 0)
(-0.0152945 0.00133968 0)
(-0.0163467 0.00130495 0)
(-0.0173666 0.0012614 0)
(-0.018347 0.00120903 0)
(-0.019281 0.00114785 0)
(-0.0201614 0.00107783 0)
(-0.0209813 0.000998998 0)
(-0.0217339 0.000911415 0)
(-0.0224123 0.000815218 0)
(-0.02301 0.000710641 0)
(-0.0235207 0.000598028 0)
(-0.0239385 0.000477854 0)
(-0.0242579 0.000350733 0)
(-0.0244739 0.000217432 0)
(-0.0245824 7.8875e-05 0)
(-0.02458 -6.38569e-05 0)
(-0.0244641 -0.000209528 0)
(-0.0242333 -0.000356753 0)
(-0.0238872 -0.000504016 0)
(-0.0234267 -0.000649677 0)
(-0.0228539 -0.000792006 0)
(-0.0221723 -0.000929197 0)
(-0.0213866 -0.00105941 0)
(-0.0205033 -0.00118079 0)
(-0.0195299 -0.00129151 0)
(-0.0184752 -0.00138983 0)
(-0.0173497 -0.0014741 0)
(-0.0161646 -0.00154281 0)
(-0.0149324 -0.00159465 0)
(-0.0136664 -0.00162852 0)
(-0.0123807 -0.00164358 0)
(-0.0110897 -0.00163928 0)
(-0.00980843 -0.00161535 0)
(-0.00855168 -0.00157186 0)
(-0.00733417 -0.00150921 0)
(-0.00617016 -0.00142816 0)
(-0.00507318 -0.00132981 0)
(-0.00405578 -0.0012156 0)
(-0.00312925 -0.00108733 0)
(-0.00230331 -0.000947197 0)
(-0.00158586 -0.000797757 0)
(-0.000982644 -0.000642022 0)
(-0.000496883 -0.000483522 0)
(-0.000128888 -0.000326459 0)
(0.000124414 -0.000175926 0)
(0.000270127 -3.82441e-05 0)
(0.000320109 7.8568e-05 0)
(0.0002915 0.000164211 0)
(0.00020754 0.000205518 0)
(0.000102509 0.000186376 0)
(2.4987e-05 9.04329e-05 0)
(8.86392e-06 -9.77642e-05 0)
(-6.93795e-06 -7.31701e-05 0)
(-0.000107485 8.47904e-05 0)
(-0.000322296 0.00031843 0)
(-0.000669619 0.000590243 0)
(-0.00115786 0.000874596 0)
(-0.00178777 0.00115445 0)
(-0.00255459 0.00141901 0)
(-0.00344975 0.00166181 0)
(-0.00446223 0.00187929 0)
(-0.00557955 0.00206992 0)
(-0.00678849 0.00223343 0)
(-0.00807564 0.00237038 0)
(-0.00942774 0.00248181 0)
(-0.0108319 0.00256899 0)
(-0.0122756 0.00263326 0)
(-0.0137471 0.00267589 0)
(-0.0152348 0.00269804 0)
(-0.0167279 0.00270069 0)
(-0.0182157 0.00268462 0)
(-0.0196881 0.00265045 0)
(-0.0211352 0.00259858 0)
(-0.022547 0.0025293 0)
(-0.023914 0.00244276 0)
(-0.0252267 0.00233903 0)
(-0.0264755 0.00221817 0)
(-0.0276511 0.00208023 0)
(-0.0287442 0.00192532 0)
(-0.0297457 0.00175365 0)
(-0.0306468 0.00156556 0)
(-0.0314388 0.00136158 0)
(-0.0321135 0.00114245 0)
(-0.0326634 0.000909145 0)
(-0.0330813 0.000662901 0)
(-0.0333611 0.000405234 0)
(-0.0334976 0.000137948 0)
(-0.0334863 -0.000136868 0)
(-0.0333245 -0.000416842 0)
(-0.0330103 -0.000699337 0)
(-0.0325436 -0.000981474 0)
(-0.0319257 -0.00126016 0)
(-0.0311597 -0.00153215 0)
(-0.0302502 -0.00179405 0)
(-0.0292038 -0.00204243 0)
(-0.0280288 -0.00227383 0)
(-0.0267352 -0.00248487 0)
(-0.0253347 -0.00267229 0)
(-0.0238406 -0.00283305 0)
(-0.0222678 -0.00296437 0)
(-0.0206323 -0.00306382 0)
(-0.0189514 -0.0031294 0)
(-0.0172433 -0.00315954 0)
(-0.0155268 -0.00315323 0)
(-0.0138209 -0.00311002 0)
(-0.012145 -0.00303006 0)
(-0.010518 -0.00291414 0)
(-0.00895819 -0.00276369 0)
(-0.00748309 -0.00258081 0)
(-0.00610882 -0.00236827 0)
(-0.00484988 -0.00212951 0)
(-0.00371877 -0.00186869 0)
(-0.00272559 -0.00159071 0)
(-0.00187768 -0.00130129 0)
(-0.00117916 -0.0010071 0)
(-0.000630494 -0.000715959 0)
(-0.000227982 -0.00043715 0)
(3.68633e-05 -0.000181819 0)
(0.000177952 3.64156e-05 0)
(0.00021502 0.000200831 0)
(0.000174248 0.000291031 0)
(9.3095e-05 0.000282719 0)
(2.40408e-05 0.000147354 0)
(-2.11262e-06 -8.44576e-05 0)
(-6.72614e-05 2.0856e-05 0)
(-0.000264093 0.000295483 0)
(-0.000609825 0.000668175 0)
(-0.00111696 0.00109111 0)
(-0.00179172 0.00153036 0)
(-0.0026331 0.00196248 0)
(-0.00363473 0.00237197 0)
(-0.00478647 0.00274913 0)
(-0.00607562 0.00308829 0)
(-0.00748781 0.00338669 0)
(-0.00900778 0.00364351 0)
(-0.0106199 0.00385921 0)
(-0.0123087 0.00403503 0)
(-0.0140588 0.00417262 0)
(-0.0158554 0.00427381 0)
(-0.0176841 0.0043404 0)
(-0.0195311 0.00437403 0)
(-0.021383 0.00437612 0)
(-0.0232268 0.00434784 0)
(-0.02505 0.00429011 0)
(-0.0268402 0.00420359 0)
(-0.0285853 0.00408873 0)
(-0.0302734 0.00394584 0)
(-0.0318927 0.00377509 0)
(-0.0334316 0.00357665 0)
(-0.0348786 0.0033507 0)
(-0.0362223 0.00309752 0)
(-0.0374516 0.00281756 0)
(-0.0385559 0.00251147 0)
(-0.0395247 0.00218021 0)
(-0.0403483 0.00182505 0)
(-0.0410175 0.00144763 0)
(-0.0415241 0.00105002 0)
(-0.0418607 0.000634692 0)
(-0.0420212 0.00020457 0)
(-0.0420007 -0.000236983 0)
(-0.0417958 -0.000686177 0)
(-0.0414048 -0.00113882 0)
(-0.0408277 -0.00159035 0)
(-0.0400663 -0.00203591 0)
(-0.0391244 -0.00247037 0)
(-0.038008 -0.00288843 0)
(-0.036725 -0.00328471 0)
(-0.0352854 -0.00365383 0)
(-0.0337014 -0.0039905 0)
(-0.031987 -0.00428968 0)
(-0.0301582 -0.00454662 0)
(-0.0282328 -0.004757 0)
(-0.0262301 -0.00491708 0)
(-0.0241706 -0.00502372 0)
(-0.0220761 -0.00507454 0)
(-0.0199688 -0.00506795 0)
(-0.0178717 -0.0050033 0)
(-0.0158077 -0.00488082 0)
(-0.0137994 -0.0047018 0)
(-0.0118686 -0.00446849 0)
(-0.0100363 -0.00418423 0)
(-0.00832161 -0.0038534 0)
(-0.00674195 -0.00348146 0)
(-0.00531224 -0.00307499 0)
(-0.00404463 -0.00264173 0)
(-0.00294797 -0.00219068 0)
(-0.0020274 -0.00173227 0)
(-0.00128386 -0.00127854 0)
(-0.000713594 -0.000843542 0)
(-0.000307588 -0.000443779 0)
(-5.10636e-05 -9.8818e-05 0)
(7.68702e-05 0.000167995 0)
(0.000103735 0.000328919 0)
(6.75711e-05 0.000351212 0)
(1.96796e-05 0.000194241 0)
(-1.36912e-05 -3.7581e-05 0)
(-0.000132843 0.00019735 0)
(-0.000435898 0.000627014 0)
(-0.000924844 0.00117063 0)
(-0.00160432 0.00177224 0)
(-0.00247689 0.00239094 0)
(-0.00353872 0.00299768 0)
(-0.00478109 0.00357264 0)
(-0.00619192 0.00410296 0)
(-0.00775668 0.00458089 0)
(-0.00945922 0.00500234 0)
(-0.0112825 0.0053658 0)
(-0.013209 0.00567153 0)
(-0.0152211 0.0059209 0)
(-0.0173017 0.00611588 0)
(-0.0194338 0.00625874 0)
(-0.0216008 0.00635176 0)
(-0.0237869 0.00639708 0)
(-0.0259766 0.00639656 0)
(-0.0281547 0.00635177 0)
(-0.0303065 0.00626395 0)
(-0.0324176 0.00613402 0)
(-0.0344739 0.00596266 0)
(-0.0364613 0.00575034 0)
(-0.038366 0.00549742 0)
(-0.0401745 0.0052042 0)
(-0.0418733 0.00487108 0)
(-0.0434494 0.00449858 0)
(-0.0448897 0.00408747 0)
(-0.046182 0.00363884 0)
(-0.0473143 0.00315417 0)
(-0.0482755 0.00263544 0)
(-0.0490551 0.00208511 0)
(-0.0496438 0.00150624 0)
(-0.0500332 0.000902474 0)
(-0.0502167 0.000278075 0)
(-0.0501886 -0.000362093 0)
(-0.0499454 -0.00101257 0)
(-0.0494853 -0.00166735 0)
(-0.0488084 -0.00231993 0)
(-0.0479171 -0.00296337 0)
(-0.0468158 -0.00359039 0)
(-0.0455114 -0.0041935 0)
(-0.0440132 -0.00476508 0)
(-0.0423327 -0.00529753 0)
(-0.0404838 -0.00578339 0)
(-0.0384826 -0.00621555 0)
(-0.0363475 -0.00658732 0)
(-0.0340985 -0.00689265 0)
(-0.0317578 -0.00712623 0)
(-0.0293487 -0.00728366 0)
(-0.026896 -0.0073616 0)
(-0.0244253 -0.00735782 0)
(-0.0219624 -0.00727138 0)
(-0.0195337 -0.00710266 0)
(-0.0171649 -0.00685345 0)
(-0.0148811 -0.006527 0)
(-0.0127061 -0.00612802 0)
(-0.010662 -0.00566277 0)
(-0.00876867 -0.00513902 0)
(-0.00704343 -0.00456612 0)
(-0.00550038 -0.00395506 0)
(-0.00414998 -0.00331855 0)
(-0.00299859 -0.00267119 0)
(-0.00204798 -0.00202971 0)
(-0.00129489 -0.00141332 0)
(-0.00073051 -0.000844167 0)
(-0.00034012 -0.000347934 0)
(-0.000102742 4.53887e-05 0)
(9.27539e-06 0.000300848 0)
(3.25539e-05 0.000377619 0)
(1.36339e-05 0.000224651 0)
(-2.51887e-05 4.40591e-05 0)
(-0.000200056 0.000461324 0)
(-0.00061424 0.00108731 0)
(-0.00125327 0.00183522 0)
(-0.00211267 0.00264316 0)
(-0.00319031 0.00346487 0)
(-0.0044786 0.00426669 0)
(-0.00596583 0.00502517 0)
(-0.0076375 0.00572468 0)
(-0.00947704 0.00635553 0)
(-0.0114665 0.0069124 0)
(-0.013587 0.00739312 0)
(-0.0158193 0.0077977 0)
(-0.0181442 0.00812758 0)
(-0.0205426 0.00838502 0)
(-0.0229958 0.00857268 0)
(-0.0254856 0.00869332 0)
(-0.0279941 0.00874952 0)
(-0.030504 0.00874359 0)
(-0.0329982 0.00867749 0)
(-0.0354603 0.00855279 0)
(-0.0378738 0.0083707 0)
(-0.0402229 0.00813212 0)
(-0.0424916 0.00783774 0)
(-0.0446644 0.00748811 0)
(-0.0467259 0.00708378 0)
(-0.048661 0.00662537 0)
(-0.050455 0.00611375 0)
(-0.0520934 0.00555009 0)
(-0.0535623 0.00493601 0)
(-0.0548486 0.00427366 0)
(-0.0559397 0.00356581 0)
(-0.0568242 0.00281592 0)
(-0.0574916 0.00202821 0)
(-0.057933 0.00120766 0)
(-0.0581407 0.000360046 0)
(-0.058109 -0.000508053 0)
(-0.0578339 -0.0013893 0)
(-0.0573134 -0.00227565 0)
(-0.056548 -0.0031584 0)
(-0.0555401 -0.00402832 0)
(-0.0542951 -0.00487575 0)
(-0.0528204 -0.00569072 0)
(-0.0511264 -0.00646314 0)
(-0.0492259 -0.00718294 0)
(-0.0471342 -0.00784027 0)
(-0.0448693 -0.00842571 0)
(-0.0424512 -0.00893042 0)
(-0.0399024 -0.00934637 0)
(-0.0372472 -0.00966656 0)
(-0.0345115 -0.00988516 0)
(-0.0317227 -0.00999771 0)
(-0.0289091 -0.0100013 0)
(-0.0260995 -0.00989456 0)
(-0.023323 -0.00967807 0)
(-0.0206084 -0.00935415 0)
(-0.0179835 -0.0089271 0)
(-0.015475 -0.00840316 0)
(-0.0131076 -0.00779063 0)
(-0.0109038 -0.00709981 0)
(-0.0088831 -0.0063431 0)
(-0.0070616 -0.00553502 0)
(-0.00545157 -0.00469233 0)
(-0.00406085 -0.00383412 0)
(-0.00289243 -0.00298211 0)
(-0.00194403 -0.0021609 0)
(-0.00120768 -0.00139843 0)
(-0.000669446 -0.000726556 0)
(-0.000309093 -0.000181789 0)
(-9.977e-05 0.00019405 0)
(-7.66987e-06 0.000352827 0)
(6.8713e-06 0.00023515 0)
(-3.63487e-05 0.000160458 0)
(-0.000267019 0.000814651 0)
(-0.000793996 0.00168016 0)
(-0.00158615 0.00266694 0)
(-0.00262931 0.00370927 0)
(-0.00391593 0.00475708 0)
(-0.00543404 0.0057733 0)
(-0.00716833 0.00673165 0)
(-0.00910148 0.00761431 0)
(-0.0112146 0.00841 0)
(-0.0134878 0.00911238 0)
(-0.0159003 0.00971874 0)
(-0.0184314 0.0102289 0)
(-0.0210602 0.0106443 0)
(-0.023766 0.0109676 0)
(-0.0265286 0.0112019 0)
(-0.029328 0.0113501 0)
(-0.032145 0.0114155 0)
(-0.0349604 0.0114007 0)
(-0.0377557 0.0113081 0)
(-0.0405127 0.0111396 0)
(-0.0432134 0.0108967 0)
(-0.0458402 0.0105805 0)
(-0.0483757 0.0101919 0)
(-0.0508026 0.00973182 0)
(-0.053104 0.00920095 0)
(-0.0552634 0.00860029 0)
(-0.0572646 0.00793106 0)
(-0.0590916 0.00719495 0)
(-0.0607294 0.00639418 0)
(-0.0621634 0.00553168 0)
(-0.0633801 0.00461115 0)
(-0.0643671 0.00363715 0)
(-0.0651129 0.00261518 0)
(-0.0656078 0.00155172 0)
(-0.0658437 0.000454243 0)
(-0.0658142 -0.000668813 0)
(-0.0655151 -0.00180805 0)
(-0.0649443 -0.00295318 0)
(-0.0641021 -0.00409314 0)
(-0.0629915 -0.0052162 0)
(-0.0616179 -0.00631007 0)
(-0.0599896 -0.00736213 0)
(-0.0581176 -0.0083596 0)
(-0.0560158 -0.00928973 0)
(-0.0537007 -0.01014 0)
(-0.0511917 -0.0108986 0)
(-0.0485104 -0.0115542 0)
(-0.0456813 -0.0120967 0)
(-0.0427304 -0.0125172 0)
(-0.039686 -0.0128083 0)
(-0.0365778 -0.0129642 0)
(-0.0334365 -0.0129812 0)
(-0.0302936 -0.0128576 0)
(-0.0271809 -0.0125939 0)
(-0.0241297 -0.0121931 0)
(-0.0211708 -0.0116605 0)
(-0.0183335 -0.011004 0)
(-0.015645 -0.0102341 0)
(-0.0131304 -0.00936364 0)
(-0.0108116 -0.0084084 0)
(-0.00870683 -0.00738661 0)
(-0.00683034 -0.0063193 0)
(-0.00519178 -0.00523029 0)
(-0.00379572 -0.00414647 0)
(-0.00264133 -0.00309798 0)
(-0.00172202 -0.00211864 0)
(-0.0010252 -0.00124643 0)
(-0.000532033 -0.000524171 0)
(-0.000217158 -8.40586e-08 0)
(-5.04301e-05 0.000271265 0)
(-7.63621e-08 0.000224028 0)
(-4.70748e-05 0.000310979 0)
(-0.000332747 0.00125724 0)
(-0.000972166 0.00240653 0)
(-0.00191787 0.00366768 0)
(-0.00314583 0.00497291 0)
(-0.0046427 0.00626983 0)
(-0.00639164 0.00751916 0)
(-0.00837337 0.00869269 0)
(-0.0105674 0.00977108 0)
(-0.0129522 0.0107419 0)
(-0.0155058 0.0115982 0)
(-0.0182056 0.0123369 0)
(-0.0210292 0.0129577 0)
(-0.0239542 0.0134623 0)
(-0.0269585 0.0138535 0)
(-0.0300203 0.0141348 0)
(-0.0331185 0.0143098 0)
(-0.0362321 0.014382 0)
(-0.0393409 0.0143544 0)
(-0.0424248 0.0142299 0)
(-0.0454641 0.0140106 0)
(-0.0484396 0.0136983 0)
(-0.051332 0.0132944 0)
(-0.0541225 0.0128002 0)
(-0.0567927 0.0122166 0)
(-0.0593242 0.0115448 0)
(-0.061699 0.010786 0)
(-0.0638996 0.00994203 0)
(-0.065909 0.00901503 0)
(-0.0677109 0.00800796 0)
(-0.0692896 0.00692457 0)
(-0.0706307 0.0057696 0)
(-0.0717205 0.00454881 0)
(-0.072547 0.00326912 0)
(-0.0730997 0.00193862 0)
(-0.0733697 0.000566575 0)
(-0.0733503 -0.00083654 0)
(-0.0730367 -0.00225913 0)
(-0.0724267 -0.00368852 0)
(-0.0715206 -0.00511112 0)
(-0.0703211 -0.0065125 0)
(-0.0688342 -0.00787761 0)
(-0.0670683 -0.00919098 0)
(-0.065035 -0.0104369 0)
(-0.0627491 -0.0115998 0)
(-0.0602279 -0.0126644 0)
(-0.0574919 -0.013616 0)
(-0.0545642 -0.0144409 0)
(-0.0514706 -0.0151265 0)
(-0.0482391 -0.0156619 0)
(-0.0448998 -0.0160379 0)
(-0.0414845 -0.0162474 0)
(-0.0380262 -0.0162856 0)
(-0.034559 -0.0161503 0)
(-0.0311169 -0.0158421 0)
(-0.0277342 -0.0153644 0)
(-0.0244441 -0.0147235 0)
(-0.0212786 -0.0139291 0)
(-0.0182678 -0.0129938 0)
(-0.0154392 -0.0119333 0)
(-0.0128173 -0.0107668 0)
(-0.0104227 -0.0095163 0)
(-0.00827192 -0.00820737 0)
(-0.00637671 -0.00686871 0)
(-0.00474363 -0.00553249 0)
(-0.0033737 -0.00423451 0)
(-0.00226214 -0.00301448 0)
(-0.00139823 -0.00191642 0)
(-0.000764988 -0.000989226 0)
(-0.000338983 -0.000287084 0)
(-9.41665e-05 0.000129821 0)
(-6.93828e-06 0.000190633 0)
(-5.73551e-05 0.000494717 0)
(-0.000396758 0.00178786 0)
(-0.00114701 0.00326555 0)
(-0.0022449 0.00483705 0)
(-0.00365665 0.00643404 0)
(-0.00536294 0.00800314 0)
(-0.00734183 0.00950402 0)
(-0.00956973 0.0109074 0)
(-0.0120227 0.0121932 0)
(-0.0146765 0.0133485 0)
(-0.0175068 0.0143659 0)
(-0.0204891 0.0152423 0)
(-0.0235993 0.0159775 0)
(-0.0268136 0.0165736 0)
(-0.0301084 0.0170338 0)
(-0.0334607 0.0173619 0)
(-0.0368482 0.017562 0)
(-0.0402487 0.017638 0)
(-0.0436405 0.0175935 0)
(-0.0470026 0.0174314 0)
(-0.0503139 0.0171544 0)
(-0.053554 0.0167646 0)
(-0.0567024 0.0162635 0)
(-0.0597391 0.0156527 0)
(-0.0626443 0.0149335 0)
(-0.0653985 0.0141073 0)
(-0.0679826 0.0131758 0)
(-0.070378 0.0121412 0)
(-0.0725664 0.0110064 0)
(-0.0745304 0.00977491 0)
(-0.0762536 0.00845155 0)
(-0.0777202 0.0070421 0)
(-0.078916 0.00555362 0)
(-0.079828 0.00399451 0)
(-0.0804448 0.00237457 0)
(-0.0807571 0.000704981 0)
(-0.0807574 -0.00100167 0)
(-0.0804406 -0.00273145 0)
(-0.0798039 -0.0044692 0)
(-0.0788474 -0.00619864 0)
(-0.0775737 -0.00790252 0)
(-0.0759887 -0.00956287 0)
(-0.074101 -0.0111612 0)
(-0.0719226 -0.0126788 0)
(-0.0694686 -0.0140969 0)
(-0.066757 -0.0153973 0)
(-0.0638093 -0.0165623 0)
(-0.0606495 -0.0175756 0)
(-0.0573048 -0.0184219 0)
(-0.0538047 -0.0190881 0)
(-0.050181 -0.019563 0)
(-0.0464675 -0.0198379 0)
(-0.0426994 -0.0199068 0)
(-0.0389128 -0.019767 0)
(-0.0351446 -0.0194188 0)
(-0.0314315 -0.0188661 0)
(-0.0278095 -0.0181162 0)
(-0.0243133 -0.0171804 0)
(-0.0209758 -0.0160735 0)
(-0.0178274 -0.0148142 0)
(-0.0148952 -0.013425 0)
(-0.0122025 -0.011932 0)
(-0.0097685 -0.0103653 0)
(-0.00760728 -0.00875854 0)
(-0.00572778 -0.00714941 0)
(-0.00413327 -0.00557937 0)
(-0.0028212 -0.00409405 0)
(-0.00178306 -0.00274345 0)
(-0.00100408 -0.00158234 0)
(-0.000463027 -0.000670495 0)
(-0.000138061 -7.31226e-05 0)
(-1.35985e-05 0.000134884 0)
(-6.72073e-05 0.000710639 0)
(-0.000458827 0.00240459 0)
(-0.00131753 0.00425511 0)
(-0.00256502 0.00617309 0)
(-0.00415806 0.00809086 0)
(-0.00607133 0.00995529 0)
(-0.00827765 0.011726 0)
(-0.010749 0.0133736 0)
(-0.0134578 0.0148779 0)
(-0.016377 0.0162261 0)
(-0.0194796 0.0174109 0)
(-0.0227394 0.0184295 0)
(-0.0261304 0.0192822 0)
(-0.0296273 0.0199713 0)
(-0.0332054 0.0205007 0)
(-0.0368405 0.0208747 0)
(-0.040509 0.0210978 0)
(-0.0441877 0.0211744 0)
(-0.047854 0.0211084 0)
(-0.0514856 0.0209033 0)
(-0.0550604 0.020562 0)
(-0.058557 0.0200868 0)
(-0.0619538 0.0194796 0)
(-0.0652299 0.0187422 0)
(-0.0683642 0.0178761 0)
(-0.0713364 0.0168832 0)
(-0.0741262 0.0157656 0)
(-0.0767139 0.0145259 0)
(-0.0790803 0.0131676 0)
(-0.0812072 0.0116953 0)
(-0.0830769 0.0101145 0)
(-0.0846729 0.00843213 0)
(-0.08598 0.0066567 0)
(-0.0869845 0.00479811 0)
(-0.0876741 0.00286793 0)
(-0.0880388 0.000879316 0)
(-0.0880702 -0.00115293 0)
(-0.0877628 -0.0032125 0)
(-0.0871132 -0.00528161 0)
(-0.086121 -0.00734119 0)
(-0.0847884 -0.00937108 0)
(-0.0831211 -0.0113502 0)
(-0.0811276 -0.013257 0)
(-0.0788198 -0.0150693 0)
(-0.0762131 -0.0167654 0)
(-0.073326 -0.0183237 0)
(-0.0701804 -0.0197236 0)
(-0.0668013 -0.0209454 0)
(-0.0632169 -0.0219714 0)
(-0.059458 -0.0227858 0)
(-0.0555579 -0.0233752 0)
(-0.0515523 -0.0237292 0)
(-0.0474784 -0.0238404 0)
(-0.0433748 -0.0237052 0)
(-0.0392805 -0.0233235 0)
(-0.0352351 -0.0226996 0)
(-0.0312774 -0.0218418 0)
(-0.0274451 -0.0207628 0)
(-0.023774 -0.0194797 0)
(-0.0202975 -0.018014 0)
(-0.0170458 -0.0163916 0)
(-0.0140452 -0.014643 0)
(-0.0113177 -0.0128026 0)
(-0.00888024 -0.0109094 0)
(-0.00674452 -0.00900642 0)
(-0.0049164 -0.007141 0)
(-0.00339589 -0.00536467 0)
(-0.00217702 -0.0037334 0)
(-0.00124746 -0.00230771 0)
(-0.000588278 -0.00115276 0)
(-0.000181787 -0.000338404 0)
(-2.00307e-05 5.69484e-05 0)
(-7.66555e-05 0.000957668 0)
(-0.000518847 0.00310515 0)
(-0.00148312 0.00537235 0)
(-0.0028768 0.00767271 0)
(-0.0046475 0.00994024 0)
(-0.00676403 0.0121231 0)
(-0.00919399 0.0141817 0)
(-0.0119048 0.0160876 0)
(-0.0148653 0.0178212 0)
(-0.0180452 0.0193703 0)
(-0.0214152 0.0207283 0)
(-0.0249469 0.021893 0)
(-0.0286127 0.0228655 0)
(-0.0323859 0.0236487 0)
(-0.0362405 0.0242471 0)
(-0.0401511 0.0246655 0)
(-0.0440932 0.0249093 0)
(-0.0480426 0.024983 0)
(-0.0519758 0.0248913 0)
(-0.0558695 0.0246379 0)
(-0.0597009 0.0242259 0)
(-0.0634475 0.023658 0)
(-0.0670871 0.0229365 0)
(-0.0705975 0.0220632 0)
(-0.0739571 0.0210401 0)
(-0.0771443 0.0198693 0)
(-0.0801381 0.0185534 0)
(-0.082918 0.0170955 0)
(-0.0854638 0.0154998 0)
(-0.0877562 0.0137716 0)
(-0.0897767 0.0119174 0)
(-0.0915081 0.00994539 0)
(-0.092934 0.00786533 0)
(-0.09404 0.00568875 0)
(-0.0948129 0.00342899 0)
(-0.0952418 0.00110124 0)
(-0.0953176 -0.00127746 0)
(-0.0950338 -0.00368832 0)
(-0.0943864 -0.00611092 0)
(-0.0933742 -0.00852331 0)
(-0.0919989 -0.0109023 0)
(-0.0902657 -0.0132236 0)
(-0.0881826 -0.0154624 0)
(-0.0857615 -0.0175932 0)
(-0.0830174 -0.0195907 0)
(-0.0799691 -0.0214299 0)
(-0.0766388 -0.023087 0)
(-0.0730522 -0.0245391 0)
(-0.0692381 -0.0257653 0)
(-0.0652285 -0.0267471 0)
(-0.0610584 -0.0274687 0)
(-0.0567648 -0.0279174 0)
(-0.0523871 -0.0280845 0)
(-0.047966 -0.027965 0)
(-0.0435434 -0.0275585 0)
(-0.0391614 -0.0268693 0)
(-0.0348618 -0.0259064 0)
(-0.0306854 -0.0246839 0)
(-0.0266714 -0.0232211 0)
(-0.0228565 -0.0215424 0)
(-0.0192741 -0.0196773 0)
(-0.015954 -0.0176601 0)
(-0.0129214 -0.0155302 0)
(-0.0101964 -0.0133316 0)
(-0.00779394 -0.0111132 0)
(-0.00572272 -0.0089279 0)
(-0.00398565 -0.00683345 0)
(-0.00257957 -0.00489175 0)
(-0.00149474 -0.00316908 0)
(-0.000714576 -0.0017359 0)
(-0.000225346 -0.000666588 0)
(-2.62615e-05 -4.29566e-05 0)
(-8.5721e-05 0.00123471 0)
(-0.00057677 0.00388698 0)
(-0.0016434 0.00661383 0)
(-0.00317924 0.00933197 0)
(-0.00512315 0.011978 0)
(-0.00743823 0.0145021 0)
(-0.0100869 0.0168668 0)
(-0.0130322 0.0190449 0)
(-0.0162391 0.0210183 0)
(-0.0196742 0.022776 0)
(-0.0233059 0.0243126 0)
(-0.0271035 0.025627 0)
(-0.0310379 0.0267212 0)
(-0.0350808 0.0275991 0)
(-0.039205 0.0282659 0)
(-0.0433843 0.0287274 0)
(-0.047593 0.0289893 0)
(-0.0518063 0.029057 0)
(-0.0559997 0.0289353 0)
(-0.0601493 0.0286285 0)
(-0.0642315 0.0281401 0)
(-0.068223 0.027473 0)
(-0.0721009 0.0266296 0)
(-0.0758422 0.0256122 0)
(-0.0794246 0.024423 0)
(-0.0828258 0.0230644 0)
(-0.0860239 0.0215393 0)
(-0.0889974 0.0198516 0)
(-0.0917255 0.0180059 0)
(-0.094188 0.0160083 0)
(-0.0963657 0.0138665 0)
(-0.0982401 0.0115896 0)
(-0.0997942 0.00918877 0)
(-0.101013 0.00667715 0)
(-0.101881 0.00406985 0)
(-0.102388 0.00138412 0)
(-0.102522 -0.00136077 0)
(-0.102278 -0.00414355 0)
(-0.101649 -0.00694106 0)
(-0.100634 -0.00972846 0)
(-0.0992335 -0.0124794 0)
(-0.0974516 -0.0151664 0)
(-0.095296 -0.0177611 0)
(-0.0927779 -0.0202345 0)
(-0.089912 -0.0225577 0)
(-0.0867169 -0.0247023 0)
(-0.0832149 -0.0266405 0)
(-0.0794319 -0.0283461 0)
(-0.0753976 -0.0297951 0)
(-0.0711447 -0.0309655 0)
(-0.0667094 -0.031839 0)
(-0.0621306 -0.0324005 0)
(-0.0574495 -0.0326392 0)
(-0.0527091 -0.0325489 0)
(-0.0479539 -0.0321283 0)
(-0.0432289 -0.0313814 0)
(-0.0385791 -0.0303179 0)
(-0.0340488 -0.0289533 0)
(-0.0296806 -0.0273087 0)
(-0.0255148 -0.0254113 0)
(-0.0215888 -0.0232941 0)
(-0.0179359 -0.0209957 0)
(-0.014585 -0.0185601 0)
(-0.01156 -0.0160368 0)
(-0.0088791 -0.0134801 0)
(-0.00655443 -0.0109492 0)
(-0.00459204 -0.00850787 0)
(-0.00299178 -0.00622417 0)
(-0.00174665 -0.00417026 0)
(-0.00084237 -0.00242196 0)
(-0.000268957 -0.00105832 0)
(-3.23492e-05 -0.000164698 0)
(-9.44189e-05 0.00154067 0)
(-0.000632555 0.00474737 0)
(-0.00179809 0.00797574 0)
(-0.00347161 0.0111464 0)
(-0.0055836 0.0141991 0)
(-0.00809168 0.0170872 0)
(-0.0109533 0.0197757 0)
(-0.014127 0.0222397 0)
(-0.017574 0.0244632 0)
(-0.0212582 0.0264371 0)
(-0.025145 0.0281576 0)
(-0.029202 0.029625 0)
(-0.0333981 0.0308427 0)
(-0.037704 0.0318159 0)
(-0.0420911 0.0325506 0)
(-0.0465322 0.0330535 0)
(-0.051001 0.0333312 0)
(-0.0554716 0.0333897 0)
(-0.0599192 0.0332343 0)
(-0.0643191 0.0328697 0)
(-0.0686471 0.0322997 0)
(-0.0728793 0.0315274 0)
(-0.0769922 0.0305557 0)
(-0.0809622 0.029387 0)
(-0.0847663 0.0280237 0)
(-0.0883815 0.0264686 0)
(-0.0917853 0.0247251 0)
(-0.0949556 0.0227973 0)
(-0.0978706 0.0206906 0)
(-0.100509 0.0184118 0)
(-0.102852 0.0159695 0)
(-0.104879 0.0133741 0)
(-0.106572 0.0106379 0)
(-0.107915 0.00777567 0)
(-0.108893 0.00480424 0)
(-0.109492 0.00174286 0)
(-0.109702 -0.00138694 0)
(-0.109514 -0.0045614 0)
(-0.108922 -0.00775465 0)
(-0.107922 -0.0109389 0)
(-0.106514 -0.0140846 0)
(-0.104702 -0.017161 0)
(-0.102492 -0.020136 0)
(-0.0998942 -0.0229771 0)
(-0.0969227 -0.0256515 0)
(-0.0935957 -0.028127 0)
(-0.0899352 -0.0303719 0)
(-0.0859673 -0.0323564 0)
(-0.081722 -0.0340526 0)
(-0.0772327 -0.0354353 0)
(-0.0725369 -0.0364828 0)
(-0.0676749 -0.0371775 0)
(-0.0626897 -0.0375061 0)
(-0.0576269 -0.0374607 0)
(-0.0525335 -0.0370388 0)
(-0.0474577 -0.0362441 0)
(-0.0424479 -0.0350866 0)
(-0.0375519 -0.0335825 0)
(-0.0328164 -0.0317552 0)
(-0.0282857 -0.0296343 0)
(-0.0240013 -0.0272562 0)
(-0.0200006 -0.0246638 0)
(-0.0163168 -0.021906 0)
(-0.0129777 -0.0190375 0)
(-0.0100054 -0.0161187 0)
(-0.00741573 -0.0132149 0)
(-0.00521822 -0.0103962 0)
(-0.00341593 -0.00773701 0)
(-0.00200471 -0.0053156 0)
(-0.000972535 -0.00321347 0)
(-0.000312991 -0.00151459 0)
(-3.83718e-05 -0.000308312 0)
(-0.000102757 0.00187445 0)
(-0.00068616 0.00568349 0)
(-0.00194694 0.00945394 0)
(-0.00375325 0.0131108 0)
(-0.00602765 0.016598 0)
(-0.00872249 0.0198723 0)
(-0.0117904 0.022902 0)
(-0.0151856 0.0256655 0)
(-0.0188658 0.0281494 0)
(-0.0227917 0.0303469 0)
(-0.0269265 0.0322564 0)
(-0.0312356 0.0338802 0)
(-0.0356864 0.0352232 0)
(-0.0402479 0.036292 0)
(-0.0448908 0.0370942 0)
(-0.0495869 0.0376373 0)
(-0.054309 0.0379287 0)
(-0.0590309 0.0379752 0)
(-0.0637269 0.0377828 0)
(-0.0683719 0.0373564 0)
(-0.0729413 0.0367003 0)
(-0.0774106 0.035818 0)
(-0.0817559 0.0347125 0)
(-0.0859531 0.0333864 0)
(-0.0899787 0.0318424 0)
(-0.0938091 0.0300835 0)
(-0.0974212 0.0281135 0)
(-0.100792 0.0259369 0)
(-0.1039 0.0235598 0)
(-0.106722 0.0209896 0)
(-0.109238 0.0182358 0)
(-0.111428 0.0153098 0)
(-0.113272 0.0122252 0)
(-0.114754 0.00899813 0)
(-0.115856 0.00564729 0)
(-0.116565 0.0021938 0)
(-0.116868 -0.00133861 0)
(-0.116754 -0.00492374 0)
(-0.116218 -0.008533 0)
(-0.115253 -0.0121356 0)
(-0.113858 -0.0156989 0)
(-0.112035 -0.0191886 0)
(-0.10979 -0.022569 0)
(-0.10713 -0.0258037 0)
(-0.10407 -0.0288561 0)
(-0.100627 -0.0316897 0)
(-0.0968223 -0.0342688 0)
(-0.0926814 -0.0365594 0)
(-0.0882348 -0.0385296 0)
(-0.0835164 -0.0401506 0)
(-0.0785646 -0.041397 0)
(-0.0734212 -0.0422478 0)
(-0.0681311 -0.0426873 0)
(-0.0627421 -0.0427052 0)
(-0.0573042 -0.0422975 0)
(-0.0518688 -0.0414671 0)
(-0.0464878 -0.0402238 0)
(-0.0412133 -0.0385848 0)
(-0.0360959 -0.036575 0)
(-0.0311846 -0.0342265 0)
(-0.0265253 -0.0315793 0)
(-0.0221602 -0.0286801 0)
(-0.0181271 -0.025583 0)
(-0.0144582 -0.0223481 0)
(-0.01118 -0.019042 0)
(-0.00831232 -0.0157363 0)
(-0.00586855 -0.0125078 0)
(-0.00385519 -0.00943756 0)
(-0.002271 -0.00661032 0)
(-0.00110625 -0.00411363 0)
(-0.000357921 -0.00203688 0)
(-4.44193e-05 -0.000474067 0)
(-0.000110736 0.0022349 0)
(-0.000737523 0.00669236 0)
(-0.00208969 0.011044 0)
(-0.00402358 0.0152198 0)
(-0.0064542 0.0191682 0)
(-0.00932891 0.0228504 0)
(-0.0125957 0.0262387 0)
(-0.0162048 0.029315 0)
(-0.0201103 0.0320693 0)
(-0.0242701 0.0344977 0)
(-0.0286448 0.0366014 0)
(-0.0331981 0.0383848 0)
(-0.0378956 0.039855 0)
(-0.0427051 0.0410203 0)
(-0.0475964 0.0418895 0)
(-0.0525403 0.0424717 0)
(-0.057509 0.0427752 0)
(-0.0624758 0.0428075 0)
(-0.0674145 0.0425753 0)
(-0.0722996 0.0420841 0)
(-0.0771062 0.0413384 0)
(-0.0818095 0.040342 0)
(-0.0863849 0.0390982 0)
(-0.0908084 0.0376098 0)
(-0.0950558 0.0358797 0)
(-0.0991031 0.0339112 0)
(-0.102927 0.0317083 0)