/*--------------------------------*- C++ -*----------------------------------*\
  =========                 |
  \\      /  F ield         | OpenFOAM: The Open Source CFD Toolbox
   \\    /   O peration     | Website:  https://openfoam.org
    \\  /    A nd           | Version:  dev
     \\/     M anipulation  |
\*---------------------------------------------------------------------------*/
FoamFile
{
    format      ascii;
    class       volScalarField;
    location    "49.5";
    object      Ux;
}
// * * * * * * * * * * * * * * * * * * * * * * * * * * * * * * * * * * * * * //

dimensions      [0 1 -1 0 0 0 0];

internalField   nonuniform List<scalar> 
5184
(
1.24545e-05
4.53776e-05
8.04709e-05
9.61036e-05
8.22682e-05
3.65619e-05
-4.04743e-05
-0.000146822
-0.000279687
-0.000436014
-0.00061268
-0.000806652
-0.00101506
-0.00123523
-0.00146472
-0.00170125
-0.00194277
-0.00218734
-0.00243319
-0.00267863
-0.00292205
-0.0031619
-0.00339665
-0.00362476
-0.00384471
-0.00405496
-0.00425395
-0.00444012
-0.00461187
-0.00476763
-0.00490585
-0.00502498
-0.00512358
-0.00520027
-0.00525377
-0.00528299
-0.00528697
-0.00526499
-0.00521654
-0.0051414
-0.00503963
-0.0049116
-0.00475803
-0.00457996
-0.0043788
-0.00415631
-0.00391458
-0.00365604
-0.00338342
-0.00309972
-0.00280819
-0.00251225
-0.00221547
-0.00192151
-0.00163405
-0.00135672
-0.00109307
-0.000846466
-0.000620059
-0.000416698
-0.000238882
-8.869e-05
3.22892e-05
0.000123043
0.000183241
0.000213387
0.000215066
0.000191334
0.000147223
9.08339e-05
3.66385e-05
6.22714e-06
2.09321e-05
6.58077e-05
9.49141e-05
7.3007e-05
-1.87494e-05
-0.000187181
-0.000432876
-0.000752616
-0.00114086
-0.00159081
-0.00209514
-0.00264638
-0.00323723
-0.00386069
-0.00451015
-0.00517941
-0.00586267
-0.00655449
-0.00724972
-0.00794348
-0.00863107
-0.00930794
-0.00996959
-0.0106116
-0.0112296
-0.0118192
-0.0123759
-0.0128953
-0.013373
-0.0138048
-0.0141863
-0.0145134
-0.0147823
-0.0149894
-0.0151312
-0.0152051
-0.0152086
-0.01514
-0.0149981
-0.0147826
-0.0144938
-0.0141331
-0.0137024
-0.0132048
-0.0126444
-0.0120259
-0.0113551
-0.0106386
-0.00988391
-0.00909902
-0.00829265
-0.00747401
-0.00665261
-0.00583822
-0.00504061
-0.00426945
-0.00353413
-0.00284357
-0.00220606
-0.00162907
-0.00111909
-0.000681404
-0.000319937
-3.69705e-05
0.000167134
0.000294303
0.000349287
0.000340364
0.00028003
0.00018615
8.64046e-05
1.96851e-05
1.76812e-05
4.14526e-05
1.97624e-05
-8.3839e-05
-0.000290136
-0.00060788
-0.00103833
-0.00157768
-0.00221876
-0.00295237
-0.00376824
-0.00465566
-0.00560389
-0.00660246
-0.00764133
-0.00871093
-0.00980216
-0.0109064
-0.0120155
-0.0131216
-0.014217
-0.0152945
-0.0163467
-0.0173666
-0.018347
-0.019281
-0.0201614
-0.0209813
-0.0217339
-0.0224123
-0.02301
-0.0235207
-0.0239385
-0.0242579
-0.0244739
-0.0245824
-0.02458
-0.0244641
-0.0242333
-0.0238872
-0.0234267
-0.0228539
-0.0221723
-0.0213866
-0.0205033
-0.0195299
-0.0184752
-0.0173497
-0.0161646
-0.0149324
-0.0136664
-0.0123807
-0.0110897
-0.00980843
-0.00855168
-0.00733417
-0.00617016
-0.00507318
-0.00405578
-0.00312925
-0.00230331
-0.00158586
-0.000982644
-0.000496883
-0.000128888
0.000124414
0.000270127
0.000320109
0.0002915
0.00020754
0.000102509
2.4987e-05
8.86392e-06
-6.93795e-06
-0.000107485
-0.000322296
-0.000669619
-0.00115786
-0.00178777
-0.00255459
-0.00344975
-0.00446223
-0.00557955
-0.00678849
-0.00807564
-0.00942774
-0.0108319
-0.0122756
-0.0137471
-0.0152348
-0.0167279
-0.0182157
-0.0196881
-0.0211352
-0.022547
-0.023914
-0.0252267
-0.0264755
-0.0276511
-0.0287442
-0.0297457
-0.0306468
-0.0314388
-0.0321135
-0.0326634
-0.0330813
-0.0333611
-0.0334976
-0.0334863
-0.0333245
-0.0330103
-0.0325436
-0.0319257
-0.0311597
-0.0302502
-0.0292038
-0.0280288
-0.0267352
-0.0253347
-0.0238406
-0.0222678
-0.0206323
-0.0189514
-0.0172433
-0.0155268
-0.0138209
-0.012145
-0.010518
-0.00895819
-0.00748309
-0.00610882
-0.00484988
-0.00371877
-0.00272559
-0.00187768
-0.00117916
-0.000630494
-0.000227982
3.68633e-05
0.000177952
0.00021502
0.000174248
9.3095e-05
2.40408e-05
-2.11262e-06
-6.72614e-05
-0.000264093
-0.000609825
-0.00111696
-0.00179172
-0.0026331
-0.00363473
-0.00478647
-0.00607562
-0.00748781
-0.00900778
-0.0106199
-0.0123087
-0.0140588
-0.0158554
-0.0176841
-0.0195311
-0.021383
-0.0232268
-0.02505
-0.0268402
-0.0285853
-0.0302734
-0.0318927
-0.0334316
-0.0348786
-0.0362223
-0.0374516
-0.0385559
-0.0395247
-0.0403483
-0.0410175
-0.0415241
-0.0418607
-0.0420212
-0.0420007
-0.0417958
-0.0414048
-0.0408277
-0.0400663
-0.0391244
-0.038008
-0.036725
-0.0352854
-0.0337014
-0.031987
-0.0301582
-0.0282328
-0.0262301
-0.0241706
-0.0220761
-0.0199688
-0.0178717
-0.0158077
-0.0137994
-0.0118686
-0.0100363
-0.00832161
-0.00674195
-0.00531224
-0.00404463
-0.00294797
-0.0020274
-0.00128386
-0.000713594
-0.000307588
-5.10636e-05
7.68702e-05
0.000103735
6.75711e-05
1.96796e-05
-1.36912e-05
-0.000132843
-0.000435898
-0.000924844
-0.00160432
-0.00247689
-0.00353872
-0.00478109
-0.00619192
-0.00775668
-0.00945922
-0.0112825
-0.013209
-0.0152211
-0.0173017
-0.0194338
-0.0216008
-0.0237869
-0.0259766
-0.0281547
-0.0303065
-0.0324176
-0.0344739
-0.0364613
-0.038366
-0.0401745
-0.0418733
-0.0434494
-0.0448897
-0.046182
-0.0473143
-0.0482755
-0.0490551
-0.0496438
-0.0500332
-0.0502167
-0.0501886
-0.0499454
-0.0494853
-0.0488084
-0.0479171
-0.0468158
-0.0455114
-0.0440132
-0.0423327
-0.0404838
-0.0384826
-0.0363475
-0.0340985
-0.0317578
-0.0293487
-0.026896
-0.0244253
-0.0219624
-0.0195337
-0.0171649
-0.0148811
-0.0127061
-0.010662
-0.00876867
-0.00704343
-0.00550038
-0.00414998
-0.00299859
-0.00204798
-0.00129489
-0.00073051
-0.00034012
-0.000102742
9.27539e-06
3.25539e-05
1.36339e-05
-2.51887e-05
-0.000200056
-0.00061424
-0.00125327
-0.00211267
-0.00319031
-0.0044786
-0.00596583
-0.0076375
-0.00947704
-0.0114665
-0.013587
-0.0158193
-0.0181442
-0.0205426
-0.0229958
-0.0254856
-0.0279941
-0.030504
-0.0329982
-0.0354603
-0.0378738
-0.0402229
-0.0424916
-0.0446644
-0.0467259
-0.048661
-0.050455
-0.0520934
-0.0535623
-0.0548486
-0.0559397
-0.0568242
-0.0574916
-0.057933
-0.0581407
-0.058109
-0.0578339
-0.0573134
-0.056548
-0.0555401
-0.0542951
-0.0528204
-0.0511264
-0.0492259
-0.0471342
-0.0448693
-0.0424512
-0.0399024
-0.0372472
-0.0345115
-0.0317227
-0.0289091
-0.0260995
-0.023323
-0.0206084
-0.0179835
-0.015475
-0.0131076
-0.0109038
-0.0088831
-0.0070616
-0.00545157
-0.00406085
-0.00289243
-0.00194403
-0.00120768
-0.000669446
-0.000309093
-9.977e-05
-7.66987e-06
6.8713e-06
-3.63487e-05
-0.000267019
-0.000793996
-0.00158615
-0.00262931
-0.00391593
-0.00543404
-0.00716833
-0.00910148
-0.0112146
-0.0134878
-0.0159003
-0.0184314
-0.0210602
-0.023766
-0.0265286
-0.029328
-0.032145
-0.0349604
-0.0377557
-0.0405127
-0.0432134
-0.0458402
-0.0483757
-0.0508026
-0.053104
-0.0552634
-0.0572646
-0.0590916
-0.0607294
-0.0621634
-0.0633801
-0.0643671
-0.0651129
-0.0656078
-0.0658437
-0.0658142
-0.0655151
-0.0649443
-0.0641021
-0.0629915
-0.0616179
-0.0599896
-0.0581176
-0.0560158
-0.0537007
-0.0511917
-0.0485104
-0.0456813
-0.0427304
-0.039686
-0.0365778
-0.0334365
-0.0302936
-0.0271809
-0.0241297
-0.0211708
-0.0183335
-0.015645
-0.0131304
-0.0108116
-0.00870683
-0.00683034
-0.00519178
-0.00379572
-0.00264133
-0.00172202
-0.0010252
-0.000532033
-0.000217158
-5.04301e-05
-7.63621e-08
-4.70748e-05
-0.000332747
-0.000972166
-0.00191787
-0.00314583
-0.0046427
-0.00639164
-0.00837337
-0.0105674
-0.0129522
-0.0155058
-0.0182056
-0.0210292
-0.0239542
-0.0269585
-0.0300203
-0.0331185
-0.0362321
-0.0393409
-0.0424248
-0.0454641
-0.0484396
-0.051332
-0.0541225
-0.0567927
-0.0593242
-0.061699
-0.0638996
-0.065909
-0.0677109
-0.0692896
-0.0706307
-0.0717205
-0.072547
-0.0730997
-0.0733697
-0.0733503
-0.0730367
-0.0724267
-0.0715206
-0.0703211
-0.0688342
-0.0670683
-0.065035
-0.0627491
-0.0602279
-0.0574919
-0.0545642
-0.0514706
-0.0482391
-0.0448998
-0.0414845
-0.0380262
-0.034559
-0.0311169
-0.0277342
-0.0244441
-0.0212786
-0.0182678
-0.0154392
-0.0128173
-0.0104227
-0.00827192
-0.00637671
-0.00474363
-0.0033737
-0.00226214
-0.00139823
-0.000764988
-0.000338983
-9.41665e-05
-6.93828e-06
-5.73551e-05
-0.000396758
-0.00114701
-0.0022449
-0.00365665
-0.00536294
-0.00734183
-0.00956973
-0.0120227
-0.0146765
-0.0175068
-0.0204891
-0.0235993
-0.0268136
-0.0301084
-0.0334607
-0.0368482
-0.0402487
-0.0436405
-0.0470026
-0.0503139
-0.053554
-0.0567024
-0.0597391
-0.0626443
-0.0653985
-0.0679826
-0.070378
-0.0725664
-0.0745304
-0.0762536
-0.0777202
-0.078916
-0.079828
-0.0804448
-0.0807571
-0.0807574
-0.0804406
-0.0798039
-0.0788474
-0.0775737
-0.0759887
-0.074101
-0.0719226
-0.0694686
-0.066757
-0.0638093
-0.0606495
-0.0573048
-0.0538047
-0.050181
-0.0464675
-0.0426994
-0.0389128
-0.0351446
-0.0314315
-0.0278095
-0.0243133
-0.0209758
-0.0178274
-0.0148952
-0.0122025
-0.0097685
-0.00760728
-0.00572778
-0.00413327
-0.0028212
-0.00178306
-0.00100408
-0.000463027
-0.000138061
-1.35985e-05
-6.72073e-05
-0.000458827
-0.00131753
-0.00256502
-0.00415806
-0.00607133
-0.00827765
-0.010749
-0.0134578
-0.016377
-0.0194796
-0.0227394
-0.0261304
-0.0296273
-0.0332054
-0.0368405
-0.040509
-0.0441877
-0.047854
-0.0514856
-0.0550604
-0.058557
-0.0619538
-0.0652299
-0.0683642
-0.0713364
-0.0741262
-0.0767139
-0.0790803
-0.0812072
-0.0830769
-0.0846729
-0.08598
-0.0869845
-0.0876741
-0.0880388
-0.0880702
-0.0877628
-0.0871132
-0.086121
-0.0847884
-0.0831211
-0.0811276
-0.0788198
-0.0762131
-0.073326
-0.0701804
-0.0668013
-0.0632169
-0.059458
-0.0555579
-0.0515523
-0.0474784
-0.0433748
-0.0392805
-0.0352351
-0.0312774
-0.0274451
-0.023774
-0.0202975
-0.0170458
-0.0140452
-0.0113177
-0.00888024
-0.00674452
-0.0049164
-0.00339589
-0.00217702
-0.00124746
-0.000588278
-0.000181787
-2.00307e-05
-7.66555e-05
-0.000518847
-0.00148312
-0.0028768
-0.0046475
-0.00676403
-0.00919399
-0.0119048
-0.0148653
-0.0180452
-0.0214152
-0.0249469
-0.0286127
-0.0323859
-0.0362405
-0.0401511
-0.0440932
-0.0480426
-0.0519758
-0.0558695
-0.0597009
-0.0634475
-0.0670871
-0.0705975
-0.0739571
-0.0771443
-0.0801381
-0.082918
-0.0854638
-0.0877562
-0.0897767
-0.0915081
-0.092934
-0.09404
-0.0948129
-0.0952418
-0.0953176
-0.0950338
-0.0943864
-0.0933742
-0.0919989
-0.0902657
-0.0881826
-0.0857615
-0.0830174
-0.0799691
-0.0766388
-0.0730522
-0.0692381
-0.0652285
-0.0610584
-0.0567648
-0.0523871
-0.047966
-0.0435434
-0.0391614
-0.0348618
-0.0306854
-0.0266714
-0.0228565
-0.0192741
-0.015954
-0.0129214
-0.0101964
-0.00779394
-0.00572272
-0.00398565
-0.00257957
-0.00149474
-0.000714576
-0.000225346
-2.62615e-05
-8.5721e-05
-0.00057677
-0.0016434
-0.00317924
-0.00512315
-0.00743823
-0.0100869
-0.0130322
-0.0162391
-0.0196742
-0.0233059
-0.0271035
-0.0310379
-0.0350808
-0.039205
-0.0433843
-0.047593
-0.0518063
-0.0559997
-0.0601493
-0.0642315
-0.068223
-0.0721009
-0.0758422
-0.0794246
-0.0828258
-0.0860239
-0.0889974
-0.0917255
-0.094188
-0.0963657
-0.0982401
-0.0997942
-0.101013
-0.101881
-0.102388
-0.102522
-0.102278
-0.101649
-0.100634
-0.0992335
-0.0974516
-0.095296
-0.0927779
-0.089912
-0.0867169
-0.0832149
-0.0794319
-0.0753976
-0.0711447
-0.0667094
-0.0621306
-0.0574495
-0.0527091
-0.0479539
-0.0432289
-0.0385791
-0.0340488
-0.0296806
-0.0255148
-0.0215888
-0.0179359
-0.014585
-0.01156
-0.0088791
-0.00655443
-0.00459204
-0.00299178
-0.00174665
-0.00084237
-0.000268957
-3.23492e-05
-9.44189e-05
-0.000632555
-0.00179809
-0.00347161
-0.0055836
-0.00809168
-0.0109533
-0.014127
-0.017574
-0.0212582
-0.025145
-0.029202
-0.0333981
-0.037704
-0.0420911
-0.0465322
-0.051001
-0.0554716
-0.0599192
-0.0643191
-0.0686471
-0.0728793
-0.0769922
-0.0809622
-0.0847663
-0.0883815
-0.0917853
-0.0949556
-0.0978706
-0.100509
-0.102852
-0.104879
-0.106572
-0.107915
-0.108893
-0.109492
-0.109702
-0.109514
-0.108922
-0.107922
-0.106514
-0.104702
-0.102492
-0.0998942
-0.0969227
-0.0935957
-0.0899352
-0.0859673
-0.081722
-0.0772327
-0.0725369
-0.0676749
-0.0626897
-0.0576269
-0.0525335
-0.0474577
-0.0424479
-0.0375519
-0.0328164
-0.0282857
-0.0240013
-0.0200006
-0.0163168
-0.0129777
-0.0100054
-0.00741573
-0.00521822
-0.00341593
-0.00200471
-0.000972535
-0.000312991
-3.83718e-05
-0.000102757
-0.00068616
-0.00194694
-0.00375325
-0.00602765
-0.00872249
-0.0117904
-0.0151856
-0.0188658
-0.0227917
-0.0269265
-0.0312356
-0.0356864
-0.0402479
-0.0448908
-0.0495869
-0.054309
-0.0590309
-0.0637269
-0.0683719
-0.0729413
-0.0774106
-0.0817559
-0.0859531
-0.0899787
-0.0938091
-0.0974212
-0.100792
-0.1039
-0.106722
-0.109238
-0.111428
-0.113272
-0.114754
-0.115856
-0.116565
-0.116868
-0.116754
-0.116218
-0.115253
-0.113858
-0.112035
-0.10979
-0.10713
-0.10407
-0.100627
-0.0968223
-0.0926814
-0.0882348
-0.0835164
-0.0785646
-0.0734212
-0.0681311
-0.0627421
-0.0573042
-0.0518688
-0.0464878
-0.0412133
-0.0360959
-0.0311846
-0.0265253
-0.0221602
-0.0181271
-0.0144582
-0.01118
-0.00831232
-0.00586855
-0.00385519
-0.002271
-0.00110625
-0.000357921
-4.44193e-05
-0.000110736
-0.000737523
-0.00208969
-0.00402358
-0.0064542
-0.00932891
-0.0125957
-0.0162048
-0.0201103
-0.0242701
-0.0286448
-0.0331981
-0.0378956
-0.0427051
-0.0475964
-0.0525403
-0.057509
-0.0624758
-0.0674145
-0.0722996
-0.0771062
-0.0818095
-0.0863849
-0.0908084
-0.0950558
-0.0991031
-0.102927
-0.106503
-0.10981
-0.112824
-0.115524
-0.117888
-0.119897
-0.121531
-0.122774
-0.12361
-0.124024
-0.124005
-0.123544
-0.122635
-0.121274
-0.119462
-0.117201
-0.1145
-0.11137
-0.107828
-0.103894
-0.099593
-0.0949558
-0.0900164
-0.0848139
-0.0793913
-0.0737955
-0.0680767
-0.0622877
-0.0564832
-0.0507193
-0.0450522
-0.0395372
-0.0342281
-0.029176
-0.0244284
-0.0200278
-0.0160118
-0.0124114
-0.00925108
-0.00654833
-0.00431337
-0.00254805
-0.00124492
-0.000404289
-5.05897e-05
-0.000118348
-0.000786562
-0.00222605
-0.00428195
-0.00686214
-0.00990926
-0.0133669
-0.0171814
-0.0213036
-0.0256885
-0.0302945
-0.0350832
-0.0400189
-0.0450683
-0.0501998
-0.055384
-0.0605922
-0.0657973
-0.0709728
-0.076093
-0.0811326
-0.0860665
-0.0908702
-0.0955191
-0.0999888
-0.104255
-0.108294
-0.112081
-0.115594
-0.118808
-0.121701
-0.124252
-0.126439
-0.128242
-0.129643
-0.130624
-0.131169
-0.131265
-0.130902
-0.130071
-0.128766
-0.126986
-0.124732
-0.12201
-0.118831
-0.115208
-0.111162
-0.106716
-0.1019
-0.0967494
-0.0913026
-0.0856042
-0.0797028
-0.073651
-0.0675045
-0.0613217
-0.0551627
-0.0490883
-0.043159
-0.037434
-0.0319699
-0.0268198
-0.022032
-0.0176496
-0.013709
-0.0102397
-0.0072635
-0.00479477
-0.00283867
-0.00139008
-0.000452684
-5.69852e-05
-0.000125582
-0.000833172
-0.00235569
-0.0045277
-0.00725034
-0.0104618
-0.0141017
-0.0181125
-0.0224419
-0.0270423
-0.03187
-0.0368848
-0.0420495
-0.0473296
-0.052693
-0.0581091
-0.0635492
-0.0689857
-0.0743918
-0.0797415
-0.0850096
-0.0901708
-0.0952004
-0.100074
-0.104766
-0.109253
-0.113511
-0.117514
-0.121239
-0.124662
-0.12776
-0.13051
-0.132889
-0.134877
-0.136452
-0.137597
-0.138294
-0.138527
-0.138284
-0.137554
-0.136329
-0.134605
-0.132382
-0.129662
-0.126455
-0.122773
-0.118633
-0.114058
-0.109079
-0.103727
-0.0980447
-0.0920754
-0.08587
-0.0794831
-0.0729736
-0.0664036
-0.0598375
-0.0533411
-0.0469804
-0.0408203
-0.0349237
-0.0293499
-0.0241536
-0.0193839
-0.0150832
-0.0112864
-0.00802046
-0.00530404
-0.00314588
-0.00154339
-0.000503727
-6.37108e-05
-0.00013242
-0.000877227
-0.00247824
-0.00476009
-0.0076176
-0.0109849
-0.0147975
-0.0189947
-0.0235212
-0.0283269
-0.033366
-0.0385966
-0.0439802
-0.0494814
-0.0550672
-0.0607065
-0.0663702
-0.0720303
-0.0776601
-0.0832334
-0.0887249
-0.0941094
-0.0993622
-0.104458
-0.109374
-0.114083
-0.118562
-0.122786
-0.126731
-0.130371
-0.133684
-0.136645
-0.13923
-0.141418
-0.143186
-0.144514
-0.145383
-0.145775
-0.145675
-0.14507
-0.14395
-0.142308
-0.140141
-0.137449
-0.134238
-0.130518
-0.126306
-0.121622
-0.116495
-0.110957
-0.105049
-0.0988162
-0.0923101
-0.0855879
-0.0787114
-0.0717464
-0.0647619
-0.057829
-0.0510195
-0.0444048
-0.0380544
-0.0320344
-0.0264067
-0.0212271
-0.0165445
-0.0124
-0.00882594
-0.00584603
-0.00347285
-0.00170656
-0.000558059
-7.08733e-05
-0.000138838
-0.000918581
-0.00259331
-0.00497835
-0.00796267
-0.0114765
-0.0154521
-0.0198251
-0.0245377
-0.0295375
-0.0347768
-0.0402122
-0.0458039
-0.0515156
-0.0573136
-0.0631664
-0.0690445
-0.0749199
-0.0807656
-0.0865557
-0.0922648
-0.0978678
-0.10334
-0.108657
-0.113794
-0.118726
-0.123429
-0.127878
-0.132048
-0.135913
-0.13945
-0.142634
-0.145439
-0.147842
-0.14982
-0.151351
-0.152413
-0.152987
-0.153054
-0.1526
-0.15161
-0.150076
-0.147991
-0.145353
-0.142165
-0.138433
-0.134173
-0.129402
-0.124146
-0.118439
-0.112319
-0.105832
-0.0990319
-0.0919765
-0.0847309
-0.0773649
-0.069952
-0.062569
-0.0552938
-0.0482047
-0.0413785
-0.034889
-0.0288057
-0.0231918
-0.0181037
-0.0135892
-0.00968686
-0.00642574
-0.00382284
-0.00188136
-0.000616336
-7.85802e-05
-0.000144812
-0.000957077
-0.00270045
-0.00518164
-0.00828423
-0.011935
-0.0160627
-0.0206003
-0.0254874
-0.0306694
-0.0360969
-0.0417251
-0.0475132
-0.0534239
-0.059423
-0.0654786
-0.0715611
-0.0776422
-0.0836952
-0.0896942
-0.0956139
-0.10143
-0.107117
-0.112651
-0.118008
-0.123163
-0.128091
-0.132767
-0.137166
-0.141264
-0.145033
-0.148449
-0.151487
-0.154121
-0.156326
-0.158078
-0.159353
-0.160131
-0.16039
-0.160111
-0.159279
-0.157881
-0.155907
-0.153352
-0.150214
-0.146499
-0.142216
-0.137383
-0.132023
-0.126166
-0.119851
-0.113124
-0.106039
-0.0986551
-0.0910413
-0.0832704
-0.0754211
-0.0675756
-0.0598187
-0.0522359
-0.0449118
-0.0379287
-0.0313644
-0.0252906
-0.0197717
-0.0148631
-0.0106102
-0.00704826
-0.00419915
-0.00206958
-0.000679222
-8.694e-05
-0.000150314
-0.000992544
-0.00279919
-0.0053691
-0.00858093
-0.0123583
-0.0166269
-0.0213172
-0.0263663
-0.0317178
-0.0373206
-0.0431288
-0.0491005
-0.0551978
-0.0613859
-0.0676326
-0.0739082
-0.0801846
-0.0864349
-0.0926337
-0.0987559
-0.104777
-0.110673
-0.11642
-0.121993
-0.127368
-0.132521
-0.137426
-0.142058
-0.146392
-0.150401
-0.154059
-0.15734
-0.160217
-0.162665
-0.164656
-0.166165
-0.167168
-0.167643
-0.167566
-0.166919
-0.165686
-0.163853
-0.16141
-0.158354
-0.154686
-0.150411
-0.145544
-0.140105
-0.134122
-0.127634
-0.120684
-0.113327
-0.105624
-0.0976464
-0.0894702
-0.0811789
-0.0728608
-0.0646075
-0.0565124
-0.0486688
-0.0411678
-0.0340964
-0.0275358
-0.0215592
-0.0162305
-0.011603
-0.0077187
-0.00460512
-0.00227303
-0.000747384
-9.60615e-05
-0.000155314
-0.00102481
-0.00288909
-0.00553988
-0.00885143
-0.0127445
-0.0171422
-0.0219724
-0.0271703
-0.0326777
-0.0384422
-0.0444166
-0.0505583
-0.0568286
-0.0631925
-0.0696175
-0.0760738
-0.0825335
-0.08897
-0.095358
-0.101673
-0.107891
-0.113988
-0.11994
-0.125724
-0.131316
-0.136691
-0.141824
-0.14669
-0.151263
-0.155517
-0.159425
-0.162958
-0.166091
-0.168794
-0.171041
-0.172803
-0.174053
-0.174766
-0.174917
-0.174482
-0.173443
-0.171782
-0.169485
-0.166543
-0.162954
-0.15872
-0.153851
-0.148364
-0.142284
-0.135647
-0.128497
-0.120886
-0.112878
-0.104544
-0.095966
-0.0872307
-0.0784326
-0.0696706
-0.0610463
-0.0526622
-0.0446191
-0.0370142
-0.0299389
-0.0234764
-0.0177001
-0.0126721
-0.00844211
-0.00504407
-0.00249352
-0.000821495
-0.000106054
-0.000159782
-0.00105369
-0.00296966
-0.00569311
-0.00909439
-0.0130917
-0.0176059
-0.0225628
-0.0278956
-0.0335446
-0.0394562
-0.0455821
-0.051879
-0.0583078
-0.064833
-0.0714222
-0.0780455
-0.0846752
-0.0912851
-0.0978502
-0.104347
-0.110751
-0.117039
-0.123189
-0.129176
-0.134979
-0.140571
-0.145929
-0.151028
-0.155841
-0.160342
-0.164503
-0.168297
-0.171694
-0.174665
-0.177181
-0.179212
-0.180729
-0.181703
-0.182107
-0.181913
-0.181097
-0.179639
-0.177521
-0.174729
-0.171255
-0.167098
-0.162262
-0.156762
-0.150618
-0.143863
-0.136539
-0.128697
-0.120402
-0.111727
-0.102754
-0.0935766
-0.0842948
-0.0750147
-0.0658466
-0.0569025
-0.0482939
-0.0401292
-0.0325108
-0.0255332
-0.0192804
-0.0138243
-0.00922348
-0.0055193
-0.00273285
-0.000902226
-0.000117029
-0.000163689
-0.00107903
-0.00304047
-0.00582797
-0.00930854
-0.0133982
-0.0180159
-0.0230853
-0.0285383
-0.0343138
-0.040357
-0.0466188
-0.0530553
-0.0596269
-0.0662979
-0.0730358
-0.079811
-0.0865959
-0.0933647
-0.100093
-0.106757
-0.113335
-0.119803
-0.126139
-0.132321
-0.138325
-0.144127
-0.149705
-0.155032
-0.160082
-0.16483
-0.169247
-0.173304
-0.176972
-0.180221
-0.183019
-0.185334
-0.187136
-0.188392
-0.189071
-0.189144
-0.188582
-0.187359
-0.185454
-0.182848
-0.179528
-0.175486
-0.170724
-0.165248
-0.159078
-0.152241
-0.144776
-0.136733
-0.128175
-0.119176
-0.109823
-0.100211
-0.090446
-0.0806423
-0.0709186
-0.0613975
-0.0522016
-0.0434512
-0.0352614
-0.0277388
-0.0209793
-0.015066
-0.0100677
-0.00603406
-0.0029928
-0.000990251
-0.000129098
-0.000167007
-0.00110067
-0.0031011
-0.00594372
-0.00949271
-0.0136624
-0.0183698
-0.0235372
-0.0290951
-0.0349812
-0.0411397
-0.0475208
-0.0540801
-0.0607776
-0.0675775
-0.0744474
-0.0813578
-0.0882814
-0.0951931
-0.102069
-0.108886
-0.115622
-0.122256
-0.128765
-0.135128
-0.141322
-0.147325
-0.153113
-0.158661
-0.163944
-0.168934
-0.173605
-0.177927
-0.18187
-0.185401
-0.18849
-0.191102
-0.193203
-0.194759
-0.195736
-0.196101
-0.195821
-0.194867
-0.19321
-0.190827
-0.1877
-0.183816
-0.179169
-0.173763
-0.167609
-0.16073
-0.153163
-0.144954
-0.136165
-0.126869
-0.117154
-0.10712
-0.096879
-0.0865508
-0.0762639
-0.0661516
-0.0563486
-0.0469882
-0.0381989
-0.0301012
-0.0228041
-0.0164035
-0.0109794
-0.00659151
-0.00327516
-0.00108624
-0.000142374
-0.000169713
-0.00111846
-0.00315119
-0.00603968
-0.00964589
-0.0138827
-0.0186657
-0.023916
-0.0295628
-0.0355428
-0.0417995
-0.0482825
-0.0549468
-0.0617523
-0.068663
-0.0756466
-0.082674
-0.0897182
-0.0967547
-0.10376
-0.110712
-0.11759
-0.124372
-0.131039
-0.137568
-0.143938
-0.150127
-0.156113
-0.161872
-0.167378
-0.172604
-0.177524
-0.182107
-0.186324
-0.190141
-0.193525
-0.196442
-0.198855
-0.200727
-0.202022
-0.202702
-0.202732
-0.202076
-0.200702
-0.198582
-0.19569
-0.192008
-0.187523
-0.182232
-0.176142
-0.169269
-0.161645
-0.153312
-0.144329
-0.134769
-0.12472
-0.114285
-0.10358
-0.0927319
-0.0818792
-0.0711656
-0.0607388
-0.050746
-0.0413304
-0.0326276
-0.0247617
-0.0178425
-0.0119632
-0.00719475
-0.00358165
-0.00119086
-0.000156973
-0.000171786
-0.0011323
-0.00319046
-0.00611534
-0.00976725
-0.014058
-0.0189021
-0.0242196
-0.0299387
-0.0359954
-0.0423325
-0.0488989
-0.0556495
-0.0625438
-0.0695459
-0.0766237
-0.0837483
-0.0908933
-0.0980345
-0.10515
-0.112217
-0.119217
-0.126129
-0.132933
-0.13961
-0.146138
-0.152498
-0.158666
-0.164621
-0.170336
-0.175787
-0.180946
-0.185784
-0.19027
-0.194371
-0.198052
-0.201278
-0.204011
-0.206211
-0.20784
-0.208857
-0.209221
-0.208894
-0.207838
-0.206018
-0.203403
-0.199969
-0.195695
-0.190571
-0.184597
-0.177783
-0.170153
-0.161746
-0.152615
-0.142832
-0.132484
-0.121676
-0.110526
-0.0991708
-0.0877555
-0.0764357
-0.0653723
-0.0547276
-0.0446607
-0.0353239
-0.0268578
-0.0193881
-0.0130231
-0.00784672
-0.00391398
-0.00130477
-0.00017301
-0.00017321
-0.00114211
-0.0032187
-0.00617031
-0.00985622
-0.0141875
-0.0190778
-0.0244465
-0.0302209
-0.0363364
-0.0427353
-0.049366
-0.0561831
-0.063146
-0.070219
-0.0773699
-0.0845703
-0.0917943
-0.0990185
-0.106221
-0.113382
-0.120481
-0.127501
-0.134421
-0.141224
-0.14789
-0.154399
-0.160731
-0.166862
-0.17277
-0.17843
-0.183815
-0.188896
-0.193641
-0.198019
-0.201994
-0.20553
-0.208586
-0.211123
-0.213099
-0.214469
-0.21519
-0.215219
-0.214513
-0.213032
-0.210737
-0.207597
-0.203586
-0.198683
-0.192882
-0.186185
-0.178608
-0.170183
-0.160959
-0.151002
-0.140399
-0.129253
-0.117689
-0.105845
-0.0938778
-0.081953
-0.0702454
-0.058933
-0.0481925
-0.0381942
-0.0290972
-0.0210452
-0.0141632
-0.00855023
-0.00427378
-0.00142864
-0.000190606
-0.000173979
-0.00114785
-0.00323582
-0.00620444
-0.00991251
-0.0142707
-0.0191922
-0.0245957
-0.030408
-0.0365641
-0.0430056
-0.0496807
-0.0565437
-0.063554
-0.0706759
-0.0778775
-0.0851307
-0.0924104
-0.0996937
-0.10696
-0.114189
-0.121364
-0.128466
-0.135477
-0.142382
-0.14916
-0.155795
-0.162266
-0.168552
-0.174632
-0.18048
-0.186072
-0.191379
-0.19637
-0.201014
-0.205274
-0.209114
-0.212494
-0.215371
-0.217701
-0.219438
-0.220535
-0.220944
-0.220619
-0.219512
-0.217579
-0.214782
-0.211085
-0.206461
-0.200894
-0.194376
-0.186917
-0.178538
-0.169282
-0.159211
-0.148405
-0.136969
-0.125028
-0.112725
-0.100224
-0.0877028
-0.0753494
-0.0633587
-0.0519258
-0.0412409
-0.0314835
-0.0228174
-0.0153868
-0.00930789
-0.00466266
-0.00156312
-0.000209883
-0.000174091
-0.00114952
-0.00324184
-0.00621779
-0.00993621
-0.0143077
-0.0192452
-0.0246671
-0.0304998
-0.0366776
-0.0431421
-0.0498411
-0.0567286
-0.0637641
-0.0709118
-0.0781404
-0.0854221
-0.0927322
-0.100049
-0.107352
-0.114623
-0.121845
-0.129002
-0.136077
-0.143055
-0.149918
-0.156651
-0.163234
-0.169648
-0.175873
-0.181885
-0.18766
-0.193172
-0.19839
-0.203282
-0.207815
-0.211949
-0.215645
-0.21886
-0.221547
-0.22366
-0.225147
-0.225957
-0.226039
-0.22534
-0.22381
-0.221402
-0.218073
-0.213787
-0.208517
-0.202247
-0.194974
-0.186713
-0.177497
-0.167378
-0.156433
-0.144764
-0.132494
-0.119771
-0.106765
-0.0936641
-0.0806709
-0.0679971
-0.0558577
-0.0444643
-0.0340189
-0.0247078
-0.0166969
-0.0101221
-0.0050821
-0.00170883
-0.000230964
-0.000173556
-0.0011472
-0.00323697
-0.00621069
-0.00992781
-0.0142991
-0.0192377
-0.0246614
-0.0304967
-0.0366775
-0.0431449
-0.0498467
-0.0567366
-0.0637742
-0.0709238
-0.0781543
-0.0854384
-0.0927522
-0.100074
-0.107386
-0.11467
-0.12191
-0.129091
-0.136199
-0.143218
-0.150135
-0.156933
-0.163597
-0.170108
-0.176448
-0.182595
-0.188526
-0.194215
-0.199635
-0.204754
-0.209539
-0.213951
-0.217952
-0.221497
-0.22454
-0.22703
-0.228916
-0.230143
-0.230655
-0.230393
-0.229304
-0.22733
-0.224422
-0.220533
-0.215627
-0.209675
-0.202665
-0.1946
-0.1855
-0.175411
-0.164402
-0.152566
-0.140027
-0.126934
-0.113462
-0.0998088
-0.0861903
-0.072836
-0.0599817
-0.0478621
-0.0367039
-0.0267185
-0.018096
-0.0109949
-0.0055335
-0.00186639
-0.000253976
-0.000172393
-0.001141
-0.00322153
-0.00618377
-0.00988827
-0.0142463
-0.019171
-0.0245804
-0.0304006
-0.0365654
-0.0430156
-0.0496987
-0.0565684
-0.0635842
-0.0707107
-0.0779169
-0.0851762
-0.0924652
-0.0997635
-0.107053
-0.114318
-0.121543
-0.128716
-0.135822
-0.142849
-0.149785
-0.156614
-0.163323
-0.169897
-0.176316
-0.182564
-0.188617
-0.194453
-0.200044
-0.205362
-0.210374
-0.215043
-0.21933
-0.223192
-0.22658
-0.229446
-0.231734
-0.233387
-0.234346
-0.234548
-0.233932
-0.232435
-0.229998
-0.226566
-0.22209
-0.216531
-0.209863
-0.202076
-0.19318
-0.183207
-0.172216
-0.160293
-0.147558
-0.134157
-0.120269
-0.106101
-0.0918818
-0.0778581
-0.0642874
-0.0514293
-0.0395372
-0.0288501
-0.0195857
-0.0119282
-0.00601814
-0.0020364
-0.000279046
-0.000170632
-0.00113113
-0.00319608
-0.00613805
-0.0098191
-0.0141512
-0.0190478
-0.024427
-0.0302148
-0.0363447
-0.0427574
-0.0494002
-0.0562266
-0.0631961
-0.0702735
-0.0774283
-0.0846342
-0.0918685
-0.0991118
-0.106347
-0.113559
-0.120736
-0.127864
-0.134932
-0.14193
-0.148845
-0.155667
-0.162383
-0.168979
-0.17544
-0.18175
-0.187888
-0.193833
-0.199561
-0.205045
-0.210253
-0.21515
-0.219699
-0.223857
-0.227576
-0.230807
-0.233494
-0.235577
-0.236994
-0.237679
-0.237565
-0.236583
-0.234665
-0.231746
-0.227766
-0.222675
-0.216432
-0.209012
-0.200412
-0.190649
-0.17977
-0.167851
-0.155002
-0.141368
-0.127129
-0.112497
-0.0977126
-0.0830406
-0.0687604
-0.0551578
-0.0425151
-0.031102
-0.0211671
-0.0129233
-0.00653716
-0.00221942
-0.000306305
-0.000168318
-0.00111787
-0.00316137
-0.00607489
-0.00972238
-0.0140166
-0.0188714
-0.0242052
-0.0299437
-0.0360203
-0.0423754
-0.0489561
-0.0557159
-0.0626142
-0.0696161
-0.0766912
-0.083814
-0.0909625
-0.098118
-0.105265
-0.112389
-0.11948
-0.126525
-0.133517
-0.140444
-0.147299
-0.154072
-0.160752
-0.167329
-0.173789
-0.180117
-0.186298
-0.192311
-0.198136
-0.203746
-0.209114
-0.214206
-0.218986
-0.223413
-0.227441
-0.23102
-0.234094
-0.236604
-0.238484
-0.239665
-0.240076
-0.239641
-0.238284
-0.235932
-0.232513
-0.227963
-0.222228
-0.215268
-0.207062
-0.197612
-0.186948
-0.175133
-0.162268
-0.148489
-0.133976
-0.118943
-0.103642
-0.0883544
-0.0733812
-0.0590357
-0.0456316
-0.0334722
-0.0228401
-0.0139811
-0.00709149
-0.00241598
-0.000335883
-0.000165509
-0.00110158
-0.00311838
-0.00599612
-0.00960087
-0.0138463
-0.0186467
-0.0239206
-0.0295936
-0.035599
-0.0418768
-0.0483739
-0.0550436
-0.0618455
-0.0687447
-0.0757113
-0.0827203
-0.0897505
-0.0967843
-0.103807
-0.110806
-0.117772
-0.124695
-0.131568
-0.138383
-0.145134
-0.151813
-0.158412
-0.164923
-0.171335
-0.177636
-0.183813
-0.189849
-0.195725
-0.201419
-0.206904
-0.212151
-0.217125
-0.221788
-0.226096
-0.23
-0.233444
-0.236369
-0.238709
-0.240391
-0.241341
-0.241479
-0.24072
-0.238983
-0.236186
-0.232249
-0.227106
-0.220698
-0.212988
-0.203958
-0.193621
-0.182023
-0.16925
-0.155429
-0.140732
-0.125377
-0.109623
-0.0937639
-0.0781251
-0.0630476
-0.0488781
-0.0359566
-0.0246037
-0.0151021
-0.00768187
-0.00262655
-0.00036791
-0.000162279
-0.00108272
-0.00306839
-0.00590403
-0.00945807
-0.013645
-0.0183796
-0.0235803
-0.0291727
-0.0350897
-0.041271
-0.0476632
-0.0542195
-0.0608996
-0.0676686
-0.0744973
-0.081361
-0.0882395
-0.0951162
-0.101978
-0.108813
-0.115613
-0.122372
-0.129083
-0.135741
-0.142342
-0.14888
-0.15535
-0.161746
-0.168061
-0.174286
-0.180409
-0.186418
-0.192296
-0.198025
-0.20358
-0.208937
-0.214063
-0.218923
-0.223475
-0.227672
-0.231461
-0.234782
-0.23757
-0.239751
-0.241247
-0.241974
-0.241844
-0.240763
-0.238641
-0.235386
-0.230915
-0.225153
-0.218042
-0.209545
-0.199654
-0.188394
-0.175834
-0.162086
-0.147312
-0.131728
-0.115597
-0.0992265
-0.0829619
-0.0671735
-0.0522429
-0.0385494
-0.0264558
-0.0162861
-0.00830882
-0.00285155
-0.000402517
-0.00015872
-0.00106186
-0.00301292
-0.00580148
-0.00929828
-0.0134185
-0.0180774
-0.0231931
-0.028691
-0.0345034
-0.0405698
-0.0468365
-0.0532565
-0.0597893
-0.0664005
-0.0730612
-0.0797475
-0.08644
-0.0931232
-0.0997851
-0.106416
-0.11301
-0.11956
-0.126064
-0.132519
-0.138921
-0.145269
-0.15156
-0.157791
-0.163956
-0.170052
-0.176069
-0.181997
-0.187825
-0.193536
-0.199111
-0.204528
-0.209758
-0.214769
-0.219523
-0.223976