/*--------------------------------*- C++ -*----------------------------------*\
  =========                 |
  \\      /  F ield         | OpenFOAM: The Open Source CFD Toolbox
   \\    /   O peration     | Website:  https://openfoam.org
    \\  /    A nd           | Version:  dev
     \\/     M anipulation  |
\*---------------------------------------------------------------------------*/
FoamFile
{
    format      ascii;
    class       surfaceScalarField;
    location    "46.35";
    object      phi;
}
// * * * * * * * * * * * * * * * * * * * * * * * * * * * * * * * * * * * * * //

dimensions      [0 3 -1 0 0 0 0];

internalField   nonuniform List<scalar> 
10224
(
3.41139e-08
-3.45918e-08
8.80467e-08
-5.39328e-08
1.24569e-07
-3.652e-08
1.25518e-07
-9.47921e-10
8.38759e-08
4.16405e-08
-1.63779e-09
8.5512e-08
-1.29198e-07
1.27559e-07
-2.95504e-07
1.66307e-07
-4.96495e-07
2.00992e-07
-7.27869e-07
2.31374e-07
-9.85354e-07
2.57485e-07
-1.26486e-06
2.79503e-07
-1.56254e-06
2.9768e-07
-1.87484e-06
3.123e-07
-2.19848e-06
3.23649e-07
-2.53047e-06
3.31991e-07
-2.86804e-06
3.37565e-07
-3.20861e-06
3.40571e-07
-3.54978e-06
3.41171e-07
-3.88927e-06
3.39487e-07
-4.22487e-06
3.35605e-07
-4.55445e-06
3.29576e-07
-4.87587e-06
3.21427e-07
-5.18703e-06
3.11159e-07
-5.48579e-06
2.9876e-07
-5.77e-06
2.8421e-07
-6.03749e-06
2.67487e-07
-6.28606e-06
2.48574e-07
-6.51353e-06
2.27466e-07
-6.7177e-06
2.04177e-07
-6.89645e-06
1.78745e-07
-7.04768e-06
1.51239e-07
-7.16944e-06
1.21761e-07
-7.25989e-06
9.04489e-08
-7.31737e-06
5.74846e-08
-7.34046e-06
2.30907e-08
-7.32799e-06
-1.2467e-08
-7.27911e-06
-4.88798e-08
-7.19331e-06
-8.57983e-08
-7.07047e-06
-1.22835e-07
-6.9109e-06
-1.59569e-07
-6.71535e-06
-1.95551e-07
-6.48504e-06
-2.30311e-07
-6.22167e-06
-2.63364e-07
-5.92745e-06
-2.94224e-07
-5.60504e-06
-3.22407e-07
-5.25759e-06
-3.4745e-07
-4.88867e-06
-3.68911e-07
-4.50228e-06
-3.8639e-07
-4.10275e-06
-3.99531e-07
-3.69471e-06
-4.08039e-07
-3.28303e-06
-4.11684e-07
-2.87272e-06
-4.10311e-07
-2.46887e-06
-4.03846e-07
-2.07657e-06
-3.92297e-07
-1.70081e-06
-3.75761e-07
-1.34639e-06
-3.54422e-07
-1.01784e-06
-3.28552e-07
-7.19316e-07
-2.98517e-07
-4.54542e-07
-2.64768e-07
-2.26693e-07
-2.27844e-07
-3.83191e-08
-1.88378e-07
1.08773e-07
-1.47103e-07
2.13648e-07
-1.04885e-07
2.76425e-07
-6.27774e-08
2.98539e-07
-2.21038e-08
2.83174e-07
1.53804e-08
2.35923e-07
4.72564e-08
1.65849e-07
7.00667e-08
8.72508e-08
7.85873e-08
2.25333e-08
6.47264e-08
2.25603e-08
5.40943e-08
-8.86861e-08
1.12662e-07
-1.12503e-07
1.18473e-07
-4.23314e-08
3.91525e-08
7.83746e-08
-1.41713e-07
2.22508e-07
-4.29454e-07
3.73252e-07
-8.22311e-07
5.20414e-07
-1.31414e-06
6.5813e-07
-1.89636e-06
7.83219e-07
-2.55918e-06
8.94191e-07
-3.29231e-06
9.90611e-07
-4.08549e-06
1.07269e-06
-4.92881e-06
1.14099e-06
-5.81281e-06
1.1963e-06
-6.7286e-06
1.23944e-06
-7.66786e-06
1.27125e-06
-8.62277e-06
1.29247e-06
-9.58598e-06
1.30379e-06
-1.05505e-05
1.30573e-06
-1.15098e-05
1.29874e-06
-1.24573e-05
1.28312e-06
-1.33868e-05
1.25909e-06
-1.42922e-05
1.22676e-06
-1.51672e-05
1.18617e-06
-1.60057e-05
1.13733e-06
-1.68017e-05
1.08021e-06
-1.7549e-05
1.01479e-06
-1.82415e-05
9.41069e-07
-1.88731e-05
8.59087e-07
-1.94379e-05
7.68961e-07
-1.99301e-05
6.70893e-07
-2.0344e-05
5.65195e-07
-2.06746e-05
4.52302e-07
-2.09169e-05
3.32781e-07
-2.10668e-05
2.07348e-07
-2.11205e-05
7.68676e-08
-2.10754e-05
-5.76439e-08
-2.09292e-05
-1.95021e-07
-2.06811e-05
-3.33955e-07
-2.03309e-05
-4.73008e-07
-1.98798e-05
-6.10627e-07
-1.93302e-05
-7.45165e-07
-1.86856e-05
-8.74906e-07
-1.79509e-05
-9.98092e-07
-1.71322e-05
-1.11296e-06
-1.62368e-05
-1.21776e-06
-1.52734e-05
-1.31083e-06
-1.42517e-05
-1.3906e-06
-1.31825e-05
-1.45561e-06
-1.20774e-05
-1.50462e-06
-1.09489e-05
-1.53658e-06
-9.8099e-06
-1.55067e-06
-8.67387e-06
-1.54635e-06
-7.55434e-06
-1.52337e-06
-6.46484e-06
-1.48179e-06
-5.4186e-06
-1.422e-06
-4.42834e-06
-1.34469e-06
-3.506e-06
-1.2509e-06
-2.66253e-06
-1.14199e-06
-1.90763e-06
-1.01967e-06
-1.24947e-06
-8.85996e-07
-6.94452e-07
-7.43382e-07
-2.46883e-07
-5.94662e-07
9.13913e-08
-4.43163e-07
3.21452e-07
-2.92855e-07
4.47906e-07
-1.48574e-07
4.79766e-07
-1.64799e-08
4.31523e-07
9.55179e-08
3.24625e-07
1.76979e-07
1.89088e-07
2.14108e-07
6.4392e-08
1.89381e-07
8.69605e-08
3.74479e-08
-1.26132e-07
4.35054e-08
-1.18562e-07
-4.30729e-08
4.42439e-08
-2.58564e-07
2.93864e-07
-6.22586e-07
5.86531e-07
-1.14226e-06
8.92928e-07
-1.81586e-06
1.19401e-06
-2.63571e-06
1.47799e-06
-3.59046e-06
1.73797e-06
-4.66657e-06
1.9703e-06
-5.84947e-06
2.17351e-06
-7.12426e-06
2.34748e-06
-8.47623e-06
2.49296e-06
-9.89113e-06
2.6112e-06
-1.13553e-05
2.70365e-06
-1.28559e-05
2.7718e-06
-1.43805e-05
2.8171e-06
-1.59175e-05
2.84081e-06
-1.74558e-05
2.844e-06
-1.89846e-05
2.82754e-06
-2.04935e-05
2.79206e-06
-2.19725e-05
2.73802e-06
-2.34114e-05
2.6657e-06
-2.48005e-05
2.57525e-06
-2.61299e-05
2.46674e-06
-2.73899e-05
2.34017e-06
-2.85707e-05
2.19559e-06
-2.96627e-05
2.03308e-06
-3.06564e-05
1.85283e-06
-3.15426e-05
1.65518e-06
-3.23124e-05
1.44065e-06
-3.29572e-05
1.20999e-06
-3.34691e-05
9.6422e-07
-3.38409e-05
7.04618e-07
-3.40664e-05
4.32774e-07
-3.41401e-05
1.50581e-07
-3.4058e-05
-1.39753e-07
-3.38173e-05
-4.35721e-07
-3.34167e-05
-7.34527e-07
-3.28566e-05
-1.03311e-06
-3.2139e-05
-1.32819e-06
-3.12679e-05
-1.61629e-06
-3.0249e-05
-1.89381e-06
-2.909e-05
-2.15707e-06
-2.78006e-05
-2.40239e-06
-2.63922e-05
-2.62614e-06
-2.48782e-05
-2.82483e-06
-2.32736e-05
-2.99522e-06
-2.15949e-05
-3.13431e-06
-1.986e-05
-3.23951e-06
-1.80879e-05
-3.30865e-06
-1.62985e-05
-3.34007e-06
-1.45122e-05
-3.33267e-06
-1.27496e-05
-3.28595e-06
-1.10313e-05
-3.20008e-06
-9.37742e-06
-3.07588e-06
-7.80724e-06
-2.91486e-06
-6.33888e-06
-2.71925e-06
-4.98888e-06
-2.49199e-06
-3.77185e-06
-2.23671e-06
-2.70002e-06
-1.95783e-06
-1.78286e-06
-1.66054e-06
-1.0266e-06
-1.35091e-06
-4.33708e-07
-1.03604e-06
-2.27128e-09
-7.24283e-07
2.74797e-07
-4.25652e-07
4.10572e-07
-1.52273e-07
4.25321e-07
8.07662e-08
3.47698e-07
2.54626e-07
2.15915e-07
3.45915e-07
7.86892e-08
3.26593e-07
1.65646e-07
1.96829e-09
-1.28099e-07
-7.88379e-08
-3.77543e-08
-2.97547e-07
2.62951e-07
-6.87899e-07
6.84214e-07
-1.26822e-06
1.16685e-06
-2.04479e-06
1.6695e-06
-3.01481e-06
2.16403e-06
-4.16903e-06
2.63221e-06
-5.49385e-06
3.06278e-06
-6.97292e-06
3.44938e-06
-8.5884e-06
3.78899e-06
-1.03218e-05
4.08089e-06
-1.21546e-05
4.32578e-06
-1.40687e-05
4.52524e-06
-1.60463e-05
4.68132e-06
-1.80707e-05
4.7962e-06
-2.01257e-05
4.87203e-06
-2.21956e-05
4.91075e-06
-2.42656e-05
4.91403e-06
-2.63213e-05
4.88323e-06
-2.83487e-05
4.8194e-06
-3.0334e-05
4.7233e-06
-3.22637e-05
4.59542e-06
-3.41245e-05
4.43609e-06
-3.59033e-05
4.24549e-06
-3.75869e-05
4.02377e-06
-3.91623e-05
3.77108e-06
-4.0617e-05
3.48769e-06
-4.19382e-05
3.17407e-06
-4.31139e-05
2.83091e-06
-4.41325e-05
2.45923e-06
-4.49829e-05
2.06042e-06
-4.5655e-05
1.63633e-06
-4.61396e-05
1.18921e-06
-4.64287e-05
7.21868e-07
-4.65157e-05
2.37567e-07
-4.63956e-05
-2.59903e-07
-4.6065e-05
-7.66263e-07
-4.55228e-05
-1.27677e-06
-4.47696e-05
-1.78626e-06
-4.38086e-05
-2.28921e-06
-4.26451e-05
-2.77979e-06
-4.12869e-05
-3.25199e-06
-3.97443e-05
-3.69966e-06
-3.803e-05
-4.11669e-06
-3.61591e-05
-4.49704e-06
-3.4149e-05
-4.83496e-06
-3.20192e-05
-5.12502e-06
-2.97912e-05
-5.36231e-06
-2.74882e-05
-5.54253e-06
-2.51347e-05
-5.66211e-06
-2.27564e-05
-5.71832e-06
-2.03798e-05
-5.70935e-06
-1.80313e-05
-5.63442e-06
-1.57376e-05
-5.49382e-06
-1.35245e-05
-5.28897e-06
-1.14169e-05
-5.02244e-06
-9.43813e-06
-4.698e-06
-7.60949e-06
-4.32062e-06
-5.94971e-06
-3.89649e-06
-4.47449e-06
-3.43306e-06
-3.19595e-06
-2.93909e-06
-2.12204e-06
-2.42483e-06
-1.25594e-06
-1.90213e-06
-5.95408e-07
-1.3848e-06
-1.31998e-07
-8.89052e-07
1.49801e-07
-4.34081e-07
2.73472e-07
-4.29267e-08
2.71512e-07
2.56578e-07
1.86452e-07
4.30992e-07
7.22668e-08
4.40784e-07
2.37912e-07
-4.2027e-08
-8.60726e-08
-2.30003e-07
1.50224e-07
-6.06593e-07
6.3954e-07
-1.1984e-06
1.27602e-06
-2.01919e-06
1.98764e-06
-3.07213e-06
2.72243e-06
-4.35203e-06
3.44393e-06
-5.84746e-06
4.12764e-06
-7.54255e-06
4.75787e-06
-9.41849e-06
5.32532e-06
-1.14547e-05
5.82522e-06
-1.36298e-05
6.25597e-06
-1.59221e-05
6.61806e-06
-1.83102e-05
6.91331e-06
-2.07731e-05
7.14425e-06
-2.32906e-05
7.31372e-06
-2.58431e-05
7.42454e-06
-2.84117e-05
7.47935e-06
-3.09781e-05
7.48043e-06
-3.35246e-05
7.42969e-06
-3.60338e-05
7.3286e-06
-3.84888e-05
7.17829e-06
-4.08729e-05
6.97953e-06
-4.31696e-05
6.73286e-06
-4.53628e-05
6.43865e-06
-4.74363e-05
6.09724e-06
-4.93742e-05
5.70901e-06
-5.1161e-05
5.27453e-06
-5.27816e-05
4.79464e-06
-5.42212e-05
4.27055e-06
-5.5466e-05
3.70396e-06
-5.65027e-05
3.0971e-06
-5.73192e-05
2.45286e-06
-5.79047e-05
1.77477e-06
-5.825e-05
1.0671e-06
-5.83472e-05
3.34814e-07
-5.81908e-05
-4.16357e-07
-5.7777e-05
-1.18e-06
-5.71048e-05
-1.94902e-06
-5.61753e-05
-2.71574e-06
-5.49925e-05
-3.47197e-06
-5.35632e-05
-4.20909e-06
-5.1897e-05
-4.91822e-06
-5.00064e-05
-5.59032e-06
-4.79067e-05
-6.21639e-06
-4.56161e-05
-6.78758e-06
-4.31556e-05
-7.29543e-06
-4.05486e-05
-7.73202e-06
-3.78208e-05
-8.09014e-06
-3.49998e-05
-8.36349e-06
-3.21151e-05
-8.54686e-06
-2.91972e-05
-8.63625e-06
-2.62775e-05
-8.62904e-06
-2.33878e-05
-8.52409e-06
-2.05598e-05
-8.32185e-06
-1.78243e-05
-8.02445e-06
-1.5211e-05
-7.6357e-06
-1.27478e-05
-7.16121e-06
-1.04601e-05
-6.60835e-06
-8.37023e-06
-5.98632e-06
-6.49709e-06
-5.30619e-06
-4.85523e-06
-4.58095e-06
-3.4544e-06
-3.82567e-06
-2.29879e-06
-3.05774e-06
-1.38645e-06
-2.29714e-06
-7.08511e-07
-1.56698e-06
-2.48491e-07
-8.94087e-07
1.84724e-08
-3.09895e-07
1.26457e-07
1.48576e-07
1.19652e-07
4.37796e-07
5.37101e-08
5.06733e-07
2.91625e-07
-8.94413e-08
3.36663e-09
-3.95406e-07
4.56188e-07
-9.4531e-07
1.18945e-06
-1.75576e-06
2.08647e-06
-2.83356e-06
3.06544e-06
-4.17696e-06
4.06583e-06
-5.7771e-06
5.04408e-06
-7.6196e-06
5.97014e-06
-9.68597e-06
6.82424e-06
-1.19549e-05
7.59426e-06
-1.44034e-05
8.27366e-06
-1.70073e-05
8.85991e-06
-1.97424e-05
9.35319e-06
-2.25845e-05
9.75544e-06
-2.55099e-05
1.00696e-05
-2.84953e-05
1.02991e-05
-3.15183e-05
1.04475e-05
-3.45569e-05
1.0518e-05
-3.759e-05
1.05135e-05
-4.05968e-05
1.04365e-05
-4.35571e-05
1.02889e-05
-4.6451e-05
1.00722e-05
-4.9259e-05
9.78754e-06
-5.19618e-05
9.43567e-06
-5.45404e-05
9.01723e-06
-5.6976e-05
8.53283e-06
-5.92502e-05
7.98317e-06
-6.13448e-05
7.3692e-06
-6.32425e-05
6.69228e-06
-6.49262e-05
5.9543e-06
-6.638e-05
5.15777e-06
-6.75889e-05
4.30599e-06
-6.85391e-05
3.40308e-06
-6.92184e-05
2.45407e-06
-6.96163e-05
1.46497e-06
-6.97242e-05
4.42753e-07
-6.9536e-05
-6.04645e-07
-6.90476e-05
-1.66834e-06
-6.82581e-05
-2.73855e-06
-6.71691e-05
-3.80475e-06
-6.57853e-05
-4.85569e-06
-6.41148e-05
-5.87961e-06
-6.21687e-05
-6.86438e-06
-5.99613e-05
-7.7977e-06
-5.75104e-05
-8.66731e-06
-5.48367e-05
-9.46119e-06
-5.19643e-05
-1.01678e-05
-4.89199e-05
-1.07765e-05
-4.57326e-05
-1.12774e-05
-4.24342e-05
-1.16619e-05
-3.9058e-05
-1.1923e-05
-3.5639e-05
-1.20553e-05
-3.22129e-05
-1.20551e-05
-2.8816e-05
-1.1921e-05
-2.54844e-05
-1.16534e-05
-2.22534e-05
-1.12554e-05
-1.9157e-05
-1.07321e-05
-1.62271e-05
-1.00912e-05
-1.34927e-05
-9.34268e-06
-1.09799e-05
-8.49919e-06
-8.71024e-06
-7.57581e-06
-6.70092e-06
-6.59027e-06
-4.96359e-06
-5.563e-06
-3.5039e-06
-4.51743e-06
-2.32082e-06
-3.48024e-06
-1.40595e-06
-2.48185e-06
-7.42969e-07
-1.55705e-06
-3.07029e-07
-7.45822e-07
-6.41403e-08
-9.43182e-08
2.94899e-08
3.44158e-07
2.83564e-08
5.07866e-07
3.19983e-07
-1.37674e-07
1.41039e-07
-5.66466e-07
8.84978e-07
-1.29786e-06
1.92084e-06
-2.33697e-06
3.12558e-06
-3.6821e-06
4.41057e-06
-5.32518e-06
5.70891e-06
-7.2526e-06
6.9715e-06
-9.44624e-06
8.16378e-06
-1.18845e-05
9.26254e-06
-1.45435e-05
1.02532e-05
-1.73975e-05
1.11277e-05
-2.04203e-05
1.18826e-05
-2.35849e-05
1.25179e-05
-2.68649e-05
1.30354e-05
-3.02341e-05
1.34387e-05
-3.36666e-05
1.37317e-05
-3.71375e-05
1.39184e-05
-4.06224e-05
1.40029e-05
-4.40974e-05
1.39885e-05
-4.75391e-05
1.38783e-05
-5.09249e-05
1.36746e-05
-5.42321e-05
1.33795e-05
-5.74388e-05
1.29942e-05
-6.05231e-05
1.252e-05
-6.34635e-05
1.19577e-05
-6.62389e-05
1.13082e-05
-6.88285e-05
1.05728e-05
-7.12121e-05
9.75275e-06
-7.33699e-05
8.85014e-06
-7.52833e-05
7.86763e-06
-7.69342e-05
6.80873e-06
-7.83062e-05
5.67793e-06
-7.93839e-05
4.48081e-06
-8.01539e-05
3.22411e-06
-8.06047e-05
1.91579e-06
-8.0727e-05
5.65052e-07
-8.0514e-05
-8.17672e-07
-7.99616e-05
-2.22076e-06
-7.90686e-05
-3.63149e-06
-7.78373e-05
-5.03614e-06
-7.62728e-05
-6.42013e-06
-7.43842e-05
-7.76823e-06
-7.21838e-05
-9.06476e-06
-6.96877e-05
-1.02938e-05
-6.69154e-05
-1.14396e-05
-6.389e-05
-1.24866e-05
-6.0638e-05
-1.34199e-05
-5.71889e-05
-1.42256e-05
-5.3575e-05
-1.48912e-05
-4.98314e-05
-1.54055e-05
-4.5995e-05
-1.57594e-05
-4.21044e-05
-1.59459e-05
-3.81995e-05
-1.59601e-05
-3.43203e-05
-1.58001e-05
-3.0507e-05
-1.54667e-05
-2.67991e-05
-1.49634e-05
-2.32342e-05
-1.42969e-05
-1.98482e-05
-1.34772e-05
-1.66738e-05
-1.25171e-05
-1.37401e-05
-1.14329e-05
-1.1072e-05
-1.0244e-05
-8.68899e-06
-8.97323e-06
-6.60517e-06
-7.64681e-06
-4.82803e-06
-6.29456e-06
-3.35806e-06
-4.95021e-06
-2.18815e-06
-3.65177e-06
-1.30307e-06
-2.44214e-06
-6.79069e-07
-1.36981e-06
-2.83498e-07
-4.89885e-07
-7.44714e-08
1.35129e-07
-5.44695e-10
4.33937e-07
3.19439e-07
-1.8548e-07
3.26518e-07
-7.38294e-07
1.43779e-06
-1.65446e-06
2.83701e-06
-2.92701e-06
4.39812e-06
-4.54485e-06
6.02841e-06
-6.49266e-06
7.65672e-06
-8.75122e-06
9.23006e-06
-1.1298e-05
1.07105e-05
-1.41078e-05
1.20724e-05
-1.71538e-05
1.32992e-05
-2.04077e-05
1.43816e-05
-2.38407e-05
1.53156e-05
-2.74238e-05
1.6101e-05
-3.11283e-05
1.67399e-05
-3.49256e-05
1.72361e-05
-3.8788e-05
1.75941e-05
-4.26882e-05
1.78186e-05
-4.65994e-05
1.79141e-05
-5.04957e-05
1.78847e-05
-5.43513e-05
1.77339e-05
-5.81413e-05
1.74646e-05
-6.18408e-05
1.7079e-05
-6.54256e-05
1.6579e-05
-6.88716e-05
1.59659e-05
-7.21551e-05
1.52412e-05
-7.52529e-05
1.4406e-05
-7.81421e-05
1.3462e-05
-8.08005e-05
1.24111e-05
-8.32066e-05
1.12562e-05
-8.53397e-05
1.00008e-05
-8.71805e-05
8.64954e-06
-8.87109e-05
7.20825e-06
-8.99142e-05
5.68412e-06
-9.07758e-05
4.08579e-06
-9.12834e-05
2.42335e-06
-9.14268e-05
7.08437e-07
-9.11986e-05
-1.04581e-06
-9.05946e-05
-2.82482e-06
-8.96134e-05
-4.61265e-06
-8.82574e-05
-6.39217e-06
-8.65323e-05
-8.14521e-06
-8.44477e-05
-9.8528e-06
-8.20171e-05
-1.14954e-05
-7.92576e-05
-1.30533e-05
-7.61904e-05
-1.45068e-05
-7.28404e-05
-1.58365e-05
-6.92361e-05
-1.70241e-05
-6.54095e-05
-1.80522e-05
-6.13957e-05
-1.89051e-05
-5.72324e-05
-1.95689e-05
-5.29598e-05
-2.0032e-05
-4.86199e-05
-2.02858e-05
-4.42559e-05
-2.03241e-05
-3.99118e-05
-2.01443e-05
-3.56313e-05
-1.97471e-05
-3.14577e-05
-1.9137e-05
-2.74326e-05
-1.83221e-05
-2.35952e-05
-1.73145e-05
-1.99821e-05
-1.61303e-05
-1.66256e-05
-1.47894e-05
-1.35537e-05
-1.33159e-05
-1.0789e-05
-1.17379e-05
-8.34802e-06
-1.00878e-05
-6.24069e-06
-8.40188e-06
-4.4696e-06
-6.72129e-06
-3.02958e-06
-5.09179e-06
-1.90731e-06
-3.56442e-06
-1.08097e-06
-2.19615e-06
-5.2019e-07
-1.05066e-06
-1.85999e-07
-1.99061e-07
-3.10372e-08
2.78973e-07
2.88401e-07
-2.32218e-07
5.58736e-07
-9.08128e-07
2.1137e-06
-2.00912e-06
3.938e-06
-3.51613e-06
5.90513e-06
-5.40829e-06
7.92056e-06
-7.66243e-06
9.91086e-06
-1.02531e-05
1.18207e-05
-1.31528e-05
1.36103e-05
-1.63325e-05
1.52521e-05
-1.97619e-05
1.67285e-05
-2.341e-05
1.80297e-05
-2.72456e-05
1.91512e-05
-3.12375e-05
2.00929e-05
-3.53549e-05
2.08573e-05
-3.95673e-05
2.14485e-05
-4.38449e-05
2.18717e-05
-4.81586e-05
2.21322e-05
-5.24796e-05
2.22351e-05
-5.67799e-05
2.2185e-05
-6.1032e-05
2.1986e-05
-6.52088e-05
2.16414e-05
-6.92835e-05
2.11538e-05
-7.32299e-05
2.05254e-05
-7.7022e-05
1.9758e-05
-8.06342e-05
1.88533e-05
-8.40412e-05
1.7813e-05
-8.72186e-05
1.66393e-05
-9.01422e-05
1.53347e-05
-9.27889e-05
1.39029e-05
-9.51365e-05
1.23484e-05
-9.71641e-05
1.06771e-05
-9.88521e-05
8.89632e-06
-0.000100183
7.01493e-06
-0.000101141
5.04359e-06
-0.000101712
2.99472e-06
-0.000101886
8.82525e-07
-0.000101655
-1.27698e-06
-0.000101014
-3.46608e-06
-9.9961e-05
-5.66543e-06
-9.84989e-05
-7.8543e-06
-9.66334e-05
-1.00107e-05
-9.43745e-05
-1.21116e-05
-9.17364e-05
-1.41336e-05
-8.8737e-05
-1.60527e-05
-8.53988e-05
-1.7845e-05
-8.17481e-05
-1.94873e-05
-7.78151e-05
-2.09572e-05
-7.36337e-05
-2.22336e-05
-6.92413e-05
-2.32974e-05
-6.46784e-05
-2.41318e-05
-5.99877e-05
-2.47227e-05
-5.52145e-05
-2.5059e-05
-5.04051e-05
-2.51334e-05
-4.56071e-05
-2.49424e-05
-4.08677e-05
-2.44865e-05
-3.62338e-05
-2.37709e-05
-3.17508e-05
-2.28051e-05
-2.74618e-05
-2.16035e-05
-2.34067e-05
-2.01853e-05
-1.96217e-05
-1.85744e-05
-1.6138e-05
-1.67995e-05
-1.29816e-05
-1.48944e-05
-1.0172e-05
-1.28974e-05
-7.72182e-06
-1.0852e-05
-5.63646e-06
-8.80665e-06
-3.91327e-06
-6.81498e-06
-2.54144e-06
-4.93626e-06
-1.5018e-06
-3.23579e-06
-7.66911e-07
-1.78555e-06
-3.01275e-07
-6.64693e-07
-6.20192e-08
3.9716e-08
2.26381e-07
-2.7761e-07
8.36346e-07
-1.07443e-06
2.91052e-06
-2.35819e-06
5.22175e-06
-4.09804e-06
7.64498e-06
-6.26323e-06
1.00858e-05
-8.8225e-06
1.24701e-05
-1.17438e-05
1.4742e-05
-1.49943e-05
1.68608e-05
-1.85405e-05
1.87983e-05
-2.23488e-05
2.05368e-05
-2.63852e-05
2.20661e-05
-3.0616e-05
2.3382e-05
-3.50078e-05
2.44847e-05
-3.95278e-05
2.53773e-05
-4.41438e-05
2.60645e-05
-4.8824e-05
2.6552e-05
-5.35377e-05
2.68459e-05
-5.82545e-05
2.69519e-05
-6.29446e-05
2.68751e-05
-6.75787e-05
2.66202e-05
-7.21281e-05
2.61908e-05
-7.65644e-05
2.55901e-05
-8.08595e-05
2.48205e-05
-8.49857e-05
2.38842e-05
-8.89158e-05
2.27834e-05
-9.26229e-05
2.15202e-05
-9.60807e-05
2.00972e-05
-9.92639e-05
1.85179e-05
-0.000102147
1.67866e-05
-0.000104708
1.4909e-05
-0.000106923
1.28922e-05
-0.000108772
1.07452e-05
-0.000110236
8.47867e-06
-0.000111297
6.10533e-06
-0.000111943
3.64002e-06
-0.00011216
1.09967e-06
-0.00011194
-1.49672e-06
-0.000111278
-4.12815e-06
-0.000110172
-6.77173e-06
-0.000108623
-9.40294e-06
-0.000106638
-1.19958e-05
-0.000104227
-1.45231e-05
-0.000101403
-1.69571e-05
-9.81862e-05
-1.92695e-05
-9.4599e-05
-2.14321e-05
-9.06691e-05
-2.34173e-05
-8.64278e-05
-2.51984e-05
-8.19109e-05
-2.67505e-05
-7.71577e-05
-2.80507e-05
-7.22107e-05
-2.90788e-05
-6.71155e-05
-2.98179e-05
-6.192e-05
-3.02545e-05
-5.66737e-05
-3.03797e-05
-5.14275e-05
-3.01886e-05
-4.62322e-05
-2.96818e-05
-4.11383e-05
-2.88647e-05
-3.61952e-05
-2.77482e-05
-3.14497e-05
-2.63491e-05
-2.69456e-05
-2.46893e-05
-2.2723e-05
-2.2797e-05
-1.8817e-05
-2.07056e-05
-1.52568e-05
-1.84545e-05
-1.20658e-05
-1.60885e-05
-9.2598e-06
-1.3658e-05
-6.84738e-06
-1.12191e-05
-4.82899e-06
-8.83336e-06
-3.1969e-06
-6.56835e-06
-1.93508e-06
-4.49761e-06
-1.01942e-06
-2.70122e-06
-4.18184e-07
-1.26593e-06
-9.29365e-08
-2.85532e-07
1.33444e-07
-3.21542e-07
1.15789e-06
-1.23636e-06
3.82534e-06
-2.69942e-06
6.68481e-06
-4.66859e-06
9.61415e-06
-7.10339e-06
1.25206e-05
-9.96436e-06
1.53311e-05
-1.32126e-05
1.79903e-05
-1.68099e-05
2.0458e-05
-2.0718e-05
2.27065e-05
-2.48997e-05
2.47184e-05
-2.93178e-05
2.64842e-05
-3.39363e-05
2.80004e-05
-3.87194e-05
2.92679e-05
-4.36324e-05
3.02903e-05
-4.86414e-05
3.10735e-05
-5.37132e-05
3.16238e-05
-5.88153e-05
3.19479e-05
-6.39158e-05
3.20524e-05
-6.89835e-05
3.19429e-05
-7.39878e-05
3.16245e-05
-7.88984e-05
3.11014e-05
-8.36853e-05
3.0377e-05
-8.83191e-05
2.94543e-05
-9.27707e-05
2.83358e-05
-9.70112e-05
2.70239e-05
-0.000101012
2.55214e-05
-0.000104747
2.38315e-05
-0.000108187
2.19582e-05
-0.000111307
1.99069e-05
-0.000114083
1.76843e-05
-0.000116489
1.5299e-05
-0.000118506
1.27613e-05
-0.000120111
1.0084e-05
-0.000121287
7.28182e-06
-0.00012202
4.37221e-06
-0.000122295
1.37482e-06
-0.000122103
-1.68826e-06
-0.000121439
-4.79265e-06
-0.000120299
-7.91181e-06
-0.000118684
-1.10173e-05
-0.000116601
-1.40789e-05
-0.000114059
-1.70653e-05
-0.000111072
-1.9944e-05
-0.000107659
-2.26822e-05
-0.000103844
-2.52472e-05
-9.9655e-05
-2.76065e-05
-9.51241e-05
-2.97293e-05
-9.02885e-05
-3.15861e-05
-8.5189e-05
-3.31501e-05
-7.98704e-05
-3.43974e-05
-7.43804e-05
-3.53078e-05
-6.87697e-05
-3.58652e-05
-6.30909e-05
-3.60585e-05
-5.7398e-05
-3.58815e-05
-5.17456e-05
-3.53342e-05
-4.61879e-05
-3.44223e-05
-4.07782e-05
-3.31579e-05
-3.55676e-05
-3.15597e-05
-3.06041e-05
-2.96528e-05
-2.59318e-05
-2.74693e-05
-2.159e-05
-2.50474e-05
-1.76122e-05
-2.24323e-05
-1.40255e-05
-1.96752e-05
-1.08498e-05
-1.68337e-05
-8.09727e-06
-1.39716e-05
-5.77191e-06
-1.11587e-05
-3.86955e-06
-8.47071e-06
-2.37766e-06
-5.9895e-06
-1.27572e-06
-3.80316e-06
-5.35795e-07
-2.00585e-06
-1.23585e-07
-6.97741e-07
9.85832e-09
-3.63972e-07
1.52186e-06
-1.39342e-06
4.85479e-06
-3.0314e-06
8.32279e-06
-5.22503e-06
1.18078e-05
-7.92435e-06
1.52199e-05
-1.10818e-05
1.84885e-05
-1.46517e-05
2.15602e-05
-1.85899e-05
2.43962e-05
-2.28539e-05
2.69705e-05
-2.74023e-05
2.92668e-05
-3.21949e-05
3.12769e-05
-3.7193e-05
3.29985e-05
-4.23588e-05
3.44337e-05
-4.76557e-05
3.55872e-05
-5.3048e-05
3.64658e-05
-5.85011e-05
3.70769e-05
-6.39811e-05
3.7428e-05
-6.94549e-05
3.75262e-05
-7.489e-05
3.7378e-05
-8.02545e-05
3.6989e-05
-8.55169e-05
3.63637e-05
-9.0646e-05
3.55061e-05
-9.56112e-05
3.44194e-05
-0.000100382
3.31065e-05
-0.000104928
3.15702e-05
-0.00010922
2.98137e-05
-0.00011323
2.78409e-05
-0.000116928
2.56565e-05
-0.000120288
2.32667e-05
-0.000123283
2.06794e-05
-0.000125888
1.79044e-05
-0.000128081
1.49539e-05
-0.000129839
1.18423e-05
-0.000131144
8.58665e-06
-0.000131979
5.20684e-06
-0.000132329
1.72534e-06
-0.000132185
-1.83262e-06
-0.000131538
-5.43922e-06
-0.000130386
-9.0642e-06
-0.000128728
-1.26751e-05
-0.00012657
-1.62374e-05
-0.00012392
-1.97154e-05
-0.000120792
-2.30718e-05
-0.000117205
-2.62691e-05
-0.000113183
-2.92695e-05
-0.000108753
-3.2036e-05
-0.00010395
-3.45326e-05
-9.88105e-05
-3.67254e-05
-9.33776e-05
-3.85831e-05
-8.76973e-05
-4.00777e-05
-8.18198e-05
-4.11853e-05
-7.57981e-05
-4.18869e-05
-6.9688e-05
-4.21686e-05
-6.35466e-05
-4.20229e-05
-5.74324e-05
-4.14485e-05
-5.14036e-05
-4.04512e-05
-4.55175e-05
-3.9044e-05
-3.98299e-05
-3.72474e-05
-3.43932e-05
-3.50895e-05
-2.92562e-05
-3.26062e-05
-2.44629e-05
-2.98407e-05
-2.00514e-05
-2.68438e-05
-1.60532e-05
-2.36734e-05
-1.24926e-05
-2.03943e-05
-9.38594e-06
-1.70783e-05
-6.74139e-06
-1.38033e-05
-4.55862e-06
-1.06535e-05
-2.8289e-06
-7.71921e-06
-1.53544e-06
-5.09662e-06
-6.54001e-07
-2.88729e-06
-1.53991e-07
-1.19775e-06
-1.44133e-07
-4.04886e-07
1.92675e-06
-1.54532e-06
5.99522e-06
-3.3532e-06
1.01307e-05
-5.7654e-06
1.422e-05
-8.72288e-06
1.81774e-05
-1.21701e-05
2.19358e-05
-1.60547e-05
2.54447e-05
-2.03268e-05
2.86684e-05
-2.49391e-05
3.15828e-05
-2.98465e-05
3.41741e-05
-3.50055e-05
3.6436e-05
-4.03747e-05
3.83678e-05
-4.59143e-05
3.99732e-05
-5.15857e-05
4.12586e-05
-5.73519e-05
4.22319e-05
-6.31767e-05
4.29017e-05
-6.9025e-05
4.32763e-05
-7.48628e-05
4.3364e-05
-8.06563e-05
4.31716e-05
-8.63727e-05
4.27053e-05
-9.19793e-05
4.19703e-05
-9.74439e-05
4.09708e-05
-0.000102735
3.97104e-05
-0.000107821
3.81923e-05
-0.00011267
3.64198e-05
-0.000117253
3.43964e-05
-0.000121539
3.21266e-05
-0.000125498
2.96159e-05
-0.000129103
2.68713e-05
-0.000132325
2.39017e-05
-0.000135139
2.07183e-05
-0.00013752
1.73349e-05
-0.000139445
1.37676e-05
-0.000140894
1.00358e-05
-0.000141849
6.16182e-06
-0.000142295
2.17087e-06
-0.000142219
-1.90867e-06
-0.000141613
-6.04554e-06
-0.000140471
-1.02057e-05
-0.000138794
-1.43526e-05
-0.000136584
-1.84474e-05
-0.000133849
-2.24496e-05
-0.000130604
-2.63173e-05
-0.000126865
-3.00078e-05
-0.000122656
-3.34784e-05
-0.000118006
-3.66866e-05
-0.000112947
-3.95915e-05
-0.000107518
-4.2154e-05
-0.000101763
-4.4338e-05
-9.573e-05
-4.6111e-05
-8.94703e-05
-4.7445e-05
-8.30398e-05
-4.83173e-05
-7.64972e-05
-4.87112e-05
-6.99031e-05
-4.8617e-05
-6.33198e-05
-4.80319e-05
-5.68096e-05
-4.69613e-05
-5.04346e-05
-4.5419e-05
-4.42551e-05
-4.34268e-05
-3.83288e-05
-4.10158e-05
-3.27096e-05
-3.82254e-05
-2.74466e-05
-3.51038e-05
-2.25829e-05
-3.17074e-05
-1.81554e-05
-2.81009e-05
-1.41931e-05
-2.43567e-05
-1.07171e-05
-2.05543e-05
-7.74003e-06
-1.67803e-05
-5.26592e-06
-1.31276e-05
-3.29005e-06
-9.69508e-06
-1.7994e-06
-6.58728e-06
-7.7327e-07
-3.91341e-06
-1.84331e-07
-1.78669e-06
-3.28463e-07
-4.44273e-07
2.37102e-06
-1.69184e-06
7.24279e-06
-3.6641e-06
1.21029e-05
-6.28822e-06
1.68441e-05
-9.49644e-06
2.13856e-05
-1.32256e-05
2.56649e-05
-1.74166e-05
2.96358e-05
-2.20141e-05
3.32659e-05
-2.69661e-05
3.65348e-05
-3.22235e-05
3.94315e-05
-3.77399e-05
4.19523e-05
-4.3471e-05
4.40989e-05
-4.93749e-05
4.58772e-05
-5.54115e-05
4.72952e-05
-6.1542e-05
4.83624e-05
-6.77292e-05
4.90888e-05
-7.39369e-05
4.94841e-05
-8.01299e-05
4.9557e-05
-8.62737e-05
4.93154e-05
-9.23346e-05
4.87662e-05
-9.8279e-05
4.79147e-05
-0.000104074
4.67658e-05
-0.000109687
4.53233e-05
-0.000115085
4.35908e-05
-0.000120238
4.15719e-05
-0.000125112
3.92706e-05
-0.000129677
3.66918e-05
-0.000133903
3.38417e-05
-0.00013776
3.0728e-05
-0.000141219
2.73608e-05
-0.000144253
2.37525e-05
-0.000146836
1.99182e-05
-0.000148945
1.58761e-05
-0.000150557
1.16476e-05
-0.000151652
7.25721e-06
-0.000152214
2.73312e-06
-0.00015223
-1.8933e-06
-0.000151688
-6.58734e-06
-0.000150582
-1.13112e-05
-0.000148911
-1.60242e-05
-0.000146675
-2.06831e-05
-0.000143882
-2.52427e-05
-0.000140543
-2.96561e-05
-0.000136675
-3.38753e-05
-0.000132302
-3.78522e-05
-0.000127449
-4.15389e-05
-0.000122152
-4.48888e-05
-0.000116448
-4.78576e-05
-0.000110383
-5.04036e-05
-0.000104004
-5.24894e-05
-9.73672e-05
-5.40823e-05
-9.05289e-05
-5.51555e-05
-8.35512e-05
-5.56889e-05
-7.64984e-05
-5.56698e-05
-6.94366e-05
-5.50937e-05
-6.24328e-05
-5.39652e-05
-5.55539e-05
-5.22979e-05
-4.88654e-05
-5.01153e-05
-4.24307e-05
-4.74506e-05
-3.63091e-05
-4.43469e-05
-3.05557e-05
-4.08572e-05
-2.52194e-05
-3.70437e-05
-2.03425e-05
-3.29778e-05
-1.59596e-05
-2.87395e-05
-1.20973e-05
-2.44167e-05
-8.77294e-06
-2.01046e-05
-5.99525e-06
-1.59053e-05
-3.76374e-06
-1.19266e-05
-2.06926e-06
-8.28177e-06
-8.94472e-07
-5.0882e-06
-2.14882e-07
-2.46628e-06
-5.43344e-07
-4.82111e-07
2.85313e-06
-1.83278e-06
8.59346e-06
-3.96349e-06
1.42336e-05
-6.79221e-06
1.96728e-05
-1.02429e-05
2.48363e-05
-1.4245e-05
2.9667e-05
-1.87331e-05
3.41238e-05
-2.36463e-05
3.81792e-05
-2.89282e-05
4.18167e-05
-3.45257e-05
4.5029e-05
-4.03892e-05
4.78158e-05
-4.64722e-05
5.01819e-05
-5.27305e-05
5.21355e-05
-5.91222e-05
5.36869e-05
-6.56074e-05
5.48476e-05
-7.21476e-05
5.5629e-05
-7.87057e-05
5.60422e-05
-8.52457e-05
5.60969e-05
-9.17322e-05
5.5802e-05
-9.81309e-05
5.51648e-05
-0.000104408
5.41914e-05
-0.000110529
5.28869e-05
-0.000116461
5.12554e-05
-0.000122171
4.93009e-05
-0.000127626
4.70273e-05
-0.000132795
4.4439e-05
-0.000137644
4.15411e-05
-0.000142143
3.83406e-05
-0.000146261
3.48459e-05
-0.000149968
3.1068e-05
-0.000153236
2.70205e-05
-0.000156038
2.27198e-05
-0.000158347
1.81858e-05
-0.000160141
1.34419e-05
-0.000161399
8.5149e-06
-0.000162102
3.43562e-06
-0.000162233
-1.76155e-06
-0.000161782
-7.03856e-06
-0.00016074
-1.23539e-05
-0.000159101
-1.76627e-05
-0.000156867
-2.29175e-05
-0.000154041
-2.80679e-05
-0.000150635
-3.30622e-05
-0.000146664
-3.78468e-05
-0.000142148
-4.2368e-05
-0.000137115
-4.65721e-05
-0.000131597
-5.04066e-05
-0.000125634
-5.3821e-05
-0.000119269
-5.67681e-05
-0.000112554
-5.92046e-05
-0.000105543
-6.10928e-05
-9.8298e-05
-6.2401e-05
-9.08821e-05
-6.31048e-05
-8.33635e-05
-6.31883e-05
-7.58127e-05
-6.26445e-05
-6.83014e-05
-6.14765e-05
-6.09019e-05
-5.96975e-05
-5.36853e-05
-5.73318e-05
-4.6721e-05
-5.44149e-05
-4.00749e-05
-5.09931e-05
-3.38081e-05
-4.7124e-05
-2.79761e-05
-4.28757e-05
-2.26276e-05
-3.83263e-05
-1.78034e-05
-3.35638e-05
-1.35355e-05
-2.86845e-05
-9.84713e-06
-2.3793e-05
-6.75183e-06
-1.90006e-05
-4.25364e-06
-1.44248e-05
-2.3473e-06
-1.01881e-05
-1.01876e-06
-6.41674e-06
-2.45991e-07
-3.23905e-06
-7.89335e-07
-5.18364e-07
3.37149e-06
-1.96792e-06
1.0043e-05
-4.25076e-06
1.65165e-05
-7.27618e-06
2.26982e-05
-1.09602e-05
2.85203e-05
-1.52254e-05
3.39322e-05
-2.00001e-05
3.88986e-05
-2.52184e-05
4.33974e-05
-3.0819e-05
4.74173e-05
-3.67455e-05
5.09555e-05
-4.29453e-05
5.40156e-05
-4.93691e-05
5.66058e-05
-5.5971e-05
5.87374e-05
-6.27074e-05
6.04233e-05
-6.95371e-05
6.16773e-05
-7.64207e-05
6.25125e-05
-8.33201e-05
6.29416e-05
-9.01986e-05
6.29755e-05
-9.70205e-05
6.26239e-05
-0.000103751
6.1895e-05
-0.000110354
6.07953e-05
-0.000116798
5.93302e-05
-0.000123047
5.75045e-05
-0.000129068
5.53222e-05
-0.000134828
5.27874e-05
-0.000140294
4.99048e-05
-0.000145433
4.66801e-05
-0.000150213
4.31205e-05
-0.000154602
3.92352e-05
-0.00015857
3.50359e-05
-0.000162087
3.05371e-05
-0.000165124
2.57567e-05
-0.000167654
2.0716e-05
-0.000169652
1.54401e-05
-0.000171095
9.95827e-06
-0.000171963
4.30353e-06
-0.000172238
-1.48679e-06
-0.000171905
-7.37139e-06
-0.000170954
-1.33051e-05
-0.000169378
-1.92391e-05
-0.000167174
-2.51212e-05
-0.000164345
-3.08965e-05
-0.0001609
-3.65077e-05
-0.000156851
-4.18959e-05
-0.000152218
-4.70012e-05
-0.000147026
-5.17639e-05
-0.000141307
-5.6125e-05
-0.000135101
-6.00277e-05
-0.00012845
-6.34184e-05
-0.000121407
-6.62475e-05
-0.000114029
-6.84713e-05
-0.000106377
-7.00525e-05
-9.85202e-05
-7.09621e-05
-9.05287e-05
-7.11798e-05
-8.24778e-05
-7.06954e-05
-7.44444e-05
-6.95099e-05
-6.65062e-05
-6.76356e-05
-5.87409e-05
-6.50971e-05
-5.12243e-05
-6.19315e-05
-4.40292e-05
-5.81882e-05
-3.72239e-05
-5.39293e-05
-3.08711e-05
-4.92285e-05
-2.50263e-05
-4.41711e-05
-1.97372e-05
-3.88529e-05
-1.50425e-05
-3.33793e-05
-1.0971e-05
-2.78644e-05
-7.54198e-06
-2.24296e-05
-4.76413e-06
-1.72026e-05
-2.63625e-06
-1.2316e-05
-1.14749e-06
-7.9055e-06
-2.78051e-07
-4.10849e-06
-1.06739e-06
-5.52977e-07
3.92447e-06
-2.09699e-06
1.1587e-05
-4.52527e-06
1.89448e-05
-7.73894e-06
2.59119e-05
-1.16466e-05
3.2428e-05
-1.6164e-05
3.84496e-05
-2.1214e-05
4.39485e-05
-2.67253e-05
4.89087e-05
-3.26327e-05
5.33247e-05
-3.88761e-05
5.71989e-05
-4.53999e-05
6.05394e-05
-5.21527e-05
6.33586e-05
-5.90865e-05
6.56712e-05
-6.61564e-05
6.74932e-05
-7.33198e-05
6.88407e-05
-8.05364e-05
6.97292e-05
-8.77676e-05
7.01728e-05
-9.49762e-05
7.0184e-05
-0.000102126
6.97735e-05
-0.000109181