/*--------------------------------*- C++ -*----------------------------------*\
  =========                 |
  \\      /  F ield         | OpenFOAM: The Open Source CFD Toolbox
   \\    /   O peration     | Website:  https://openfoam.org
    \\  /    A nd           | Version:  dev
     \\/     M anipulation  |
\*---------------------------------------------------------------------------*/
FoamFile
{
    format      ascii;
    class       volScalarField;
    location    "46.35";
    object      Uy;
}
// * * * * * * * * * * * * * * * * * * * * * * * * * * * * * * * * * * * * * //

dimensions      [0 1 -1 0 0 0 0];

internalField   nonuniform List<scalar> 
5184
(
-1.26003e-05
-2.08303e-05
-1.72278e-05
-8.19018e-06
2.67141e-06
1.36207e-05
2.38506e-05
3.3056e-05
4.11164e-05
4.80373e-05
5.38803e-05
5.87303e-05
6.26798e-05
6.582e-05
6.82356e-05
7.00021e-05
7.11837e-05
7.18331e-05
7.1991e-05
7.16871e-05
7.09408e-05
6.97623e-05
6.81547e-05
6.6115e-05
6.36359e-05
6.07077e-05
5.732e-05
5.34631e-05
4.91298e-05
4.43172e-05
3.90277e-05
3.32706e-05
2.70632e-05
2.04314e-05
1.34109e-05
6.04756e-06
-1.60252e-06
-9.47284e-06
-1.74869e-05
-2.55587e-05
-3.3594e-05
-4.14911e-05
-4.91425e-05
-5.64373e-05
-6.32627e-05
-6.95069e-05
-7.50613e-05
-7.98229e-05
-8.3697e-05
-8.65995e-05
-8.84597e-05
-8.92226e-05
-8.88501e-05
-8.73228e-05
-8.46403e-05
-8.08216e-05
-7.59055e-05
-6.99508e-05
-6.30357e-05
-5.52574e-05
-4.67307e-05
-3.75879e-05
-2.79823e-05
-1.8095e-05
-8.15177e-06
1.55031e-06
1.05841e-05
1.83125e-05
2.37266e-05
2.51382e-05
1.98597e-05
6.24864e-06
-4.5733e-05
-6.56214e-05
-4.05246e-05
7.6505e-06
6.56974e-05
0.000126022
0.000184341
0.000238405
0.000287072
0.000329897
0.000366842
0.000398095
0.000423968
0.000444829
0.000461054
0.000473002
0.000480996
0.000485311
0.000486171
0.000483748
0.000478162
0.000469491
0.000457773
0.000443016
0.000425209
0.000404329
0.000380351
0.000353259
0.000323052
0.000289757
0.000253436
0.00021419
0.00017217
0.000127579
8.06774e-05
3.17833e-05
-1.87237e-05
-7.04051e-05
-0.000122766
-0.000175258
-0.000227287
-0.000278221
-0.000327398
-0.000374139
-0.000417759
-0.000457582
-0.000492956
-0.000523266
-0.000547951
-0.000566517
-0.00057855
-0.00058373
-0.000581841
-0.000572782
-0.000556569
-0.000533341
-0.00050336
-0.000467016
-0.000424823
-0.000377424
-0.00032559
-0.000270226
-0.000212393
-0.00015334
-9.45754e-05
-3.79798e-05
1.39786e-05
5.79903e-05
8.94638e-05
0.000101909
8.656e-05
3.65058e-05
-8.12669e-05
-9.50063e-05
-1.91184e-05
0.000105959
0.000254712
0.00041069
0.000563573
0.000707222
0.000838183
0.000954749
0.00105632
0.001143
0.00121528
0.00127391
0.0013197
0.00135348
0.00137602
0.00138798
0.00138994
0.00138234
0.0013655
0.00133965
0.00130491
0.00126136
0.001209
0.00114782
0.0010778
0.000998971
0.000911391
0.000815198
0.000710624
0.000598015
0.000477845
0.000350728
0.000217432
7.88799e-05
-6.38473e-05
-0.000209513
-0.000356734
-0.000503991
-0.000649648
-0.000791972
-0.00092916
-0.00105937
-0.00118074
-0.00129147
-0.00138978
-0.00147404
-0.00154275
-0.00159459
-0.00162847
-0.00164353
-0.00163923
-0.0016153
-0.00157181
-0.00150917
-0.00142813
-0.00132978
-0.00121557
-0.00108731
-0.000947179
-0.000797742
-0.000642012
-0.000483521
-0.000326467
-0.000175938
-3.82516e-05
7.85653e-05
0.000164207
0.000205508
0.000186366
9.04295e-05
-9.77644e-05
-7.31695e-05
8.47891e-05
0.000318424
0.000590229
0.000874575
0.00115442
0.00141898
0.00166176
0.00187924
0.00206986
0.00223336
0.00237031
0.00248173
0.00256891
0.00263318
0.00267581
0.00269796
0.00270061
0.00268454
0.00265037
0.0025985
0.00252922
0.00244268
0.00233897
0.00221811
0.00208018
0.00192527
0.0017536
0.00156552
0.00136155
0.00114243
0.000909129
0.000662893
0.000405235
0.000137958
-0.000136849
-0.000416814
-0.000699299
-0.000981427
-0.00126011
-0.00153209
-0.00179398
-0.00204235
-0.00227374
-0.00248478
-0.0026722
-0.00283295
-0.00296427
-0.00306372
-0.0031293
-0.00315944
-0.00315313
-0.00310993
-0.00302998
-0.00291406
-0.00276362
-0.00258075
-0.00236822
-0.00212947
-0.00186866
-0.00159068
-0.00130127
-0.00100709
-0.000715957
-0.000437162
-0.000181838
3.63984e-05
0.000200819
0.00029102
0.000282706
0.000147348
-8.44548e-05
2.08579e-05
0.00029548
0.000668162
0.00109109
0.00153032
0.00196242
0.00237191
0.00274905
0.0030882
0.00338659
0.00364341
0.0038591
0.00403491
0.0041725
0.00427369
0.00434027
0.0043739
0.00437599
0.00434771
0.00428999
0.00420347
0.00408862
0.00394572
0.00377498
0.00357655
0.00335061
0.00309744
0.00281749
0.00251141
0.00218016
0.00182501
0.00144761
0.00105001
0.000634694
0.000204587
-0.000236951
-0.00068613
-0.00113876
-0.00159028
-0.00203582
-0.00247026
-0.00288831
-0.00328458
-0.00365369
-0.00399036
-0.00428953
-0.00454646
-0.00475685
-0.00491692
-0.00502356
-0.00507438
-0.0050678
-0.00500315
-0.00488069
-0.00470167
-0.00446838
-0.00418413
-0.00385331
-0.00348138
-0.00307493
-0.00264169
-0.00219066
-0.00173225
-0.00127853
-0.000843545
-0.000443796
-9.88441e-05
0.00016797
0.0003289
0.000351198
0.000194235
-3.75768e-05
0.000197351
0.000627005
0.00117061
0.00177219
0.00239088
0.0029976
0.00357254
0.00410285
0.00458076
0.00500219
0.00536564
0.00567137
0.00592072
0.0061157
0.00625855
0.00635157
0.00639689
0.00639637
0.00635158
0.00626376
0.00613384
0.00596249
0.00575018
0.00549726
0.00520406
0.00487095
0.00449846
0.00408736
0.00363875
0.0031541
0.00263538
0.00208507
0.00150622
0.00090248
0.000278102
-0.000362044
-0.0010125
-0.00166726
-0.00231982
-0.00296324
-0.00359024
-0.00419334
-0.0047649
-0.00529733
-0.00578318
-0.00621533
-0.0065871
-0.00689242
-0.007126
-0.00728344
-0.00736137
-0.0073576
-0.00727117
-0.00710246
-0.00685327
-0.00652683
-0.00612787
-0.00566264
-0.00513891
-0.00456603
-0.003955
-0.00331851
-0.00267116
-0.0020297
-0.00141332
-0.000844178
-0.000347959
4.53567e-05
0.000300819
0.000377599
0.000224644
4.40625e-05
0.00046132
0.00108729
0.00183518
0.00264309
0.00346478
0.00426657
0.00502503
0.00572451
0.00635534
0.00691219
0.00739289
0.00779746
0.00812733
0.00838476
0.00857242
0.00869305
0.00874925
0.00874333
0.00867723
0.00855254
0.00837045
0.00813188
0.00783751
0.0074879
0.00708358
0.00662519
0.00611358
0.00554994
0.00493588
0.00427356
0.00356574
0.00281588
0.00202819
0.00120767
0.000360085
-0.000507985
-0.0013892
-0.00227552
-0.00315825
-0.00402814
-0.00487554
-0.00569049
-0.00646289
-0.00718267
-0.00783999
-0.00842542
-0.00893011
-0.00934606
-0.00966625
-0.00988486
-0.00999741
-0.010001
-0.00989428
-0.0096778
-0.00935391
-0.00892687
-0.00840296
-0.00779045
-0.00709965
-0.00634297
-0.00553492
-0.00469226
-0.00383408
-0.00298209
-0.0021609
-0.00139844
-0.000726578
-0.000181822
0.000194016
0.000352801
0.00023514
0.000160459
0.000814638
0.00168012
0.00266688
0.00370917
0.00475695
0.00577314
0.00673145
0.00761408
0.00840975
0.00911211
0.00971844
0.0102286
0.010644
0.0109673
0.0112015
0.0113498
0.0114152
0.0114004
0.0113078
0.0111393
0.0108964
0.0105802
0.0101916
0.00973154
0.00920069
0.00860005
0.00793085
0.00719476
0.00639403
0.00553156
0.00461106
0.00363709
0.00261516
0.00155174
0.000454296
-0.000668722
-0.00180792
-0.00295302
-0.00409295
-0.00521596
-0.0063098
-0.00736184
-0.00835928
-0.00928938
-0.0101397
-0.0108982
-0.0115538
-0.0120963
-0.0125168
-0.0128079
-0.0129638
-0.0129808
-0.0128572
-0.0125936
-0.0121928
-0.0116602
-0.0110038
-0.0102338
-0.00936344
-0.00840823
-0.00738648
-0.00631919
-0.00523022
-0.00414643
-0.00309797
-0.00211865
-0.00124645
-0.000524203
-1.20323e-07
0.000271235
0.000224015
0.000310975
0.00125721
0.00240647
0.00366759
0.00497277
0.00626964
0.00751894
0.00869244
0.00977079
0.0107416
0.0115979
0.0123365
0.0129573
0.0134619
0.0138531
0.0141344
0.0143094
0.0143815
0.014354
0.0142295
0.0140102
0.0136979
0.0132941
0.0127998
0.0122163
0.0115445
0.0107857
0.00994176
0.0090148
0.00800776
0.00692442
0.00576949
0.00454874
0.0032691
0.00193864
0.000566644
-0.000836425
-0.00225896
-0.00368832
-0.00511087
-0.00651221
-0.00787728
-0.00919061
-0.0104365
-0.0115994
-0.012664
-0.0136156
-0.0144404
-0.0151261
-0.0156614
-0.0160374
-0.0162469
-0.0162851
-0.0161499
-0.0158417
-0.0153639
-0.0147231
-0.0139288
-0.0129934
-0.011933
-0.0107665
-0.00951612
-0.00820723
-0.00686861
-0.00553243
-0.00423448
-0.00301448
-0.00191644
-0.000989255
-0.000287119
0.00012979
0.000190619
0.000494708
0.00178782
0.00326546
0.00483692
0.00643385
0.00800291
0.00950373
0.0109071
0.0121929
0.0133481
0.0143654
0.0152418
0.015977
0.0165731
0.0170333
0.0173614
0.0175615
0.0176375
0.0175929
0.0174309
0.0171539
0.0167641
0.0162631
0.0156523
0.0149331
0.0141069
0.0131755
0.0121409
0.0110061
0.00977468
0.00845137
0.00704197
0.00555354
0.00399449
0.0023746
0.000705068
-0.00100152
-0.00273125
-0.00446895
-0.00619833
-0.00790217
-0.00956247
-0.0111608
-0.0126783
-0.0140964
-0.0153967
-0.0165617
-0.017575
-0.0184213
-0.0190875
-0.0195624
-0.0198373
-0.0199062
-0.0197665
-0.0194183
-0.0188656
-0.0181157
-0.01718
-0.0160731
-0.0148139
-0.0134247
-0.0119317
-0.0103651
-0.0087584
-0.00714931
-0.00557932
-0.00409403
-0.00274346
-0.00158236
-0.000670527
-7.31521e-05
0.00013487
0.000710624
0.00240453
0.00425499
0.00617292
0.00809062
0.00995498
0.0117256
0.0133732
0.0148774
0.0162256
0.0174103
0.0184289
0.0192816
0.0199707
0.0205001
0.020874
0.0210971
0.0211737
0.0211078
0.0209027
0.0205614
0.0200862
0.019479
0.0187416
0.0178756
0.0168828
0.0157651
0.0145255
0.0131673
0.011695
0.0101142
0.00843197
0.00665661
0.00479809
0.00286797
0.000879422
-0.00115276
-0.00321226
-0.0052813
-0.00734083
-0.00937066
-0.0113498
-0.0132564
-0.0150688
-0.0167648
-0.0183231
-0.0197229
-0.0209447
-0.0219707
-0.0227851
-0.0233745
-0.0237285
-0.0238397
-0.0237045
-0.0233229
-0.022699
-0.0218413
-0.0207623
-0.0194792
-0.0180136
-0.0163913
-0.0146427
-0.0128024
-0.0109092
-0.00900629
-0.00714091
-0.00536463
-0.00373339
-0.00230773
-0.00115279
-0.000338431
5.6935e-05
0.000957644
0.00310506
0.00537219
0.00767248
0.00993994
0.0121227
0.0141813
0.0160871
0.0178207
0.0193697
0.0207276
0.0218923
0.0228648
0.023648
0.0242463
0.0246648
0.0249085
0.0249823
0.0248906
0.0246371
0.0242252
0.0236573
0.0229358
0.0220626
0.0210395
0.0198688
0.0185529
0.0170951
0.0154994
0.0137713
0.0119171
0.00994522
0.00786523
0.00568872
0.00342904
0.00110137
-0.00127725
-0.00368804
-0.00611057
-0.00852289
-0.0109018
-0.0132231
-0.0154618
-0.0175925
-0.0195899
-0.0214292
-0.0230862
-0.0245383
-0.0257645
-0.0267463
-0.0274678
-0.0279166
-0.0280837
-0.0279642
-0.0275578
-0.0268686
-0.0259057
-0.0246833
-0.0232206
-0.0215419
-0.0196768
-0.0176597
-0.0155299
-0.0133314
-0.011113
-0.00892779
-0.00683339
-0.00489172
-0.00316908
-0.00173592
-0.000666612
-4.29692e-05
0.00123468
0.00388686
0.00661363
0.00933169
0.0119776
0.0145017
0.0168662
0.0190442
0.0210176
0.0227752
0.0243118
0.0256262
0.0267203
0.0275982
0.028265
0.0287265
0.0289884
0.0290561
0.0289344
0.0286277
0.0281393
0.0274722
0.0266288
0.0256115
0.0244223
0.0230638
0.0215388
0.0198511
0.0180055
0.016008
0.0138662
0.0115894
0.00918866
0.00667712
0.00406991
0.00138427
-0.00136054
-0.00414323
-0.00694065
-0.00972797
-0.0124789
-0.0151658
-0.0177604
-0.0202337
-0.0225569
-0.0247014
-0.0266396
-0.0283452
-0.0297941
-0.0309646
-0.0318381
-0.0323996
-0.0326383
-0.032548
-0.0321274
-0.0313806
-0.0303171
-0.0289525
-0.027308
-0.0254108
-0.0232936
-0.0209953
-0.0185597
-0.0160365
-0.0134798
-0.010949
-0.00850778
-0.00622412
-0.00417025
-0.00242198
-0.00105834
-0.000164709
0.00154063
0.00474723
0.00797549
0.011146
0.0141987
0.0170867
0.019775
0.022239
0.0244624
0.0264362
0.0281567
0.0296241
0.0308418
0.0318148
0.0325496
0.0330525
0.0333302
0.0333887
0.0332333
0.0328687
0.0322987
0.0315265
0.0305548
0.0293862
0.0280229
0.0264679
0.0247244
0.0227967
0.0206901
0.0184114
0.0159692
0.0133739
0.0106378
0.00777564
0.00480431
0.00174303
-0.00138667
-0.00456103
-0.00775419
-0.0109383
-0.014084
-0.0171602
-0.0201352
-0.0229762
-0.0256506
-0.028126
-0.0303709
-0.0323553
-0.0340515
-0.0354342
-0.0364817
-0.0371764
-0.037505
-0.0374596
-0.0370378
-0.0362432
-0.0350857
-0.0335817
-0.0317544
-0.0296336
-0.0272556
-0.0246633
-0.0219055
-0.0190371
-0.0161184
-0.0132147
-0.0103961
-0.00773693
-0.00531557
-0.00321347
-0.0015146
-0.000308322
0.00187439
0.00568331
0.00945364
0.0131104
0.0165974
0.0198716
0.0229013
0.0256647
0.0281485
0.0303459
0.0322553
0.0338791
0.035222
0.0362909
0.037093
0.0376361
0.0379275
0.037974
0.0377816
0.0373553
0.0366992
0.035817
0.0347115
0.0333854
0.0318415
0.0300827
0.0281127
0.0259363
0.0235593
0.0209892
0.0182355
0.0153095
0.012225
0.0089981
0.00564737
0.00219399
-0.00133831
-0.00492333
-0.00853249
-0.012135
-0.0156982
-0.0191878
-0.0225681
-0.0258028
-0.0288551
-0.0316886
-0.0342676
-0.0365582
-0.0385284
-0.0401494
-0.0413957
-0.0422466
-0.0426861
-0.042704
-0.0422964
-0.041466
-0.0402228
-0.0385839
-0.0365741
-0.0342257
-0.0315786
-0.0286795
-0.0255825
-0.0223477
-0.0190416
-0.015736
-0.0125076
-0.00943745
-0.00661026
-0.00411361
-0.00203688
-0.000474074
0.00223483
0.00669215
0.0110437
0.0152193
0.0191676
0.0228497
0.0262378
0.0293141
0.0320682
0.0344966
0.0366002
0.0383836
0.0398537
0.041019
0.0418882
0.0424704
0.0427739
0.0428062
0.042574
0.0420828
0.0413372
0.0403409
0.0390971
0.0376088
0.0358788
0.0339103
0.0317075
0.0292752
0.02662
0.0237499
0.0206752
0.0174082
0.0139638
0.0103595
0.00661546
0.00275474
-0.00119684
-0.00521068
-0.00925554
-0.0132977
-0.0173013
-0.0212284
-0.0250398
-0.0286951
-0.0321533
-0.0353737
-0.0383163
-0.0409425
-0.0432162
-0.045104
-0.0465767
-0.0476097
-0.0481839
-0.0482863
-0.0479109
-0.0470594
-0.045741
-0.0439735
-0.0417829
-0.039204
-0.0362798
-0.0330613
-0.0296074
-0.0259841
-0.0222641
-0.0185259
-0.0148533
-0.0113343
-0.00806065
-0.00512652
-0.00262734
-0.000662501
0.0026208
0.00777062
0.0127409
0.017467
0.0219024
0.0260134
0.0297768
0.0331789
0.0362134
0.0388801
0.041183
0.0431294
0.0447288
0.0459913
0.0469278
0.0475484
0.0478627
0.0478792
0.0476051
0.0470467
0.0462088
0.0450955
0.0437102
0.042056
0.040136
0.0379535
0.0355129
0.0328194
0.0298798
0.0267029
0.0232994
0.0196827
0.0158685
0.0118757
0.00772591
0.00344387
-0.00094256
-0.0054025
-0.00990213
-0.0144048
-0.0188715
-0.0232608
-0.0275295
-0.0316333
-0.0355267
-0.0391646
-0.042502
-0.0454958
-0.0481047
-0.0502909
-0.0520205
-0.0532647
-0.0540004
-0.0542116
-0.0538896
-0.0530341
-0.0516536
-0.0497659
-0.047398
-0.0445867
-0.0413781
-0.0378276
-0.0339989
-0.029964
-0.0258021
-0.0215989
-0.0174455
-0.0134375
-0.00967438
-0.0062574
-0.00328884
-0.000874434
0.00303109
0.00891548
0.0145403
0.019847
0.0247946
0.0293548
0.0335097
0.0372503
0.0405749
0.0434871
0.0459945
0.0481076
0.0498384
0.0511995
0.0522035
0.0528624
0.0531869
0.0531865
0.0528694
0.0522422
0.0513104
0.0500782
0.0485494
0.0467271
0.0446145
0.0422152
0.0395335
0.0365749
0.0333467
0.0298578
0.0261196
0.0221461
0.0179541
0.0135633
0.00899674
0.00428081
-0.000554836
-0.00547716
-0.0104499
-0.0154335
-0.0203858
-0.025262
-0.0300149
-0.0345958
-0.0389551
-0.0430425
-0.0468081
-0.0502036
-0.0531824
-0.0557014
-0.0577216
-0.0592092
-0.0601368
-0.0604844
-0.06024
-0.0594009
-0.0579742
-0.0559769
-0.053437
-0.050393
-0.0468939
-0.042999
-0.0387773
-0.0343069
-0.0296738
-0.0249713
-0.0202983
-0.0157589
-0.0114605
-0.00751259
-0.00402506
-0.00111102
0.00346443
0.0101233
0.0164368
0.0223526
0.0278362
0.0328651
0.0374271
0.0415187
0.0451429
0.0483078
0.051025
0.0533085
0.0551732
0.0566344
0.0577068
0.0584042
0.0587388
0.0587213
0.0583607
0.0576642
0.0566377
0.055286
0.0536129
0.0516215
0.0493153
0.0466978
0.0437734
0.0405478
0.0370282
0.0332241
0.0291471
0.0248117
0.0202354
0.0154389
0.0104464
0.00528549
-1.23738e-05
-0.00541219
-0.0108753
-0.0163597
-0.0218199
-0.0272075
-0.0324717
-0.0375594
-0.0424161
-0.0469866
-0.0512158
-0.0550494
-0.0584354
-0.0613246
-0.0636722
-0.0654391
-0.0665925
-0.0671077
-0.0669688
-0.06617
-0.0647159
-0.0626228
-0.0599186
-0.0566432
-0.0528484
-0.0485975
-0.0439646
-0.0390342
-0.0338994
-0.0286615
-0.023428
-0.0183119
-0.0134297
-0.00889969
-0.00484052
-0.00137373
0.0039195
0.0113904
0.0184247
0.0249769
0.031019
0.0365351
0.0415192
0.0459736
0.0499067
0.0533314
0.0562637
0.0587214
0.0607228
0.062286
0.0634282
0.0641649
0.0645102
0.064476
0.0640721
0.0633067
0.062186
0.0607152
0.0588981
0.0567383
0.0542388
0.0514034
0.0482364
0.0447434
0.0409318
0.036811
0.0323929
0.0276924
0.0227274
0.0175193
0.0120933
0.00647804
0.000706498
-0.00518457
-0.0111544
-0.0171582
-0.0231478
-0.0290714
-0.034874
-0.0404984
-0.0458852
-0.0509739
-0.0557036
-0.0600141
-0.063847
-0.0671468
-0.0698623
-0.0719478
-0.0733648
-0.0740828
-0.0740813
-0.0733502
-0.0718913
-0.0697191
-0.066861
-0.063358
-0.0592641
-0.0546464
-0.0495845
-0.0441689
-0.0385008
-0.0326897
-0.0268525
-0.0211118
-0.0155941
-0.0104276
-0.0057406
-0.00166436
0.00439489
0.0127129
0.0204982
0.0277121
0.034334
0.0403548
0.0457753
0.0506039
0.0548549
0.0585464
0.0616992
0.0643351
0.0664762
0.0681436
0.0693571
0.0701347
0.0704919
0.070442
0.0699961
0.0691629
0.0679495
0.0663611
0.0644018
0.0620752
0.0593844
0.0563329
0.052925
0.0491661
0.0450635
0.0406265
0.0358671
0.0308002
0.0254441
0.0198206
0.0139555
0.00787841
0.00162349
-0.00477095
-0.0112622
-0.0178033
-0.0243429
-0.0308262
-0.0371943
-0.0433855
-0.0493355
-0.0549783
-0.0602472
-0.0650754
-0.0693976
-0.0731515
-0.0762785
-0.0787259
-0.0804481
-0.0814084
-0.0815802
-0.0809486
-0.0795116
-0.0772808
-0.0742827
-0.0705583
-0.0661639
-0.0611701
-0.0556617
-0.0497359
-0.0435018
-0.0370781
-0.0305917
-0.0241757
-0.0179675
-0.0121064
-0.00673156
-0.00198507
0.00488911
0.0140869
0.0226509
0.0305504
0.0377719
0.0443139
0.0501841
0.0553978
0.0599753
0.0639404
0.0673189
0.0701372
0.0724211
0.0741953
0.0754824
0.0763026
0.0766734
0.0766097
0.0761237
0.075225
0.0739211
0.0722177
0.0701192
0.067629
0.0647501
0.061486
0.0578405
0.053819
0.0494283
0.0446776
0.0395786
0.0341462
0.0283987
0.022358
0.0160503
0.00950596
0.00275996
-0.0041481
-0.0111739
-0.0182682
-0.0253774
-0.0324431
-0.039403
-0.0461909
-0.0527376
-0.0589714
-0.0648192
-0.0702075
-0.0750639
-0.0793181
-0.0829037
-0.0857599
-0.0878334
-0.0890798
-0.0894657
-0.0889701
-0.0875859
-0.0853214
-0.0822007
-0.0782647
-0.073571
-0.0681937
-0.0622224
-0.0557615
-0.0489282
-0.041851
-0.0346676
-0.0275227
-0.0205655
-0.0139478
-0.00782058
-0.00233832
0.00540056
0.015508
0.0248765
0.0334832
0.0413227
0.0484012
0.0547338
0.0603427
0.065255
0.0695002
0.0731097
0.0761144
0.0785446
0.0804284
0.0817915
0.0826565
0.0830433
0.0829682
0.0824447
0.0814834
0.0800924
0.0782778
0.076044
0.0733946
0.0703324
0.0668605
0.0629825
0.0587033
0.0540293
0.0489692
0.0435345
0.0377396
0.0316025
0.0251451
0.0183937
0.011379
0.00413647
-0.00329328
-0.0108646
-0.0185264
-0.0262228
-0.0338924
-0.0414694
-0.0488832
-0.0560597
-0.0629214
-0.0693889
-0.0753814
-0.0808186
-0.085622
-0.0897165
-0.0930324
-0.0955074
-0.0970885
-0.0977341
-0.0974159
-0.0961208
-0.093852
-0.0906309
-0.0864969
-0.0815084
-0.0757424
-0.0692935
-0.062273
-0.054807
-0.0470342
-0.0391039
-0.0311734
-0.0234053
-0.0159645
-0.00901573
-0.00272695
0.00592758
0.0169716
0.0271678
0.0365017
0.0449761
0.052605
0.0594116
0.0654254
0.0706801
0.0752118
0.0790573
0.0822527
0.0848326
0.0868289
0.0882707
0.0891834
0.0895889
0.0895054
0.0889477
0.0879275
0.0864535
0.0845322
0.0821683
0.0793652
0.0761256
0.0724523
0.0683483
0.063818
0.0588673
0.0535043
0.0477397
0.0415874
0.0350649
0.0281938
0.021
0.0135143
0.0057723
-0.00218471
-0.0103101
-0.0185513
-0.0268504
-0.0351435
-0.0433611
-0.0514289
-0.0592676
-0.0667941
-0.0739221
-0.0805637
-0.0866302
-0.0920341
-0.0966909
-0.100521
-0.103452
-0.105421
-0.106377
-0.106284
-0.105119
-0.102881
-0.0995868
-0.095273
-0.0899982
-0.0838415
-0.0769025
-0.0692992
-0.0611668
-0.0526551
-0.0439261
-0.0351505
-0.0265054
-0.0181708
-0.010326
-0.00315413
0.00646841
0.0184731
0.0295177
0.0395966
0.0487209
0.0569131
0.0642044
0.0706318
0.0762363
0.0810603
0.0851466
0.0885368
0.0912698
0.0933819
0.0949053
0.0958685
0.0962958
0.0962073
0.0956193
0.0945444
0.0929923
0.0909698
0.0884818
0.0855317
0.0821219
0.0782548
0.0739329
0.0691598
0.0639408
0.058283
0.0521965
0.0456942
0.0387929
0.0315135
0.0238812
0.0159264
0.00768489
-0.000802125
-0.0094873
-0.0183172
-0.0272319
-0.0361654
-0.0450453
-0.0537931
-0.062325
-0.0705521
-0.0783815
-0.0857174
-0.0924627
-0.0985203
-0.103795
-0.108198
-0.111644
-0.114059
-0.115382
-0.115566
-0.11458
-0.112414
-0.109079
-0.104609
-0.099061
-0.0925156
-0.0850766
-0.0768689
-0.0680372
-0.0587429
-0.0491613
-0.0394781
-0.0298863
-0.0205821
-0.0117611
-0.00362336
0.00702119
0.0200074
0.0319187
0.0427582
0.0525459
0.0613128
0.0690982
0.0759473
0.0819081
0.0870299
0.0913617
0.0949504
0.0978401
0.100071
0.101679
0.102696
0.103148
0.103059
0.102444
0.10132
0.0996949
0.0975773
0.0949721
0.0918825
0.0883107
0.0842586
0.0797281
0.0747221
0.0692448
0.0633025
0.056904
0.0500614
0.0427902
0.0351104
0.0270463
0.0186276
0.00988931
0.000872668
-0.00837491
-0.0177993
-0.0273395
-0.0369275
-0.0464882
-0.0559397
-0.0651937
-0.0741556
-0.082726
-0.0908014
-0.0982755
-0.105041
-0.110993
-0.116029
-0.120052
-0.122977
-0.124729
-0.125249
-0.124496
-0.12245
-0.119114
-0.114518
-0.108715
-0.101788
-0.0938426
-0.0850116
-0.0754487
-0.0653277
-0.0548383
-0.0441822
-0.0335698
-0.0232152
-0.013332
-0.0041385
0.00758399
0.0215694
0.0343628
0.0459765
0.0564391
0.0657906
0.0740788
0.0813566
0.0876796
0.0931043
0.0976857
0.101477
0.104526
0.106879
0.108575
0.109648
0.110129
0.110042
0.109406
0.108237
0.106545
0.104339
0.101624
0.0984033
0.0946787
0.0904516
0.0857231
0.0804953
0.0747714
0.0685564
0.0618579
0.0546868
0.0470571
0.0389875
0.0305012
0.0216265
0.0123977
0.00285519
-0.00695379
-0.016975
-0.0271468
-0.0373997
-0.0476565
-0.0578321
-0.0678341
-0.0775628
-0.0869121
-0.0957706
-0.104023
-0.111552
-0.118241
-0.123974
-0.128642
-0.132144
-0.134393
-0.135314
-0.134855
-0.132984
-0.129694
-0.125008
-0.118976
-0.111679
-0.103226
-0.093756
-0.0834319
-0.0724405
-0.0609867
-0.0492899
-0.0375791
-0.026088
-0.0150501
-0.00470375
0.00815484
0.0231537
0.0368419
0.049241
0.0603884
0.070333
0.0791311
0.0868438
0.0935343
0.0992661
0.104101
0.108097
0.111309
0.113787
0.115573
0.116706
0.117219
0.117139
0.116486
0.115277
0.113524
0.111237
0.10842
0.105077
0.10121
0.0968181
0.0919034
0.0864662
0.0805086
0.0740345
0.06705
0.0595642
0.0515899
0.0431438
0.0342476
0.0249282
0.0152185
0.00515765
-0.00520785
-0.0158242
-0.0266294
-0.0375535
-0.0485174
-0.0594336
-0.0702059
-0.0807298
-0.0908931
-0.100577
-0.109656
-0.118004
-0.12549
-0.131986
-0.137368
-0.14152
-0.144338
-0.145733
-0.145637
-0.144003
-0.140815
-0.136084
-0.129856
-0.122208
-0.113251
-0.10313
-0.0920174
-0.0801128
-0.0676376
-0.0548297
-0.0419387
-0.0292198
-0.0169281
-0.00532366
0.00873167
0.024755
0.0393479
0.0525411
0.0643813
0.074926
0.0842399
0.0923926
0.0994549
0.105497
0.110589
0.114793
0.11817
0.120775
0.122654
0.12385
0.124398
0.124328
0.123662
0.122419
0.120612
0.11825
0.11534
0.111884
0.107884
0.103339
0.0982507
0.0926176
0.0864408
0.0797227
0.0724677
0.0646833
0.0563804
0.0475737
0.0382831
0.0285336
0.0183561
0.00778836
-0.00312456
-0.0143298
-0.0257659
-0.0373624
-0.0490397
-0.0607081
-0.0722685
-0.0836119
-0.0946206
-0.105168
-0.115121
-0.12434
-0.132684
-0.140011
-0.146179
-0.151058
-0.154524
-0.156471
-0.156813
-0.155489
-0.152465
-0.147744
-0.14136
-0.133387
-0.123938
-0.11316
-0.101235
-0.0883763
-0.0748223
-0.060831
-0.0466744
-0.0326308
-0.0189791
-0.0060031
0.00931243
0.0263676
0.0418722
0.0558663
0.0684051
0.0795551
0.0893897
0.0979863
0.105424
0.11178
0.11713
0.121544
0.125089
0.127822
0.129796
0.131057
0.131643
0.131586
0.130912
0.12964
0.127784
0.125355
0.122359
0.1188
0.114678
0.109993
0.104743
0.0989287
0.0925481
0.0856023
0.0780941
0.070029
0.0614157
0.0522671
0.0426004
0.0324385
0.0218102
0.0107511
-0.000695731
-0.0124788
-0.024538
-0.0368032
-0.0491945
-0.0616213
-0.0739819
-0.0861641
-0.0980446
-0.10949
-0.120359
-0.130502
-0.139764
-0.147988
-0.155017
-0.160701
-0.164898
-0.167482
-0.168347
-0.167411
-0.164626
-0.159977
-0.153489
-0.145228
-0.135304
-0.123869
-0.111113
-0.0972619
-0.0825726
-0.0673243
-0.0518129
-0.0363424
-0.0212172
-0.0067473
0.00989501
0.027986
0.0444066
0.0592056
0.0724471
0.0842061
0.0945645
0.103608
0.111423
0.118094
0.123705
0.128331
0.132043
0.134906
0.136977
0.138304
0.138931
0.13889
0.138211
0.136914
0.135015
0.132526
0.129453
0.125799
0.121566
0.116752
0.111356
0.105374
0.0988062
0.0916502
0.0839075
0.0755813
0.0666782
0.0572084
0.0471869
0.0366338
0.0255753
0.0140445
0.00208196
-0.010263
-0.0229319
-0.0358561
-0.0489561
-0.0621411
-0.075308
-0.0883417
-0.101115
-0.113488
-0.125312
-0.136425
-0.146662
-0.155849
-0.163814
-0.170385
-0.175401
-0.178713
-0.180191
-0.179733
-0.177269
-0.172766
-0.166235
-0.157732
-0.147362
-0.135278
-0.121677
-0.1068
-0.0909202
-0.0743403
-0.0573819
-0.0403768
-0.0236574
-0.00756182
0.0104774
0.0296048
0.0469426
0.0625484
0.0764946
0.0888646
0.0997486
0.10924
0.117434
0.124422
0.130293
0.13513
0.139011
0.142004
0.144172
0.145567
0.146235
0.146213
0.145531
0.144213
0.142277
0.139734
0.136591
0.132852
0.128518
0.123588
0.118058
0.111925
0.105187
0.0978389
0.0898815
0.0813154
0.0721447
0.0623771
0.0520247
0.0411047
0.0296404
0.0176617
0.00520634
-0.00767916
-0.0209388
-0.0345061
-0.0483029
-0.062239
-0.0762111
-0.0901022
-0.103782
-0.117105
-0.129915
-0.142042
-0.153307
-0.163521
-0.172495
-0.180037
-0.185962
-0.190097
-0.192287
-0.192405
-0.190356
-0.186084
-0.179583
-0.170896
-0.160118
-0.147402
-0.132952
-0.117019
-0.099896
-0.0819098
-0.0634096
-0.0447571
-0.0263151
-0.00845254
0.0110574
0.0312185
0.0494722
0.0658842
0.0805352
0.0935165
0.104926
0.114866
0.123438
0.130742
0.136873
0.141922
0.14597
0.149093
0.151356
0.152818
0.153528
0.153526
0.152844
0.151509
0.149539
0.146947
0.143741
0.139926
0.135502
0.130467
0.124817
0.118549
0.111657
0.104136
0.0959848
0.0872012
0.0777869
0.0677469
0.0570901
0.0458306
0.0339883
0.0215897
0.00866925
-0.00473016
-0.0185557
-0.0327436
-0.0472182
-0.061891
-0.0766592
-0.0914054
-0.105997
-0.120285
-0.134107
-0.147283
-0.159623
-0.170925
-0.180979
-0.189574
-0.1965
-0.201558
-0.204566
-0.205366
-0.203835
-0.199893
-0.193508
-0.184706
-0.173572
-0.160253
-0.144956
-0.127944
-0.10953
-0.0900636
-0.0699247
-0.0495069
-0.0292066
-0.00942566
0.0116333
0.0328221
0.0519875
0.069203
0.0845568
0.0981479
0.110082
0.120469
0.129418
0.137036
0.143426
0.148683
0.152896
0.156146
0.158504
0.160032
0.160782
0.160799
0.160119
0.158767
0.156767
0.154131
0.150869
0.146985
0.14248
0.137352
0.131596
0.125207
0.118179
0.110506
0.102182
0.093204
0.0835715
0.0732861
0.0623537
0.050785
0.038596
0.0258096
0.0124562
-0.00142522
-0.0157857
-0.0305652
-0.0456914
-0.0610783
-0.0766253
-0.0922156
-0.107716
-0.122975
-0.137824
-0.152077
-0.165534
-0.177976
-0.189178
-0.198906
-0.206927
-0.213011
-0.216946
-0.218543
-0.217645
-0.214141
-0.207972
-0.19914
-0.187714
-0.173832
-0.157703
-0.139599
-0.119849
-0.0988315
-0.0769557
-0.0546507
-0.0323488
-0.0104877
0.0122032
0.0344108
0.0544813
0.0724953
0.088548
0.102746
0.115202
0.126033
0.135356
0.143284
0.149928
0.15539
0.159765
0.163139
0.165588
0.167179
0.167968
0.168003
0.167322
0.165956
0.163927
0.161251
0.157937
0.153992
0.149415
0.144204
0.138355
0.13186
0.124713
0.116906
0.108432
0.0992842
0.0894599
0.078958
0.0677808
0.0559354
0.0434342
0.0302957
0.016546
0.00221971
-0.0126389
-0.0279743
-0.0437183
-0.0597888
-0.0760883
-0.0925021
-0.108898
-0.125123
-0.141006
-0.156355
-0.170958
-0.184588
-0.196999
-0.207937
-0.217143
-0.224357
-0.229335
-0.23185
-0.23171
-0.228766
-0.222926
-0.214163
-0.202525
-0.188137
-0.171202
-0.152001
-0.13088
-0.108242
-0.0845311
-0.0602129
-0.0357588
-0.0116455
0.0127654
0.03598
0.0569467
0.0757522
0.0924982
0.107298
0.120271
0.131541
0.141233
0.149468
0.156361
0.162023
0.166554
0.170046
0.172581
0.174229
0.175053
0.175103
0.17442
0.173038
0.170981
0.168267
0.164906
0.160904
0.156263
0.150979
0.145049
0.138463
0.131215
0.123293
0.11469
0.105398
0.0954091
0.0847204
0.0733309
0.0612439
0.0484676
0.0350162
0.020911
0.00618168
-0.0091326
-0.0249815
-0.0413022
-0.0580174
-0.0750339
-0.0922408
-0.109508
-0.126684
-0.143595
-0.160046
-0.175819
-0.190671
-0.204345
-0.216564
-0.227042
-0.23549
-0.241627
-0.245188
-0.245939
-0.243689
-0.238307
-0.22973
-0.217977
-0.203152
-0.185454
-0.165163
-0.142643
-0.118323
-0.0926787
-0.0662182
-0.0394544
-0.012906
0.0133184
0.037526
0.0593779
0.0789662
0.0963979
0.111792
0.125276
0.136979
0.147034
0.155567
0.162703
0.168557
0.173237
0.17684
0.179453
0.181154
0.182006
0.182066
0.181378
0.179977
0.177891
0.175139
0.171733
0.167679
0.16298
0.157633
0.151632
0.14497
0.137636
0.129619
0.120909
0.111497
0.101371
0.0905268
0.0789589
0.0666669
0.053655
0.0399329
0.0255167
0.0104308
-0.00529136
-0.0216053
-0.0384543
-0.0557669
-0.0734559
-0.0914152
-0.109519
-0.127618
-0.145541
-0.163089
-0.180038
-0.196139
-0.211118
-0.224678
-0.23651
-0.246293
-0.253707
-0.258446
-0.260229
-0.258819
-0.254038
-0.245779
-0.234025
-0.218855
-0.20045
-0.179093
-0.155157
-0.129097
-0.101425
-0.0726911
-0.0434537
-0.0142768
0.0138611
0.0390457
0.0617701
0.0821306
0.100239
0.11622
0.130206
0.142334
0.152742
0.161565
0.168934
0.174971
0.17979
0.183495
0.186178
0.187921
0.188795
0.188858
0.188158
0.186735
0.184617
0.181825
0.178375
0.174273
0.169521
0.164118
0.158057
0.15133
0.143925
0.135832
0.127038
0.117529
0.107296
0.0963265
0.0846148
0.072156
0.0589501
0.0450018
0.0303223
0.0149302
-0.00114713
-0.0178718
-0.0351939
-0.053049
-0.0713566
-0.0900176
-0.108912
-0.127895
-0.146798
-0.165424
-0.183545
-0.200905
-0.217219
-0.232172
-0.24543
-0.256642
-0.265448
-0.271498
-0.274462
-0.274049
-0.270025
-0.262235
-0.250614
-0.235208
-0.216175
-0.193789
-0.168434
-0.140586
-0.110796
-0.0796558
-0.0477747
-0.0157652
0.0143926
0.0405368
0.0641197
0.0852405
0.104015
0.120572
0.13505
0.147593
0.158344
0.167446
0.175036
0.181243
0.186189
0.189983
0.192725
0.1945
0.195385
0.195442
0.194723
0.19327
0.191115
0.188282
0.184787
0.180637
0.175837
0.170383
0.164271
0.157491
0.150032
0.14188
0.133021
0.123442
0.113127
0.102065
0.090245
0.0776585
0.0643014
0.0501737
0.0352813
0.0196367
0.00326104
-0.013815
-0.0315487