/*--------------------------------*- C++ -*----------------------------------*\
  =========                 |
  \\      /  F ield         | OpenFOAM: The Open Source CFD Toolbox
   \\    /   O peration     | Website:  https://openfoam.org
    \\  /    A nd           | Version:  dev
     \\/     M anipulation  |
\*---------------------------------------------------------------------------*/
FoamFile
{
    format      ascii;
    class       volScalarField;
    location    "21.6";
    object      p;
}
// * * * * * * * * * * * * * * * * * * * * * * * * * * * * * * * * * * * * * //

dimensions      [0 2 -2 0 0 0 0];

internalField   nonuniform List<scalar> 
5184
(
1.38985e-06
-1.02156e-05
-9.60348e-05
-0.00024879
-0.000448013
-0.000676447
-0.000919853
-0.0011663
-0.00140665
-0.00163374
-0.00184217
-0.00202792
-0.00218807
-0.0023205
-0.00242376
-0.00249683
-0.00253904
-0.00254997
-0.00252932
-0.00247694
-0.00239275
-0.00227672
-0.00212891
-0.00194946
-0.00173861
-0.00149673
-0.00122437
-0.000922285
-0.00059146
-0.000233168
0.000151006
0.000559136
0.000988929
0.00143772
0.00190244
0.00237965
0.00286554
0.00335594
0.00384639
0.00433214
0.00480827
0.00526969
0.0057113
0.00612801
0.00651488
0.00686719
0.0071806
0.00745116
0.00767552
0.00785094
0.0079754
0.00804772
0.00806752
0.00803539
0.0079528
0.00782222
0.00764702
0.00743151
0.00718091
0.00690125
0.00659941
0.00628297
0.00596024
0.00564017
0.0053323
0.00504672
0.00479392
0.00458452
0.00442847
0.00433424
0.00430729
0.00433452
1.48996e-05
2.42069e-06
-7.2122e-05
-0.000199775
-0.000364868
-0.000554935
-0.000759055
-0.000967642
-0.00117278
-0.00136806
-0.00154846
-0.00171007
-0.00184993
-0.0019658
-0.00205604
-0.00211947
-0.00215522
-0.00216269
-0.00214146
-0.00209123
-0.00201183
-0.00190319
-0.00176531
-0.00159829
-0.00140237
-0.0011779
-0.00092542
-0.000645663
-0.000339586
-8.40548e-06
0.000346371
0.000722927
0.00111911
0.00153244
0.00196006
0.00239881
0.00284516
0.00329531
0.00374515
0.00419037
0.00462647
0.00504887
0.00545291
0.00583402
0.00618776
0.00650988
0.00679651
0.00704415
0.00724983
0.00741115
0.00752641
0.00759461
0.00761555
0.00758985
0.00751897
0.00740526
0.00725189
0.00706285
0.00684296
0.00659776
0.00633348
0.00605699
0.00577574
0.00549763
0.00523098
0.00498434
0.00476638
0.00458548
0.00444893
0.00436267
0.0043341
0.00436166
0.000101541
7.68155e-05
1.5298e-06
-0.000115905
-0.000263464
-0.000431522
-0.000611374
-0.000795198
-0.000976299
-0.00114912
-0.00130915
-0.00145281
-0.0015773
-0.00168045
-0.00176061
-0.00181653
-0.00184731
-0.00185224
-0.00183083
-0.00178273
-0.00170769
-0.00160558
-0.00147634
-0.00132007
-0.00113693
-0.000927257
-0.000691545
-0.000430471
-0.000144935
0.000163921
0.000494685
0.000845654
0.00121482
0.00159985
0.0019981
0.00240661
0.0028221
0.00324102
0.00365958
0.00407375
0.00447937
0.00487219
0.0052479
0.00560227
0.00593119
0.00623078
0.00649744
0.00672799
0.00691971
0.00707044
0.00717865
0.00724347
0.0072648
0.00724329
0.00718037
0.00707827
0.00694
0.00676933
0.00657074
0.00634939
0.00611103
0.00586196
0.00560892
0.00535904
0.00511967
0.00489827
0.0047023
0.00453884
0.0044139
0.00433271
0.00430491
0.00433549
0.000256467
0.000205068
0.000117332
-1.50681e-06
-0.000143794
-0.000301759
-0.000468278
-0.000636991
-0.000802363
-0.000959705
-0.00110515
-0.00123556
-0.00134844
-0.00144183
-0.00151419
-0.00156435
-0.00159141
-0.00159467
-0.00157361
-0.00152784
-0.00145707
-0.00136113
-0.00123992
-0.00109347
-0.000921896
-0.000725475
-0.000504629
-0.000259965
7.7021e-06
0.000297327
0.000607608
0.000936965
0.00128353
0.00164513
0.00201928
0.00240321
0.00279385
0.00318786
0.00358166
0.00397146
0.00435335
0.0047233
0.00507725
0.00541121
0.00572129
0.00600382
0.00625542
0.00647307
0.00665424
0.00679688
0.00689957
0.00696153
0.00698268
0.00696368
0.00690592
0.00681153
0.00668339
0.00652508
0.00634083
0.00613548
0.00591441
0.00568344
0.0054488
0.00521696
0.00499458
0.00478832
0.00460479
0.00445026
0.00433018
0.00424958
0.00421853
0.00424371
0.000461042
0.000372482
0.000263973
0.000136401
-7.79822e-06
-0.000162465
-0.000321831
-0.000480901
-0.000635268
-0.000781134
-0.000915318
-0.00103521
-0.00113872
-0.00122413
-0.00129014
-0.00133568
-0.00135993
-0.00136224
-0.00134209
-0.00129909
-0.00123293
-0.00114337
-0.00103029
-0.000893632
-0.000733468
-0.000549987
-0.000343529
-0.000114606
0.000136072
0.000407572
0.000698718
0.00100807
0.00133389
0.00167418
0.00202663
0.00238861
0.00275726
0.00312942
0.00350169
0.00387049
0.00423208
0.00458263
0.00491825
0.00523514
0.00552955
0.00579797
0.00603716
0.00624422
0.0064167
0.00655264
0.00665069
0.00671009
0.00673077
0.00671336
0.0066592
0.00657035
0.00644955
0.0063002
0.00612633
0.0059325
0.00572377
0.00550557
0.00528365
0.00506397
0.00485255
0.00465544
0.00447853
0.00432745
0.00420715
0.0041224
0.004082
0.00409176
0.000699122
0.000567183
0.000432131
0.000290236
0.000138477
-1.83786e-05
-0.000175724
-0.000329824
-0.000477346
-0.000615364
-0.000741407
-0.00085343
-0.000949766
-0.00102906
-0.00109024
-0.00113241
-0.00115489
-0.00115708
-0.00113853
-0.00109883
-0.00103765
-0.000954749
-0.000849921
-0.000723059
-0.00057415
-0.000403294
-0.000210731
3.13751e-06
0.000237721
0.000492216
0.000765582
0.00105652
0.00136346
0.00168454
0.00201762
0.00236024
0.00270968
0.00306296
0.00341685
0.0037679
0.00411253
0.00444703
0.00476766
0.0050707
0.00535255
0.00560976
0.00583915
0.00603789
0.00620358
0.0063343
0.00642867
0.00648596
0.00650606
0.00648956
0.00643774
0.00635256
0.00623665
0.00609326
0.00592624
0.00573992
0.00553907
0.0053288
0.00511448
0.00490161
0.00469574
0.00450234
0.00432676
0.00417404
0.00404874
0.00395526
0.00390007
0.00388693
0.000956923
0.000778298
0.000612904
0.000452527
0.000288794
0.000125306
-3.43139e-05
-0.000187469
-0.00033183
-0.000465307
-0.000586127
-0.000692822
-0.000784188
-0.00085924
-0.000917177
-0.000957337
-0.000979166
-0.00098219
-0.000965992
-0.000930199
-0.000874478
-0.000798537
-0.000702132
-0.00058508
-0.000447279
-0.000288728
-0.000109554
8.99653e-05
0.000309372
0.000548005
0.00080497
0.00107912
0.00136904
0.00167302
0.00198907
0.00231489
0.00264791
0.00298528
0.00332388
0.00366042
0.00399138
0.00431317
0.00462213
0.00491458
0.00518696
0.00543587
0.00565814
0.00585094
0.00601185
0.00613893
0.00623077
0.00628659
0.00630623
0.00629021
0.00623973
0.00615666
0.00604353
0.00590345
0.0057401
0.00555763
0.00536059
0.00515382
0.00494239
0.00473143
0.0045261
0.00433144
0.0041523
0.00399326
0.00385856
0.00375222
0.00367791
0.00363685
0.00122234
0.000995695
0.000797707
0.000615997
0.000437088
0.000263614
9.83686e-05
-5.70833e-05
-0.000201335
-0.000333088
-0.000451244
-0.000554904
-0.000643336
-0.000715935
-0.000772201
-0.000811704
-0.00083406
-0.000838911
-0.00082591
-0.000794716
-0.000744995
-0.000676422
-0.000588698
-0.000481563
-0.000354817
-0.00020835
-4.21617e-05
0.000143604
0.000348634
0.000572418
0.000814217
0.00107304
0.00134764
0.00163644
0.00193761
0.002249
0.00256816
0.00289235
0.00321857
0.00354359
0.00386399
0.00417622
0.00447663
0.00476158
0.00502749
0.00527093
0.00548871
0.00567794
0.00583613
0.00596127
0.00605188
0.00610709
0.00612665
0.006111
0.00606123
0.00597913
0.0058671
0.00572815
0.00556582
0.0053841
0.00518737
0.00498027
0.00476761
0.00455427
0.00434508
0.00414475
0.00395776
0.00378829
0.00364033
0.00351761
0.00342086
0.00334866
0.00148511
0.00121023
0.000978488
0.000773618
0.000577314
0.000391407
0.000217984
5.76802e-05
-8.89485e-05
-0.000221341
-0.000339042
-0.000441707
-0.000529066
-0.000600897
-0.000657007
-0.000697204
-0.000721282
-0.000729006
-0.000720108
-0.000694282
-0.000651192
-0.000590482
-0.000511792
-0.000414779
-0.00029914
-0.000164642
-1.11529e-05
0.000161332
0.000352654
0.000562461
0.000790179
0.00103498
0.00129577
0.00157114
0.0018594
0.00215851
0.00246617
0.00277971
0.00309624
0.00341257
0.00372533
0.00403097
0.00432584
0.00460626
0.00486862
0.00510939
0.00532531
0.00551339
0.00567102
0.00579607
0.00588695
0.00594265
0.00596282
0.00594776
0.00589846
0.00581658
0.00570444
0.00556491
0.00540145
0.00521791
0.00501853
0.00480779
0.00459034
0.00437086
0.00415396
0.00394411
0.00374549
0.00356198
0.00339745
0.00325542
0.00313372
0.00302839
0.00173627
0.00141367
0.00114776
0.000918668
0.000703508
0.000503435
0.000319932
0.000152791
1.78322e-06
-0.000133217
-0.000252365
-0.00035584
-0.000443823
-0.000516465
-0.000573874
-0.000616096
-0.000643104
-0.000654787
-0.000650953
-0.000631333
-0.000595588
-0.000543324
-0.000474117
-0.000387533
-0.000283159
-0.000160631
-1.96711e-05
0.000139879
0.000318027
0.000514588
0.00072916
0.000961084
0.00120942
0.00147293
0.00175005
0.00203888
0.00233721
0.00264248
0.00295184
0.00326216
0.00357005
0.00387197
0.00416422
0.00444305
0.00470475
0.00494568
0.00516244
0.00535189
0.00551127
0.00563828
0.00573115
0.00578873
0.0058105
0.00579661
0.00574791
0.00566595
0.0055529
0.00541157
0.00524528
0.00505781
0.00485329
0.00463611
0.00441079
0.00418189
0.00395389
0.0037311
0.00351751
0.00331682
0.00313285
0.00296905
0.00282048
0.00268079
0.0019679
0.0015985
0.00129856
0.00104475
0.000809854
0.000594453
0.000399497
0.000224007
6.70292e-05
-7.22039e-05
-0.000194417
-0.000300293
-0.000390438
-0.000465362
-0.000525464
-0.000571018
-0.000602169
-0.000618926
-0.000621172
-0.000608664
-0.000581056
-0.000537914
-0.000478739
-0.000403002
-0.000310166
-0.000199732
-7.12663e-05
7.55561e-05
0.000240915
0.000424805
0.000627001
0.00084702
0.00108409
0.00133713
0.00160471
0.00188507
0.00217608
0.00247528
0.00277986
0.0030867
0.00339241
0.0036934
0.00398589
0.00426604
0.00453
0.00477397
0.00499437
0.00518787
0.00535149
0.00548274
0.00557963
0.00564078
0.00566549
0.00565372
0.00560617
0.00552422
0.00540993
0.005266
0.00509565
0.0049026
0.00469091
0.00446492
0.00422908
0.00398791
0.00374582
0.00350707
0.00327556
0.00305489
0.00284898
0.00266131
0.00248433
0.00230947
0.00217285
0.00175787
0.00142437
0.00114577
0.000890711
0.000659266
0.000451911
0.000266952
0.00010276
-4.20328e-05
-0.000168689
-0.000278361
-0.000372062
-0.000450638
-0.000514762
-0.000564927
-0.000601438
-0.000624414
-0.0006338
-0.000629379
-0.000610785
-0.000577536
-0.000529053
-0.000464697
-0.000383805
-0.000285728
-0.000169868
-3.57242e-05
0.000117066
0.000288687
0.000479099
0.000688001
0.000914799
0.00115857
0.00141803
0.00169155
0.00197709
0.00227225
0.00257428
0.00288006
0.00318618
0.00348896
0.00378454
0.00406893
0.00433811
0.00458811
0.00481509
0.0050155
0.00518611
0.00532414
0.00542736
0.00549413
0.00552351
0.00551523
0.00546978
0.00538839
0.00527296
0.00512608
0.00495089
0.00475105
0.00453059
0.00429383
0.00404523
0.00378932
0.00353053
0.00327313
0.00302106
0.0027779
0.0025478
0.0023344
0.00212767
0.00191697
0.0023446
0.0018854
0.00151908
0.00121592
0.000940617
0.000692762
0.000472401
0.000277169
0.000104804
-4.66285e-05
-0.000178895
-0.000293593
-0.000392114
-0.00047562
-0.000545043
-0.000601073
-0.000644163
-0.00067453
-0.000692172
-0.00069688
-0.000688266
-0.000665785
-0.000628768
-0.000576461
-0.00050806
-0.000422757
-0.000319779
-0.00019844
-5.81805e-05
0.00010138
0.000280401
0.000478775
0.000696088
0.000931588
0.00118415
0.00145225
0.00173398
0.002027
0.00232857
0.0026356
0.00294461
0.00325186
0.00355336
0.00384495
0.00412241
0.00438153
0.00461822
0.00482863
0.00500921
0.00515689
0.00526912
0.00534394
0.00538011
0.00537712
0.0053352
0.00525537
0.00513937
0.00498966
0.0048093
0.0046019
0.00437149
0.0041224
0.00385917
0.00358639
0.00330859
0.00303015
0.00275512
0.0024872
0.00223082
0.00198995
0.0017522
0.00150494
0.00247705
0.00197513
0.00157692
0.00124967
0.000954291
0.000689929
0.000456221
0.000250166
6.88983e-05
-9.00501e-05
-0.000228923
-0.000349735
-0.000454231
-0.000543871
-0.000619821
-0.000682954
-0.000733851
-0.000772815
-0.000799881
-0.00081484
-0.000817264
-0.000806537
-0.00078189
-0.000742441
-0.000687236
-0.000615294
-0.000525659
-0.000417444
-0.000289885
-0.000142388
2.54156e-05
0.000213623
0.000422018
0.000650025
0.000896681
0.00116061
0.00143999
0.00173256
0.00203564
0.00234609
0.00266042
0.00297477
0.00328502
0.00358682
0.00387571
0.00414721
0.00439692
0.00462066
0.00481453
0.00497507
0.00509936
0.00518509
0.00523065
0.00523521
0.00519872
0.00512195
0.00500644
0.0048545
0.0046691
0.00445382
0.00421269
0.00395012
0.00367073
0.00337927
0.00308043
0.00277879
0.0024786
0.00218378
0.00189917
0.00162913
0.00135903
0.0010743
0.0025645
0.00202146
0.00159242
0.00124172
0.000926636
0.000645878
0.000398689
0.000181457
-9.25996e-06
-0.000176438
-0.000322774
-0.000450673
-0.000562215
-0.000659131
-0.000742804
-0.000814268
-0.000874219
-0.000923026
-0.000960748
-0.00098716
-0.00100178
-0.00100392
-0.000992689
-0.000967066
-0.000925934
-0.000868132
-0.000792503
-0.000697949
-0.000583484
-0.000448292
-0.000291777
-0.000113622
8.61666e-05
0.00030721
0.000548721
0.000809469
0.00108776
0.00138141
0.00168777
0.00200371
0.00232568
0.00264973
0.00297156
0.00328662
0.0035902
0.00387751
0.0041438
0.00438449
0.00459528
0.00477228
0.00491213
0.00501208
0.00507012
0.00508502
0.00505639
0.00498471
0.00487127
0.00471821
0.00452841
0.00430538
0.0040532
0.00377636
0.00347964
0.00316798
0.00284633
0.00251955
0.00219216
0.00186839
0.00155362
0.00125267
0.000948757
0.00062536
0.00260156
0.00201906
0.00156037
0.00118701
0.00085274
0.000555855
0.00029521
6.65999e-05
-0.00013397
-0.000309966
-0.000464513
-0.000600388
-0.000719979
-0.000825271
-0.000917842
-0.000998871
-0.00106915
-0.00112909
-0.00117877
-0.00121794
-0.00124604
-0.00126228
-0.00126566
-0.00125501
-0.00122902
-0.00118634
-0.00112561
-0.00104549
-0.00094477
-0.000822388
-0.000677505
-0.000509567
-0.00031835
-0.000104017
0.000132837
0.00039115
0.000669361
0.000965393
0.00127664
0.00159999
0.00193183
0.0022681
0.00260435
0.0029358
0.00325744
0.00356416
0.00385082
0.00411239
0.0043441
0.00454158
0.00470095
0.00481896
0.0048931
0.0049217
0.00490395
0.00483996
0.00473075
0.00457824
0.00438517
0.00415502
0.00389189
0.00360041
0.00328554
0.00295247
0.00260647
0.00225276
0.00189624
0.00154154
0.00119465
0.000860994
0.000521581
0.000157979
0.00258307
0.00196289
0.00147583
0.0010807
0.000727881
0.000415262
0.000141306
-9.8767e-05
-0.000309489
-0.000494796
-0.000658222
-0.000802896
-0.000931497
-0.00104624
-0.00114888
-0.00124072
-0.00132264
-0.00139508
-0.0014581
-0.00151141
-0.00155439
-0.00158614
-0.0016055
-0.00161114
-0.00160157
-0.00157524
-0.00153053
-0.0014659
-0.00137985
-0.00127107
-0.00113847
-0.000981222
-0.000798855
-0.000591293
-0.000358911
-0.00010258
0.000176299
0.000475768
0.000793295
0.00112578
0.00146958
0.00182053
0.00217401
0.00252501
0.00286822
0.00319814
0.00350921
0.00379591
0.00405294
0.00427537
0.00445872
0.00459918
0.00469366
0.00473993
0.0047367
0.00468365
0.00458146
0.00443176
0.00423715
0.00400102
0.00372755
0.00342146
0.00308797
0.00273257
0.00236092
0.00197866
0.00159118
0.00120358
0.000822563
0.000454251
7.74193e-05
-0.000328337
0.00250415
0.00184816
0.00133409
0.000918163
0.000547538
0.000219669
-6.73609e-05
-0.000318896
-0.000539991
-0.000735034
-0.000907953
-0.00106221
-0.00120075
-0.00132601
-0.0014399
-0.00154384
-0.00163875
-0.00172511
-0.00180295
-0.00187193
-0.00193133
-0.00198012
-0.00201701
-0.00204048
-0.00204885
-0.00204032
-0.00201305
-0.00196523
-0.00189509
-0.00180104
-0.0016817
-0.00153596
-0.00136307
-0.00116269
-0.000934936
-0.000680465
-0.000400488
-9.68135e-05
0.000228127
0.000571277
0.000928968
0.00129695
0.00167043
0.00204417
0.00241253
0.00276961
0.00310938
0.0034258
0.00371296
0.00396529
0.00417765
0.00434554
0.00446523
0.00453383
0.00454947
0.00451131
0.0044196
0.00427566
0.00408185
0.0038415
0.00355878
0.00323859
0.0028864
0.00250806
0.00210969
0.00169743
0.00127723
0.000854755
0.000437523
3.24451e-05
-0.000384011
-0.000834309
0.00236015
0.0016703
0.00113069
0.000695025
0.0003074
-3.5159e-05
-0.000334959
-0.000597895
-0.00082953
-0.00103469
-0.00121768
-0.00138228
-0.00153169
-0.00166854
-0.00179488
-0.00191223
-0.00202156
-0.00212334
-0.00221759
-0.00230387
-0.00238138
-0.00244894
-0.00250511
-0.00254817
-0.00257621
-0.00258722
-0.00257909
-0.00254972
-0.00249706
-0.00241922
-0.00231449
-0.00218146
-0.00201906
-0.00182665
-0.00160408
-0.00135172
-0.00107057
-0.000762259
-0.000429074
-7.39999e-05
0.000299302
0.000686508
0.00108268
0.00148233
0.00187949
0.00226786
0.00264088
0.00299193
0.00331444
0.00360212
0.00384909
0.00405007
0.00420052
0.00429686
0.00433648
0.00431794
0.00424096
0.00410646
0.00391651
0.00367431
0.00338405
0.00305077
0.00268023
0.00227869
0.00185277
0.00140922
0.000954602
0.000495268
3.96352e-05
-0.000404506
-0.0008631
-0.00136079
0.00214666
0.00142503
0.000861409
0.00040714
3.38841e-06
-0.000353247
-0.000665464
-0.000939696
-0.001182
-0.00139763
-0.00159126
-0.00176695
-0.00192816
-0.00207769
-0.00221773
-0.00234986
-0.00247509
-0.0025939
-0.00270623
-0.00281159
-0.00290905
-0.00299729
-0.00307469
-0.00313932
-0.00318906
-0.00322163
-0.00323465
-0.00322571
-0.00319246
-0.00313268
-0.00304431
-0.0029256
-0.00277513
-0.00259193
-0.00237551
-0.00212595
-0.00184398
-0.00153098
-0.00118908
-0.000821134
-0.000430771
-2.23497e-05
0.00039906
0.00082774
0.0012574
0.00168129
0.00209232
0.00248323
0.00284674
0.00317575
0.00346353
0.0037039
0.00389146
0.00402173
0.00409129
0.00409796
0.0040408
0.00392024
0.003738
0.00349708
0.00320163
0.00285685
0.00246879
0.00204416
0.00159015
0.0011142
0.000623555
0.000125353
-0.00037098
-0.000856678
-0.00136025
-0.00190865
0.00185953
0.00110832
0.00052231
5.06255e-05
-0.000368328
-0.000738381
-0.00106263
-0.00134802
-0.00160112
-0.00182756
-0.00203237
-0.00221992
-0.00239387
-0.0025572
-0.00271221
-0.00286055
-0.00300325
-0.00314077
-0.003273
-0.00339935
-0.00351877
-0.00362978
-0.00373057
-0.00381901
-0.00389273
-0.00394917
-0.00398568
-0.00399951
-0.00398799
-0.00394853
-0.0038787
-0.00377637
-0.00363975
-0.00346746
-0.00325866
-0.00301306
-0.00273107
-0.00241379
-0.00206312
-0.00168175
-0.00127321
-0.000841855
-0.000392862
6.78468e-05
0.00053366
0.000997382
0.00145137
0.00188766
0.00229822
0.00267504
0.00301044
0.00329726
0.00352905
0.00370031
0.00380668
0.00384507
0.00381379
0.00371262
0.00354281
0.0033071
0.00300957
0.00265552
0.00225132
0.00180416
0.00132185
0.000812579
0.00028441
-0.000254676
-0.000794117
-0.00132407
-0.00187579
-0.00247872
0.00149489
0.000716407
0.000109729
-0.000378123
-0.000811307
-0.00119409
-0.00152995
-0.00182636
-0.00209034
-0.00232794
-0.0025445
-0.00274467
-0.00293233
-0.00311061
-0.00328192
-0.00344796
-0.00360978
-0.00376779
-0.00392184
-0.00407123
-0.00421477
-0.00435084
-0.00447741
-0.00459214
-0.0046924
-0.00477535
-0.00483801
-0.00487734
-0.00489026
-0.0048738
-0.00482516
-0.00474176
-0.00462139
-0.00446224
-0.00426303
-0.00402309
-0.00374241
-0.00342178
-0.00306278
-0.00266788
-0.00224045
-0.00178481
-0.00130617
-0.000810633
-0.00030511
0.000202764
0.00070476
0.00119222
0.00165622
0.00208784
0.00247831
0.00281934
0.00310331
0.00332357
0.0034746
0.00355227
0.00355394
0.00347862
0.00332698
0.00310135
0.00280569
0.00244536
0.00202703
0.00155839
0.00104796
0.000504708
-6.23716e-05
-0.000644352
-0.00122941
-0.00180651
-0.00240988
-0.00307164
0.00104918
0.000245866
-0.00037969
-0.000882405
-0.00132881
-0.00172359
-0.00207064
-0.00237791
-0.00265288
-0.00290197
-0.00313086
-0.00334444
-0.00354681
-0.00374123
-0.00393021
-0.0041155
-0.00429814
-0.00447853
-0.00465644
-0.00483106
-0.00500106
-0.00516464
-0.0053196
-0.00546334
-0.00559297
-0.00570537
-0.00579722
-0.00586512
-0.00590561
-0.0059153
-0.00589096
-0.00582954
-0.00572836
-0.00558512
-0.00539808
-0.00516606
-0.00488864
-0.00456615
-0.00419982
-0.00379182
-0.0033453
-0.00286445
-0.00235447
-0.00182159
-0.001273
-0.000716736
-0.000161623
0.000382936
0.000907131
0.00140097
0.00185455
0.0022583
0.00260328
0.00288147
0.00308607
0.00321166
0.00325451
0.00321265
0.00308601
0.0028764
0.00258751
0.00222475
0.00179503
0.00130658
0.000768627
0.000191063
-0.00041614
-0.00104299
-0.00167626
-0.00230359
-0.00296245
-0.00368784
0.000519187
-0.000306407
-0.000948969
-0.00146519
-0.00192377
-0.00232982
-0.0026876
-0.00300558
-0.00329163
-0.00355256
-0.00379436
-0.00402216
-0.00424024
-0.00445202
-0.00466009
-0.00486622
-0.00507149
-0.00527622
-0.00548012
-0.00568228
-0.00588122
-0.00607498
-0.00626113
-0.00643684
-0.00659896
-0.00674405
-0.00686845
-0.00696838
-0.00703998
-0.00707942
-0.00708298
-0.00704712
-0.00696863
-0.00684468
-0.00667296
-0.00645178
-0.00618017
-0.00585797
-0.00548596
-0.00506591
-0.00460067
-0.00409423
-0.0035517
-0.00297937
-0.00238464
-0.00177594
-0.00116267
-0.000554977
3.63733e-05
0.000600279
0.00112555
0.00160123
0.00201689
0.00236298
0.00263114
0.0028145
0.00290799
0.00290845
0.00281486
0.00262837
0.00235228
0.0019919
0.00155438
0.00104847
0.000484163
-0.000127683
-0.000775999
-0.00144961
-0.00213375
-0.00281458
-0.00353308
-0.00432739
-9.79495e-05
-0.000943149
-0.00160077
-0.00212911
-0.00259878
-0.00301533
-0.0033834
-0.0037119
-0.00400914
-0.00428226
-0.00453756
-0.00478039
-0.00501523
-0.00524561
-0.0054742
-0.00570283
-0.00593255
-0.00616367
-0.00639579
-0.00662791
-0.00685841
-0.00708514
-0.00730548
-0.00751635
-0.00771432
-0.00789563
-0.00805627
-0.00819207
-0.00829874
-0.00837196
-0.00840752
-0.00840132
-0.00834959
-0.0082489
-0.00809632
-0.00788955
-0.00762701
-0.00730795
-0.00693261
-0.00650227
-0.00601937
-0.0054876
-0.00491189
-0.00429851
-0.00365499
-0.00299013
-0.00231383
-0.00163701
-0.000971411
-0.000329305
0.000276746
0.00083424
0.00133109
0.001756
0.00209886
0.00235109
0.00250598
0.00255898
0.00250788
0.00235294
0.00209688
0.00174482
0.00130408
0.000783884
0.000195014
-0.000450615
-0.00114074
-0.00186289
-0.00260056
-0.00333832
-0.00412092
-0.00498993
-0.000804678
-0.0016667
-0.00233737
-0.00287638
-0.00335605
-0.00378232
-0.00416021
-0.00449906
-0.00480758
-0.00509325
-0.00536262
-0.00562131
-0.00587393
-0.00612416
-0.00637474
-0.00662753
-0.00688358
-0.00714316
-0.0074058
-0.00767039
-0.00793517
-0.00819782
-0.0084555
-0.0087049
-0.00894231
-0.00916364
-0.00936452
-0.00954037
-0.00968643
-0.00979791
-0.00987004
-0.00989814
-0.00987781
-0.00980496
-0.009676
-0.00948792
-0.00923843
-0.00892612
-0.00855057
-0.00811247
-0.00761374
-0.00705764
-0.00644884
-0.00579345
-0.00509908
-0.00437476
-0.00363089
-0.00287914
-0.00213219
-0.00140357
-0.000707286
-5.75128e-05
0.000531824
0.00104748
0.00147732
0.00181078
0.00203926
0.00215648
0.00215877
0.00204524
0.00181785
0.00148133
0.00104306
0.00051269
-9.81786e-05
-0.000776527
-0.00150879
-0.00228105
-0.00307492
-0.00387315
-0.00472461
-0.00567455
-0.00160301
-0.002479
-0.00316064
-0.00370885
-0.0041974
-0.00463259
-0.00501982
-0.00536884
-0.00568871
-0.00598726
-0.00627129
-0.00654662
-0.00681805
-0.00708937
-0.00736338
-0.007642
-0.00792626
-0.00821639
-0.00851188
-0.00881149
-0.00911334
-0.00941494
-0.00971325
-0.0100047
-0.0102853
-0.0105507
-0.0107961
-0.0110165
-0.0112066
-0.0113612
-0.0114749
-0.0115425
-0.0115587
-0.0115189
-0.0114187
-0.0112543
-0.0110226
-0.0107215
-0.0103497
-0.00990718
-0.0093953
-0.00881674
-0.00817574
-0.00747818
-0.00673157
-0.00594513
-0.00512966
-0.00429749
-0.00346228
-0.0026388
-0.00184258
-0.00108961
-0.000395794
0.000223427
0.000753652
0.00118202
0.0014977
0.00169237
0.00176056
0.00169991
0.00151135
0.00119902
0.000770191
0.000234872
-0.000394538
-0.00110386
-0.00187812
-0.00270182
-0.00355445
-0.00441677
-0.00534213
-0.00637971
-0.00249451
-0.00338151
-0.00407202
-0.00462793
-0.0051242
-0.00556751
-0.00596358
-0.00632256
-0.00665386
-0.00696558
-0.00726481
-0.00755755
-0.00784877
-0.00814235
-0.00844121
-0.00874728
-0.0090616
-0.00938437
-0.00971502
-0.0100522
-0.010394
-0.0107376
-0.0110799
-0.0114171
-0.0117448
-0.0120584
-0.0123528
-0.0126224
-0.0128616
-0.0130646
-0.0132253
-0.0133379
-0.0133965
-0.0133955
-0.0133298
-0.0131947
-0.0129863
-0.0127016
-0.0123383
-0.0118957
-0.0113743
-0.0107761
-0.0101047
-0.00936574
-0.0085664
-0.00771595
-0.0068255
-0.00590798
-0.00497795
-0.00405143
-0.00314554
-0.00227813
-0.0014673
-0.000730874
-8.58085e-05
0.000452415
0.00087039
0.00115734
0.00130562
0.00131105
0.00117317
0.000895279
0.000484313
-4.94657e-05
-0.00069291
-0.00143064
-0.00224618
-0.00312228
-0.00403611
-0.00496618
-0.00597071
-0.0071031
-0.00348022
-0.00437524
-0.00507248
-0.00563458
-0.00613743
-0.00658802
-0.00699242
-0.00736113
-0.00770387
-0.00802903
-0.00834393
-0.00865478
-0.00896668
-0.00928366
-0.00960869
-0.00994375
-0.0102899
-0.0106473
-0.0110154
-0.0113927
-0.0117771
-0.0121659
-0.0125555
-0.0129421
-0.0133209
-0.0136871
-0.014035
-0.0143588
-0.0146524
-0.0149092
-0.0151228
-0.0152863
-0.0153934
-0.0154376
-0.0154127
-0.0153134
-0.0151345
-0.0148721
-0.0145231
-0.0140857
-0.0135593
-0.0129453
-0.0122464
-0.0114678
-0.0106162
-0.00970083
-0.0087329
-0.00772583
-0.00669502
-0.00565767
-0.00463251
-0.00363935
-0.00269858
-0.00183066
-0.00105535
-0.000391112
0.000145681
0.000541386
0.000785719
0.000872253
0.000798747
0.000567298
0.000184259
-0.00034005
-0.000991805
-0.00175442
-0.00260981
-0.00353882
-0.00451605
-0.00551754
-0.0066067
-0.00784149
-0.0045607
-0.00546074
-0.00616255
-0.00672933
-0.00723759
-0.00769462
-0.00810681
-0.00848496
-0.00883911
-0.00917789
-0.00950886
-0.00983841
-0.0101718
-0.0105132
-0.0108656
-0.011231
-0.0116107
-0.0120046
-0.0124123
-0.0128321
-0.0132619
-0.0136987
-0.0141391
-0.0145786
-0.0150126
-0.0154356
-0.0158418
-0.0162248
-0.0165781
-0.0168945
-0.0171669
-0.0173878
-0.0175499
-0.0176459
-0.0176689
-0.0176122
-0.0174698
-0.0172366
-0.0169084
-0.0164822
-0.0159566
-0.0153316
-0.0146093
-0.0137939
-0.0128918
-0.0119117
-0.0108648
-0.00976499
-0.00862825
-0.00747294
-0.00631934
-0.00518926
-0.00410551
-0.00309134
-0.00216962
-0.00136212
-0.000688604
-0.00016606
0.000192103
0.000376694
0.000383219
0.000212144
-0.000131102
-0.00063638
-0.00128933
-0.00207216
-0.00296512
-0.003947
-0.00498953
-0.00606601
-0.00724543
-0.00859061
-0.00573597
-0.00663803
-0.00734228
-0.00791224
-0.00842473
-0.00888734
-0.00930674
-0.009694
-0.0100594
-0.0104119
-0.0107592
-0.0111079
-0.0114635
-0.01183
-0.0122108
-0.012608
-0.0130225
-0.0134547
-0.0139039
-0.0143684
-0.0148462
-0.015334
-0.0158281
-0.0163242
-0.0168171
-0.0173013
-0.0177704
-0.0182177
-0.0186361
-0.0190179
-0.0193553
-0.0196401
-0.0198641
-0.0200192
-0.0200973
-0.0200907
-0.0199924
-0.0197959
-0.0194958
-0.019088
-0.0185696
-0.0179397
-0.0171991
-0.0163512
-0.0154014
-0.014358
-0.0132321
-0.0120375
-0.0107908
-0.00951127
-0.00822077
-0.00694305
-0.00570343
-0.00452807
-0.00344323
-0.00247432
-0.00164494
-0.000975919
-0.000484354
-0.000182775
-7.84943e-05
-0.00017319
-0.000462789
-0.000937659
-0.00158309
-0.00238018
-0.00330743
-0.00434141
-0.00545072
-0.0066056
-0.00788104
-0.00934499
-0.00700552
-0.00790666
-0.00861126
-0.0091829
-0.00969847
-0.0101658
-0.0105918
-0.0109877
-0.0113642
-0.0117304
-0.0120941
-0.0124623
-0.0128404
-0.0132328
-0.0136427
-0.0140725
-0.0145232
-0.0149951
-0.0154874
-0.0159987
-0.0165266
-0.0170679
-0.0176189
-0.0181748
-0.0187304
-0.0192798
-0.0198163
-0.0203329
-0.0208218
-0.0212748
-0.0216834
-0.0220387
-0.0223316
-0.0225531
-0.0226939
-0.0227454
-0.0226992
-0.0225476
-0.0222837
-0.0219021
-0.0213986
-0.0207708
-0.0200184
-0.0191433
-0.0181502
-0.0170465
-0.0158428
-0.0145527
-0.0131933
-0.0117846
-0.0103498
-0.00891448
-0.00750655
-0.00615522
-0.0048903
-0.00374118
-0.00273575
-0.0018992
-0.00125293
-0.000813451
-0.00059155
-0.000591664
-0.000811611
-0.00124269
-0.00187012
-0.00267399
-0.00363106
-0.00471553
-0.00589258
-0.00712904
-0.0085063
-0.0100977
-0.00836829
-0.00926567
-0.0099686
-0.0105405
-0.011058
-0.0115291
-0.011961
-0.0123651
-0.0127523
-0.0131319
-0.0135121
-0.0138997
-0.0143005
-0.014719
-0.0151587
-0.0156217
-0.0161094
-0.016622
-0.0171589
-0.0177186
-0.0182986
-0.0188957
-0.0195061
-0.0201248
-0.0207465
-0.0213649
-0.0219732
-0.0225637
-0.0231282
-0.0236581
-0.0241441
-0.0245764
-0.0249453
-0.0252406
-0.0254521
-0.0255698
-0.0255841
-0.0254859
-0.025267
-0.0249203
-0.0244401
-0.0238225
-0.0230657
-0.0221703
-0.0211395
-0.0199799
-0.0187011
-0.0173167
-0.0158434
-0.014302
-0.0127167
-0.0111151
-0.00952729
-0.0079857
-0.00652385
-0.00517542
-0.00397297
-0.00294664
-0.00212275
-0.00152254
-0.00116099
-0.00104604
-0.00117803
-0.00154974
-0.00214669
-0.00294818
-0.00392924
-0.00506159
-0.00630666
-0.00762754
-0.00911241
-0.0108403
-0.0098227
-0.0107136
-0.011413
-0.0119837
-0.012502
-0.012976
-0.013413
-0.0138248
-0.0142222
-0.0146148
-0.0150109
-0.0154177
-0.0158411
-0.0162857
-0.0167551
-0.0172517
-0.0177769
-0.0183309
-0.0189133
-0.0195224
-0.020156
-0.0208108
-0.0214828
-0.0221669
-0.0228577
-0.0235486
-0.0242324
-0.0249012
-0.0255463
-0.0261584
-0.0267276
-0.0272434
-0.0276951
-0.0280716
-0.0283615
-0.0285537
-0.0286371
-0.0286013
-0.0284365
-0.028134
-0.0276863
-0.027088
-0.0263354
-0.0254275
-0.0243662
-0.0231566
-0.0218074
-0.0203311
-0.0187446
-0.0170688
-0.0153287
-0.0135534
-0.0117754
-0.0100302
-0.00835512
-0.00678833
-0.0053675
-0.00412821
-0.00310242
-0.00231682
-0.00179148
-0.00153864
-0.00156199
-0.00185639
-0.00240821
-0.00319624
-0.00419391
-0.00537033
-0.00668291
-0.0080906
-0.00968878
-0.0115624
-0.0113667
-0.0122487
-0.0129427
-0.013511
-0.014029
-0.0145049
-0.0149462
-0.0153647
-0.0157716
-0.0161765
-0.016588
-0.0170134
-0.0174588
-0.017929
-0.0184278
-0.0189578
-0.0195203
-0.0201159
-0.0207441
-0.0214035
-0.0220916
-0.0228053
-0.0235405
-0.0242922
-0.0250545
-0.0258207
-0.0265835
-0.0273345
-0.0280645
-0.0287637
-0.0294215
-0.0300269
-0.030568
-0.0310327
-0.0314087
-0.0316835
-0.0318448
-0.0318804
-0.031779
-0.0315303
-0.0311249
-0.0305555
-0.0298167
-0.0289055
-0.0278221
-0.02657
-0.0251564
-0.0235931
-0.0218959
-0.0200859
-0.0181885
-0.0162341
-0.0142573
-0.0122964
-0.0103928
-0.0085891
-0.00692851
-0.00545256
-0.00419947
-0.00320227
-0.00248699
-0.00207113
-0.00196264
-0.00215932
-0.00264899
-0.00341038
-0.00441549
-0.00563081
-0.00700943
-0.00850575
-0.0102228
-0.0122516
-0.0129976
-0.0138685
-0.0145555
-0.0151202
-0.0156369
-0.0161137
-0.0165584
-0.0169828
-0.0173981
-0.0178144
-0.0182402
-0.0186831
-0.0191495
-0.0196444
-0.0201716
-0.0207341
-0.0213334
-0.0219701
-0.0226439
-0.0233535