/*--------------------------------*- C++ -*----------------------------------*\
  =========                 |
  \\      /  F ield         | OpenFOAM: The Open Source CFD Toolbox
   \\    /   O peration     | Website:  https://openfoam.org
    \\  /    A nd           | Version:  dev
     \\/     M anipulation  |
\*---------------------------------------------------------------------------*/
FoamFile
{
    format      ascii;
    class       surfaceScalarField;
    location    "21.6";
    object      phi;
}
// * * * * * * * * * * * * * * * * * * * * * * * * * * * * * * * * * * * * * //

dimensions      [0 3 -1 0 0 0 0];

internalField   nonuniform List<scalar> 
10224
(
3.38567e-08
-3.47669e-08
8.78058e-08
-5.39523e-08
1.24279e-07
-3.64709e-08
1.2518e-07
-8.98981e-10
8.35238e-08
4.16555e-08
-1.9591e-09
8.54809e-08
-1.29444e-07
1.27485e-07
-2.95627e-07
1.66184e-07
-4.9645e-07
2.00823e-07
-7.27616e-07
2.31165e-07
-9.84857e-07
2.5724e-07
-1.26408e-06
2.79226e-07
-1.56146e-06
2.97376e-07
-1.87344e-06
3.11975e-07
-2.19674e-06
3.23304e-07
-2.52837e-06
3.31632e-07
-2.86557e-06
3.37195e-07
-3.20576e-06
3.40193e-07
-3.54655e-06
3.40787e-07
-3.88565e-06
3.391e-07
-4.22087e-06
3.35218e-07
-4.55006e-06
3.29192e-07
-4.87111e-06
3.21048e-07
-5.18189e-06
3.10789e-07
-5.4803e-06
2.98402e-07
-5.76416e-06
2.83868e-07
-6.03133e-06
2.67163e-07
-6.2796e-06
2.48271e-07
-6.50679e-06
2.27189e-07
-6.71072e-06
2.03929e-07
-6.88925e-06
1.7853e-07
-7.04031e-06
1.5106e-07
-7.16193e-06
1.2162e-07
-7.25228e-06
9.03501e-08
-7.30971e-06
5.74303e-08
-7.33279e-06
2.30827e-08
-7.32036e-06
-1.24275e-08
-7.27157e-06
-4.87922e-08
-7.18591e-06
-8.56621e-08
-7.06326e-06
-1.2265e-07
-6.90392e-06
-1.59337e-07
-6.70865e-06
-1.95273e-07
-6.47866e-06
-2.2999e-07
-6.21566e-06
-2.63004e-07
-5.92183e-06
-2.93829e-07
-5.59985e-06
-3.21982e-07
-5.25285e-06
-3.46999e-07
-4.88441e-06
-3.68441e-07
-4.4985e-06
-3.85907e-07
-4.09946e-06
-3.99041e-07
-3.69191e-06
-4.0755e-07
-3.28071e-06
-4.11203e-07
-2.87086e-06
-4.09846e-07
-2.46746e-06
-4.03403e-07
-2.07558e-06
-3.9188e-07
-1.7002e-06
-3.75376e-07
-1.34612e-06
-3.54076e-07
-1.01787e-06
-3.28254e-07
-7.19602e-07
-2.9827e-07
-4.55032e-07
-2.64572e-07
-2.27336e-07
-2.27696e-07
-3.90601e-08
-1.88275e-07
1.0799e-07
-1.47049e-07
2.12875e-07
-1.04884e-07
2.75704e-07
-6.28308e-08
2.97908e-07
-2.22043e-08
2.82659e-07
1.52503e-08
2.35546e-07
4.71139e-08
1.6562e-07
6.99239e-08
8.71615e-08
7.84551e-08
2.25332e-08
6.46268e-08
2.25317e-08
5.38871e-08
-8.86584e-08
1.12304e-07
-1.12363e-07
1.18001e-07
-4.21688e-08
3.86319e-08
7.84656e-08
-1.42184e-07
2.2247e-07
-4.29759e-07
3.73056e-07
-8.22322e-07
5.20048e-07
-1.31373e-06
6.57594e-07
-1.89543e-06
7.82521e-07
-2.55762e-06
8.93345e-07
-3.29001e-06
9.89633e-07
-4.08238e-06
1.07159e-06
-4.9248e-06
1.1398e-06
-5.80785e-06
1.19502e-06
-6.72265e-06
1.2381e-06
-7.66086e-06
1.26985e-06
-8.6147e-06
1.29103e-06
-9.57682e-06
1.30231e-06
-1.05403e-05
1.30424e-06
-1.14984e-05
1.29724e-06
-1.24448e-05
1.28163e-06
-1.33732e-05
1.25761e-06
-1.42775e-05
1.2253e-06
-1.51515e-05
1.18475e-06
-1.5989e-05
1.13596e-06
-1.67841e-05
1.07891e-06
-1.75305e-05
1.01356e-06
-1.82221e-05
9.39931e-07
-1.8853e-05
8.58051e-07
-1.94171e-05
7.6804e-07
-1.99087e-05
6.701e-07
-2.03222e-05
5.64543e-07
-2.06523e-05
4.518e-07
-2.08944e-05
3.3244e-07
-2.10442e-05
2.07176e-07
-2.1098e-05
7.68719e-08
-2.10529e-05
-5.74587e-08
-2.09071e-05
-1.94653e-07
-2.06593e-05
-3.33404e-07
-2.03097e-05
-4.72277e-07
-1.98593e-05
-6.0972e-07
-1.93105e-05
-7.44089e-07
-1.86668e-05
-8.73671e-07
-1.79331e-05
-9.96711e-07
-1.71155e-05
-1.11145e-06
-1.62213e-05
-1.21614e-06
-1.52592e-05
-1.30912e-06
-1.42388e-05
-1.38881e-06
-1.3171e-05
-1.45378e-06
-1.20672e-05
-1.50277e-06
-1.094e-05
-1.53473e-06
-9.8024e-06
-1.54884e-06
-8.66767e-06
-1.54458e-06
-7.54939e-06
-1.52168e-06
-6.46106e-06
-1.48021e-06
-5.41591e-06
-1.42053e-06
-4.42662e-06
-1.34336e-06
-3.50515e-06
-1.24973e-06
-2.66242e-06
-1.141e-06
-1.90813e-06
-1.01887e-06
-1.25044e-06
-8.85381e-07
-6.95766e-07
-7.42954e-07
-2.484e-07
-5.94414e-07
8.98043e-08
-4.43086e-07
3.19917e-07
-2.92942e-07
4.46528e-07
-1.48819e-07
4.78619e-07
-1.68458e-08
4.30651e-07
9.50795e-08
3.24048e-07
1.76531e-07
1.88797e-07
2.13713e-07
6.43248e-08
1.89097e-07
8.6857e-08
3.73003e-08
-1.25956e-07
4.31951e-08
-1.18256e-07
-4.34661e-08
4.44912e-08
-2.58915e-07
2.93912e-07
-6.22737e-07
5.86291e-07
-1.14203e-06
8.92352e-07
-1.81506e-06
1.19308e-06
-2.63417e-06
1.4767e-06
-3.588e-06
1.73635e-06
-4.66303e-06
1.96837e-06
-5.8447e-06
2.1713e-06
-7.11813e-06
2.34503e-06
-8.46864e-06
2.4903e-06
-9.88198e-06
2.60836e-06
-1.13445e-05
2.70066e-06
-1.28434e-05
2.7687e-06
-1.43663e-05
2.81391e-06
-1.59015e-05
2.83756e-06
-1.7438e-05
2.84071e-06
-1.8965e-05
2.82424e-06
-2.04721e-05
2.78878e-06
-2.19493e-05
2.73478e-06
-2.33865e-05
2.66253e-06
-2.4774e-05
2.57217e-06
-2.61018e-05
2.46377e-06
-2.73602e-05
2.33735e-06
-2.85396e-05
2.19294e-06
-2.96303e-05
2.03063e-06
-3.06229e-05
1.85061e-06
-3.1508e-05
1.65322e-06
-3.22769e-05
1.43897e-06
-3.2921e-05
1.20862e-06
-3.34324e-05
9.63182e-07
-3.38039e-05
7.03931e-07
-3.40291e-05
4.32453e-07
-3.41029e-05
1.50641e-07
-3.40211e-05
-1.39304e-07
-3.37808e-05
-4.34878e-07
-3.33809e-05
-7.33291e-07
-3.28217e-05
-1.03149e-06
-3.21053e-05
-1.32619e-06
-3.12354e-05
-1.61394e-06
-3.0218e-05
-1.89112e-06
-2.90606e-05
-2.15407e-06
-2.77729e-05
-2.39911e-06
-2.63665e-05
-2.62262e-06
-2.48544e-05
-2.82113e-06
-2.32519e-05
-2.99136e-06
-2.15753e-05
-3.13036e-06
-1.98426e-05
-3.23551e-06
-1.80727e-05
-3.30465e-06
-1.62854e-05
-3.33613e-06
-1.45011e-05
-3.32884e-06
-1.27405e-05
-3.28229e-06
-1.10241e-05
-3.19663e-06
-9.37193e-06
-3.07268e-06
-7.80333e-06
-2.91196e-06
-6.33638e-06
-2.71668e-06
-4.9876e-06
-2.48977e-06
-3.77159e-06
-2.23488e-06
-2.70057e-06
-1.95639e-06
-1.78403e-06
-1.6595e-06
-1.02818e-06
-1.35026e-06
-4.35505e-07
-1.03576e-06
-4.10065e-09
-7.24344e-07
2.73087e-07
-4.26004e-07
4.09112e-07
-1.52873e-07
4.24193e-07
7.99948e-08
3.46931e-07
2.5379e-07
2.15494e-07
3.45148e-07
7.8565e-08
3.26032e-07
1.6542e-07
1.87305e-09
-1.27828e-07
-7.90202e-08
-3.7367e-08
-2.97694e-07
2.63164e-07
-6.87834e-07
6.84053e-07
-1.26773e-06
1.16619e-06
-2.04364e-06
1.66826e-06
-3.01277e-06
2.16221e-06
-4.16587e-06
2.6298e-06
-5.48933e-06
3.05981e-06
-6.96686e-06
3.44589e-06
-8.5806e-06
3.78505e-06
-1.03121e-05
4.07654e-06
-1.21429e-05
4.32107e-06
-1.40548e-05
4.52024e-06
-1.60302e-05
4.67608e-06
-1.80522e-05
4.79077e-06
-2.01048e-05
4.86645e-06
-2.21723e-05
4.90507e-06
-2.42399e-05
4.9083e-06
-2.62931e-05
4.87749e-06
-2.83181e-05
4.8137e-06
-3.0301e-05
4.71767e-06
-3.22284e-05
4.58992e-06
-3.4087e-05
4.43076e-06
-3.58636e-05
4.24038e-06
-3.75451e-05
4.01892e-06
-3.91187e-05
3.76654e-06
-4.05716e-05
3.48352e-06
-4.18913e-05
3.1703e-06
-4.30657e-05
2.82759e-06
-4.40831e-05
2.45641e-06
-4.49327e-05
2.05814e-06
-4.56041e-05
1.63462e-06
-4.60883e-05
1.18811e-06
-4.63772e-05
7.21397e-07
-4.64643e-05
2.37748e-07
-4.63446e-05
-2.59056e-07
-4.60147e-05
-7.64745e-07
-4.54734e-05
-1.27458e-06
-4.47215e-05
-1.78342e-06
-4.37619e-05
-2.28573e-06
-4.26002e-05
-2.7757e-06
-4.1244e-05
-3.24733e-06
-3.97035e-05
-3.69449e-06
-3.79916e-05
-4.11105e-06
-3.61232e-05
-4.49101e-06
-3.41157e-05
-4.8286e-06
-3.19887e-05
-5.11841e-06
-2.97635e-05
-5.35553e-06
-2.74634e-05
-5.53567e-06
-2.51128e-05
-5.65526e-06
-2.27373e-05
-5.71156e-06
-2.03634e-05
-5.70277e-06
-1.80176e-05
-5.62811e-06
-1.57264e-05
-5.48786e-06
-1.35156e-05
-5.28343e-06
-1.14102e-05
-5.01739e-06
-9.43334e-06
-4.69351e-06
-7.60639e-06
-4.31672e-06
-5.94806e-06
-3.89322e-06
-4.47402e-06
-3.43043e-06
-3.19639e-06
-2.93713e-06
-2.12314e-06
-2.42352e-06
-1.25746e-06
-1.90144e-06
-5.97124e-07
-1.38468e-06
-1.33699e-07
-8.89429e-07
1.48286e-07
-4.3486e-07
2.7227e-07
-4.3991e-08
2.70687e-07
2.55377e-07
1.85992e-07
4.29842e-07
7.21195e-08
4.39909e-07
2.37539e-07
-4.20627e-08
-8.57661e-08
-2.30002e-07
1.50569e-07
-6.0638e-07
6.3954e-07
-1.19775e-06
1.27542e-06
-2.01782e-06
1.98627e-06
-3.06977e-06
2.72021e-06
-4.34841e-06
3.44084e-06
-5.84229e-06
4.12368e-06
-7.53558e-06
4.7531e-06
-9.40947e-06
5.31979e-06
-1.14434e-05
5.81901e-06
-1.36161e-05
6.24916e-06
-1.59057e-05
6.61074e-06
-1.8291e-05
6.90556e-06
-2.07511e-05
7.13614e-06
-2.32657e-05
7.30533e-06
-2.58152e-05
7.41595e-06
-2.83807e-05
7.47062e-06
-3.0944e-05
7.47164e-06
-3.34874e-05
7.42089e-06
-3.59936e-05
7.31988e-06
-3.84457e-05
7.16971e-06
-4.08269e-05
6.97116e-06
-4.31209e-05
6.72477e-06
-4.53114e-05
6.43091e-06
-4.73824e-05
6.08992e-06
-4.93181e-05
5.70218e-06
-5.11028e-05
5.26826e-06
-5.27215e-05
4.789e-06
-5.41595e-05
4.26561e-06
-5.54029e-05
3.69978e-06
-5.64385e-05
3.09375e-06
-5.72543e-05
2.45038e-06
-5.78394e-05
1.77321e-06
-5.81845e-05
1.06649e-06
-5.82819e-05
3.35198e-07
-5.8126e-05
-4.1497e-07
-5.77132e-05
-1.1776e-06
-5.70421e-05
-1.94562e-06
-5.61142e-05
-2.71136e-06
-5.49333e-05
-3.46664e-06
-5.35061e-05
-4.20285e-06
-5.18423e-05
-4.91114e-06
-4.99543e-05
-5.58247e-06
-4.78575e-05
-6.20785e-06
-4.55701e-05
-6.77845e-06
-4.31129e-05
-7.28581e-06
-4.05093e-05
-7.72203e-06
-3.77849e-05
-8.07989e-06
-3.49674e-05
-8.35312e-06
-3.20862e-05
-8.5365e-06
-2.91717e-05
-8.62602e-06
-2.62554e-05
-8.61907e-06
-2.3369e-05
-8.51451e-06
-2.05441e-05
-8.31278e-06
-1.78116e-05
-8.01599e-06
-1.5201e-05
-7.62797e-06
-1.27402e-05
-7.15428e-06
-1.04546e-05
-6.60229e-06
-8.36667e-06
-5.98119e-06
-6.4951e-06
-5.30201e-06
-4.8545e-06
-4.57773e-06
-3.45461e-06
-3.82341e-06
-2.29966e-06
-3.05639e-06
-1.38771e-06
-2.29664e-06
-7.09913e-07
-1.56722e-06
-2.49834e-07
-8.94936e-07
1.73537e-08
-3.11179e-07
1.25668e-07
1.47061e-07
1.19209e-07
4.36298e-07
5.35643e-08
5.05555e-07
2.91104e-07
-8.94133e-08
3.64609e-09
-3.95186e-07
4.56343e-07
-9.44658e-07
1.18901e-06
-1.75438e-06
2.08515e-06
-2.83114e-06
3.06303e-06
-4.17318e-06
4.06224e-06
-5.77163e-06
5.03929e-06
-7.61213e-06
5.96418e-06
-9.6762e-06
6.81717e-06
-1.19426e-05
7.58617e-06
-1.43882e-05
8.26465e-06
-1.69892e-05
8.85009e-06
-1.97211e-05
9.34267e-06
-2.25599e-05
9.74434e-06
-2.54818e-05
1.0058e-05
-2.84636e-05
1.02872e-05
-3.1483e-05
1.04353e-05
-3.4518e-05
1.05056e-05
-3.75474e-05
1.05011e-05
-4.05506e-05
1.04241e-05
-4.35073e-05
1.02766e-05
-4.63977e-05
1.00601e-05
-4.92023e-05
9.77579e-06
-5.19019e-05
9.42433e-06
-5.44774e-05
9.00641e-06
-5.69101e-05
8.52262e-06
-5.91816e-05
7.97366e-06
-6.12738e-05
7.36051e-06
-6.31693e-05
6.68449e-06
-6.48512e-05
5.9475e-06
-6.63035e-05
5.15206e-06
-6.75112e-05
4.30143e-06
-6.84605e-05
3.39975e-06
-6.91394e-05
2.45203e-06
-6.95371e-05
1.46427e-06
-6.96454e-05
4.43427e-07
-6.94578e-05
-6.02576e-07
-6.89705e-05
-1.66487e-06
-6.81824e-05
-2.7337e-06
-6.70953e-05
-3.79854e-06
-6.57137e-05
-4.84816e-06
-6.40457e-05
-5.87084e-06
-6.21024e-05
-6.85445e-06
-5.98982e-05
-7.78671e-06
-5.74507e-05
-8.65536e-06
-5.47807e-05
-9.44843e-06
-5.19121e-05
-1.01544e-05
-4.88716e-05
-1.07626e-05
-4.56884e-05
-1.12631e-05
-4.23941e-05
-1.16474e-05
-3.9022e-05
-1.19086e-05
-3.5607e-05
-1.2041e-05
-3.21849e-05
-1.20412e-05
-2.87919e-05
-1.19075e-05
-2.5464e-05
-1.16407e-05
-2.22365e-05
-1.12435e-05
-1.91433e-05
-1.07212e-05
-1.62163e-05
-1.00813e-05
-1.34846e-05
-9.33398e-06
-1.0974e-05
-8.49175e-06
-8.70633e-06
-7.56967e-06
-6.69862e-06
-6.58544e-06
-4.96256e-06
-5.55946e-06
-3.50381e-06
-4.51514e-06
-2.32135e-06
-3.4791e-06
-1.40683e-06
-2.48175e-06
-7.43958e-07
-1.55781e-06
-3.07932e-07
-7.47204e-07
-6.48169e-08
-9.60581e-08
2.91014e-08
3.42378e-07
2.82261e-08
5.06428e-07
3.1933e-07
-1.37579e-07
1.41225e-07
-5.66006e-07
8.84772e-07
-1.29672e-06
1.91972e-06
-2.33479e-06
3.12321e-06
-3.6785e-06
4.40675e-06
-5.31981e-06
5.70355e-06
-7.24509e-06
6.96457e-06
-9.43625e-06
8.15534e-06
-1.18717e-05
9.25267e-06
-1.45276e-05
1.0242e-05
-1.73783e-05
1.11153e-05
-2.03975e-05
1.18692e-05
-2.35583e-05
1.25036e-05
-2.68344e-05
1.30204e-05
-3.01995e-05
1.34231e-05
-3.36279e-05
1.37156e-05
-3.70946e-05
1.3902e-05
-4.05753e-05
1.39863e-05
-4.4046e-05
1.39718e-05
-4.74837e-05
1.38617e-05
-5.08653e-05
1.36583e-05
-5.41686e-05
1.33634e-05
-5.73714e-05
1.29786e-05
-6.0452e-05
1.25049e-05
-6.33889e-05
1.19433e-05
-6.6161e-05
1.12947e-05
-6.87476e-05
1.05603e-05
-7.11285e-05
9.74134e-06
-7.32839e-05
8.83996e-06
-7.51952e-05
7.85878e-06
-7.68445e-05
6.80132e-06
-7.82151e-05
5.67207e-06
-7.92919e-05
4.47658e-06
-8.00615e-05
3.22159e-06
-8.05123e-05
1.91504e-06
-8.06349e-05
5.66113e-07
-8.04227e-05
-8.14778e-07
-7.98716e-05
-2.21603e-06
-7.89803e-05
-3.62494e-06
-7.77511e-05
-5.02781e-06
-7.61891e-05
-6.41009e-06
-7.43034e-05
-7.75657e-06
-7.21063e-05
-9.05158e-06
-6.96137e-05
-1.02793e-05
-6.68453e-05
-1.14238e-05
-6.3824e-05
-1.24697e-05
-6.05763e-05
-1.34021e-05
-5.71317e-05
-1.42072e-05
-5.35224e-05
-1.48723e-05
-4.97835e-05
-1.53864e-05
-4.59517e-05
-1.57403e-05
-4.20658e-05
-1.59269e-05
-3.81653e-05
-1.59416e-05
-3.42906e-05
-1.57823e-05
-3.04816e-05
-1.54497e-05
-2.67776e-05
-1.49475e-05
-2.32165e-05
-1.42823e-05
-1.98339e-05
-1.34639e-05
-1.66626e-05
-1.25053e-05
-1.37316e-05
-1.14227e-05
-1.10658e-05
-1.02355e-05
-8.68483e-06
-8.96641e-06
-6.60263e-06
-7.64167e-06
-4.82674e-06
-6.29102e-06
-3.35768e-06
-4.94817e-06
-2.18835e-06
-3.65108e-06
-1.30358e-06
-2.44258e-06
-6.79656e-07
-1.37112e-06
-2.83995e-07
-4.9172e-07
-7.47774e-08
1.33162e-07
-6.51144e-10
4.323e-07
3.18678e-07
-1.85313e-07
3.26538e-07
-7.37579e-07
1.43704e-06
-1.65279e-06
2.83494e-06
-2.92396e-06
4.39438e-06
-4.54e-06
6.02279e-06
-6.48559e-06
7.64914e-06
-8.74154e-06
9.22051e-06
-1.12853e-05
1.06991e-05
-1.40918e-05
1.20592e-05
-1.71342e-05
1.32844e-05
-2.03841e-05
1.43653e-05
-2.3813e-05
1.52981e-05
-2.73918e-05
1.60824e-05
-3.10918e-05
1.67204e-05
-3.48845e-05
1.72159e-05
-3.87422e-05
1.75733e-05
-4.26376e-05
1.77974e-05
-4.65441e-05
1.78927e-05
-5.04356e-05
1.78633e-05
-5.42866e-05
1.77127e-05
-5.80719e-05
1.74436e-05
-6.1767e-05
1.70585e-05
-6.53475e-05
1.65591e-05
-6.87894e-05
1.59468e-05
-7.2069e-05
1.5223e-05
-7.51632e-05
1.43889e-05
-7.80491e-05
1.34462e-05
-8.07045e-05
1.23968e-05
-8.3108e-05
1.12434e-05
-8.52389e-05
9.98973e-06
-8.70779e-05
8.64031e-06
-8.86069e-05
7.201e-06
-8.98092e-05
5.67896e-06
-9.06704e-05
4.08279e-06
-9.1178e-05
2.4226e-06
-9.13219e-05
7.09979e-07
-9.10947e-05
-1.04195e-06
-9.04921e-05
-2.81864e-06
-8.95128e-05
-4.60419e-06
-8.81592e-05
-6.38147e-06
-8.64369e-05
-8.13236e-06
-8.43555e-05
-9.83791e-06
-8.19285e-05
-1.14786e-05
-7.91729e-05
-1.30348e-05
-7.611e-05
-1.44867e-05
-7.27646e-05
-1.58151e-05
-6.91651e-05
-1.70016e-05
-6.53435e-05
-1.80288e-05
-6.13347e-05
-1.88811e-05
-5.71765e-05
-1.95446e-05
-5.29091e-05
-2.00077e-05
-4.85743e-05
-2.02617e-05
-4.42154e-05
-2.03005e-05
-3.98762e-05
-2.01215e-05
-3.56005e-05
-1.97254e-05
-3.14314e-05
-1.91166e-05
-2.74105e-05
-1.83032e-05
-2.35771e-05
-1.72973e-05
-1.99675e-05
-1.61149e-05
-1.66142e-05
-1.4776e-05
-1.35451e-05
-1.33046e-05
-1.07827e-05
-1.17287e-05
-8.34376e-06
-1.00806e-05
-6.23802e-06
-8.39676e-06
-4.46814e-06
-6.71805e-06
-3.02897e-06
-5.09024e-06
-1.90723e-06
-3.56432e-06
-1.08117e-06
-2.19718e-06
-5.20462e-07
-1.05243e-06
-1.86201e-07
-2.01097e-07
-3.11149e-08
2.77214e-07
2.87562e-07
-2.31978e-07
5.58516e-07
-9.07151e-07
2.11221e-06
-2.00691e-06
3.93469e-06
-3.51219e-06
5.89966e-06
-5.40213e-06
7.91272e-06
-7.65359e-06
9.9006e-06
-1.02412e-05
1.18081e-05
-1.31374e-05
1.35953e-05
-1.63132e-05
1.5235e-05
-1.97384e-05
1.67095e-05
-2.3382e-05
1.8009e-05
-2.72129e-05
1.9129e-05
-3.11999e-05
2.00694e-05
-3.53122e-05
2.08327e-05
-3.95195e-05
2.14231e-05
-4.37919e-05
2.18457e-05
-4.81002e-05
2.21058e-05
-5.2416e-05
2.22085e-05
-5.6711e-05
2.21584e-05
-6.0958e-05
2.19596e-05
-6.51297e-05
2.16154e-05
-6.91996e-05
2.11284e-05
-7.31413e-05
2.05008e-05
-7.69289e-05
1.97344e-05
-8.05368e-05
1.88309e-05
-8.394e-05
1.77921e-05
-8.71137e-05
1.66199e-05
-9.00342e-05
1.53172e-05
-9.2678e-05
1.38873e-05
-9.50233e-05
1.2335e-05
-9.7049e-05
1.0666e-05
-9.87356e-05
8.88761e-06
-0.000100065
7.0088e-06
-0.000101023
5.04014e-06
-0.000101594
2.99402e-06
-0.000101769
8.84639e-07
-0.000101539
-1.27203e-06
-0.000100899
-3.45829e-06
-9.98484e-05
-5.65486e-06
-9.83889e-05
-7.841e-06
-9.65265e-05
-9.99476e-06
-9.42712e-05
-1.20932e-05
-9.1637e-05
-1.41129e-05
-8.86419e-05
-1.60298e-05
-8.53084e-05
-1.78203e-05
-8.16626e-05
-1.94609e-05
-7.77347e-05
-2.09294e-05
-7.35588e-05
-2.22048e-05
-6.91719e-05
-2.32679e-05
-6.46146e-05
-2.41019e-05
-5.99296e-05
-2.46927e-05
-5.5162e-05
-2.50293e-05
-5.03582e-05
-2.51043e-05
-4.55656e-05
-2.49142e-05
-4.08314e-05
-2.44596e-05
-3.62025e-05
-2.37455e-05
-3.17242e-05
-2.27815e-05
-2.74396e-05
-2.1582e-05
-2.33886e-05
-2.0166e-05
-1.96072e-05
-1.85574e-05
-1.61268e-05
-1.6785e-05
-1.29731e-05
-1.48824e-05
-1.01658e-05
-1.28879e-05
-7.71763e-06
-1.0845e-05
-5.6338e-06
-8.80188e-06
-3.91175e-06
-6.81229e-06
-2.54071e-06
-4.93536e-06
-1.50157e-06
-3.23633e-06
-7.66926e-07
-1.78708e-06
-3.01358e-07
-6.66665e-07
-6.20652e-08
3.79225e-08
2.25496e-07
-2.77296e-07
8.35812e-07
-1.07319e-06
2.90811e-06
-2.35542e-06
5.21692e-06
-4.09317e-06
7.63741e-06
-6.25573e-06
1.00753e-05
-8.81187e-06
1.24567e-05
-1.17295e-05
1.47258e-05
-1.4976e-05
1.68418e-05
-1.85179e-05
1.87769e-05
-2.23214e-05
2.05131e-05
-2.63528e-05
2.20403e-05
-3.05783e-05
2.33545e-05
-3.49647e-05
2.44558e-05
-3.94791e-05
2.53471e-05
-4.40893e-05
2.60333e-05
-4.87638e-05
2.65202e-05
-5.34717e-05
2.68137e-05
-5.81827e-05
2.69194e-05
-6.2867e-05
2.68428e-05
-6.74956e-05
2.65881e-05
-7.20395e-05
2.61593e-05
-7.64705e-05
2.55593e-05
-8.07605e-05
2.47908e-05
-8.48819e-05
2.38558e-05
-8.88075e-05
2.27565e-05
-9.25104e-05
2.1495e-05
-9.59645e-05
2.0074e-05
-9.91442e-05
1.84969e-05
-0.000102025
1.6768e-05
-0.000104583
1.4893e-05
-0.000106796
1.28791e-05
-0.000108643
1.0735e-05
-0.000110106
8.47155e-06
-0.000111167
6.10143e-06
-0.000111813
3.63943e-06
-0.000112031
1.10244e-06
-0.000111812
-1.49056e-06
-0.000111152
-4.11861e-06
-0.000110048
-6.75887e-06
-0.000108502
-9.38683e-06
-0.00010652
-1.19765e-05
-0.000104112
-1.4501e-05
-0.000101293
-1.69322e-05
-9.80808e-05
-1.92421e-05
-9.44987e-05
-2.14024e-05
-9.0574e-05
-2.33856e-05
-8.63384e-05
-2.51651e-05
-8.18273e-05
-2.67159e-05
-7.708e-05
-2.80152e-05
-7.2139e-05
-2.90428e-05
-6.705e-05
-2.97818e-05
-6.18605e-05
-3.02187e-05
-5.66203e-05
-3.03445e-05
-5.13799e-05
-3.01546e-05
-4.61903e-05
-2.96491e-05
-4.1102e-05
-2.88338e-05
-3.6164e-05
-2.77195e-05
-3.14233e-05
-2.63226e-05
-2.69238e-05
-2.46655e-05
-2.27053e-05
-2.27759e-05
-1.88029e-05
-2.06874e-05
-1.5246e-05
-1.84393e-05
-1.20577e-05
-1.60762e-05
-9.25398e-06
-1.36486e-05
-6.84343e-06
-1.12124e-05
-4.8265e-06
-8.82922e-06
-3.19548e-06
-6.56638e-06
-1.93438e-06
-4.49742e-06
-1.01916e-06
-2.7023e-06
-4.18138e-07
-1.26769e-06
-9.29485e-08
-2.87267e-07
1.32548e-07
-3.21154e-07
1.15696e-06
-1.23485e-06
3.8218e-06
-2.69609e-06
6.67816e-06
-4.6628e-06
9.60412e-06
-7.09455e-06
1.2507e-05
-9.95191e-06
1.53141e-05
-1.31961e-05
1.79699e-05
-1.67888e-05
2.04345e-05
-2.0692e-05
2.26801e-05
-2.48684e-05
2.46894e-05
-2.9281e-05
2.64529e-05
-3.38936e-05
2.79671e-05
-3.86707e-05
2.92329e-05
-4.35776e-05
3.0254e-05
-4.85804e-05
3.10361e-05
-5.36459e-05
3.15857e-05
-5.87417e-05
3.19094e-05
-6.3836e-05
3.20137e-05
-6.88976e-05
3.19044e-05
-7.38958e-05
3.15864e-05
-7.88005e-05
3.1064e-05
-8.35818e-05
3.03406e-05
-8.82102e-05
2.94192e-05
-9.26566e-05
2.83023e-05
-9.68924e-05
2.69922e-05
-0.000100889
2.54918e-05
-0.000104619
2.38043e-05
-0.000108056
2.19336e-05
-0.000111173
1.98852e-05
-0.000113946
1.76657e-05
-0.000116351
1.52837e-05
-0.000118365
1.27495e-05
-0.00011997
1.00758e-05
-0.000121146
7.27749e-06
-0.000121878
4.37176e-06
-0.000122154
1.37832e-06
-0.000121964
-1.6808e-06
-0.000121301
-4.78123e-06
-0.000120163
-7.8965e-06
-0.000118552
-1.09982e-05
-0.000116472
-1.40562e-05
-0.000113934
-1.70391e-05
-0.000110952
-1.99146e-05
-0.000107544
-2.26499e-05
-0.000103734
-2.52122e-05
-9.95506e-05
-2.75693e-05
-9.50256e-05
-2.96901e-05
-9.01961e-05
-3.15454e-05
-8.5103e-05
-3.31084e-05
-7.97908e-05
-3.4355e-05
-7.43074e-05
-3.52652e-05
-6.87033e-05
-3.58229e-05
-6.30309e-05
-3.60169e-05
-5.73444e-05
-3.58411e-05
-5.16981e-05
-3.52954e-05
-4.61464e-05
-3.43855e-05
-4.07423e-05
-3.31235e-05
-3.5537e-05
-3.15279e-05
-3.05784e-05
-2.96241e-05
-2.59107e-05
-2.74437e-05
-2.1573e-05
-2.50251e-05
-1.75989e-05
-2.24134e-05
-1.40153e-05
-1.96597e-05
-1.08423e-05
-1.68217e-05
-8.09197e-06
-1.39628e-05
-5.76839e-06
-1.11528e-05
-3.86739e-06
-8.46739e-06
-2.37647e-06
-5.98834e-06
-1.27517e-06
-3.80361e-06
-5.35613e-07
-2.00724e-06
-1.23561e-07
-6.9932e-07
8.98821e-09
-3.63513e-07
1.52048e-06
-1.39165e-06
4.84993e-06
-3.02753e-06
8.31405e-06
-5.21833e-06
1.17949e-05
-7.91418e-06
1.52029e-05
-1.10676e-05
1.84675e-05
-1.46328e-05
2.15352e-05
-1.8566e-05
2.43677e-05
-2.28245e-05
2.69386e-05
-2.73671e-05
2.9232e-05
-3.21537e-05
3.12395e-05
-3.71455e-05
3.29589e-05
-4.23048e-05
3.43922e-05
-4.7595e-05
3.55442e-05
-5.29806e-05
3.64217e-05
-5.84269e-05
3.7032e-05
-6.39002e-05
3.73827e-05
-6.93673e-05
3.74809e-05
-7.47959e-05
3.7333e-05
-8.0154e-05
3.69445e-05
-8.54102e-05
3.63201e-05
-9.05333e-05
3.54638e-05
-9.54927e-05
3.43786e-05
-0.000100258
3.30676e-05
-0.000104799
3.15335e-05
-0.000109087
2.97795e-05
-0.000113092
2.78095e-05
-0.000116787
2.56282e-05
-0.000120143
2.32417e-05
-0.000123136
2.06581e-05
-0.000125739
1.7887e-05
-0.00012793
1.49405e-05
-0.000129687
1.18331e-05
-0.000130992
8.58188e-06
-0.000131826
5.20656e-06
-0.000132178
1.72962e-06
-0.000132035
-1.82376e-06
-0.00013139
-5.42582e-06
-0.00013024
-9.04632e-06
-0.000128586
-1.26528e-05
-0.000126431
-1.6211e-05
-0.000123785
-1.9685e-05
-0.000120662
-2.30377e-05
-0.00011708
-2.62316e-05
-0.000113063
-2.9229e-05
-0.00010864
-3.19928e-05
-0.000103843
-3.44872e-05
-9.87097e-05
-3.66783e-05
-9.32834e-05
-3.85346e-05
-8.761e-05
-4.00285e-05
-8.17394e-05
-4.11358e-05
-7.57247e-05
-4.18376e-05
-6.96214e-05
-4.21201e-05
-6.34868e-05
-4.19757e-05
-5.73792e-05
-4.14031e-05
-5.13567e-05
-4.0408e-05
-4.54768e-05
-3.90034e-05
-3.97949e-05
-3.72098e-05
-3.43637e-05
-3.50553e-05
-2.92317e-05
-3.25756e-05
-2.44429e-05
-2.98139e-05
-2.00355e-05
-2.68209e-05
-1.60409e-05
-2.36544e-05
-1.24833e-05
-2.03792e-05
-9.37925e-06
-1.70668e-05
-6.73681e-06
-1.37952e-05
-4.5557e-06
-1.06485e-05
-2.82721e-06
-7.71682e-06
-1.5346e-06
-5.09622e-06
-6.53681e-07
-2.88816e-06
-1.5393e-07
-1.19907e-06
-1.44941e-07
-4.04357e-07
1.92483e-06
-1.54329e-06
5.98887e-06
-3.3488e-06
1.01195e-05
-5.75782e-06
1.42039e-05
-8.71141e-06
1.81565e-05
-1.21541e-05
2.19102e-05
-1.60336e-05
2.54147e-05
-2.03002e-05
2.86342e-05
-2.49066e-05
3.1545e-05
-2.98076e-05
3.4133e-05
-3.496e-05
3.63919e-05
-4.03224e-05
3.83213e-05
-4.5855e-05
3.99248e-05
-5.15193e-05
4.12086e-05
-5.72783e-05
4.21807e-05
-6.30959e-05
4.28496e-05
-6.89371e-05
4.32239e-05
-7.47678e-05
4.33116e-05
-8.05544e-05
4.31196e-05
-8.6264e-05
4.26541e-05
-9.1864e-05
4.19202e-05
-9.73224e-05
4.09222e-05
-0.000102607
3.96636e-05
-0.000107688
3.81477e-05
-0.000112532
3.63778e-05
-0.00011711
3.43574e-05
-0.000121391
3.20908e-05
-0.000125347
2.95837e-05
-0.000128948
2.68429e-05
-0.000132167
2.38776e-05
-0.000134979
2.06986e-05
-0.000137358
1.73198e-05
-0.000139283
1.37574e-05
-0.000140731
1.00306e-05
-0.000141687
6.16175e-06
-0.000142133
2.17598e-06
-0.000142058
-1.89837e-06
-0.000141454
-6.03007e-06
-0.000140315
-1.01851e-05
-0.000138641
-1.43271e-05
-0.000136435
-1.84171e-05
-0.000133705
-2.24148e-05
-0.000130464
-2.62783e-05
-0.000126731
-2.9965e-05
-0.000122528
-3.34321e-05
-0.000117883
-3.66373e-05
-0.000112831
-3.95396e-05
-0.000107409
-4.21001e-05
-0.000101661
-4.42826e-05
-9.5635e-05
-4.60546e-05
-8.93826e-05
-4.73882e-05
-8.29594e-05
-4.82608e-05
-7.64241e-05
-4.86555e-05
-6.98372e-05
-4.85626e-05
-6.32608e-05
-4.79794e-05
-5.67575e-05
-4.69113e-05
-5.0389e-05
-4.53718e-05
-4.42158e-05
-4.33831e-05
-3.82954e-05
-4.09758e-05
-3.26816e-05
-3.81894e-05
-2.74235e-05
-3.5072e-05
-2.25644e-05
-3.168e-05
-1.81409e-05
-2.80779e-05
-1.4182e-05
-2.43381e-05
-1.0709e-05
-2.05399e-05
-7.73438e-06
-1.67698e-05
-5.26223e-06
-1.31207e-05
-3.28785e-06
-9.6912e-06
-1.79826e-06
-6.58581e-06
-7.72811e-07
-3.9136e-06
-1.84232e-07
-1.78765e-06
-3.29173e-07
-4.43676e-07
2.36851e-06
-1.68957e-06
7.23476e-06
-3.65918e-06
1.20892e-05
-6.27979e-06
1.68246e-05
-9.48373e-06
2.13604e-05
-1.32079e-05
2.56344e-05
-1.73934e-05
2.96002e-05
-2.19849e-05
3.32258e-05
-2.69305e-05
3.64906e-05
-3.21811e-05
3.93836e-05
-3.76903e-05
4.19012e-05
-4.34142e-05
4.40452e-05
-4.93107e-05
4.58212e-05
-5.53397e-05
4.72375e-05
-6.14626e-05
4.83036e-05
-6.76422e-05
4.90292e-05
-7.38423e-05
4.94241e-05
-8.00279e-05
4.94971e-05
-8.61645e-05
4.92561e-05
-9.22182e-05
4.87078e-05
-9.81558e-05
4.78578e-05
-0.000103944
4.67106e-05
-0.000109551
4.52703e-05
-0.000114944
4.35404e-05
-0.00012009
4.15245e-05
-0.00012496
3.92266e-05
-0.00012952
3.66515e-05
-0.000133742
3.38055e-05
-0.000137595
3.06962e-05
-0.000141052
2.73338e-05
-0.000144083
2.37305e-05
-0.000146665
1.99015e-05
-0.000148773
1.58649e-05
-0.000150384
1.16419e-05
-0.000151479
7.25735e-06
-0.000152043
2.73907e-06
-0.000152059
-1.88151e-06
-0.00015152
-6.56976e-06
-0.000150417
-1.12879e-05
-0.000148749
-1.59954e-05
-0.000146517
-2.0649e-05
-0.000143728
-2.52035e-05
-0.000140394
-2.96121e-05
-0.000136532
-3.3827e-05
-0.000132164
-3.78e-05
-0.000127319
-4.14832e-05
-0.000122028
-4.48303e-05
-0.000116331
-4.77966e-05
-0.000110273
-5.03409e-05
-0.000103902
-5.24256e-05
-9.72723e-05
-5.4018e-05
-9.04417e-05
-5.50914e-05
-8.34716e-05
-5.56255e-05
-7.64264e-05
-5.56078e-05
-6.9372e-05
-5.50338e-05
-6.23754e-05
-5.39079e-05
-5.55035e-05
-5.22438e-05
-4.88217e-05
-5.00648e-05
-4.23932e-05
-4.74042e-05
-3.62776e-05
-4.4305e-05
-3.05296e-05
-4.082e-05
-2.51982e-05
-3.70114e-05
-2.03257e-05
-3.29504e-05
-1.59468e-05
-2.8717e-05
-1.20877e-05
-2.43989e-05
-8.7662e-06
-2.00913e-05
-5.99077e-06
-1.58961e-05
-3.76102e-06
-1.1921e-05
-2.06782e-06
-8.27902e-06
-8.93877e-07
-5.08754e-06
-2.14747e-07
-2.46678e-06
-5.4392e-07
-4.8145e-07
2.84996e-06
-1.83027e-06
8.58359e-06
-3.95808e-06
1.4217e-05
-6.78297e-06
1.96495e-05
-1.0229e-05
2.48064e-05
-1.42257e-05
2.96311e-05
-1.87079e-05
3.40823e-05
-2.36147e-05
3.81326e-05
-2.88896e-05
4.17655e-05
-3.44799e-05
4.49738e-05
-4.03359e-05
4.77572e-05
-4.64111e-05
5.01204e-05
-5.26616e-05
5.20717e-05
-5.90454e-05
5.36213e-05
-6.55226e-05
5.47808e-05
-7.20548e-05
5.55615e-05
-7.8605e-05
5.59743e-05
-8.51372e-05
5.60293e-05
-9.16162e-05
5.57351e-05
-9.80075e-05
5.50991e-05
-0.000104277
5.41273e-05
-0.000110391
5.28249e-05
-0.000116317
5.1196e-05
-0.000122021
4.92445e-05
-0.000127471
4.69743e-05
-0.000132634
4.43898e-05
-0.000137479
4.14962e-05
-0.000141974
3.83003e-05
-0.000146088
3.48106e-05
-0.000149792
3.10381e-05
-0.000153058
2.69961e-05
-0.000155858
2.27013e-05
-0.000158166
1.81734e-05
-0.00015996
1.34358e-05
-0.000161218
8.51523e-06
-0.000161921
3.44243e-06
-0.000162055
-1.74826e-06
-0.000161605
-7.01884e-06
-0.000160566
-1.23278e-05
-0.00015893
-1.76305e-05
-0.0001567
-2.28793e-05
-0.000153879
-2.80242e-05
-0.000150478
-3.30132e-05
-0.000146512
-3.77929e-05
-0.000142003
-4.23098e-05
-0.000136976
-4.651e-05
-0.000131465
-5.03411e-05
-0.000125509
-5.37529e-05
-0.000119152
-5.66979e-05
-0.000112444
-5.91331e-05
-0.000105442
-6.10207e-05
-9.82041e-05
-6.23289e-05
-9.07962e-05
-6.30335e-05
-8.32855e-05
-6.31184e-05
-7.57425e-05
-6.25768e-05
-6.82389e-05
-6.14115e-05
-6.08467e-05
-5.9636e-05
-5.36372e-05
-5.72743e-05
-4.66797e-05
-5.43618e-05
-4.00399e-05
-5.09449e-05
-3.37789e-05
-4.70809e-05
-2.79524e-05
-4.28379e-05
-2.26087e-05
-3.82941e-05
-1.77887e-05
-3.3537e-05
-1.35245e-05
-2.86631e-05
-9.83931e-06
-2.37766e-05
-6.74657e-06
-1.89888e-05
-4.2504e-06
-1.44171e-05
-2.34556e-06
-1.01839e-05
-1.01803e-06
-6.41507e-06
-2.45821e-07
-3.23898e-06
-7.89739e-07
-5.17643e-07
3.3676e-06
-1.96519e-06
1.00311e-05
-4.24489e-06
1.64967e-05
-7.26619e-06
2.26707e-05
-1.09453e-05
2.84855e-05
-1.52047e-05
3.38906e-05
-1.99731e-05
3.88507e-05
-2.51844e-05
4.33439e-05
-3.07778e-05
4.73588e-05
-3.66966e-05
5.08927e-05
-4.28884e-05
5.39491e-05
-4.93042e-05
5.65362e-05
-5.58978e-05
5.86653e-05
-6.26259e-05
6.03494e-05
-6.94473e-05
6.16021e-05
-7.63225e-05
6.24367e-05
-8.32137e-05
6.28656e-05
-9.00843e-05
6.28998e-05
-9.68983e-05
6.25492e-05
-0.000103621
6.18217e-05
-0.000110217
6.07239e-05
-0.000116654
5.92613e-05
-0.000122896
5.74385e-05
-0.000128911
5.52595e-05
-0.000134666
5.27286e-05
-0.000140126
4.98503e-05
-0.00014526
4.66304e-05
-0.000150036
4.3076e-05
-0.000154422
3.91962e-05
-0.000158387
3.50028e-05
-0.000161901
3.05103e-05
-0.000164936
2.57364e-05
-0.000167465
2.07025e-05
-0.000169463
1.54336e-05
-0.000170906
9.95878e-06
-0.000171775
4.31117e-06
-0.000172051
-1.47201e-06
-0.000171721
-7.34953e-06
-0.000170772
-1.32763e-05
-0.000169199
-1.92035e-05
-0.000166999
-2.50791e-05
-0.000164175
-3.08482e-05
-0.000160735
-3.64536e-05
-0.000156692
-4.18364e-05
-0.000152065
-4.69368e-05
-0.000146879
-5.16951e-05
-0.000141168
-5.60526e-05
-0.000134969
-5.99523e-05
-0.000128326
-6.33406e-05
-0.000121291
-6.61681e-05
-0.00011392
-6.8391e-05
-0.000106277
-6.99722e-05
-9.84281e-05
-7.08825e-05
-9.04449e-05
-7.11017e-05
-8.24021e-05
-7.06196e-05
-7.43767e-05
-6.9437e-05
-6.64463e-05
-6.75663e-05
-5.86885e-05
-6.50321e-05
-5.1179e-05
-6.18712e-05
-4.39907e-05
-5.81332e-05
-3.71917e-05
-5.38799e-05
-3.08447e-05
-4.9185e-05
-2.50052e-05
-4.41336e-05
-1.97208e-05
-3.88214e-05
-1.50301e-05
-3.33538e-05
-1.09621e-05
-2.78445e-05
-7.53594e-06
-2.2415e-05
-4.76037e-06
-1.71927e-05
-2.63421e-06
-1.231e-05
-1.14662e-06
-7.90266e-06
-2.77846e-07
-4.10775e-06
-1.06758e-06
-5.52201e-07
3.9198e-06
-2.09406e-06
1.1573e-05
-4.51899e-06
1.89216e-05
-7.72825e-06
2.588e-05
-1.16306e-05
3.23879e-05
-1.6142e-05
3.84019e-05
-2.11852e-05
4.38939e-05
-2.66892e-05
4.8848e-05
-3.2589e-05
5.32586e-05
-3.88243e-05
5.71281e-05
-4.53399e-05
6.04646e-05
-5.20842e-05
6.32805e-05
-5.90095e-05
6.55905e-05
-6.60706e-05
6.74106e-05
-7.32254e-05
6.87569e-05
-8.04335e-05
6.96448e-05
-8.76563e-05
7.00883e-05
-9.48565e-05
7.01001e-05
-0.000101998
6.96907e-05
-0.000109045
6.8869e-05