/*--------------------------------*- C++ -*----------------------------------*\
  =========                 |
  \\      /  F ield         | OpenFOAM: The Open Source CFD Toolbox
   \\    /   O peration     | Website:  https://openfoam.org
    \\  /    A nd           | Version:  dev
     \\/     M anipulation  |
\*---------------------------------------------------------------------------*/
FoamFile
{
    format      ascii;
    class       volScalarField;
    location    "21.6";
    object      Uy;
}
// * * * * * * * * * * * * * * * * * * * * * * * * * * * * * * * * * * * * * //

dimensions      [0 1 -1 0 0 0 0];

internalField   nonuniform List<scalar> 
5184
(
-1.26704e-05
-2.08493e-05
-1.72153e-05
-8.17231e-06
2.68351e-06
1.36221e-05
2.38424e-05
3.30362e-05
4.1086e-05
4.79975e-05
5.38324e-05
5.86754e-05
6.26189e-05
6.57542e-05
6.81659e-05
6.99292e-05
7.11084e-05
7.17558e-05
7.19122e-05
7.16074e-05
7.08606e-05
6.96824e-05
6.80755e-05
6.60372e-05
6.35602e-05
6.06347e-05
5.72504e-05
5.33976e-05
4.90692e-05
4.42623e-05
3.89794e-05
3.32296e-05
2.70302e-05
2.04071e-05
1.33961e-05
6.04263e-06
-1.59727e-06
-9.45725e-06
-1.74608e-05
-2.55219e-05
-3.35466e-05
-4.14334e-05
-4.90754e-05
-5.63615e-05
-6.31791e-05
-6.94164e-05
-7.49651e-05
-7.97223e-05
-8.35933e-05
-8.64942e-05
-8.83545e-05
-8.91194e-05
-8.87508e-05
-8.72285e-05
-8.45518e-05
-8.07402e-05
-7.58333e-05
-6.98899e-05
-6.29873e-05
-5.5221e-05
-4.67046e-05
-3.75714e-05
-2.79764e-05
-1.8102e-05
-8.1727e-06
1.51698e-06
1.05441e-05
1.82711e-05
2.36866e-05
2.51018e-05
1.98329e-05
6.24236e-06
-4.57992e-05
-6.55922e-05
-4.04512e-05
7.70862e-06
6.57092e-05
0.000125972
0.000184227
0.000238224
0.000286828
0.000329596
0.00036649
0.000397699
0.000423534
0.000444363
0.000460562
0.000472489
0.000480466
0.000484769
0.000485622
0.000483194
0.000477609
0.000468942
0.000457232
0.000442488
0.000424699
0.000403841
0.00037989
0.00035283
0.000322659
0.000289407
0.000253132
0.000213938
0.000171974
0.000127443
8.06039e-05
3.17756e-05
-1.86636e-05
-7.02762e-05
-0.000122568
-0.000174991
-0.000226954
-0.000277823
-0.00032694
-0.000373625
-0.000417196
-0.000456976
-0.000492315
-0.000522598
-0.000547266
-0.000565822
-0.000577856
-0.000583047
-0.00058118
-0.000572152
-0.000555978
-0.000532795
-0.000502869
-0.000466587
-0.000424464
-0.000377138
-0.000325376
-0.000270082
-0.000212317
-0.000153332
-9.46349e-05
-3.81033e-05
1.38089e-05
5.77963e-05
8.92697e-05
0.000101739
8.64369e-05
3.64652e-05
-8.11961e-05
-9.48402e-05
-1.89575e-05
0.000106032
0.000254646
0.000410456
0.000563162
0.000706633
0.000837425
0.000953835
0.00105527
0.00114182
0.001214
0.00127254
0.00131826
0.00135198
0.00137447
0.00138641
0.00138835
0.00138073
0.0013639
0.00133807
0.00130336
0.00125985
0.00120754
0.00114643
0.0010765
0.000997765
0.000910294
0.000814225
0.000709788
0.000597329
0.00047732
0.000350374
0.000217258
7.88925e-05
-6.3643e-05
-0.000209115
-0.000356142
-0.000503208
-0.000648679
-0.000790826
-0.000927846
-0.0010579
-0.00117914
-0.00128974
-0.00138796
-0.00147215
-0.00154081
-0.00159263
-0.00162651
-0.0016416
-0.00163735
-0.00161351
-0.00157013
-0.00150761
-0.00142672
-0.00132853
-0.0012145
-0.00108644
-0.000946506
-0.000797269
-0.000641733
-0.000483425
-0.000326541
-0.000176164
-3.86022e-05
7.81329e-05
0.000163752
0.000205099
0.000186071
9.03154e-05
-9.75955e-05
-7.29016e-05
8.4982e-05
0.000318419
0.00058995
0.000873979
0.00115349
0.00141772
0.00166019
0.00187738
0.00206774
0.00223101
0.00236776
0.00247902
0.00256606
0.00263022
0.00267277
0.00269486
0.00269748
0.0026814
0.00264724
0.00259542
0.0025262
0.00243975
0.00233615
0.00221544
0.00207767
0.00192296
0.00175151
0.00156367
0.00135997
0.00114114
0.00090816
0.000662258
0.000404948
0.000138031
-0.000136408
-0.000416001
-0.000698115
-0.000979878
-0.00125821
-0.00152985
-0.00179142
-0.0020395
-0.00227064
-0.00248145
-0.00266869
-0.0028293
-0.00296053
-0.00305994
-0.00312551
-0.00315571
-0.00314951
-0.00310646
-0.0030267
-0.00291103
-0.00276086
-0.0025783
-0.0023661
-0.0021277
-0.00186726
-0.00158966
-0.00130061
-0.00100678
-0.000715969
-0.000437448
-0.00018235
3.57275e-05
0.000200081
0.000290329
0.000282191
0.000147133
-8.42371e-05
2.11462e-05
0.000295592
0.000667933
0.00109041
0.00152914
0.00196072
0.0023697
0.00274635
0.00308505
0.00338303
0.00363949
0.00385487
0.00403042
0.0041678
0.00426882
0.00433528
0.00436882
0.00437087
0.00434259
0.0042849
0.00419846
0.00408372
0.00394098
0.00377044
0.00357224
0.00334659
0.00309374
0.00281415
0.00250848
0.00217768
0.00182301
0.00144611
0.00104905
0.000634302
0.000204774
-0.000236173
-0.000684758
-0.00113679
-0.00158773
-0.00203271
-0.00246662
-0.00288417
-0.00327998
-0.00364868
-0.003985
-0.00428388
-0.00454059
-0.00475083
-0.00491083
-0.00501748
-0.00506838
-0.00506196
-0.00499754
-0.00487539
-0.00469674
-0.00446387
-0.0041801
-0.0038498
-0.00347843
-0.00307255
-0.00263988
-0.00218942
-0.00173156
-0.00127835
-0.000843801
-0.000444408
-9.97089e-05
0.000166978
0.000327938
0.000350454
0.000193912
-3.73542e-05
0.00019756
0.000626891
0.00116997
0.0017709
0.00238886
0.00299484
0.00356905
0.00409867
0.00457595
0.00499681
0.00535976
0.00566505
0.00591404
0.00610872
0.00625134
0.00634419
0.00638939
0.00638882
0.00634405
0.0062563
0.0061265
0.00595533
0.00574326
0.00549065
0.00519781
0.00486513
0.00449313
0.00408258
0.00363456
0.00315057
0.00263255
0.00208299
0.00150493
0.000902003
0.000278465
-0.000360827
-0.00101043
-0.00166434
-0.00231606
-0.00295867
-0.00358491
-0.00418729
-0.00475819
-0.00529004
-0.0057754
-0.00620713
-0.00657858
-0.00688369
-0.00711716
-0.0072746
-0.00735265
-0.0073491
-0.00726299
-0.00709471
-0.00684603
-0.0065202
-0.00612191
-0.00565741
-0.00513446
-0.00456239
-0.00395216
-0.00331648
-0.0026699
-0.00202916
-0.00141341
-0.000844789
-0.000348946
4.41643e-05
0.000299624
0.000376647
0.000224218
4.42425e-05
0.000461333
0.00108678
0.00183391
0.00264092
0.00346163
0.00426244
0.00501993
0.00571851
0.0063485
0.0069046
0.00738464
0.00778864
0.00811803
0.00837507
0.00856243
0.00868285
0.00873892
0.00873295
0.00866688
0.0085423
0.00836041
0.00812211
0.00782809
0.00747892
0.00707511
0.00661732
0.0061064
0.00554351
0.00493028
0.00426886
0.003562
0.00281317
0.00202655
0.00120714
0.000360691
-0.000506224
-0.00138629
-0.00227146
-0.00315306
-0.00402188
-0.00486825
-0.00568224
-0.00645376
-0.00717276
-0.00782941
-0.00841428
-0.00891855
-0.00933421
-0.00965425
-0.00987285
-0.00998555
-0.0099894
-0.00988312
-0.0096672
-0.00934398
-0.00891774
-0.00839471
-0.00778316
-0.00709339
-0.00633777
-0.0055308
-0.00468919
-0.00383204
-0.002981
-0.00216065
-0.00139891
-0.000727579
-0.000183135
0.000192648
0.000351682
0.000234626
0.000160545
0.000814326
0.00167902
0.00266474
0.00370585
0.00475237
0.0057673
0.00672439
0.00760587
0.00840048
0.0091019
0.0097074
0.0102168
0.0106317
0.0109545
0.0111883
0.0113363
0.0114016
0.0113868
0.0112943
0.0111259
0.0108833
0.0105675
0.0101794
0.0097199
0.00918975
0.00858991
0.00792161
0.00718652
0.00638688
0.00552559
0.00460635
0.00363372
0.00261317
0.00155119
0.000455215
-0.000666316
-0.00180403
-0.00294765
-0.00408614
-0.00520778
-0.0063003
-0.00735111
-0.00834743
-0.00927654
-0.010126
-0.0108838
-0.0115389
-0.012081
-0.0125013
-0.0127923
-0.0129484
-0.0129658
-0.0128427
-0.0125797
-0.0121798
-0.0116482
-0.0109929
-0.0102241
-0.00935504
-0.00840117
-0.00738078
-0.00631484
-0.00522717
-0.00414459
-0.00309721
-0.00211882
-0.00124733
-0.00052553
-1.58416e-06
0.000269999
0.000223434
0.000310916
0.00125644
0.00240459
0.00366433
0.004968
0.00626331
0.00751104
0.00868304
0.00975999
0.0107295
0.0115847
0.0123223
0.0129422
0.0134461
0.0138367
0.0141176
0.0142923
0.0143643
0.0143368
0.0142124
0.0139933
0.0136814
0.0132781
0.0127845
0.0122017
0.0115308
0.0107731
0.00993029
0.0090046
0.00799895
0.0069171
0.00576375
0.00454468
0.00326677
0.00193811
0.000567943
-0.000833276
-0.00225397
-0.0036815
-0.00510227
-0.0065019
-0.00786535
-0.00917717
-0.0104217
-0.0115833
-0.0126468
-0.0135975
-0.0144217
-0.0151069
-0.015642
-0.016018
-0.0162276
-0.0162663
-0.0161316
-0.0158242
-0.0153475
-0.0147079
-0.0139149
-0.012981
-0.0119222
-0.0107573
-0.00950856
-0.00820131
-0.00686429
-0.0055296
-0.00423301
-0.00301417
-0.00191704
-0.000990474
-0.000288587
0.000128495
0.000189993
0.000494449
0.00178644
0.00326258
0.00483229
0.00642734
0.00799448
0.00949342
0.010895
0.0121791
0.0133328
0.0143488
0.015224
0.0159582
0.0165535
0.017013
0.0173406
0.0175404
0.0176163
0.0175718
0.0174099
0.0171333
0.0167439
0.0162436
0.0156336
0.0149154
0.0140904
0.0131602
0.0121271
0.0109938
0.00976411
0.00844262
0.00703516
0.00554877
0.00399184
0.00237412
0.000706811
-0.000997544
-0.00272504
-0.00446054
-0.00618778
-0.00788956
-0.00954791
-0.0111444
-0.0126602
-0.0140768
-0.0153759
-0.0165398
-0.0175522
-0.018398
-0.0190639
-0.0195387
-0.0198138
-0.0198832
-0.0197441
-0.0193969
-0.0188454
-0.018097
-0.0171628
-0.0160576
-0.0148002
-0.013413
-0.011922
-0.0103573
-0.00875255
-0.00714527
-0.00557692
-0.00409306
-0.00274363
-0.00158334
-0.000671898
-7.44394e-05
0.000134223
0.000710111
0.00240242
0.00425091
0.00616664
0.00808206
0.00994412
0.0117125
0.013358
0.0148603
0.0162067
0.0173899
0.0184071
0.0192586
0.0199469
0.0204755
0.020849
0.0210717
0.0211482
0.0210823
0.0208775
0.0205367
0.0200621
0.0194558
0.0187194
0.0178546
0.0168631
0.015747
0.0145091
0.0131528
0.0116826
0.010104
0.00842406
0.00665112
0.00479512
0.00286758
0.000881665
-0.00114787
-0.00320474
-0.00527119
-0.00732818
-0.00935559
-0.0113324
-0.0132369
-0.0150473
-0.0167416
-0.0182983
-0.0196968
-0.0209177
-0.0219429
-0.0227569
-0.0233462
-0.0237004
-0.0238122
-0.0236778
-0.0232973
-0.0226748
-0.0218186
-0.0207414
-0.0194604
-0.0179968
-0.0163768
-0.0146305
-0.0127925
-0.0109016
-0.00900077
-0.00713735
-0.00536278
-0.00373295
-0.00230832
-0.00115396
-0.000339642
5.62932e-05
0.000956826
0.00310207
0.0053667
0.0076643
0.00992902
0.0121091
0.014165
0.0160684
0.0177998
0.0193468
0.020703
0.0218662
0.0228373
0.0236195
0.0242171
0.024635
0.0248784
0.0249521
0.0248605
0.0246075
0.0241961
0.023629
0.0229085
0.0220365
0.0210149
0.0198459
0.0185318
0.0170761
0.0154827
0.0137569
0.0119054
0.00993616
0.00785902
0.00568545
0.00342877
0.00110416
-0.00127139
-0.00367913
-0.00609864
-0.00850803
-0.0108841
-0.0132027
-0.0154389
-0.0175674
-0.0195628
-0.0214003
-0.0230558
-0.0245067
-0.0257321
-0.0267133
-0.0274347
-0.0278837
-0.0280513
-0.0279328
-0.0275275
-0.0268398
-0.0258788
-0.0246584
-0.023198
-0.0215218
-0.0196593
-0.0176448
-0.0155176
-0.0133217
-0.0111057
-0.00892283
-0.00683046
-0.00489049
-0.00316914
-0.00173676
-0.000667674
-4.35798e-05
0.0012335
0.00388286
0.00660653
0.00932135
0.011964
0.014485
0.0168465
0.0190218
0.0209926
0.022748
0.0242826
0.0255953
0.026688
0.0275648
0.0282308
0.0286917
0.0289533
0.029021
0.0288995
0.0285932
0.0281056
0.0274395
0.0265973
0.0255815
0.024394
0.0230374
0.0215146
0.0198293
0.0179863
0.0159916
0.0138528
0.0115792
0.0091817
0.00667353
0.00406979
0.00138764
-0.00135365
-0.00413285
-0.00692684
-0.00971081
-0.0124585
-0.0151424
-0.0177341
-0.0202048
-0.0225257
-0.0246681
-0.0266046
-0.0283089
-0.0297568
-0.0309266
-0.0317999
-0.0323616
-0.0326008
-0.0325115
-0.0320922
-0.0313471
-0.0302857
-0.0289234
-0.0272814
-0.0253869
-0.0232726
-0.0209772
-0.0185447
-0.0160244
-0.0134706
-0.0109424
-0.00850355
-0.00622191
-0.00416961
-0.00242239
-0.00105918
-0.000165262
0.00153905
0.00474208
0.00796657
0.0111333
0.0141822
0.0170666
0.0197515
0.0222123
0.0244329
0.0264043
0.0281225
0.0295881
0.0308043
0.0317762
0.03251
0.0330124
0.0332898
0.0333483
0.0331933
0.0328293
0.0322602
0.0314892
0.030519
0.029352
0.0279908
0.026438
0.0246971
0.0227721
0.0206685
0.018393
0.0159542
0.0133624
0.0106301
0.00777175
0.00480433
0.00174701
-0.00137872
-0.00454914
-0.00773842
-0.0109188
-0.0140608
-0.0171336
-0.0201053
-0.0229434
-0.0256152
-0.0280882
-0.0303312
-0.032314
-0.034009
-0.0353909
-0.0364382
-0.037133
-0.0374622
-0.0374178
-0.0369974
-0.0362046
-0.0350493
-0.0335478
-0.0317234
-0.0296056
-0.0272309
-0.0246419
-0.0218875
-0.0190224
-0.0161069
-0.0132062
-0.0103903
-0.00773355
-0.00531409
-0.00321333
-0.00151514
-0.000308791
0.00187235
0.0056769
0.00944272
0.013095
0.0165777
0.0198478
0.0228736
0.0256335
0.0281142
0.0303088
0.0322159
0.0338377
0.035179
0.0362466
0.0370478
0.0375904
0.0378816
0.0379282
0.0377362
0.0373107
0.0366557
0.0357749
0.0346711
0.033347
0.0318053
0.0300491
0.0280821
0.0259087
0.0235351
0.0209687
0.0182188
0.0152968
0.0122165
0.00899389
0.00564754
0.00219859
-0.00132928
-0.0049099
-0.00851473
-0.0121131
-0.0156722
-0.0191579
-0.0225346
-0.025766
-0.0288153
-0.0316462
-0.034223
-0.0365118
-0.0384806
-0.0401007
-0.0413466
-0.0421976
-0.0426376
-0.0426566
-0.0422505
-0.0414221
-0.0401812
-0.0385451
-0.0365384
-0.0341934
-0.0315497
-0.0286544
-0.0255611
-0.02233
-0.0190276
-0.0157254
-0.0125001
-0.00943271
-0.00660778
-0.0041128
-0.00203705
-0.000474433
0.0022323
0.00668434
0.0110306
0.0152011
0.0191444
0.0228218
0.0262057
0.0292781
0.0320288
0.0344542
0.0365552
0.0383365
0.0398049
0.0409688
0.0418372
0.0424188
0.0427222
0.0427547
0.0425231
0.0420328
0.0412884
0.0402938
0.039052
0.0375659
0.0358385
0.033873
0.0316734
0.0292447
0.0265932
0.0237272
0.0206568
0.0173943
0.0139545
0.010355
0.00661577
0.00275994
-0.00118673
-0.00519571
-0.00923579
-0.0132733
-0.0172724
-0.0211953
-0.0250027
-0.0286542
-0.0321091
-0.0353266
-0.0382667
-0.0408909
-0.0431629
-0.0450497
-0.0465219
-0.0475549
-0.0481296
-0.0482331
-0.0478593
-0.0470098
-0.045694
-0.0439294
-0.0417422
-0.0391669
-0.0362466
-0.0330321
-0.0295823
-0.0259632
-0.0222472
-0.0185129
-0.0148438
-0.011328
-0.00805702
-0.00512493
-0.00262707
-0.000662724
0.00261773
0.00776132
0.0127254
0.0174456
0.0218755
0.0259813
0.02974
0.0331379
0.0361686
0.038832
0.0411321
0.0430763
0.0446738
0.0459351
0.0468706
0.0474907
0.047805
0.0478218
0.0475485
0.0469911
0.0461547
0.0450433
0.0436603
0.0420087
0.0400916
0.0379124
0.0354754
0.0327858
0.0298504
0.026678
0.0232793
0.0196675
0.0158584
0.0118708
0.00772633
0.00344967
-0.000931384
-0.00538599
-0.00988038
-0.014378
-0.0188397
-0.0232243
-0.0274887
-0.0315884
-0.0354781
-0.0391127
-0.0424474
-0.0454388
-0.048046
-0.0502309
-0.0519598
-0.0532039
-0.0539401
-0.0541523
-0.053832
-0.0529787
-0.0516009
-0.0497162
-0.0473519
-0.0445446
-0.0413402
-0.0377941
-0.0339699
-0.0299396
-0.0257822
-0.0215832
-0.0174338
-0.0134295
-0.00966943
-0.00625491
-0.00328805
-0.000874496
0.00302743
0.00890458
0.0145224
0.0198224
0.0247637
0.0293182
0.0334679
0.0372039
0.0405244
0.0434331
0.0459376
0.0480483
0.0497772
0.0511369
0.0521401
0.0527985
0.053123
0.0531231
0.0528069
0.052181
0.0512509
0.0500208
0.0484945
0.0466752
0.0445659
0.0421702
0.0394925
0.0365382
0.0333146
0.0298307
0.0260977
0.0221296
0.0179431
0.013558
0.00899726
0.00428718
-0.000542621
-0.00545914
-0.0104261
-0.0154042
-0.0203512
-0.0252222
-0.0299703
-0.0345469
-0.0389021
-0.0429858
-0.0467484
-0.0501412
-0.053118
-0.0556356
-0.0576549
-0.0591423
-0.0600703
-0.0604189
-0.0601762
-0.0593394
-0.0579154
-0.0559215
-0.0533854
-0.0503456
-0.046851
-0.0429608
-0.0387441
-0.0342787
-0.0296506
-0.0249528
-0.0202843
-0.015749
-0.0114541
-0.00750908
-0.00402369
-0.0011109
0.00346017
0.0101107
0.0164163
0.0223246
0.0278013
0.0328238
0.0373802
0.0414667
0.0450865
0.0482477
0.0509618
0.0532427
0.0551055
0.0565653
0.0576369
0.0583339
0.0586686
0.0586517
0.0582921
0.0575972
0.0565727
0.0552234
0.053553
0.051565
0.0492624
0.0466489
0.0437289
0.040508
0.0369935
0.0331947
0.0291234
0.0247938
0.0202236
0.0154332
0.010447
0.00529239
8.35376e-07
-0.00539272
-0.0108497
-0.0163281
-0.0217824
-0.0271645
-0.0324235
-0.0375063
-0.0423587
-0.0469252
-0.051151
-0.0549817
-0.0583653
-0.0612528
-0.0635995
-0.065366
-0.0665197
-0.0670359
-0.0668987
-0.0661021
-0.0646509
-0.0625613
-0.0598611
-0.0565902
-0.0528002
-0.0485545
-0.043927
-0.0390019
-0.0338725
-0.0286398
-0.0234114
-0.0182998
-0.0134216
-0.00889504
-0.00483848
-0.00137339
0.0039146
0.011376
0.0184014
0.0249453
0.0309798
0.0364889
0.0414669
0.0459159
0.0498442
0.053265
0.056194
0.0586491
0.0606485
0.0622103
0.0633516
0.0640881
0.0644337
0.0644002
0.0639975
0.0632338
0.0621154
0.0606473
0.0588333
0.056677
0.0541816
0.0513505
0.0481883
0.0447005
0.0408944
0.0367793
0.0323673
0.0276731
0.0227146
0.0175132
0.0120939
0.00648542
0.000720645
-0.0051637
-0.0111269
-0.0171243
-0.0231077
-0.0290253
-0.0348223
-0.0404414
-0.0458234
-0.0509078
-0.0556337
-0.059941
-0.0637714
-0.0670692
-0.0697835
-0.0718684
-0.0732856
-0.0740045
-0.0740046
-0.0732758
-0.0718199
-0.0696514
-0.0667975
-0.0632992
-0.0592104
-0.0545983
-0.049542
-0.0441324
-0.0384701
-0.0326647
-0.026833
-0.0210974
-0.0155842
-0.0104217
-0.00573783
-0.00166379
0.00438933
0.0126968
0.0204721
0.0276769
0.0342904
0.0403037
0.0457175
0.0505403
0.0547862
0.0584735
0.0616229
0.0642561
0.0663951
0.0680611
0.0692739
0.0700512
0.0704088
0.0703599
0.0699154
0.0690842
0.0678733
0.0662878
0.064332
0.0620093
0.0593228
0.0562761
0.0528734
0.0491201
0.0450234
0.0405926
0.0358397
0.0307796
0.0254304
0.019814
0.013956
0.00788621
0.00163851
-0.00474877
-0.011233
-0.0177671
-0.0243002
-0.030777
-0.0371391
-0.0433247
-0.0492695
-0.0549077
-0.0601724
-0.064997
-0.0693164
-0.073068
-0.0761935
-0.0786402
-0.0803625
-0.0813236
-0.0814969
-0.0808676
-0.0794336
-0.0772066
-0.0742128
-0.0704934
-0.0661045
-0.0611166
-0.0556142
-0.0496948
-0.043467
-0.0370496
-0.0305692
-0.0241589
-0.0179558
-0.0120992
-0.00672799
-0.00198423
0.00488286
0.0140689
0.022622
0.0305114
0.0377238
0.0442577
0.0501208
0.0553282
0.0599004
0.063861
0.0672359
0.0700514
0.0723333
0.0741061
0.0753924
0.0762125
0.0765838
0.0765213
0.0760369
0.0751404
0.0738393
0.0721392
0.0700444
0.0675584
0.0646843
0.0614253
0.0577855
0.0537699
0.0493855
0.0446414
0.0395494
0.0341242
0.028384
0.0223509
0.0160508
0.00951413
0.00277578
-0.00412469
-0.011143
-0.01823
-0.0253321
-0.0323911
-0.0393446
-0.0461264
-0.0526675
-0.0588963
-0.0647396
-0.0701241
-0.0749773
-0.0792289
-0.0828127
-0.085668
-0.0877413
-0.0889884
-0.0893758
-0.0888824
-0.0875013
-0.0852406
-0.0821244
-0.0781936
-0.0735056
-0.0681344
-0.0621697
-0.0557155
-0.048889
-0.0418186
-0.0346418
-0.0275031
-0.0205517
-0.0139391
-0.00781613
-0.0023372
0.00539362
0.0154881
0.0248445
0.0334404
0.0412701
0.0483398
0.0546648
0.0602671
0.0651737
0.0694143
0.07302
0.0760219
0.0784499
0.0803324
0.0816948
0.0825599
0.0829473
0.0828735
0.0823519
0.0813931
0.0800051
0.0781941
0.0759644
0.0733195
0.0702624
0.066796
0.062924
0.0586511
0.0539839
0.0489309
0.0435035
0.0377162
0.0315869
0.0251375
0.0183941
0.0113875
0.00415302
-0.00326873
-0.0108321
-0.0184863
-0.0261752
-0.0338377
-0.0414078
-0.0488152
-0.0559857
-0.0628421
-0.0693047
-0.075293
-0.0807267
-0.0855273
-0.0896197
-0.0929344
-0.095409
-0.0969906
-0.0976375
-0.0973215
-0.0960294
-0.0937645
-0.090548
-0.0864193
-0.0814368
-0.0756773
-0.0692353
-0.062222
-0.0547633
-0.0469978
-0.0390747
-0.031151
-0.0233892
-0.0159542
-0.00901032
-0.00272552
0.00591994
0.0169498
0.027133
0.0364551
0.0449188
0.0525384
0.0593369
0.0653437
0.0705925
0.0751193
0.0789609
0.0821533
0.0847311
0.0867261
0.0881673
0.0890802
0.0894865
0.0894045
0.0888489
0.0878314
0.0863607
0.0844433
0.0820838
0.0792857
0.0760515
0.0723841
0.0682865
0.063763
0.0588194
0.0534638
0.047707
0.0415627
0.0350484
0.0281857
0.0210003
0.013523
0.00578949
-0.00215913
-0.0102762
-0.0185094
-0.0268007
-0.0350862
-0.0432966
-0.0513576
-0.05919
-0.0667107
-0.0738336
-0.0804706
-0.0865332
-0.091934
-0.0965885
-0.100417
-0.103347
-0.105317
-0.106274
-0.106183
-0.105021
-0.102787
-0.0994973
-0.0951889
-0.0899203
-0.0837704
-0.0768386
-0.0692429
-0.0611183
-0.0526145
-0.0438932
-0.0351251
-0.026487
-0.0181588
-0.0103195
-0.00315235
0.00646007
0.0184494
0.02948
0.0395462
0.0486591
0.0568414
0.064124
0.0705441
0.0761423
0.0809613
0.0850436
0.0884307
0.0911616
0.0932724
0.0947953
0.0957588
0.0961871
0.0961003
0.0955146
0.0944428
0.0928942
0.0908759
0.0883927
0.0854478
0.0820439
0.078183
0.0738678
0.0691019
0.0638904
0.0582405
0.0521621
0.0456682
0.0387755
0.0315048
0.0238813
0.0159354
0.00770266
-0.000775612
-0.00945217
-0.0182736
-0.0271802
-0.0361058
-0.0449781
-0.0537188
-0.062244
-0.0704649
-0.0782888
-0.0856199
-0.0923609
-0.0984151
-0.103688
-0.108088
-0.111533
-0.113949
-0.115273
-0.115458
-0.114475
-0.112313
-0.108983
-0.104518
-0.0989767
-0.0924384
-0.0850069
-0.0768072
-0.0679838
-0.0586979
-0.0491246
-0.0394496
-0.0298654
-0.0205683
-0.0117536
-0.00362122
0.00701216
0.0199818
0.031878
0.042704
0.0524796
0.061236
0.0690123
0.0758536
0.0818079
0.0869245
0.0912521
0.0948377
0.0977252
0.0999549
0.101563
0.10258
0.103034
0.102946
0.102334
0.101213
0.0995917
0.0974786
0.0948785
0.0917945
0.0882289
0.0841834
0.07966
0.0746615
0.0691921
0.063258
0.056868
0.0500342
0.042772
0.0351012
0.0270463
0.0186367
0.0099076
0.000900024
-0.00833861
-0.0177542
-0.0272859
-0.0368657
-0.0464186
-0.0558627
-0.0651096
-0.0740651
-0.0826296
-0.0906997
-0.0981693
-0.104931
-0.11088
-0.115914
-0.119936
-0.122861
-0.124614
-0.125135
-0.124385
-0.122342
-0.119011
-0.114421
-0.108624
-0.101704
-0.093767
-0.0849443
-0.0753902
-0.0652781
-0.0547976
-0.0441503
-0.0335463
-0.0231994
-0.0133233
-0.00413597
0.0075743
0.0215419
0.0343192
0.0459185
0.0563685
0.0657088
0.0739874
0.0812571
0.0875734
0.0929926
0.0975697
0.101357
0.104405
0.106756
0.108452
0.109526
0.110009
0.109923
0.10929
0.108124
0.106437
0.104236
0.101526
0.0983114
0.0945933
0.0903731
0.0856521
0.0804322
0.0747165
0.0685101
0.0618205
0.0546584
0.0470381
0.0389779
0.030501
0.0216358
0.0124164
0.0028833
-0.00691645
-0.0169286
-0.0270916
-0.037336
-0.0475846
-0.0577526
-0.0677473
-0.0774692
-0.0868123
-0.0956653
-0.103913
-0.111438
-0.118123
-0.123854
-0.12852
-0.132022
-0.134271
-0.135194
-0.134737
-0.132869
-0.129585
-0.124904
-0.118879
-0.111589
-0.103145
-0.0936831
-0.0833682
-0.0723862
-0.060942
-0.0492545
-0.0375528
-0.0260703
-0.0150403
-0.00470081
0.00814449
0.0231245
0.0367957
0.0491795
0.0603135
0.0702464
0.0790345
0.0867386
0.0934222
0.0991483
0.103979
0.107972
0.111182
0.113658
0.115444
0.116578
0.117093
0.117015
0.116365
0.11516
0.113412
0.111129
0.108318
0.104982
0.101121
0.0967367
0.0918297
0.0864007
0.0804518
0.0739866
0.0670112
0.0595349
0.0515701
0.0431337
0.0342473
0.0249377
0.0152376
0.00518646
-0.00516956
-0.0157766
-0.0265729
-0.0374881
-0.0484436
-0.0593519
-0.0701166
-0.0806335
-0.0907903
-0.100468
-0.109542
-0.117886
-0.125368
-0.131861
-0.137241
-0.141393
-0.144211
-0.145607
-0.145513
-0.143883
-0.140699
-0.135974
-0.129752
-0.122112
-0.113163
-0.103051
-0.0919483
-0.0800537
-0.0675886
-0.0547907
-0.0419096
-0.0292
-0.0169169
-0.00532028
0.0087207
0.024724
0.039299
0.0524762
0.0643023
0.0748347
0.0841382
0.092282
0.0993371
0.105374
0.110461
0.114662
0.118037
0.12064
0.122519
0.123716
0.124266
0.124198
0.123536
0.122297
0.120495
0.118138
0.115234
0.111785
0.107792
0.103255
0.0981747
0.0925501
0.0863822
0.0796733
0.0724278
0.0646531
0.05636
0.0475634
0.0382828
0.0285432
0.0183757
0.0078178
-0.00308544
-0.0142812
-0.025708
-0.0372957
-0.0489643
-0.0606245
-0.0721771
-0.0835133
-0.0945152
-0.105057
-0.115004
-0.124219
-0.132559
-0.139882
-0.146048
-0.150926
-0.154391
-0.156339
-0.156684
-0.155362
-0.152343
-0.147627
-0.14125
-0.133285
-0.123844
-0.113075
-0.10116
-0.0883123
-0.0747689
-0.0607884
-0.0466423
-0.0326088
-0.0189666
-0.00599927
0.00930087
0.026335
0.0418208
0.0557981
0.0683223
0.0794595
0.0892831
0.0978706
0.105301
0.111651
0.116996
0.121407
0.12495
0.127682
0.129656
0.130918
0.131506
0.131452
0.130781
0.129513
0.127663
0.12524
0.12225
0.118698
0.114583
0.109906
0.104665
0.0988594
0.0924879
0.0855517
0.0780533
0.0699981
0.061395
0.0522565
0.0426001
0.0324484
0.0218302
0.0107811
-0.000655836
-0.0124293
-0.0244791
-0.0367352
-0.0491178
-0.0615362
-0.0738889
-0.0860636
-0.0979372
-0.109377
-0.12024
-0.130378
-0.139635
-0.147855
-0.154882
-0.160565
-0.164761
-0.167346
-0.168212
-0.16728
-0.164498
-0.159854
-0.153373
-0.14512
-0.135205
-0.123779
-0.111033
-0.097193
-0.0825149
-0.0672779
-0.0517778
-0.0363182
-0.0212033
-0.00674298
0.00988291
0.027952
0.0443529
0.0591344
0.0723607
0.0841064
0.0944535
0.103487
0.111295
0.11796
0.123566
0.128188
0.131899
0.134761
0.136832
0.13816
0.138789
0.138751
0.138076
0.136784
0.13489
0.132407
0.129341
0.125694
0.121469
0.116663
0.111276
0.105304
0.0987448
0.0915987
0.083866
0.07555
0.0666572
0.0571979
0.0471868
0.0366441
0.0255958
0.0140751
0.00212257
-0.0102126
-0.0228721
-0.0357871
-0.0488783
-0.0620548
-0.0752136
-0.0882398
-0.101006
-0.113373
-0.12519
-0.136299
-0.14653
-0.155714
-0.163676
-0.170245
-0.17526
-0.178572
-0.180051
-0.179596
-0.177136
-0.172638
-0.166113
-0.157618
-0.147257
-0.135182
-0.121592
-0.106726
-0.090858
-0.07429
-0.0573437
-0.0403502
-0.023642
-0.007557
0.0104648
0.0295694
0.0468868
0.0624744
0.0764048
0.0887611
0.0996334
0.109115
0.117301
0.124283
0.130149
0.134983
0.138862
0.141854
0.144022
0.145418
0.146088
0.14607
0.145392
0.14408
0.142149
0.139612
0.136476
0.132745
0.128419
0.123497
0.117977
0.111853
0.105124
0.0977867
0.0898395
0.0812838
0.0721237
0.0623667
0.0520248
0.0411154
0.0296614
0.0176929
0.00524763
-0.00762807
-0.0208782
-0.0344363
-0.0482242
-0.0621518
-0.0761157
-0.0899992
-0.103671
-0.116988
-0.129792
-0.141914
-0.153173
-0.163384
-0.172354
-0.179894
-0.185817
-0.189952
-0.192144
-0.192264
-0.190218
-0.185951
-0.179456
-0.170776
-0.160007
-0.147301
-0.132862
-0.11694
-0.0998294
-0.0818557
-0.0633682
-0.0447281
-0.0262983
-0.00844719
0.0110444
0.0311819
0.0494145
0.0658078
0.0804424
0.0934096
0.104807
0.114737
0.123301
0.130599
0.136725
0.14177
0.145816
0.148938
0.151202
0.152666
0.153378
0.153379
0.152702
0.151372
0.149407
0.146822
0.143624
0.139817
0.135401
0.130375
0.124735
0.118476
0.111594
0.104084
0.0959427
0.0871697
0.0777661
0.0677368
0.0570907
0.0458418
0.0340099
0.0216217
0.00871121
-0.0046784
-0.0184944
-0.0326731
-0.0471389
-0.0618032
-0.0765633
-0.0913018
-0.105886
-0.120168
-0.133983
-0.147154
-0.159489
-0.170786
-0.180837
-0.189429
-0.196353
-0.201411
-0.204419
-0.205221
-0.203693
-0.199755
-0.193376
-0.184581
-0.173456
-0.160146
-0.14486
-0.12786
-0.109459
-0.0900057
-0.06988
-0.0494756
-0.0291883
-0.00941978
0.0116199
0.0327844
0.0519281
0.0691244
0.0844613
0.0980379
0.10996
0.120337
0.129277
0.136889
0.143273
0.148527
0.152738
0.155988
0.158346
0.159876
0.160629
0.16065
0.159973
0.158628
0.156633
0.154004
0.15075
0.146874
0.142378
0.137259
0.131513
0.125134
0.118116
0.110453
0.10214
0.0931728
0.0835511
0.0732766
0.062355
0.0507968
0.0386184
0.0258422
0.0124988
-0.00137282
-0.0157238
-0.0304942
-0.0456116
-0.0609902
-0.0765291
-0.0921118
-0.107605
-0.122857
-0.1377
-0.151948
-0.165398
-0.177836
-0.189035
-0.19876
-0.206778
-0.212861
-0.216797
-0.218395
-0.217499
-0.213999
-0.207836
-0.199011
-0.187593
-0.173721
-0.157603
-0.13951
-0.119774
-0.0987698
-0.0769079
-0.0546169
-0.0323289
-0.0104813
0.0121894
0.0343722
0.0544204
0.0724148
0.0884502
0.102633
0.115077
0.125897
0.135211
0.143133
0.149772
0.155231
0.159604
0.162977
0.165427
0.167019
0.167811
0.16785
0.167174
0.165814
0.163791
0.161122
0.157817
0.153879
0.149312
0.14411
0.138271
0.131787
0.12465
0.116854
0.10839
0.0992536
0.0894403
0.0789492
0.0677829
0.0559482
0.0434574
0.0303292
0.0165894
0.00227274
-0.0125765
-0.0279029
-0.0436383
-0.0597005
-0.0759921
-0.0923984
-0.108787
-0.125005
-0.140882
-0.156225
-0.170823
-0.184448
-0.196855
-0.20779
-0.216993
-0.224207
-0.229184
-0.231699
-0.231561
-0.228621
-0.222786
-0.21403
-0.2024
-0.188021
-0.171097
-0.151908
-0.1308
-0.108177
-0.0844802
-0.0601767
-0.0357373
-0.0116385
0.0127513
0.0359407
0.0568847
0.0756702
0.0923986
0.107183
0.120143
0.131403
0.141086
0.149314
0.156202
0.16186
0.16639
0.169881
0.172417
0.174067
0.174894
0.174948
0.174271
0.172895
0.170844
0.168137
0.164784
0.160791
0.156159
0.150886
0.144965
0.13839
0.131152
0.123242
0.11465
0.105368
0.0953904
0.0847127
0.073334
0.0612577
0.0484918
0.0350505
0.0209552
0.00623536
-0.00906975
-0.0249099
-0.0412221
-0.0579292
-0.074938
-0.0921376
-0.109398
-0.126567
-0.143472
-0.159918
-0.175685
-0.190533
-0.204202
-0.216417
-0.226892
-0.235339
-0.241475
-0.245036
-0.245788
-0.243542
-0.238164
-0.229593
-0.217847
-0.203033
-0.185345
-0.165066
-0.14256
-0.118253
-0.0926247
-0.0661796
-0.0394314
-0.0128985
0.0133042
0.0374862
0.0593151
0.078883
0.0962969
0.111676
0.125146
0.136839
0.146885
0.155411
0.162542
0.168392
0.17307
0.176673
0.179287
0.18099
0.181846
0.18191
0.181227
0.179832
0.177753
0.175008
0.171611
0.167566
0.162877
0.15754
0.151549
0.144897
0.137574
0.129568
0.12087
0.111468
0.101354
0.0905204
0.0789632
0.0666819
0.0536803
0.0399682
0.0255617
0.0104851
-0.00522805
-0.0215335
-0.0383742
-0.0556791
-0.0733606
-0.0913128
-0.10941
-0.127503
-0.145419
-0.162962
-0.179906
-0.196002
-0.210976
-0.224533
-0.236362
-0.246142
-0.253555
-0.258293
-0.260078
-0.258671
-0.253893
-0.24564
-0.233893
-0.218732
-0.200338
-0.178992
-0.15507
-0.129024
-0.101368
-0.0726502
-0.0434291
-0.0142686
0.0138468
0.0390056
0.0617068
0.0820466
0.100137
0.116102
0.130075
0.142192
0.152591
0.161408
0.168771
0.174804
0.179622
0.183326
0.18601
0.187756
0.188633
0.1887
0.188006
0.186589
0.184478
0.181695
0.178253
0.17416
0.169418
0.164025
0.157974
0.151258
0.143865
0.135783
0.126999
0.117502
0.10728
0.0963216
0.0846206
0.0721724
0.0589766
0.0450382
0.0303683
0.0149853
-0.00108336
-0.0177998
-0.0351139
-0.0529616
-0.0712621
-0.0899163
-0.108804
-0.127781
-0.146679
-0.165299
-0.183415
-0.20077
-0.217079
-0.232029
-0.245284
-0.256492
-0.265297
-0.271346
-0.274311
-0.273899
-0.269879
-0.262093
-0.25048
-0.235082
-0.216059
-0.193685
-0.168343
-0.140511
-0.110736
-0.0796127
-0.0477487
-0.0157565
0.0143783
0.0404965
0.0640561
0.0851562
0.103912
0.120454
0.134919
0.14745
0.158192
0.167287
0.174871
0.181076
0.18602
0.189814
0.192556
0.194334
0.195222
0.195283
0.19457
0.193124
0.190977
0.188152
0.184665
0.180525
0.175734
0.170291
0.16419
0.157421
0.149972
0.141832
0.132985
0.123416
0.113113
0.102062
0.0902525
0.0776764
0.0643294
0.0502114
0.0353282
0.0196925
0.00332527
-0.0137427
-0.0314689
-0.0497969
-0.0686542