/*--------------------------------*- C++ -*----------------------------------*\
  =========                 |
  \\      /  F ield         | OpenFOAM: The Open Source CFD Toolbox
   \\    /   O peration     | Website:  https://openfoam.org
    \\  /    A nd           | Version:  dev
     \\/     M anipulation  |
\*---------------------------------------------------------------------------*/
FoamFile
{
    format      ascii;
    class       surfaceScalarField;
    location    "47.25";
    object      phi;
}
// * * * * * * * * * * * * * * * * * * * * * * * * * * * * * * * * * * * * * //

dimensions      [0 3 -1 0 0 0 0];

internalField   nonuniform List<scalar> 
10224
(
3.41117e-08
-3.45946e-08
8.8047e-08
-5.39378e-08
1.24568e-07
-3.65244e-08
1.25517e-07
-9.50345e-10
8.38774e-08
4.16404e-08
-1.63456e-09
8.55132e-08
-1.29194e-07
1.2756e-07
-2.95502e-07
1.66308e-07
-4.96496e-07
2.00993e-07
-7.27872e-07
2.31376e-07
-9.85359e-07
2.57487e-07
-1.26486e-06
2.79505e-07
-1.56255e-06
2.97682e-07
-1.87485e-06
3.12302e-07
-2.1985e-06
3.2365e-07
-2.53049e-06
3.31993e-07
-2.86806e-06
3.37568e-07
-3.20864e-06
3.40574e-07
-3.54981e-06
3.41174e-07
-3.8893e-06
3.3949e-07
-4.2249e-06
3.35608e-07
-4.55448e-06
3.29579e-07
-4.87591e-06
3.2143e-07
-5.18707e-06
3.11162e-07
-5.48583e-06
2.98763e-07
-5.77005e-06
2.84213e-07
-6.03754e-06
2.6749e-07
-6.28611e-06
2.48576e-07
-6.51358e-06
2.27468e-07
-6.71776e-06
2.04178e-07
-6.8965e-06
1.78747e-07
-7.04774e-06
1.5124e-07
-7.1695e-06
1.21761e-07
-7.25995e-06
9.04485e-08
-7.31743e-06
5.74836e-08
-7.34052e-06
2.3089e-08
-7.32805e-06
-1.24695e-08
-7.27917e-06
-4.8883e-08
-7.19337e-06
-8.5802e-08
-7.07053e-06
-1.22839e-07
-6.91096e-06
-1.59573e-07
-6.7154e-06
-1.95555e-07
-6.48509e-06
-2.30315e-07
-6.22172e-06
-2.63368e-07
-5.92749e-06
-2.94228e-07
-5.60507e-06
-3.22412e-07
-5.25762e-06
-3.47454e-07
-4.8887e-06
-3.68916e-07
-4.50231e-06
-3.86394e-07
-4.10278e-06
-3.99535e-07
-3.69473e-06
-4.08044e-07
-3.28304e-06
-4.11689e-07
-2.87273e-06
-4.10316e-07
-2.46888e-06
-4.0385e-07
-2.07658e-06
-3.923e-07
-1.70081e-06
-3.75764e-07
-1.34639e-06
-3.54425e-07
-1.01784e-06
-3.28558e-07
-7.19313e-07
-2.98525e-07
-4.54539e-07
-2.64775e-07
-2.26692e-07
-2.27847e-07
-3.83184e-08
-1.88374e-07
1.08776e-07
-1.47095e-07
2.13656e-07
-1.04881e-07
2.76435e-07
-6.27818e-08
2.98547e-07
-2.2115e-08
2.83173e-07
1.53732e-08
2.35919e-07
4.72606e-08
1.65851e-07
7.00741e-08
8.72675e-08
7.85787e-08
2.25533e-08
6.46963e-08
2.25392e-08
5.40907e-08
-8.86879e-08
1.12663e-07
-1.12507e-07
1.18475e-07
-4.23358e-08
3.91556e-08
7.83715e-08
-1.4171e-07
2.22508e-07
-4.29451e-07
3.73255e-07
-8.2231e-07
5.20419e-07
-1.31414e-06
6.58136e-07
-1.89637e-06
7.83226e-07
-2.5592e-06
8.94199e-07
-3.29233e-06
9.9062e-07
-4.08552e-06
1.0727e-06
-4.92884e-06
1.141e-06
-5.81285e-06
1.19631e-06
-6.72865e-06
1.23945e-06
-7.66792e-06
1.27126e-06
-8.62284e-06
1.29249e-06
-9.58606e-06
1.3038e-06
-1.05506e-05
1.30575e-06
-1.15099e-05
1.29875e-06
-1.24574e-05
1.28314e-06
-1.33869e-05
1.2591e-06
-1.42923e-05
1.22677e-06
-1.51673e-05
1.18618e-06
-1.60059e-05
1.13734e-06
-1.68019e-05
1.08022e-06
-1.75492e-05
1.0148e-06
-1.82417e-05
9.41078e-07
-1.88733e-05
8.59095e-07
-1.94381e-05
7.68967e-07
-1.99303e-05
6.70898e-07
-2.03442e-05
5.65199e-07
-2.06748e-05
4.52304e-07
-2.09171e-05
3.32782e-07
-2.10669e-05
2.07348e-07
-2.11207e-05
7.68659e-08
-2.10755e-05
-5.76471e-08
-2.09294e-05
-1.95026e-07
-2.06812e-05
-3.33962e-07
-2.03311e-05
-4.73016e-07
-1.988e-05
-6.10637e-07
-1.93304e-05
-7.45176e-07
-1.86858e-05
-8.74916e-07
-1.7951e-05
-9.98103e-07
-1.71323e-05
-1.11297e-06
-1.62369e-05
-1.21778e-06
-1.52735e-05
-1.31085e-06
-1.42518e-05
-1.39061e-06
-1.31826e-05
-1.45563e-06
-1.20775e-05
-1.50464e-06
-1.09489e-05
-1.5366e-06
-9.80996e-06
-1.55068e-06
-8.67391e-06
-1.54636e-06
-7.55438e-06
-1.52338e-06
-6.46487e-06
-1.48181e-06
-5.41862e-06
-1.42201e-06
-4.42835e-06
-1.3447e-06
-3.506e-06
-1.2509e-06
-2.66253e-06
-1.142e-06
-1.90762e-06
-1.01968e-06
-1.24946e-06
-8.86009e-07
-6.94446e-07
-7.43391e-07
-2.46879e-07
-5.94661e-07
9.13949e-08
-4.43152e-07
3.21462e-07
-2.92843e-07
4.47923e-07
-1.48573e-07
4.79781e-07
-1.64888e-08
4.31522e-07
9.55127e-08
3.24611e-07
1.76992e-07
1.89085e-07
2.1413e-07
6.44216e-08
1.89388e-07
8.69479e-08
3.74448e-08
-1.26137e-07
4.35052e-08
-1.18567e-07
-4.30709e-08
4.42403e-08
-2.5856e-07
2.93863e-07
-6.22584e-07
5.86533e-07
-1.14226e-06
8.92933e-07
-1.81586e-06
1.19402e-06
-2.63573e-06
1.478e-06
-3.59048e-06
1.73798e-06
-4.6666e-06
1.97032e-06
-5.84951e-06
2.17353e-06
-7.12432e-06
2.3475e-06
-8.4763e-06
2.49299e-06
-9.89122e-06
2.61122e-06
-1.13554e-05
2.70367e-06
-1.2856e-05
2.77183e-06
-1.43806e-05
2.81713e-06
-1.59177e-05
2.84083e-06
-1.7456e-05
2.84403e-06
-1.89848e-05
2.82756e-06
-2.04937e-05
2.79209e-06
-2.19727e-05
2.73805e-06
-2.34116e-05
2.66573e-06
-2.48007e-05
2.57528e-06
-2.61301e-05
2.46676e-06
-2.73901e-05
2.34019e-06
-2.85709e-05
2.19561e-06
-2.96629e-05
2.0331e-06
-3.06567e-05
1.85285e-06
-3.15429e-05
1.65519e-06
-3.23127e-05
1.44066e-06
-3.29575e-05
1.21e-06
-3.34694e-05
9.64225e-07
-3.38412e-05
7.0462e-07
-3.40667e-05
4.32773e-07
-3.41404e-05
1.50577e-07
-3.40582e-05
-1.3976e-07
-3.38175e-05
-4.35731e-07
-3.3417e-05
-7.3454e-07
-3.28568e-05
-1.03313e-06
-3.21393e-05
-1.32821e-06
-3.12681e-05
-1.61631e-06
-3.02492e-05
-1.89384e-06
-2.90902e-05
-2.1571e-06
-2.78008e-05
-2.40242e-06
-2.63924e-05
-2.62617e-06
-2.48784e-05
-2.82487e-06
-2.32737e-05
-2.99525e-06
-2.1595e-05
-3.13434e-06
-1.98601e-05
-3.23954e-06
-1.8088e-05
-3.30868e-06
-1.62986e-05
-3.3401e-06
-1.45123e-05
-3.3327e-06
-1.27497e-05
-3.28599e-06
-1.10314e-05
-3.20011e-06
-9.37746e-06
-3.07591e-06
-7.80727e-06
-2.91489e-06
-6.3389e-06
-2.71928e-06
-4.9889e-06
-2.492e-06
-3.77185e-06
-2.23673e-06
-2.70001e-06
-1.95785e-06
-1.78285e-06
-1.66056e-06
-1.02659e-06
-1.35092e-06
-4.33704e-07
-1.03604e-06
-2.27023e-09
-7.24277e-07
2.74806e-07
-4.25643e-07
4.10592e-07
-1.52272e-07
4.25338e-07
8.07565e-08
3.47695e-07
2.54618e-07
2.15899e-07
3.45922e-07
7.87003e-08
3.26606e-07
1.65645e-07
1.96666e-09
-1.28104e-07
-7.88388e-08
-3.7759e-08
-2.97546e-07
2.62949e-07
-6.87899e-07
6.84216e-07
-1.26822e-06
1.16686e-06
-2.0448e-06
1.66951e-06
-3.01483e-06
2.16405e-06
-4.16906e-06
2.63223e-06
-5.49389e-06
3.06281e-06
-6.97297e-06
3.44941e-06
-8.58847e-06
3.78903e-06
-1.03219e-05
4.08093e-06
-1.21547e-05
4.32582e-06
-1.40688e-05
4.52528e-06
-1.60465e-05
4.68136e-06
-1.80709e-05
4.79625e-06
-2.01259e-05
4.87208e-06
-2.21958e-05
4.9108e-06
-2.42659e-05
4.91408e-06
-2.63216e-05
4.88328e-06
-2.83489e-05
4.81945e-06
-3.03342e-05
4.72334e-06
-3.2264e-05
4.59547e-06
-3.41248e-05
4.43613e-06
-3.59036e-05
4.24553e-06
-3.75872e-05
4.0238e-06
-3.91627e-05
3.77111e-06
-4.06173e-05
3.48773e-06
-4.19386e-05
3.1741e-06
-4.31143e-05
2.83093e-06
-4.41329e-05
2.45924e-06
-4.49833e-05
2.06044e-06
-4.56555e-05
1.63634e-06
-4.614e-05
1.18922e-06
-4.64291e-05
7.21867e-07
-4.65161e-05
2.3756e-07
-4.6396e-05
-2.59915e-07
-4.60654e-05
-7.6628e-07
-4.55232e-05
-1.27679e-06
-4.477e-05
-1.78629e-06
-4.3809e-05
-2.28924e-06
-4.26455e-05
-2.77983e-06
-4.12873e-05
-3.25203e-06
-3.97447e-05
-3.69971e-06
-3.80303e-05
-4.11674e-06
-3.61594e-05
-4.4971e-06
-3.41493e-05
-4.83501e-06
-3.20194e-05
-5.12508e-06
-2.97914e-05
-5.36237e-06
-2.74883e-05
-5.54259e-06
-2.51349e-05
-5.66217e-06
-2.27566e-05
-5.71837e-06
-2.03799e-05
-5.7094e-06
-1.80314e-05
-5.63447e-06
-1.57376e-05
-5.49387e-06
-1.35245e-05
-5.28902e-06
-1.14169e-05
-5.02249e-06
-9.43817e-06
-4.69804e-06
-7.60952e-06
-4.32066e-06
-5.94972e-06
-3.89652e-06
-4.4745e-06
-3.43307e-06
-3.19594e-06
-2.93911e-06
-2.12202e-06
-2.42485e-06
-1.25593e-06
-1.90214e-06
-5.95405e-07
-1.38481e-06
-1.31999e-07
-8.89045e-07
1.49808e-07
-4.34067e-07
2.7349e-07
-4.29182e-08
2.71525e-07
2.56576e-07
1.86444e-07
4.30991e-07
7.22666e-08
4.40792e-07
2.37915e-07
-4.2027e-08
-8.60768e-08
-2.30004e-07
1.50221e-07
-6.06595e-07
6.39542e-07
-1.19841e-06
1.27603e-06
-2.0192e-06
1.98765e-06
-3.07215e-06
2.72245e-06
-4.35206e-06
3.44396e-06
-5.84751e-06
4.12768e-06
-7.54261e-06
4.75791e-06
-9.41857e-06
5.32536e-06
-1.14548e-05
5.82527e-06
-1.36299e-05
6.25602e-06
-1.59222e-05
6.61813e-06
-1.83103e-05
6.91338e-06
-2.07733e-05
7.14432e-06
-2.32908e-05
7.31379e-06
-2.58433e-05
7.42461e-06
-2.8412e-05
7.47942e-06
-3.09784e-05
7.4805e-06
-3.35249e-05
7.42976e-06
-3.60341e-05
7.32867e-06
-3.84891e-05
7.17836e-06
-4.08732e-05
6.9796e-06
-4.317e-05
6.73292e-06
-4.53632e-05
6.43871e-06
-4.74367e-05
6.0973e-06
-4.93747e-05
5.70906e-06
-5.11615e-05
5.27458e-06
-5.27821e-05
4.79468e-06
-5.42217e-05
4.27058e-06
-5.54665e-05
3.70398e-06
-5.65032e-05
3.09713e-06
-5.73197e-05
2.45288e-06
-5.79053e-05
1.77478e-06
-5.82505e-05
1.06709e-06
-5.83477e-05
3.34805e-07
-5.81913e-05
-4.16374e-07
-5.77775e-05
-1.18002e-06
-5.71053e-05
-1.94905e-06
-5.61758e-05
-2.71578e-06
-5.4993e-05
-3.47202e-06
-5.35637e-05
-4.20914e-06
-5.18974e-05
-4.91828e-06
-5.00068e-05
-5.59039e-06
-4.7907e-05
-6.21646e-06
-4.56165e-05
-6.78766e-06
-4.3156e-05
-7.29552e-06
-4.05489e-05
-7.73211e-06
-3.78211e-05
-8.09023e-06
-3.50001e-05
-8.36358e-06
-3.21153e-05
-8.54695e-06
-2.91973e-05
-8.63634e-06
-2.62776e-05
-8.62912e-06
-2.33879e-05
-8.52417e-06
-2.05599e-05
-8.32193e-06
-1.78244e-05
-8.02452e-06
-1.52111e-05
-7.63577e-06
-1.27479e-05
-7.16127e-06
-1.04601e-05
-6.60841e-06
-8.37026e-06
-5.98637e-06
-6.49711e-06
-5.30622e-06
-4.85524e-06
-4.58097e-06
-3.45439e-06
-3.82569e-06
-2.29878e-06
-3.05776e-06
-1.38644e-06
-2.29715e-06
-7.08509e-07
-1.56698e-06
-2.48493e-07
-8.94078e-07
1.84777e-08
-3.09878e-07
1.26472e-07
1.48586e-07
1.19656e-07
4.37799e-07
5.37092e-08
5.06737e-07
2.91628e-07
-8.94406e-08
3.36501e-09
-3.95407e-07
4.56188e-07
-9.45316e-07
1.18945e-06
-1.75577e-06
2.08649e-06
-2.83358e-06
3.06546e-06
-4.17699e-06
4.06586e-06
-5.77715e-06
5.04412e-06
-7.61966e-06
5.97019e-06
-9.68605e-06
6.8243e-06
-1.1955e-05
7.59433e-06
-1.44035e-05
8.27374e-06
-1.70075e-05
8.85999e-06
-1.97426e-05
9.35328e-06
-2.25848e-05
9.75553e-06
-2.55101e-05
1.00697e-05
-2.84956e-05
1.02992e-05
-3.15186e-05
1.04476e-05
-3.45573e-05
1.05181e-05
-3.75904e-05
1.05136e-05
-4.05972e-05
1.04366e-05
-4.35575e-05
1.0289e-05
-4.64515e-05
1.00723e-05
-4.92595e-05
9.78764e-06
-5.19623e-05
9.43576e-06
-5.45409e-05
9.01732e-06
-5.69766e-05
8.53291e-06
-5.92507e-05
7.98324e-06
-6.13454e-05
7.36926e-06
-6.32431e-05
6.69234e-06
-6.49268e-05
5.95435e-06
-6.63807e-05
5.15781e-06
-6.75896e-05
4.30602e-06
-6.85398e-05
3.40309e-06
-6.92191e-05
2.45408e-06
-6.96169e-05
1.46497e-06
-6.97249e-05
4.42738e-07
-6.95366e-05
-6.04671e-07
-6.90482e-05
-1.66837e-06
-6.82587e-05
-2.7386e-06
-6.71697e-05
-3.80481e-06
-6.57859e-05
-4.85576e-06
-6.41154e-05
-5.87969e-06
-6.21692e-05
-6.86447e-06
-5.99618e-05
-7.7978e-06
-5.75108e-05
-8.66741e-06
-5.48372e-05
-9.4613e-06
-5.19647e-05
-1.0168e-05
-4.89202e-05
-1.07766e-05
-4.5733e-05
-1.12775e-05
-4.24345e-05
-1.1662e-05
-3.90583e-05
-1.19232e-05
-3.56392e-05
-1.20554e-05
-3.22131e-05
-1.20552e-05
-2.88162e-05
-1.19211e-05
-2.54845e-05
-1.16535e-05
-2.22535e-05
-1.12555e-05
-1.91571e-05
-1.07322e-05
-1.62271e-05
-1.00913e-05
-1.34928e-05
-9.34275e-06
-1.09799e-05
-8.49925e-06
-8.71027e-06
-7.57587e-06
-6.70094e-06
-6.59031e-06
-4.9636e-06
-5.56303e-06
-3.5039e-06
-4.51745e-06
-2.32081e-06
-3.48025e-06
-1.40594e-06
-2.48186e-06
-7.42969e-07
-1.55705e-06
-3.07032e-07
-7.45811e-07
-6.41341e-08
-9.43013e-08
2.94963e-08
3.44169e-07
2.83582e-08
5.07873e-07
3.19987e-07
-1.37674e-07
1.4104e-07
-5.66469e-07
8.84982e-07
-1.29787e-06
1.92085e-06
-2.33699e-06
3.1256e-06
-3.68213e-06
4.4106e-06
-5.32522e-06
5.70896e-06
-7.25267e-06
6.97156e-06
-9.44633e-06
8.16386e-06
-1.18847e-05
9.26263e-06
-1.45436e-05
1.02533e-05
-1.73977e-05
1.11278e-05
-2.04205e-05
1.18827e-05
-2.35852e-05
1.2518e-05
-2.68652e-05
1.30356e-05
-3.02344e-05
1.34389e-05
-3.36669e-05
1.37318e-05
-3.71379e-05
1.39186e-05
-4.06228e-05
1.4003e-05
-4.40978e-05
1.39886e-05
-4.75396e-05
1.38784e-05
-5.09254e-05
1.36748e-05
-5.42327e-05
1.33796e-05
-5.74394e-05
1.29943e-05
-6.05237e-05
1.25201e-05
-6.34641e-05
1.19578e-05
-6.62396e-05
1.13083e-05
-6.88292e-05
1.05729e-05
-7.12128e-05
9.75283e-06
-7.33706e-05
8.85022e-06
-7.5284e-05
7.86769e-06
-7.69349e-05
6.80878e-06
-7.83069e-05
5.67796e-06
-7.93846e-05
4.48083e-06
-8.01547e-05
3.22412e-06
-8.06055e-05
1.91578e-06
-8.07278e-05
5.6503e-07
-8.05147e-05
-8.17708e-07
-7.99623e-05
-2.22081e-06
-7.90693e-05
-3.63156e-06
-7.78379e-05
-5.03621e-06
-7.62735e-05
-6.42022e-06
-7.43848e-05
-7.76833e-06
-7.21844e-05
-9.06488e-06
-6.96882e-05
-1.0294e-05
-6.69159e-05
-1.14397e-05
-6.38905e-05
-1.24867e-05
-6.06385e-05
-1.342e-05
-5.71893e-05
-1.42258e-05
-5.35754e-05
-1.48914e-05
-4.98318e-05
-1.54057e-05
-4.59953e-05
-1.57596e-05
-4.21047e-05
-1.5946e-05
-3.81997e-05
-1.59603e-05
-3.43205e-05
-1.58003e-05
-3.05072e-05
-1.54668e-05
-2.67992e-05
-1.49635e-05
-2.32344e-05
-1.42971e-05
-1.98483e-05
-1.34773e-05
-1.66739e-05
-1.25172e-05
-1.37402e-05
-1.1433e-05
-1.1072e-05
-1.02441e-05
-8.68902e-06
-8.97329e-06
-6.60519e-06
-7.64686e-06
-4.82804e-06
-6.29459e-06
-3.35806e-06
-4.95022e-06
-2.18814e-06
-3.65178e-06
-1.30307e-06
-2.44214e-06
-6.79072e-07
-1.36981e-06
-2.83498e-07
-4.8987e-07
-7.44684e-08
1.35145e-07
-5.41922e-10
4.33947e-07
3.19443e-07
-1.85481e-07
3.2652e-07
-7.38299e-07
1.4378e-06
-1.65448e-06
2.83703e-06
-2.92703e-06
4.39816e-06
-4.54489e-06
6.02846e-06
-6.49272e-06
7.65679e-06
-8.7513e-06
9.23014e-06
-1.12981e-05
1.07106e-05
-1.4108e-05
1.20725e-05
-1.7154e-05
1.32993e-05
-2.04079e-05
1.43817e-05
-2.38409e-05
1.53158e-05
-2.74241e-05
1.61011e-05
-3.11286e-05
1.67401e-05
-3.4926e-05
1.72363e-05
-3.87884e-05
1.75943e-05
-4.26886e-05
1.78188e-05
-4.65999e-05
1.79143e-05
-5.04962e-05
1.78849e-05
-5.43519e-05
1.77341e-05
-5.81419e-05
1.74648e-05
-6.18415e-05
1.70792e-05
-6.54263e-05
1.65792e-05
-6.88723e-05
1.59661e-05
-7.21558e-05
1.52413e-05
-7.52536e-05
1.44061e-05
-7.81428e-05
1.34621e-05
-8.08013e-05
1.24112e-05
-8.32074e-05
1.12563e-05
-8.53406e-05
1.00009e-05
-8.71814e-05
8.6496e-06
-8.87117e-05
7.20829e-06
-8.9915e-05
5.68415e-06
-9.07767e-05
4.08579e-06
-9.12843e-05
2.42334e-06
-9.14276e-05
7.08408e-07
-9.11995e-05
-1.04586e-06
-9.05954e-05
-2.82488e-06
-8.96142e-05
-4.61273e-06
-8.82582e-05
-6.39227e-06
-8.65331e-05
-8.14533e-06
-8.44485e-05
-9.85293e-06
-8.20178e-05
-1.14956e-05
-7.92582e-05
-1.30535e-05
-7.6191e-05
-1.4507e-05
-7.2841e-05
-1.58367e-05
-6.92367e-05
-1.70243e-05
-6.541e-05
-1.80524e-05
-6.13961e-05
-1.89053e-05
-5.72328e-05
-1.95691e-05
-5.29602e-05
-2.00322e-05
-4.86202e-05
-2.0286e-05
-4.42562e-05
-2.03243e-05
-3.9912e-05
-2.01445e-05
-3.56316e-05
-1.97473e-05
-3.14579e-05
-1.91371e-05
-2.74327e-05
-1.83222e-05
-2.35954e-05
-1.73146e-05
-1.99822e-05
-1.61304e-05
-1.66257e-05
-1.47895e-05
-1.35537e-05
-1.3316e-05
-1.0789e-05
-1.1738e-05
-8.34805e-06
-1.00878e-05
-6.24071e-06
-8.40192e-06
-4.46962e-06
-6.72131e-06
-3.02959e-06
-5.0918e-06
-1.9073e-06
-3.56443e-06
-1.08097e-06
-2.19615e-06
-5.20192e-07
-1.05065e-06
-1.86e-07
-1.99045e-07
-3.10357e-08
2.78986e-07
2.88407e-07
-2.3222e-07
5.5874e-07
-9.08136e-07
2.11372e-06
-2.00914e-06
3.93803e-06
-3.51617e-06
5.90518e-06
-5.40834e-06
7.92063e-06
-7.6625e-06
9.91095e-06
-1.02532e-05
1.18208e-05
-1.3153e-05
1.36104e-05
-1.63327e-05
1.52522e-05
-1.97621e-05
1.67287e-05
-2.34102e-05
1.80299e-05
-2.72458e-05
1.91514e-05
-3.12378e-05
2.00931e-05
-3.53552e-05
2.08575e-05
-3.95677e-05
2.14487e-05
-4.38454e-05
2.1872e-05
-4.81591e-05
2.21324e-05
-5.24801e-05
2.22353e-05
-5.67805e-05
2.21853e-05
-6.10326e-05
2.19862e-05
-6.52095e-05
2.16416e-05
-6.92842e-05
2.1154e-05
-7.32307e-05
2.05256e-05
-7.70228e-05
1.97582e-05
-8.0635e-05
1.88535e-05
-8.40421e-05
1.78132e-05
-8.72194e-05
1.66394e-05
-9.0143e-05
1.53349e-05
-9.27898e-05
1.3903e-05
-9.51374e-05
1.23485e-05
-9.7165e-05
1.06772e-05
-9.88531e-05
8.89637e-06
-0.000100184
7.01496e-06
-0.000101142
5.0436e-06
-0.000101713
2.9947e-06
-0.000101887
8.82488e-07
-0.000101656
-1.27704e-06
-0.000101015
-3.46616e-06
-9.99619e-05
-5.66554e-06
-9.84997e-05
-7.85442e-06
-9.66342e-05
-1.00108e-05
-9.43754e-05
-1.21118e-05
-9.17372e-05
-1.41338e-05
-8.87378e-05
-1.60529e-05
-8.53995e-05
-1.78452e-05
-8.17487e-05
-1.94875e-05
-7.78157e-05
-2.09574e-05
-7.36343e-05
-2.22338e-05
-6.92419e-05
-2.32977e-05
-6.46788e-05
-2.41321e-05
-5.99882e-05
-2.47229e-05
-5.52149e-05
-2.50592e-05
-5.04055e-05
-2.51336e-05
-4.56074e-05
-2.49426e-05
-4.08679e-05
-2.44867e-05
-3.6234e-05
-2.37711e-05
-3.1751e-05
-2.28053e-05
-2.74619e-05
-2.16037e-05
-2.34068e-05
-2.01855e-05
-1.96218e-05
-1.85745e-05
-1.61381e-05
-1.67997e-05
-1.29817e-05
-1.48945e-05
-1.0172e-05
-1.28975e-05
-7.72186e-06
-1.08521e-05
-5.63649e-06
-8.80668e-06
-3.91328e-06
-6.815e-06
-2.54144e-06
-4.93626e-06
-1.50181e-06
-3.23579e-06
-7.66912e-07
-1.78554e-06
-3.01278e-07
-6.64681e-07
-6.20194e-08
3.97287e-08
2.26387e-07
-2.77613e-07
8.36353e-07
-1.07444e-06
2.91055e-06
-2.35821e-06
5.2218e-06
-4.09808e-06
7.64505e-06
-6.2633e-06
1.00859e-05
-8.8226e-06
1.24702e-05
-1.17439e-05
1.47422e-05
-1.49944e-05
1.68609e-05
-1.85407e-05
1.87985e-05
-2.23491e-05
2.0537e-05
-2.63855e-05
2.20663e-05
-3.06163e-05
2.33823e-05
-3.50082e-05
2.4485e-05
-3.95282e-05
2.53775e-05
-4.41442e-05
2.60647e-05
-4.88246e-05
2.65523e-05
-5.35383e-05
2.68462e-05
-5.82551e-05
2.69521e-05
-6.29452e-05
2.68754e-05
-6.75794e-05
2.66204e-05
-7.21289e-05
2.61911e-05
-7.65652e-05
2.55903e-05
-8.08603e-05
2.48207e-05
-8.49865e-05
2.38845e-05
-8.89166e-05
2.27836e-05
-9.26238e-05
2.15203e-05
-9.60817e-05
2.00974e-05
-9.92648e-05
1.8518e-05
-0.000102148
1.67867e-05
-0.000104709
1.49091e-05
-0.000106924
1.28923e-05
-0.000108773
1.07453e-05
-0.000110237
8.4787e-06
-0.000111299
6.10534e-06
-0.000111944
3.64001e-06
-0.000112161
1.09963e-06
-0.000111941
-1.49679e-06
-0.000111279
-4.12825e-06
-0.000110173
-6.77186e-06
-0.000108624
-9.40309e-06
-0.000106639
-1.19959e-05
-0.000104227
-1.45233e-05
-0.000101404
-1.69574e-05
-9.8187e-05
-1.92698e-05
-9.45998e-05
-2.14324e-05
-9.06698e-05
-2.34175e-05
-8.64285e-05
-2.51987e-05
-8.19116e-05
-2.67508e-05
-7.71583e-05
-2.8051e-05
-7.22113e-05
-2.90791e-05
-6.7116e-05
-2.98182e-05
-6.19204e-05
-3.02548e-05
-5.66741e-05
-3.03799e-05
-5.14278e-05
-3.01889e-05
-4.62325e-05
-2.96821e-05
-4.11386e-05
-2.88649e-05
-3.61954e-05
-2.77485e-05
-3.14499e-05
-2.63493e-05
-2.69458e-05
-2.46895e-05
-2.27232e-05
-2.27971e-05
-1.88171e-05
-2.07058e-05
-1.52569e-05
-1.84546e-05
-1.20658e-05
-1.60886e-05
-9.25985e-06
-1.36581e-05
-6.84741e-06
-1.12191e-05
-4.82901e-06
-8.83339e-06
-3.19691e-06
-6.56836e-06
-1.93509e-06
-4.49761e-06
-1.01942e-06
-2.70121e-06
-4.18186e-07
-1.26592e-06
-9.29373e-08
-2.8552e-07
1.3345e-07
-3.21545e-07
1.1579e-06
-1.23637e-06
3.82537e-06
-2.69945e-06
6.68487e-06
-4.66864e-06
9.61424e-06
-7.10347e-06
1.25207e-05
-9.96447e-06
1.53312e-05
-1.32128e-05
1.79905e-05
-1.681e-05
2.04582e-05
-2.07183e-05
2.27067e-05
-2.48999e-05
2.47187e-05
-2.93182e-05
2.64845e-05
-3.39366e-05
2.80007e-05
-3.87198e-05
2.92682e-05
-4.36329e-05
3.02906e-05
-4.8642e-05
3.10738e-05
-5.37138e-05
3.16241e-05
-5.88159e-05
3.19483e-05
-6.39164e-05
3.20527e-05
-6.89843e-05
3.19432e-05
-7.39886e-05
3.16248e-05
-7.88992e-05
3.11017e-05
-8.36862e-05
3.03773e-05
-8.832e-05
2.94546e-05
-9.27716e-05
2.8336e-05
-9.70122e-05
2.70242e-05
-0.000101013
2.55216e-05
-0.000104748
2.38317e-05
-0.000108188
2.19584e-05
-0.000111308
1.9907e-05
-0.000114084
1.76844e-05
-0.000116491
1.52991e-05
-0.000118507
1.27614e-05
-0.000120112
1.0084e-05
-0.000121288
7.28183e-06
-0.000122021
4.37219e-06
-0.000122296
1.37477e-06
-0.000122104
-1.68835e-06
-0.00012144
-4.79277e-06
-0.0001203
-7.91196e-06
-0.000118685
-1.10175e-05
-0.000116602
-1.40791e-05
-0.00011406
-1.70655e-05
-0.000111073
-1.99443e-05
-0.00010766
-2.26825e-05
-0.000103845
-2.52475e-05
-9.96558e-05
-2.76069e-05
-9.51249e-05
-2.97296e-05
-9.02892e-05
-3.15865e-05
-8.51897e-05
-3.31505e-05
-7.9871e-05
-3.43978e-05
-7.4381e-05
-3.53082e-05
-6.87703e-05
-3.58656e-05
-6.30914e-05
-3.60588e-05
-5.73984e-05
-3.58819e-05
-5.1746e-05
-3.53345e-05
-4.61883e-05
-3.44226e-05
-4.07785e-05
-3.31582e-05
-3.55678e-05
-3.156e-05
-3.06043e-05
-2.96531e-05
-2.5932e-05
-2.74695e-05
-2.15901e-05
-2.50476e-05
-1.76123e-05
-2.24324e-05
-1.40256e-05
-1.96753e-05
-1.08499e-05
-1.68338e-05
-8.09731e-06
-1.39717e-05
-5.77194e-06
-1.11588e-05
-3.86957e-06
-8.47073e-06
-2.37767e-06
-5.98951e-06
-1.27572e-06
-3.80316e-06
-5.35797e-07
-2.00584e-06
-1.23586e-07
-6.97732e-07
9.8641e-09
-3.63976e-07
1.52187e-06
-1.39344e-06
4.85483e-06
-3.03144e-06
8.32287e-06
-5.22509e-06
1.18079e-05
-7.92444e-06
1.522e-05
-1.10819e-05
1.84887e-05
-1.46518e-05
2.15604e-05
-1.85901e-05
2.43965e-05
-2.28541e-05
2.69708e-05
-2.74026e-05
2.92671e-05
-3.21953e-05
3.12772e-05
-3.71934e-05
3.29989e-05
-4.23593e-05
3.4434e-05
-4.76562e-05
3.55876e-05
-5.30485e-05
3.64662e-05
-5.85017e-05
3.70772e-05
-6.39817e-05
3.74283e-05
-6.94556e-05
3.75266e-05
-7.48908e-05
3.73784e-05
-8.02554e-05
3.69894e-05
-8.55178e-05
3.63641e-05
-9.0647e-05
3.55065e-05
-9.56121e-05
3.44197e-05
-0.000100383
3.31068e-05
-0.000104929
3.15705e-05
-0.000109222
2.9814e-05
-0.000113231
2.78411e-05
-0.000116929
2.56567e-05
-0.000120289
2.32669e-05
-0.000123284
2.06795e-05
-0.00012589
1.79046e-05
-0.000128082
1.4954e-05
-0.000129841
1.18423e-05
-0.000131145
8.58666e-06
-0.00013198
5.20681e-06
-0.000132331
1.72528e-06
-0.000132186
-1.83272e-06
-0.00013154
-5.43936e-06
-0.000130387
-9.06438e-06
-0.000128729
-1.26753e-05
-0.000126571
-1.62377e-05
-0.000123921
-1.97156e-05
-0.000120793
-2.30721e-05
-0.000117206
-2.62694e-05
-0.000113184
-2.92699e-05
-0.000108754
-3.20364e-05
-0.000103951
-3.4533e-05
-9.88113e-05
-3.67258e-05
-9.33783e-05
-3.85835e-05
-8.7698e-05
-4.00781e-05
-8.18204e-05
-4.11857e-05
-7.57987e-05
-4.18873e-05
-6.96885e-05
-4.2169e-05
-6.35471e-05
-4.20233e-05
-5.74328e-05
-4.14488e-05
-5.14039e-05
-4.04515e-05
-4.55178e-05
-3.90443e-05
-3.98301e-05
-3.72477e-05
-3.43934e-05
-3.50898e-05
-2.92564e-05
-3.26065e-05
-2.44631e-05
-2.98409e-05
-2.00515e-05
-2.6844e-05
-1.60533e-05
-2.36735e-05
-1.24927e-05
-2.03945e-05
-9.38599e-06
-1.70784e-05
-6.74142e-06
-1.38033e-05
-4.55864e-06
-1.06535e-05
-2.82892e-06
-7.71923e-06
-1.53545e-06
-5.09663e-06
-6.54003e-07
-2.88728e-06
-1.53992e-07
-1.19774e-06
-1.44128e-07
-4.04891e-07
1.92676e-06
-1.54534e-06
5.99528e-06
-3.35324e-06
1.01308e-05
-5.76547e-06
1.42201e-05
-8.72298e-06
1.81775e-05
-1.21703e-05
2.1936e-05
-1.60549e-05
2.5445e-05
-2.0327e-05
2.86686e-05
-2.49394e-05
3.15831e-05
-2.98468e-05
3.41745e-05
-3.50059e-05
3.64363e-05
-4.03752e-05
3.83682e-05
-4.59148e-05
3.99736e-05
-5.15863e-05
4.1259e-05
-5.73525e-05
4.22323e-05
-6.31773e-05
4.29021e-05
-6.90258e-05
4.32768e-05
-7.48636e-05
4.33644e-05
-8.06572e-05
4.3172e-05
-8.63736e-05
4.27057e-05
-9.19802e-05
4.19707e-05
-9.74449e-05
4.09712e-05
-0.000102736
3.97107e-05
-0.000107822
3.81926e-05
-0.000112671
3.64201e-05
-0.000117254
3.43967e-05
-0.00012154
3.21269e-05
-0.000125499
2.96161e-05
-0.000129104
2.68715e-05
-0.000132326
2.39019e-05
-0.00013514
2.07185e-05
-0.000137521
1.73349e-05
-0.000139446
1.37677e-05
-0.000140896
1.00358e-05
-0.000141851
6.16179e-06
-0.000142296
2.1708e-06
-0.00014222
-1.90878e-06
-0.000141614
-6.04569e-06
-0.000140472
-1.02059e-05
-0.000138795
-1.43528e-05
-0.000136585
-1.84476e-05
-0.000133851
-2.24499e-05
-0.000130605
-2.63176e-05
-0.000126866
-3.00082e-05
-0.000122657
-3.34788e-05
-0.000118007
-3.6687e-05
-0.000112948
-3.95919e-05
-0.000107519
-4.21545e-05
-0.000101764
-4.43385e-05
-9.57307e-05
-4.61115e-05
-8.9471e-05
-4.74455e-05
-8.30405e-05
-4.83177e-05
-7.64978e-05
-4.87117e-05
-6.99037e-05
-4.86174e-05
-6.33202e-05
-4.80323e-05
-5.681e-05
-4.69617e-05
-5.04349e-05
-4.54193e-05
-4.42554e-05
-4.34272e-05
-3.83291e-05
-4.10161e-05
-3.27098e-05
-3.82257e-05
-2.74467e-05
-3.5104e-05
-2.25831e-05
-3.17076e-05
-1.81555e-05
-2.81011e-05
-1.41931e-05
-2.43568e-05
-1.07171e-05
-2.05544e-05
-7.74007e-06
-1.67804e-05
-5.26595e-06
-1.31276e-05
-3.29007e-06
-9.69512e-06
-1.79941e-06
-6.58729e-06
-7.73274e-07
-3.91341e-06
-1.84331e-07
-1.78669e-06
-3.28459e-07
-4.44279e-07
2.37104e-06
-1.69186e-06
7.24286e-06
-3.66414e-06
1.21031e-05
-6.28829e-06
1.68443e-05
-9.49655e-06
2.13858e-05
-1.32257e-05
2.56652e-05
-1.74168e-05
2.96361e-05
-2.20144e-05
3.32662e-05
-2.69664e-05
3.65352e-05
-3.22239e-05
3.94319e-05
-3.77403e-05
4.19527e-05
-4.34715e-05
4.40994e-05
-4.93755e-05
4.58776e-05
-5.54121e-05
4.72956e-05
-6.15426e-05
4.83629e-05
-6.77299e-05
4.90893e-05
-7.39376e-05
4.94846e-05
-8.01307e-05
4.95575e-05
-8.62746e-05
4.93159e-05
-9.23355e-05
4.87666e-05
-9.828e-05
4.79152e-05
-0.000104075
4.67662e-05
-0.000109688
4.53237e-05
-0.000115087
4.35912e-05
-0.000120239
4.15723e-05
-0.000125113
3.9271e-05
-0.000129678
3.66921e-05
-0.000133904
3.38419e-05
-0.000137761
3.07282e-05
-0.00014122
2.7361e-05
-0.000144254
2.37526e-05
-0.000146838
1.99183e-05
-0.000148946
1.58762e-05
-0.000150558
1.16476e-05
-0.000151653
7.25718e-06
-0.000152216
2.73303e-06
-0.000152231
-1.89343e-06
-0.000151689
-6.58752e-06
-0.000150584
-1.13114e-05
-0.000148912
-1.60245e-05
-0.000146676
-2.06834e-05
-0.000143883
-2.52431e-05
-0.000140544
-2.96565e-05
-0.000136677
-3.38757e-05
-0.000132303
-3.78526e-05
-0.00012745
-4.15394e-05
-0.000122153
-4.48893e-05
-0.000116449
-4.78581e-05
-0.000110384
-5.04041e-05
-0.000104005
-5.24899e-05
-9.73679e-05
-5.40828e-05
-9.05296e-05
-5.51561e-05
-8.35519e-05
-5.56894e-05
-7.6499e-05
-5.56703e-05
-6.94371e-05
-5.50942e-05
-6.24332e-05
-5.39656e-05
-5.55542e-05
-5.22983e-05
-4.88658e-05
-5.01157e-05
-4.24309e-05
-4.7451e-05
-3.63094e-05
-4.43473e-05
-3.05559e-05
-4.08575e-05
-2.52195e-05
-3.7044e-05
-2.03426e-05
-3.2978e-05
-1.59597e-05
-2.87397e-05
-1.20973e-05
-2.44168e-05
-8.77299e-06
-2.01047e-05
-5.99528e-06
-1.59053e-05
-3.76377e-06
-1.19266e-05
-2.06927e-06
-8.28179e-06
-8.94478e-07
-5.08821e-06
-2.14883e-07
-2.46628e-06
-5.43341e-07
-4.82118e-07
2.85316e-06
-1.8328e-06
8.59355e-06
-3.96353e-06
1.42338e-05
-6.79229e-06
1.9673e-05
-1.0243e-05
2.48365e-05
-1.42451e-05
2.96673e-05
-1.87333e-05
3.41242e-05
-2.36466e-05
3.81796e-05
-2.89285e-05
4.18171e-05
-3.4526e-05
4.50295e-05
-4.03897e-05
4.78163e-05
-4.64727e-05
5.01824e-05
-5.27311e-05
5.2136e-05
-5.91229e-05
5.36874e-05
-6.56081e-05
5.48481e-05
-7.21484e-05
5.56296e-05
-7.87065e-05
5.60427e-05
-8.52465e-05
5.60975e-05
-9.17332e-05
5.58026e-05
-9.81319e-05
5.51653e-05
-0.000104409
5.41919e-05
-0.00011053
5.28874e-05
-0.000116462
5.12559e-05
-0.000122172
4.93014e-05
-0.000127628
4.70277e-05
-0.000132796
4.44393e-05
-0.000137645
4.15415e-05
-0.000142144
3.83409e-05
-0.000146262
3.48462e-05
-0.000149969
3.10683e-05
-0.000153237
2.70206e-05
-0.000156039
2.27199e-05
-0.000158349
1.81859e-05
-0.000160143
1.34419e-05
-0.000161401
8.51485e-06
-0.000162103
3.43553e-06
-0.000162235
-1.76169e-06
-0.000161784
-7.03876e-06
-0.000160741
-1.23541e-05
-0.000159102
-1.7663e-05
-0.000156868
-2.29178e-05
-0.000154043
-2.80683e-05
-0.000150637
-3.30626e-05
-0.000146665
-3.78473e-05
-0.000142149
-4.23685e-05
-0.000137116
-4.65726e-05
-0.000131598
-5.04071e-05
-0.000125635
-5.38215e-05
-0.00011927
-5.67686e-05
-0.000112555
-5.92052e-05
-0.000105544
-6.10934e-05
-9.82987e-05
-6.24016e-05
-9.08828e-05
-6.31054e-05
-8.33642e-05
-6.31889e-05
-7.58133e-05
-6.26451e-05
-6.83019e-05
-6.1477e-05
-6.09023e-05
-5.96979e-05
-5.36857e-05
-5.73323e-05
-4.67214e-05
-5.44153e-05
-4.00751e-05
-5.09935e-05
-3.38083e-05
-4.71243e-05
-2.79763e-05
-4.2876e-05
-2.26278e-05
-3.83266e-05
-1.78035e-05
-3.3564e-05
-1.35356e-05
-2.86847e-05
-9.8472e-06
-2.37931e-05
-6.75187e-06
-1.90007e-05
-4.25366e-06
-1.44248e-05
-2.34732e-06
-1.01881e-05
-1.01877e-06
-6.41676e-06
-2.45992e-07
-3.23906e-06
-7.89333e-07
-5.18372e-07
3.37153e-06
-1.96794e-06
1.00431e-05
-4.25081e-06
1.65166e-05
-7.27627e-06
2.26985e-05
-1.09604e-05
2.85206e-05
-1.52256e-05
3.39325e-05
-2.00004e-05
3.8899e-05
-2.52186e-05
4.33978e-05
-3.08194e-05
4.74178e-05
-3.67459e-05
5.0956e-05
-4.29457e-05
5.40161e-05
-4.93697e-05
5.66063e-05
-5.59716e-05
5.8738e-05
-6.27081e-05
6.04239e-05
-6.95379e-05
6.16779e-05
-7.64215e-05
6.25132e-05
-8.33209e-05
6.29422e-05
-9.01996e-05
6.29761e-05
-9.70215e-05
6.26245e-05
-0.000103752
6.18955e-05
-0.000110356
6.07958e-05
-0.000116799
5.93308e-05
-0.000123048
5.7505e-05
-0.000129069
5.53227e-05
-0.00013483
5.27878e-05
-0.000140295
4.99052e-05
-0.000145434
4.66805e-05
-0.000150214
4.31208e-05
-0.000154604
3.92355e-05
-0.000158571
3.50361e-05
-0.000162088
3.05373e-05
-0.000165125
2.57568e-05
-0.000167655
2.07161e-05
-0.000169653
1.54402e-05
-0.000171097
9.95822e-06
-0.000171965
4.30343e-06
-0.000172239
-1.48695e-06
-0.000171907
-7.37161e-06
-0.000170955
-1.33054e-05
-0.000169379
-1.92394e-05
-0.000167175
-2.51216e-05
-0.000164347
-3.08969e-05
-0.000160901
-3.65082e-05
-0.000156852
-4.18964e-05
-0.000152219
-4.70017e-05
-0.000147027
-5.17644e-05
-0.000141308
-5.61256e-05
-0.000135102
-6.00283e-05
-0.000128451
-6.3419e-05
-0.000121408
-6.62481e-05
-0.00011403
-6.84719e-05
-0.000106378
-7.00532e-05
-9.85209e-05
-7.09627e-05
-9.05294e-05
-7.11804e-05
-8.24784e-05
-7.06961e-05
-7.44449e-05
-6.95105e-05
-6.65067e-05
-6.76362e-05
-5.87413e-05
-6.50976e-05
-5.12246e-05
-6.1932e-05
-4.40295e-05
-5.81887e-05
-3.72241e-05
-5.39297e-05
-3.08713e-05
-4.92288e-05
-2.50265e-05
-4.41714e-05
-1.97374e-05
-3.88531e-05
-1.50426e-05
-3.33795e-05
-1.09711e-05
-2.78646e-05
-7.54203e-06
-2.24298e-05
-4.76416e-06
-1.72027e-05
-2.63627e-06
-1.2316e-05
-1.1475e-06
-7.90553e-06
-2.78052e-07
-4.1085e-06
-1.06739e-06
-5.52986e-07
3.92451e-06
-2.09701e-06
1.15871e-05
-4.52533e-06
1.8945e-05
-7.73903e-06
2.59122e-05
-1.16467e-05
3.24283e-05
-1.61642e-05
3.845e-05
-2.12142e-05
4.39489e-05
-2.67256e-05
4.89092e-05
-3.26331e-05
5.33253e-05
-3.88765e-05
5.71995e-05
-4.54004e-05
6.05401e-05
-5.21533e-05
6.33592e-05
-5.90872e-05
6.56718e-05
-6.61571e-05
6.74938e-05
-7.33205e-05
6.88414e-05
-8.05373e-05
6.97299e-05
-8.77686e-05
7.01735e-05
-9.49771e-05
7.01847e-05
-0.000102127
6.97741e-05