/*--------------------------------*- C++ -*----------------------------------*\
  =========                 |
  \\      /  F ield         | OpenFOAM: The Open Source CFD Toolbox
   \\    /   O peration     | Website:  https://openfoam.org
    \\  /    A nd           | Version:  dev
     \\/     M anipulation  |
\*---------------------------------------------------------------------------*/
FoamFile
{
    format      ascii;
    class       volScalarField;
    location    "47.25";
    object      Ux;
}
// * * * * * * * * * * * * * * * * * * * * * * * * * * * * * * * * * * * * * //

dimensions      [0 1 -1 0 0 0 0];

internalField   nonuniform List<scalar> 
5184
(
1.24416e-05
4.53572e-05
8.04572e-05
9.60917e-05
8.22571e-05
3.65528e-05
-4.0481e-05
-0.000146827
-0.000279691
-0.000436015
-0.000612679
-0.000806647
-0.00101505
-0.00123522
-0.0014647
-0.00170123
-0.00194274
-0.00218731
-0.00243315
-0.00267859
-0.00292201
-0.00316185
-0.00339659
-0.00362469
-0.00384464
-0.00405489
-0.00425388
-0.00444004
-0.00461179
-0.00476755
-0.00490576
-0.00502489
-0.00512349
-0.00520017
-0.00525368
-0.0052829
-0.00528688
-0.0052649
-0.00521645
-0.00514131
-0.00503954
-0.00491152
-0.00475795
-0.00457989
-0.00437873
-0.00415624
-0.00391452
-0.00365598
-0.00338337
-0.00309968
-0.00280815
-0.00251222
-0.00221545
-0.00192149
-0.00163403
-0.00135671
-0.00109306
-0.000846465
-0.00062006
-0.000416703
-0.00023889
-8.87002e-05
3.22788e-05
0.000123033
0.000183231
0.000213376
0.000215057
0.000191328
0.000147224
9.08403e-05
3.66458e-05
6.2294e-06
2.09228e-05
6.57893e-05
9.48972e-05
7.29912e-05
-1.87643e-05
-0.000187194
-0.000432884
-0.000752619
-0.00114085
-0.0015908
-0.00209512
-0.00264635
-0.00323719
-0.00386063
-0.00451008
-0.00517933
-0.00586258
-0.00655438
-0.0072496
-0.00794334
-0.00863092
-0.00930777
-0.00996941
-0.0106114
-0.0112294
-0.0118189
-0.0123756
-0.012895
-0.0133728
-0.0138045
-0.014186
-0.0145132
-0.0147821
-0.0149891
-0.015131
-0.0152048
-0.0152083
-0.0151397
-0.0149979
-0.0147823
-0.0144936
-0.0141328
-0.0137021
-0.0132046
-0.0126442
-0.0120257
-0.0113549
-0.0106385
-0.00988377
-0.00909889
-0.00829254
-0.00747391
-0.00665253
-0.00583815
-0.00504055
-0.00426941
-0.0035341
-0.00284355
-0.00220605
-0.00162907
-0.0011191
-0.000681421
-0.000319958
-3.69914e-05
0.000167115
0.000294285
0.00034927
0.000340346
0.000280015
0.000186144
8.6414e-05
1.96917e-05
1.76765e-05
4.144e-05
1.97477e-05
-8.38525e-05
-0.000290147
-0.000607886
-0.00103833
-0.00157767
-0.00221874
-0.00295234
-0.00376819
-0.00465559
-0.0056038
-0.00660236
-0.00764121
-0.00871078
-0.00980199
-0.0109062
-0.0120153
-0.0131213
-0.0142168
-0.0152942
-0.0163464
-0.0173663
-0.0183467
-0.0192806
-0.020161
-0.0209809
-0.0217335
-0.0224119
-0.0230096
-0.0235203
-0.0239381
-0.0242574
-0.0244734
-0.024582
-0.0245795
-0.0244637
-0.0242329
-0.0238868
-0.0234263
-0.0228535
-0.0221719
-0.0213863
-0.020503
-0.0195295
-0.0184749
-0.0173494
-0.0161644
-0.0149322
-0.0136662
-0.0123805
-0.0110896
-0.00980832
-0.00855158
-0.00733409
-0.0061701
-0.00507315
-0.00405577
-0.00312924
-0.00230332
-0.00158588
-0.000982665
-0.000496908
-0.000128914
0.000124392
0.000270109
0.000320093
0.000291484
0.000207525
0.000102508
2.49906e-05
8.86174e-06
-6.94544e-06
-0.000107495
-0.000322304
-0.000669622
-0.00115786
-0.00178776
-0.00255456
-0.0034497
-0.00446217
-0.00557946
-0.00678838
-0.0080755
-0.00942757
-0.0108317
-0.0122754
-0.0137468
-0.0152345
-0.0167275
-0.0182154
-0.0196878
-0.0211347
-0.0225466
-0.0239135
-0.0252262
-0.0264749
-0.0276505
-0.0287436
-0.0297451
-0.0306462
-0.0314382
-0.0321129
-0.0326627
-0.0330807
-0.0333605
-0.0334969
-0.0334857
-0.0333239
-0.0330097
-0.032543
-0.0319251
-0.0311591
-0.0302497
-0.0292033
-0.0280283
-0.0267347
-0.0253343
-0.0238402
-0.0222674
-0.020632
-0.0189511
-0.0172431
-0.0155265
-0.0138207
-0.0121449
-0.0105179
-0.0089581
-0.00748303
-0.00610878
-0.00484986
-0.00371876
-0.00272559
-0.00187769
-0.00117918
-0.00063052
-0.000228009
3.68424e-05
0.000177938
0.000215009
0.000174236
9.30887e-05
2.4041e-05
-2.1134e-06
-6.72644e-05
-0.000264097
-0.000609826
-0.00111696
-0.0017917
-0.00263306
-0.00363467
-0.0047864
-0.00607552
-0.00748768
-0.00900762
-0.0106197
-0.0123085
-0.0140586
-0.0158551
-0.0176838
-0.0195307
-0.0213826
-0.0232264
-0.0250495
-0.0268396
-0.0285847
-0.0302728
-0.0318921
-0.0334309
-0.0348779
-0.0362215
-0.0374509
-0.0385551
-0.0395239
-0.0403475
-0.0410167
-0.0415233
-0.0418599
-0.0420203
-0.0419999
-0.041795
-0.041404
-0.0408269
-0.0400655
-0.0391237
-0.0380073
-0.0367243
-0.0352848
-0.0337008
-0.0319864
-0.0301577
-0.0282324
-0.0262297
-0.0241703
-0.0220758
-0.0199685
-0.0178715
-0.0158075
-0.0137992
-0.0118685
-0.0100362
-0.00832154
-0.0067419
-0.00531222
-0.00404462
-0.00294797
-0.00202741
-0.00128388
-0.000713618
-0.00030761
-5.10798e-05
7.68614e-05
0.000103728
6.75647e-05
1.96781e-05
-1.36913e-05
-0.000132843
-0.000435896
-0.000924836
-0.0016043
-0.00247686
-0.00353866
-0.00478101
-0.00619181
-0.00775654
-0.00945905
-0.0112823
-0.0132087
-0.0152208
-0.0173014
-0.0194334
-0.0216004
-0.0237865
-0.0259761
-0.0281541
-0.0303059
-0.032417
-0.0344732
-0.0364605
-0.0383652
-0.0401737
-0.0418725
-0.0434485
-0.0448888
-0.0461811
-0.0473134
-0.0482745
-0.0490541
-0.0496428
-0.0500323
-0.0502157
-0.0501876
-0.0499445
-0.0494844
-0.0488075
-0.0479162
-0.0468149
-0.0455106
-0.0440124
-0.0423319
-0.0404831
-0.038482
-0.0363468
-0.034098
-0.0317573
-0.0293483
-0.0268956
-0.0244249
-0.0219621
-0.0195335
-0.0171647
-0.014881
-0.012706
-0.0106619
-0.00876859
-0.00704338
-0.00550035
-0.00414996
-0.00299858
-0.00204799
-0.0012949
-0.000730528
-0.000340137
-0.000102752
9.27054e-06
3.255e-05
1.36326e-05
-2.51887e-05
-0.000200054
-0.000614233
-0.00125325
-0.00211264
-0.00319025
-0.00447852
-0.00596572
-0.00763735
-0.00947686
-0.0114662
-0.0135867
-0.015819
-0.0181438
-0.0205422
-0.0229954
-0.0254851
-0.0279935
-0.0305033
-0.0329975
-0.0354595
-0.037873
-0.040222
-0.0424907
-0.0446634
-0.0467249
-0.04866
-0.0504539
-0.0520923
-0.0535612
-0.0548475
-0.0559386
-0.056823
-0.0574905
-0.0579318
-0.0581396
-0.0581079
-0.0578328
-0.0573123
-0.0565469
-0.0555391
-0.0542941
-0.0528194
-0.0511255
-0.049225
-0.0471334
-0.0448685
-0.0424505
-0.0399018
-0.0372466
-0.034511
-0.0317222
-0.0289087
-0.0260991
-0.0233227
-0.0206081
-0.0179833
-0.0154748
-0.0131075
-0.0109037
-0.00888302
-0.00706155
-0.00545154
-0.00406083
-0.00289242
-0.00194403
-0.00120769
-0.000669459
-0.000309103
-9.97751e-05
-7.67187e-06
6.87071e-06
-3.63486e-05
-0.000267015
-0.000793984
-0.00158612
-0.00262926
-0.00391586
-0.00543393
-0.00716819
-0.00910129
-0.0112144
-0.0134875
-0.0159
-0.018431
-0.0210597
-0.0237655
-0.026528
-0.0293274
-0.0321443
-0.0349596
-0.0377549
-0.0405118
-0.0432125
-0.0458392
-0.0483746
-0.0508015
-0.0531029
-0.0552623
-0.0572634
-0.0590904
-0.0607281
-0.0621621
-0.0633788
-0.0643657
-0.0651116
-0.0656065
-0.0658424
-0.0658129
-0.0655138
-0.064943
-0.0641009
-0.0629903
-0.0616167
-0.0599884
-0.0581165
-0.0560148
-0.0536998
-0.0511908
-0.0485096
-0.0456805
-0.0427297
-0.0396854
-0.0365772
-0.033436
-0.0302932
-0.0271805
-0.0241294
-0.0211705
-0.0183332
-0.0156448
-0.0131303
-0.0108115
-0.00870674
-0.00683029
-0.00519174
-0.0037957
-0.00264132
-0.00172201
-0.0010252
-0.000532041
-0.000217163
-5.04317e-05
-7.65283e-08
-4.70744e-05
-0.000332742
-0.000972149
-0.00191783
-0.00314577
-0.0046426
-0.00639151
-0.0083732
-0.0105672
-0.012952
-0.0155055
-0.0182053
-0.0210288
-0.0239537
-0.0269579
-0.0300197
-0.0331177
-0.0362314
-0.0393401
-0.0424239
-0.0454632
-0.0484385
-0.0513309
-0.0541214
-0.0567915
-0.0593229
-0.0616977
-0.0638983
-0.0659077
-0.0677095
-0.0692882
-0.0706292
-0.071719
-0.0725455
-0.0730982
-0.0733682
-0.0733488
-0.0730353
-0.0724253
-0.0715192
-0.0703198
-0.0688329
-0.067067
-0.0650339
-0.0627479
-0.0602268
-0.0574909
-0.0545633
-0.0514697
-0.0482383
-0.0448991
-0.0414838
-0.0380257
-0.0345584
-0.0311165
-0.0277338
-0.0244437
-0.0212783
-0.0182676
-0.015439
-0.0128171
-0.0104226
-0.00827184
-0.00637665
-0.00474359
-0.00337368
-0.00226213
-0.00139822
-0.00076499
-0.000338986
-9.41679e-05
-6.93844e-06
-5.73543e-05
-0.000396751
-0.00114699
-0.00224485
-0.00365658
-0.00536283
-0.00734167
-0.00956952
-0.0120224
-0.0146762
-0.0175064
-0.0204887
-0.0235988
-0.026813
-0.0301077
-0.03346
-0.0368474
-0.0402478
-0.0436396
-0.0470016
-0.0503128
-0.0535528
-0.0567011
-0.0597378
-0.0626429
-0.0653971
-0.0679812
-0.0703765
-0.0725649
-0.0745289
-0.076252
-0.0777186
-0.0789144
-0.0798263
-0.0804432
-0.0807555
-0.0807558
-0.080439
-0.0798024
-0.0788459
-0.0775723
-0.0759873
-0.0740997
-0.0719213
-0.0694673
-0.0667558
-0.0638081
-0.0606485
-0.0573038
-0.0538038
-0.0501802
-0.0464668
-0.0426987
-0.0389122
-0.0351441
-0.031431
-0.0278091
-0.0243129
-0.0209755
-0.0178272
-0.014895
-0.0122024
-0.00976839
-0.0076072
-0.00572773
-0.00413324
-0.00282118
-0.00178305
-0.00100408
-0.000463027
-0.000138062
-1.35988e-05
-6.72061e-05
-0.000458818
-0.0013175
-0.00256497
-0.00415797
-0.00607119
-0.00827747
-0.0107488
-0.0134575
-0.0163766
-0.0194792
-0.0227389
-0.0261298
-0.0296266
-0.0332047
-0.0368397
-0.0405081
-0.0441868
-0.047853
-0.0514844
-0.0550592
-0.0585557
-0.0619525
-0.0652285
-0.0683628
-0.0713349
-0.0741246
-0.0767122
-0.0790787
-0.0812055
-0.0830752
-0.0846712
-0.0859783
-0.0869827
-0.0876724
-0.088037
-0.0880685
-0.0877611
-0.0871116
-0.0861193
-0.0847868
-0.0831195
-0.0811261
-0.0788184
-0.0762117
-0.0733247
-0.0701792
-0.0668002
-0.0632158
-0.059457
-0.055557
-0.0515515
-0.0474777
-0.0433741
-0.0392799
-0.0352346
-0.031277
-0.0274447
-0.0237737
-0.0202972
-0.0170456
-0.014045
-0.0113175
-0.00888014
-0.00674445
-0.00491636
-0.00339586
-0.002177
-0.00124745
-0.000588275
-0.000181787
-2.00309e-05
-7.6654e-05
-0.000518837
-0.00148309
-0.00287674
-0.0046474
-0.00676388
-0.00919379
-0.0119046
-0.014865
-0.0180448
-0.0214147
-0.0249463
-0.0286121
-0.0323852
-0.0362397
-0.0401502
-0.0440922
-0.0480415
-0.0519746
-0.0558682
-0.0596996
-0.0634461
-0.0670856
-0.070596
-0.0739555
-0.0771426
-0.0801364
-0.0829162
-0.085462
-0.0877543
-0.0897749
-0.0915062
-0.0929321
-0.0940381
-0.094811
-0.0952399
-0.0953157
-0.0950319
-0.0943845
-0.0933724
-0.0919972
-0.090264
-0.088181
-0.0857599
-0.0830159
-0.0799677
-0.0766375
-0.0730509
-0.0692369
-0.0652275
-0.0610574
-0.0567639
-0.0523862
-0.0479653
-0.0435428
-0.0391608
-0.0348613
-0.030685
-0.026671
-0.0228562
-0.0192738
-0.0159538
-0.0129212
-0.0101963
-0.00779385
-0.00572266
-0.00398561
-0.00257955
-0.00149473
-0.000714571
-0.000225344
-2.62615e-05
-8.57193e-05
-0.000576757
-0.00164336
-0.00317917
-0.00512303
-0.00743806
-0.0100867
-0.0130319
-0.0162387
-0.0196738
-0.0233053
-0.0271029
-0.0310372
-0.03508
-0.0392041
-0.0433833
-0.047592
-0.0518051
-0.0559985
-0.060148
-0.0642301
-0.0682215
-0.0720993
-0.0758406
-0.0794229
-0.082824
-0.086022
-0.0889955
-0.0917236
-0.0941861
-0.0963637
-0.0982381
-0.0997922
-0.101011
-0.101879
-0.102386
-0.10252
-0.102276
-0.101647
-0.100632
-0.0992316
-0.0974498
-0.0952943
-0.0927762
-0.0899104
-0.0867154
-0.0832135
-0.0794306
-0.0753963
-0.0711435
-0.0667083
-0.0621296
-0.0574486
-0.0527083
-0.0479532
-0.0432282
-0.0385785
-0.0340483
-0.0296801
-0.0255144
-0.0215885
-0.0179356
-0.0145848
-0.0115599
-0.00887899
-0.00655435
-0.00459199
-0.00299175
-0.00174663
-0.000842362
-0.000268955
-3.2349e-05
-9.4417e-05
-0.000632541
-0.00179805
-0.00347153
-0.00558347
-0.00809149
-0.010953
-0.0141266
-0.0175736
-0.0212577
-0.0251444
-0.0292013
-0.0333974
-0.0377031
-0.0420901
-0.0465312
-0.0509998
-0.0554704
-0.0599179
-0.0643177
-0.0686456
-0.0728777
-0.0769905
-0.0809605
-0.0847645
-0.0883796
-0.0917834
-0.0949536
-0.0978685
-0.100507
-0.10285
-0.104876
-0.10657
-0.107913
-0.10889
-0.10949
-0.1097
-0.109512
-0.10892
-0.10792
-0.106512
-0.1047
-0.10249
-0.0998924
-0.096921
-0.0935941
-0.0899337
-0.0859659
-0.0817206
-0.0772315
-0.0725357
-0.0676738
-0.0626887
-0.057626
-0.0525327
-0.047457
-0.0424472
-0.0375514
-0.0328159
-0.0282853
-0.0240009
-0.0200003
-0.0163166
-0.0129775
-0.0100053
-0.00741564
-0.00521815
-0.0034159
-0.00200468
-0.000972525
-0.000312988
-3.83714e-05
-0.000102755
-0.000686145
-0.00194689
-0.00375317
-0.00602751
-0.00872228
-0.0117901
-0.0151852
-0.0188654
-0.0227912
-0.0269259
-0.0312349
-0.0356855
-0.040247
-0.0448898
-0.0495858
-0.0543078
-0.0590296
-0.0637255
-0.0683704
-0.0729397
-0.077409
-0.0817541
-0.0859513
-0.0899768
-0.0938071
-0.0974192
-0.10079
-0.103898
-0.10672
-0.109236
-0.111426
-0.11327
-0.114752
-0.115854
-0.116563
-0.116865
-0.116752
-0.116216
-0.115251
-0.113856
-0.112033
-0.109788
-0.107128
-0.104069
-0.100625
-0.0968206
-0.0926799
-0.0882333
-0.0835151
-0.0785634
-0.07342
-0.06813
-0.0627411
-0.0573033
-0.051868
-0.0464871
-0.0412127
-0.0360954
-0.0311841
-0.0265249
-0.0221599
-0.0181269
-0.014458
-0.0111798
-0.00831222
-0.00586848
-0.00385514
-0.00227098
-0.00110624
-0.000357918
-4.44189e-05
-0.000110733
-0.000737507
-0.00208964
-0.00402349
-0.00645405
-0.00932869
-0.0125954
-0.0162044
-0.0201098
-0.0242695
-0.0286442
-0.0331973
-0.0378947
-0.0427042
-0.0475953
-0.0525391
-0.0575077
-0.0624744
-0.067413
-0.0722981
-0.0771045
-0.0818077
-0.0863831
-0.0908065
-0.0950538
-0.099101
-0.102925
-0.106501
-0.109808
-0.112822
-0.115521
-0.117886
-0.119894
-0.121529
-0.122772
-0.123607
-0.124022
-0.124003
-0.123542
-0.122633
-0.121272
-0.119459
-0.117199
-0.114498
-0.111368
-0.107826
-0.103892
-0.0995914
-0.0949542
-0.0900149
-0.0848125
-0.07939
-0.0737943
-0.0680756
-0.0622867
-0.0564824
-0.0507186
-0.0450515
-0.0395366
-0.0342276
-0.0291756
-0.024428
-0.0200275
-0.0160115
-0.0124112
-0.00925096
-0.00654825
-0.00431332
-0.00254802
-0.00124491
-0.000404285
-5.05892e-05
-0.000118346
-0.000786544
-0.00222599
-0.00428185
-0.00686198
-0.00990903
-0.0133666
-0.017181
-0.0213031
-0.0256879
-0.0302938
-0.0350824
-0.040018
-0.0450672
-0.0501987
-0.0553827
-0.0605909
-0.0657959
-0.0709713
-0.0760914
-0.0811308
-0.0860647
-0.0908683
-0.0955171
-0.0999867
-0.104253
-0.108292
-0.112079
-0.115591
-0.118806
-0.121699
-0.12425
-0.126437
-0.12824
-0.129641
-0.130621
-0.131166
-0.131263
-0.1309
-0.130068
-0.128764
-0.126984
-0.12473
-0.122008
-0.118829
-0.115206
-0.11116
-0.106714
-0.101899
-0.0967478
-0.0913012
-0.0856029
-0.0797016
-0.0736499
-0.0675035
-0.0613208
-0.0551619
-0.0490876
-0.0431584
-0.0374335
-0.0319694
-0.0268194
-0.0220317
-0.0176494
-0.0137089
-0.0102395
-0.0072634
-0.00479471
-0.00283864
-0.00139007
-0.000452679
-5.69847e-05
-0.000125579
-0.000833153
-0.00235563
-0.00452759
-0.00725017
-0.0104616
-0.0141014
-0.018112
-0.0224414
-0.0270417
-0.0318693
-0.0368839
-0.0420485
-0.0473286
-0.0526918
-0.0581078
-0.0635478
-0.0689842
-0.0743902
-0.0797398
-0.0850078
-0.0901689
-0.0951985
-0.100072
-0.104764
-0.109251
-0.113508
-0.117512
-0.121237
-0.12466
-0.127758
-0.130508
-0.132887
-0.134874
-0.13645
-0.137595
-0.138291
-0.138525
-0.138282
-0.137551
-0.136326
-0.134603
-0.132379
-0.12966
-0.126453
-0.122771
-0.118631
-0.114057
-0.109077
-0.103726
-0.0980432
-0.092074
-0.0858687
-0.0794819
-0.0729725
-0.0664026
-0.0598366
-0.0533403
-0.0469797
-0.0408197
-0.0349232
-0.0293495
-0.0241533
-0.0193837
-0.015083
-0.0112863
-0.00802035
-0.00530397
-0.00314584
-0.00154337
-0.000503721
-6.37103e-05
-0.000132417
-0.000877206
-0.00247819
-0.00475998
-0.00761742
-0.0109846
-0.0147972
-0.0189943
-0.0235207
-0.0283262
-0.0333652
-0.0385957
-0.0439792
-0.0494803
-0.055066
-0.0607052
-0.0663688
-0.0720288
-0.0776584
-0.0832317
-0.0887231
-0.0941075
-0.0993602
-0.104456
-0.109371
-0.114081
-0.11856
-0.122784
-0.126728
-0.130369
-0.133681
-0.136642
-0.139228
-0.141415
-0.143184
-0.144512
-0.145381
-0.145773
-0.145673
-0.145068
-0.143948
-0.142306
-0.140138
-0.137446
-0.134235
-0.130516
-0.126304
-0.12162
-0.116493
-0.110956
-0.105047
-0.0988147
-0.0923087
-0.0855866
-0.0787102
-0.0717453
-0.064761
-0.0578282
-0.0510188
-0.0444042
-0.0380538
-0.032034
-0.0264064
-0.0212268
-0.0165443
-0.0123998
-0.00882582
-0.00584595
-0.00347281
-0.00170654
-0.000558053
-7.08726e-05
-0.000138835
-0.00091856
-0.00259325
-0.00497823
-0.00796248
-0.0114763
-0.0154517
-0.0198246
-0.0245372
-0.0295369
-0.034776
-0.0402113
-0.0458029
-0.0515145
-0.0573124
-0.0631651
-0.0690431
-0.0749183
-0.0807639
-0.0865539
-0.0922629
-0.0978659
-0.103338
-0.108655
-0.113792
-0.118724
-0.123427
-0.127876
-0.132045
-0.135911
-0.139448
-0.142631
-0.145436
-0.14784
-0.149818
-0.151349
-0.152411
-0.152984
-0.153052
-0.152597
-0.151608
-0.150074
-0.147989
-0.145351
-0.142163
-0.138431
-0.134171
-0.1294
-0.124144
-0.118437
-0.112317
-0.105831
-0.0990305
-0.0919752
-0.0847297
-0.0773638
-0.069951
-0.0625681
-0.055293
-0.048204
-0.0413779
-0.0348886
-0.0288053
-0.0231915
-0.0181035
-0.013589
-0.00968673
-0.00642566
-0.00382279
-0.00188134
-0.000616329
-7.85793e-05
-0.000144809
-0.000957055
-0.00270038
-0.00518152
-0.00828404
-0.0119347
-0.0160623
-0.0205999
-0.0254869
-0.0306688
-0.0360961
-0.0417242
-0.0475122
-0.0534228
-0.0594217
-0.0654773
-0.0715596
-0.0776406
-0.0836935
-0.0896924
-0.095612
-0.101428
-0.107115
-0.112649
-0.118006
-0.12316
-0.128088
-0.132765
-0.137164
-0.141261
-0.145031
-0.148447
-0.151484
-0.154118
-0.156323
-0.158075
-0.159351
-0.160128
-0.160387
-0.160109
-0.159277
-0.157879
-0.155905
-0.15335
-0.150212
-0.146497
-0.142214
-0.137381
-0.132021
-0.126164
-0.119849
-0.113122
-0.106037
-0.0986537
-0.09104
-0.0832693
-0.0754201
-0.0675747
-0.0598179
-0.0522351
-0.0449112
-0.0379282
-0.031364
-0.0252903
-0.0197715
-0.0148629
-0.0106101
-0.00704817
-0.0041991
-0.00206956
-0.000679213
-8.69389e-05
-0.000150311
-0.000992522
-0.00279913
-0.00536898
-0.00858074
-0.012358
-0.0166265
-0.0213167
-0.0263657
-0.0317171
-0.0373198
-0.0431279
-0.0490995
-0.0551966
-0.0613846
-0.0676312
-0.0739067
-0.080183
-0.0864332
-0.0926319
-0.098754
-0.104775
-0.110671
-0.116417
-0.121991
-0.127366
-0.132518
-0.137423
-0.142055
-0.146389
-0.150398
-0.154057
-0.157338
-0.160215
-0.162662
-0.164653
-0.166163
-0.167166
-0.16764
-0.167563
-0.166917
-0.165683
-0.16385
-0.161408
-0.158352
-0.154684
-0.150409
-0.145542
-0.140103
-0.13412
-0.127632
-0.120682
-0.113325
-0.105623
-0.0976451
-0.089469
-0.0811778
-0.0728598
-0.0646067
-0.0565117
-0.0486682
-0.0411672
-0.034096
-0.0275354
-0.0215589
-0.0162303
-0.0116028
-0.0077186
-0.00460506
-0.002273
-0.000747375
-9.60603e-05
-0.000155311
-0.00102479
-0.00288902
-0.00553976
-0.00885123
-0.0127442
-0.0171418
-0.0219719
-0.0271697
-0.032677
-0.0384414
-0.0444157
-0.0505573
-0.0568275
-0.0631912
-0.0696161
-0.0760723
-0.0825319
-0.0889683
-0.0953562
-0.101671
-0.107889
-0.113986
-0.119938
-0.125722
-0.131314
-0.136689
-0.141822
-0.146688
-0.151261
-0.155515
-0.159422
-0.162956
-0.166088
-0.168792
-0.171038
-0.1728
-0.17405
-0.174763
-0.174914
-0.17448
-0.173441
-0.171779
-0.169482
-0.166541
-0.162952
-0.158718
-0.153849
-0.148362
-0.142283
-0.135646
-0.128495
-0.120884
-0.112876
-0.104543
-0.0959647
-0.0872295
-0.0784316
-0.0696697
-0.0610456
-0.0526615
-0.0446185
-0.0370138
-0.0299385
-0.0234761
-0.0176999
-0.012672
-0.008442
-0.00504401
-0.00249349
-0.000821485
-0.000106053
-0.000159778
-0.00105367
-0.0029696
-0.00569299
-0.00909419
-0.0130914
-0.0176056
-0.0225623
-0.027895
-0.0335439
-0.0394554
-0.0455812
-0.051878
-0.0583067
-0.0648318
-0.0714209
-0.0780441
-0.0846737
-0.0912834
-0.0978485
-0.104345
-0.110749
-0.117037
-0.123187
-0.129174
-0.134976
-0.140569
-0.145927
-0.151025
-0.155838
-0.160339
-0.164501
-0.168294
-0.171691
-0.174662
-0.177179
-0.17921
-0.180727
-0.181701
-0.182104
-0.18191
-0.181095
-0.179637
-0.177519
-0.174727
-0.171253
-0.167096
-0.16226
-0.15676
-0.150616
-0.143861
-0.136537
-0.128696
-0.120401
-0.111725
-0.102753
-0.0935754
-0.0842937
-0.0750138
-0.0658457
-0.0569018
-0.0482933
-0.0401287
-0.0325104
-0.0255329
-0.0192802
-0.0138241
-0.00922336
-0.00551923
-0.00273281
-0.000902215
-0.000117028
-0.000163685
-0.00107901
-0.0030404
-0.00582785
-0.00930835
-0.013398
-0.0180155
-0.0230848
-0.0285378
-0.0343131
-0.0403562
-0.0466179
-0.0530543
-0.0596258
-0.0662966
-0.0730345
-0.0798095
-0.0865943
-0.0933631
-0.100091
-0.106756
-0.113333
-0.119801
-0.126137
-0.132318
-0.138322
-0.144125
-0.149702
-0.155029
-0.16008
-0.164828
-0.169245
-0.173302
-0.17697
-0.180218
-0.183016
-0.185332
-0.187133
-0.188389
-0.189068
-0.189141
-0.188579
-0.187357
-0.185452
-0.182846
-0.179526
-0.175484
-0.170722
-0.165246
-0.159076
-0.152239
-0.144774
-0.136731
-0.128174
-0.119175
-0.109822
-0.10021
-0.090445
-0.0806413
-0.0709178
-0.0613967
-0.0522009
-0.0434507
-0.0352609
-0.0277384
-0.020979
-0.0150659
-0.0100676
-0.00603398
-0.00299277
-0.000990239
-0.000129097
-0.000167004
-0.00110065
-0.00310104
-0.0059436
-0.00949253
-0.0136621
-0.0183694
-0.0235368
-0.0290945
-0.0349805
-0.0411389
-0.04752
-0.0540791
-0.0607765
-0.0675763
-0.0744461
-0.0813563
-0.0882799
-0.0951914
-0.102067
-0.108884
-0.11562
-0.122254
-0.128763
-0.135126
-0.14132
-0.147323
-0.15311
-0.158659
-0.163941
-0.168932
-0.173603
-0.177925
-0.181867
-0.185399
-0.188487
-0.191099
-0.1932
-0.194757
-0.195734
-0.196099
-0.195819
-0.194864
-0.193208
-0.190825
-0.187698
-0.183814
-0.179167
-0.173761
-0.167607
-0.160729
-0.153161
-0.144953
-0.136163
-0.126867
-0.117153
-0.107119
-0.0968779
-0.0865498
-0.0762631
-0.0661509
-0.056348
-0.0469877
-0.0381985
-0.0301008
-0.0228039
-0.0164033
-0.0109793
-0.00659143
-0.00327512
-0.00108623
-0.000142373
-0.00016971
-0.00111844
-0.00315113
-0.00603957
-0.00964571
-0.0138824
-0.0186654
-0.0239156
-0.0295622
-0.0355421
-0.0417988
-0.0482817
-0.0549458
-0.0617512
-0.0686618
-0.0756454
-0.0826726
-0.0897168
-0.0967531
-0.103758
-0.110711
-0.117588
-0.124371
-0.131037
-0.137566
-0.143936
-0.150125
-0.156111
-0.16187
-0.167375
-0.172602
-0.177522
-0.182105
-0.186322
-0.190139
-0.193523
-0.19644
-0.198852
-0.200725
-0.202019
-0.2027
-0.202729
-0.202074
-0.2007
-0.19858
-0.195688
-0.192006
-0.187521
-0.18223
-0.17614
-0.169267
-0.161643
-0.15331
-0.144328
-0.134768
-0.124719
-0.114284
-0.103579
-0.0927309
-0.0818783
-0.0711649
-0.0607381
-0.0507454
-0.04133
-0.0326273
-0.0247614
-0.0178423
-0.011963
-0.00719466
-0.00358161
-0.00119085
-0.000156971
-0.000171782
-0.00113228
-0.0031904
-0.00611523
-0.00976708
-0.0140577
-0.0189018
-0.0242192
-0.0299382
-0.0359948
-0.0423318
-0.0488981
-0.0556486
-0.0625428
-0.0695448
-0.0766225
-0.083747
-0.0908919
-0.098033
-0.105148
-0.112216
-0.119215
-0.126127
-0.132931
-0.139608
-0.146136
-0.152496
-0.158664
-0.164619
-0.170334
-0.175785
-0.180944
-0.185782
-0.190268
-0.194369
-0.19805
-0.201276
-0.204009
-0.206209
-0.207838
-0.208855
-0.209219
-0.208892
-0.207836
-0.206016
-0.203401
-0.199967
-0.195693
-0.190569
-0.184595
-0.177781
-0.170152
-0.161744
-0.152614
-0.142831
-0.132483
-0.121674
-0.110525
-0.0991698
-0.0877546
-0.0764349
-0.0653717
-0.054727
-0.0446603
-0.0353235
-0.0268575
-0.0193879
-0.013023
-0.00784663
-0.00391393
-0.00130476
-0.000173008
-0.000173207
-0.00114209
-0.00321864
-0.00617021
-0.00985605
-0.0141872
-0.0190775
-0.0244461
-0.0302204
-0.0363358
-0.0427346
-0.0493653
-0.0561822
-0.0631451
-0.0702179
-0.0773687
-0.084569
-0.091793
-0.0990171
-0.10622
-0.11338
-0.12048
-0.127499
-0.13442
-0.141222
-0.147888
-0.154397
-0.160729
-0.16686
-0.172768
-0.178428
-0.183813
-0.188893
-0.193639
-0.198017
-0.201992
-0.205528
-0.208584
-0.211121
-0.213097
-0.214467
-0.215188
-0.215217
-0.214511
-0.21303
-0.210735
-0.207595
-0.203584
-0.198682
-0.192881
-0.186183
-0.178606
-0.170181
-0.160957
-0.151001
-0.140397
-0.129252
-0.117688
-0.105844
-0.0938769
-0.0819522
-0.0702447
-0.0589324
-0.048192
-0.0381938
-0.0290969
-0.0210449
-0.014163
-0.00855014
-0.00427374
-0.00142863
-0.000190604
-0.000173976
-0.00114783
-0.00323576
-0.00620435
-0.00991235
-0.0142704
-0.0191919
-0.0245953
-0.0304076
-0.0365635
-0.0430049
-0.04968
-0.0565429
-0.0635531
-0.0706749
-0.0778764
-0.0851296
-0.0924092
-0.0996924
-0.106958
-0.114188
-0.121362
-0.128464
-0.135476
-0.14238
-0.149159
-0.155793
-0.162264
-0.16855
-0.17463
-0.180478
-0.18607
-0.191377
-0.196368
-0.201012
-0.205272
-0.209113
-0.212492
-0.215369
-0.217699
-0.219436
-0.220533
-0.220943
-0.220617
-0.21951
-0.217577
-0.21478
-0.211083
-0.20646
-0.200892
-0.194375
-0.186915
-0.178536
-0.169281
-0.159209
-0.148404
-0.136968
-0.125027
-0.112724
-0.100223
-0.087702
-0.0753487
-0.0633581
-0.0519253
-0.0412406
-0.0314832
-0.0228172
-0.0153866
-0.00930779
-0.00466261
-0.0015631
-0.000209881
-0.000174089
-0.0011495
-0.0032418
-0.0062177
-0.00993607
-0.0143075
-0.019245
-0.0246667
-0.0304993
-0.0366771
-0.0431415
-0.0498404
-0.0567279
-0.0637632
-0.0709109
-0.0781394
-0.085421
-0.0927311
-0.100048
-0.107351
-0.114622
-0.121844
-0.129001
-0.136076
-0.143053
-0.149917
-0.156649
-0.163232
-0.169646
-0.175871
-0.181883
-0.187659
-0.19317
-0.198388
-0.203281
-0.207813
-0.211947
-0.215643
-0.218858
-0.221546
-0.223658
-0.225145
-0.225956
-0.226037
-0.225338
-0.223808
-0.2214
-0.218071
-0.213785
-0.208516
-0.202246
-0.194973
-0.186712
-0.177495
-0.167376
-0.156432
-0.144763
-0.132493
-0.11977
-0.106764
-0.0936633
-0.0806702
-0.0679965
-0.0558572
-0.0444639
-0.0340186
-0.0247076
-0.0166967
-0.010122
-0.00508205
-0.00170881
-0.000230962
-0.000173554
-0.00114718
-0.00323692
-0.00621061
-0.00992768
-0.0142989
-0.0192374
-0.0246611
-0.0304963
-0.0366771
-0.0431444
-0.0498461
-0.056736
-0.0637734
-0.070923
-0.0781534
-0.0854374
-0.0927511
-0.100073
-0.107385
-0.114669
-0.121908
-0.12909
-0.136197
-0.143217
-0.150134
-0.156932
-0.163596
-0.170107
-0.176446
-0.182593
-0.188524
-0.194214
-0.199634
-0.204753
-0.209537
-0.21395
-0.217951
-0.221496
-0.224538
-0.227029
-0.228915
-0.230142
-0.230653
-0.230392
-0.229302
-0.227329
-0.22442
-0.220532
-0.215625
-0.209674
-0.202664
-0.194598
-0.185499
-0.17541
-0.164401
-0.152565
-0.140026
-0.126933
-0.113461
-0.099808
-0.0861896
-0.0728354
-0.0599812
-0.0478617
-0.0367036
-0.0267182
-0.0180958
-0.0109948
-0.00553345
-0.00186637
-0.000253973
-0.000172391
-0.00114099
-0.00322149
-0.0061837
-0.00988816
-0.0142461
-0.0191708
-0.0245801
-0.0304003
-0.036565
-0.0430152
-0.0496982
-0.0565678
-0.0635835
-0.0707099
-0.0779161
-0.0851753
-0.0924642
-0.0997625
-0.107052
-0.114317
-0.121542
-0.128715
-0.135821
-0.142848
-0.149783
-0.156613
-0.163322
-0.169895
-0.176315
-0.182562
-0.188616
-0.194452
-0.200043
-0.205361
-0.210373
-0.215042
-0.219329
-0.22319
-0.226579
-0.229445
-0.231733
-0.233386
-0.234345
-0.234547
-0.233931
-0.232434
-0.229997
-0.226564
-0.222088
-0.21653
-0.209862
-0.202075
-0.193179
-0.183206
-0.172215
-0.160292
-0.147557
-0.134156
-0.120268
-0.1061
-0.0918811
-0.0778576
-0.064287
-0.051429
-0.0395369
-0.0288498
-0.0195856
-0.0119281
-0.00601809
-0.00203638
-0.000279044
-0.000170631
-0.00113112
-0.00319605
-0.00613799
-0.009819
-0.014151
-0.0190476
-0.0244267
-0.0302145
-0.0363444
-0.042757
-0.0493997
-0.0562261
-0.0631955
-0.0702729
-0.0774276
-0.0846334
-0.0918677
-0.0991109
-0.106346
-0.113559
-0.120735
-0.127863
-0.134931
-0.141929
-0.148844
-0.155666
-0.162382
-0.168978
-0.175439
-0.181749
-0.187887
-0.193832
-0.19956
-0.205044
-0.210252
-0.215149
-0.219698
-0.223856
-0.227575
-0.230806
-0.233493
-0.235576
-0.236993
-0.237678
-0.237564
-0.236582
-0.234664
-0.231745
-0.227765
-0.222674
-0.21643
-0.209011
-0.200411
-0.190648
-0.179769
-0.16785
-0.155001
-0.141367
-0.127128
-0.112496
-0.0977119
-0.0830401
-0.0687599
-0.0551574
-0.0425148
-0.0311018
-0.0211669
-0.0129232
-0.00653711
-0.0022194
-0.000306303
-0.000168317
-0.00111786
-0.00316134
-0.00607484
-0.0097223
-0.0140165
-0.0188713
-0.024205
-0.0299434
-0.03602
-0.0423751
-0.0489557
-0.0557155
-0.0626138
-0.0696155
-0.0766907
-0.0838134
-0.0909618
-0.0981173
-0.105264
-0.112389
-0.119479
-0.126524
-0.133516
-0.140444
-0.147299
-0.154071
-0.160752
-0.167328
-0.173788
-0.180116
-0.186297
-0.19231
-0.198135
-0.203745
-0.209113
-0.214205
-0.218985
-0.223412
-0.22744
-0.231019
-0.234094
-0.236603
-0.238483
-0.239665
-0.240075
-0.23964
-0.238283
-0.235931
-0.232512
-0.227962
-0.222227
-0.215267
-0.207061
-0.197611
-0.186947
-0.175133
-0.162267
-0.148489
-0.133975
-0.118942
-0.103642
-0.0883539
-0.0733807
-0.0590353
-0.0456313
-0.033472
-0.0228399
-0.013981
-0.00709143
-0.00241596
-0.00033588
-0.000165508
-0.00110157
-0.00311837
-0.00599608
-0.00960082
-0.0138462
-0.0186466
-0.0239204
-0.0295934
-0.0355988
-0.0418765
-0.0483735
-0.0550432
-0.0618451
-0.0687442
-0.0757109
-0.0827198
-0.08975
-0.0967837
-0.103806
-0.110806
-0.117771
-0.124694
-0.131567
-0.138383
-0.145133
-0.151812
-0.158412
-0.164922
-0.171334
-0.177636
-0.183813
-0.189849
-0.195725
-0.201418
-0.206903
-0.21215
-0.217125
-0.221788
-0.226096
-0.229999
-0.233444
-0.236369
-0.238708
-0.240391
-0.241341
-0.241478
-0.24072
-0.238983
-0.236185
-0.232249
-0.227105
-0.220698
-0.212987
-0.203957
-0.19362
-0.182023
-0.169249
-0.155428
-0.140732
-0.125377
-0.109622
-0.0937635
-0.0781247
-0.0630472
-0.0488778
-0.0359564
-0.0246035
-0.015102
-0.00768182
-0.00262653
-0.000367908
-0.000162278
-0.00108271
-0.00306837
-0.00590401
-0.00945803
-0.0136449
-0.0183795
-0.0235802
-0.0291726
-0.0350895
-0.0412708
-0.0476629
-0.0542193
-0.0608993
-0.0676683
-0.0744969
-0.0813606
-0.0882391
-0.0951158
-0.101977
-0.108812
-0.115613
-0.122372
-0.129082
-0.135741
-0.142341
-0.148879
-0.15535
-0.161746
-0.168061
-0.174285
-0.180409
-0.186418
-0.192296
-0.198024
-0.20358
-0.208937
-0.214063
-0.218923
-0.223475
-0.227672
-0.231461
-0.234782
-0.237569
-0.239751
-0.241247
-0.241974
-0.241843
-0.240763
-0.238641
-0.235386
-0.230914
-0.225152
-0.218041
-0.209544
-0.199653
-0.188394
-0.175833
-0.162085
-0.147312
-0.131728
-0.115596
-0.099226
-0.0829615
-0.0671731
-0.0522426
-0.0385492
-0.0264556
-0.016286
-0.00830877
-0.00285153
-0.000402514
-0.00015872
-0.00106186
-0.00301291
-0.00580147
-0.00929826
-0.0134185
-0.0180773
-0.023193
-0.0286909
-0.0345033
-0.0405697
-0.0468364
-0.0532563
-0.0597891
-0.0664003
-0.073061
-0.0797473
-0.0864398
-0.093123
-0.0997848
-0.106416
-0.113009
-0.11956
-0.126064
-0.132518
-0.138921
-0.145269
-0.15156
-0.15779
-0.163956
-0.170052
-0.176068
-0.181997
-0.187825
-0.193536
-0.199111
-0.204528
-0.209758
-0.214769
-0.219523