/*--------------------------------*- C++ -*----------------------------------*\
  =========                 |
  \\      /  F ield         | OpenFOAM: The Open Source CFD Toolbox
   \\    /   O peration     | Website:  https://openfoam.org
    \\  /    A nd           | Version:  dev
     \\/     M anipulation  |
\*---------------------------------------------------------------------------*/
FoamFile
{
    format      ascii;
    class       volScalarField;
    location    "47.25";
    object      Uy;
}
// * * * * * * * * * * * * * * * * * * * * * * * * * * * * * * * * * * * * * //

dimensions      [0 1 -1 0 0 0 0];

internalField   nonuniform List<scalar> 
5184
(
-1.26017e-05
-2.08325e-05
-1.72294e-05
-8.19091e-06
2.67148e-06
1.36211e-05
2.38509e-05
3.30562e-05
4.11165e-05
4.80375e-05
5.38807e-05
5.87307e-05
6.26801e-05
6.58202e-05
6.82358e-05
7.00024e-05
7.11842e-05
7.18336e-05
7.19916e-05
7.16876e-05
7.09413e-05
6.97629e-05
6.81553e-05
6.61156e-05
6.36366e-05
6.07084e-05
5.73207e-05
5.34637e-05
4.91303e-05
4.43175e-05
3.90279e-05
3.32707e-05
2.70631e-05
2.04312e-05
1.34105e-05
6.04698e-06
-1.6033e-06
-9.4738e-06
-1.7488e-05
-2.55599e-05
-3.35951e-05
-4.1492e-05
-4.91434e-05
-5.64382e-05
-6.32637e-05
-6.95081e-05
-7.50625e-05
-7.9824e-05
-8.36979e-05
-8.66003e-05
-8.84606e-05
-8.92236e-05
-8.88512e-05
-8.73237e-05
-8.46407e-05
-8.08218e-05
-7.59061e-05
-6.99524e-05
-6.30382e-05
-5.52598e-05
-4.67315e-05
-3.75863e-05
-2.79792e-05
-1.80931e-05
-8.15326e-06
1.54624e-06
1.05812e-05
1.83137e-05
2.37293e-05
2.51359e-05
1.98499e-05
6.24147e-06
-4.57348e-05
-6.56251e-05
-4.05281e-05
7.64833e-06
6.56972e-05
0.000126024
0.000184343
0.000238407
0.000287074
0.0003299
0.000366845
0.000398099
0.000423972
0.000444833
0.000461058
0.000473006
0.000481
0.000485315
0.000486175
0.000483752
0.000478167
0.000469495
0.000457777
0.00044302
0.000425213
0.000404333
0.000380355
0.000353262
0.000323055
0.00028976
0.000253438
0.000214191
0.000172171
0.00012758
8.06769e-05
3.17821e-05
-1.87255e-05
-7.04077e-05
-0.000122769
-0.000175261
-0.000227291
-0.000278225
-0.000327403
-0.000374143
-0.000417764
-0.000457587
-0.000492962
-0.000523273
-0.000547958
-0.000566523
-0.000578556
-0.000583736
-0.000581848
-0.000572789
-0.000556575
-0.000533345
-0.000503364
-0.00046702
-0.000424829
-0.000377431
-0.000325595
-0.000270228
-0.000212389
-0.000153334
-9.45728e-05
-3.79838e-05
1.39722e-05
5.79897e-05
8.94708e-05
0.000101914
8.65511e-05
3.64931e-05
-8.12693e-05
-9.50092e-05
-1.91214e-05
0.000105957
0.000254713
0.000410692
0.000563577
0.000707228
0.00083819
0.000954757
0.00105633
0.00114301
0.00121529
0.00127392
0.00131972
0.00135349
0.00137603
0.00138799
0.00138995
0.00138235
0.00136551
0.00133966
0.00130493
0.00126137
0.00120901
0.00114783
0.00107781
0.000998981
0.000911399
0.000815205
0.00071063
0.000598019
0.000477847
0.000350729
0.000217432
7.8878e-05
-6.38507e-05
-0.000209518
-0.00035674
-0.000503999
-0.000649658
-0.000791983
-0.000929172
-0.00105938
-0.00118076
-0.00129148
-0.0013898
-0.00147406
-0.00154277
-0.00159461
-0.00162849
-0.00164355
-0.00163925
-0.00161532
-0.00157183
-0.00150919
-0.00142814
-0.00132979
-0.00121558
-0.00108732
-0.000947189
-0.000797751
-0.000642017
-0.000483519
-0.000326461
-0.000175933
-3.82543e-05
7.85597e-05
0.000164208
0.000205518
0.000186373
9.04245e-05
-9.77679e-05
-7.31728e-05
8.47872e-05
0.000318424
0.000590232
0.00087458
0.00115443
0.00141899
0.00166177
0.00187926
0.00206988
0.00223338
0.00237033
0.00248176
0.00256894
0.0026332
0.00267584
0.00269799
0.00270063
0.00268457
0.00265039
0.00259853
0.00252925
0.00244271
0.00233899
0.00221813
0.00208019
0.00192529
0.00175362
0.00156553
0.00136156
0.00114243
0.000909134
0.000662895
0.000405235
0.000137954
-0.000136855
-0.000416823
-0.000699312
-0.000981442
-0.00126013
-0.00153211
-0.001794
-0.00204237
-0.00227377
-0.00248481
-0.00267223
-0.00283298
-0.0029643
-0.00306376
-0.00312933
-0.00315947
-0.00315317
-0.00310996
-0.00303001
-0.00291409
-0.00276365
-0.00258077
-0.00236823
-0.00212948
-0.00186867
-0.00159069
-0.00130128
-0.00100709
-0.000715958
-0.000437155
-0.000181832
3.63982e-05
0.000200815
0.000291022
0.000282714
0.000147348
-8.44583e-05
2.08551e-05
0.00029548
0.000668165
0.00109109
0.00153033
0.00196244
0.00237193
0.00274907
0.00308823
0.00338663
0.00364344
0.00385913
0.00403494
0.00417254
0.00427373
0.00434031
0.00437394
0.00437603
0.00434776
0.00429003
0.00420351
0.00408865
0.00394576
0.00377502
0.00357658
0.00335064
0.00309747
0.00281751
0.00251143
0.00218018
0.00182502
0.00144762
0.00105001
0.000634693
0.000204581
-0.000236961
-0.000686145
-0.00113878
-0.0015903
-0.00203585
-0.0024703
-0.00288835
-0.00328462
-0.00365373
-0.00399041
-0.00428958
-0.00454651
-0.0047569
-0.00491698
-0.00502362
-0.00507443
-0.00506786
-0.0050032
-0.00488074
-0.00470172
-0.00446842
-0.00418416
-0.00385334
-0.00348141
-0.00307495
-0.0026417
-0.00219067
-0.00173226
-0.00127854
-0.000843545
-0.000443788
-9.88346e-05
0.000167973
0.000328901
0.000351203
0.000194237
-3.75789e-05
0.00019735
0.000627007
0.00117062
0.00177221
0.0023909
0.00299762
0.00357257
0.00410288
0.0045808
0.00500223
0.00536569
0.00567142
0.00592078
0.00611576
0.00625861
0.00635163
0.00639695
0.00639643
0.00635164
0.00626382
0.0061339
0.00596255
0.00575023
0.00549731
0.0052041
0.00487099
0.0044985
0.0040874
0.00363878
0.00315412
0.0026354
0.00208508
0.00150623
0.000902478
0.000278093
-0.00036206
-0.00101252
-0.00166729
-0.00231985
-0.00296328
-0.00359029
-0.00419339
-0.00476496
-0.00529739
-0.00578325
-0.0062154
-0.00658717
-0.0068925
-0.00712608
-0.00728351
-0.00736145
-0.00735768
-0.00727124
-0.00710253
-0.00685333
-0.00652689
-0.00612792
-0.00566269
-0.00513895
-0.00456607
-0.00395502
-0.00331852
-0.00267117
-0.00202971
-0.00141333
-0.000844176
-0.000347949
4.5367e-05
0.000300824
0.000377602
0.000224646
4.4062e-05
0.000461321
0.0010873
0.00183519
0.00264311
0.0034648
0.00426661
0.00502507
0.00572457
0.0063554
0.00691226
0.00739297
0.00779754
0.00812741
0.00838484
0.00857251
0.00869314
0.00874934
0.00874341
0.00867732
0.00855262
0.00837053
0.00813196
0.00783759
0.00748797
0.00708364
0.00662525
0.00611364
0.00554999
0.00493592
0.00427359
0.00356576
0.00281589
0.0020282
0.00120766
0.000360072
-0.000508007
-0.00138923
-0.00227556
-0.00315829
-0.0040282
-0.00487561
-0.00569057
-0.00646297
-0.00718276
-0.00784009
-0.00842551
-0.00893021
-0.00934616
-0.00966635
-0.00988496
-0.00999751
-0.0100011
-0.00989437
-0.00967789
-0.00935399
-0.00892694
-0.00840303
-0.00779051
-0.00709971
-0.00634302
-0.00553496
-0.00469228
-0.0038341
-0.0029821
-0.0021609
-0.00139844
-0.000726572
-0.000181811
0.000194026
0.000352807
0.000235142
0.00016046
0.000814642
0.00168013
0.0026669
0.00370921
0.00475699
0.00577319
0.00673152
0.00761415
0.00840983
0.00911219
0.00971853
0.0102287
0.0106441
0.0109674
0.0112016
0.0113499
0.0114153
0.0114005
0.0113079
0.0111394
0.0108965
0.0105803
0.0101917
0.00973163
0.00920078
0.00860013
0.00793092
0.00719482
0.00639408
0.0055316
0.00461109
0.00363711
0.00261517
0.00155173
0.000454278
-0.000668752
-0.00180796
-0.00295307
-0.00409301
-0.00521604
-0.00630989
-0.00736193
-0.00835938
-0.00928949
-0.0101398
-0.0108984
-0.011554
-0.0120965
-0.012517
-0.012808
-0.0129639
-0.0129809
-0.0128573
-0.0125937
-0.0121929
-0.0116603
-0.0110038
-0.0102339
-0.0093635
-0.00840828
-0.00738652
-0.00631923
-0.00523025
-0.00414644
-0.00309797
-0.00211865
-0.00124645
-0.000524194
-1.08959e-07
0.000271244
0.000224019
0.000310977
0.00125722
0.00240649
0.00366762
0.00497281
0.0062697
0.00751901
0.00869252
0.00977088
0.0107417
0.011598
0.0123366
0.0129574
0.013462
0.0138532
0.0141345
0.0143095
0.0143817
0.0143541
0.0142296
0.0140103
0.013698
0.0132942
0.0127999
0.0122164
0.0115446
0.0107858
0.00994185
0.00901487
0.00800782
0.00692447
0.00576952
0.00454876
0.00326911
0.00193863
0.00056662
-0.000836463
-0.00225902
-0.00368838
-0.00511095
-0.0065123
-0.00787739
-0.00919073
-0.0104367
-0.0115996
-0.0126641
-0.0136157
-0.0144406
-0.0151262
-0.0156616
-0.0160376
-0.0162471
-0.0162853
-0.01615
-0.0158418
-0.0153641
-0.0147233
-0.0139289
-0.0129935
-0.0119331
-0.0107666
-0.00951618
-0.00820728
-0.00686864
-0.00553245
-0.00423449
-0.00301448
-0.00191644
-0.000989249
-0.000287109
0.0001298
0.000190624
0.000494712
0.00178783
0.00326549
0.00483696
0.00643391
0.00800298
0.00950382
0.0109072
0.012193
0.0133482
0.0143656
0.0152419
0.0159772
0.0165733
0.0170334
0.0173616
0.0175617
0.0176377
0.0175931
0.0174311
0.0171541
0.0167642
0.0162632
0.0156524
0.0149332
0.0141071
0.0131756
0.012141
0.0110062
0.00977476
0.00845143
0.00704201
0.00555356
0.00399449
0.00237459
0.000705038
-0.00100157
-0.00273132
-0.00446903
-0.00619843
-0.00790228
-0.0095626
-0.0111609
-0.0126784
-0.0140965
-0.0153969
-0.0165619
-0.0175752
-0.0184215
-0.0190877
-0.0195626
-0.0198375
-0.0199064
-0.0197666
-0.0194185
-0.0188657
-0.0181159
-0.0171801
-0.0160732
-0.014814
-0.0134248
-0.0119318
-0.0103651
-0.00875844
-0.00714934
-0.00557934
-0.00409404
-0.00274346
-0.00158236
-0.000670519
-7.31433e-05
0.000134875
0.000710629
0.00240455
0.00425503
0.00617297
0.0080907
0.00995508
0.0117257
0.0133733
0.0148776
0.0162257
0.0174105
0.0184291
0.0192818
0.0199709
0.0205003
0.0208743
0.0210973
0.0211739
0.021108
0.0209029
0.0205616
0.0200864
0.0194792
0.0187418
0.0178758
0.0168829
0.0157653
0.0145256
0.0131674
0.0116951
0.0101143
0.00843202
0.00665663
0.00479809
0.00286795
0.000879387
-0.00115282
-0.00321234
-0.0052814
-0.00734095
-0.0093708
-0.0113499
-0.0132566
-0.015069
-0.016765
-0.0183233
-0.0197231
-0.0209449
-0.0219709
-0.0227853
-0.0233747
-0.0237287
-0.0238399
-0.0237047
-0.0233231
-0.0226992
-0.0218415
-0.0207625
-0.0194794
-0.0180137
-0.0163914
-0.0146428
-0.0128024
-0.0109093
-0.00900633
-0.00714094
-0.00536464
-0.00373339
-0.00230773
-0.00115278
-0.000338424
5.69394e-05
0.000957652
0.00310509
0.00537224
0.00767255
0.00994004
0.0121228
0.0141814
0.0160873
0.0178208
0.0193699
0.0207278
0.0218926
0.022865
0.0236482
0.0242465
0.024665
0.0249087
0.0249825
0.0248908
0.0246374
0.0242254
0.0236575
0.022936
0.0220628
0.0210397
0.019869
0.0185531
0.0170952
0.0154996
0.0137714
0.0119172
0.00994527
0.00786527
0.00568873
0.00342902
0.00110133
-0.00127732
-0.00368813
-0.00611068
-0.00852303
-0.010902
-0.0132233
-0.015462
-0.0175927
-0.0195902
-0.0214294
-0.0230865
-0.0245385
-0.0257648
-0.0267465
-0.0274681
-0.0279169
-0.0280839
-0.0279645
-0.027558
-0.0268688
-0.0259059
-0.0246835
-0.0232208
-0.0215421
-0.019677
-0.0176598
-0.01553
-0.0133315
-0.011113
-0.00892783
-0.00683341
-0.00489173
-0.00316908
-0.00173591
-0.000666606
-4.29653e-05
0.00123469
0.0038869
0.00661369
0.00933178
0.0119777
0.0145018
0.0168664
0.0190444
0.0210178
0.0227755
0.0243121
0.0256265
0.0267206
0.0275985
0.0282653
0.0287268
0.0289887
0.0290564
0.0289347
0.0286279
0.0281395
0.0274724
0.0266291
0.0256117
0.0244225
0.023064
0.021539
0.0198512
0.0180056
0.0160081
0.0138663
0.0115894
0.00918869
0.00667713
0.00406989
0.00138422
-0.00136061
-0.00414333
-0.00694079
-0.00972813
-0.012479
-0.015166
-0.0177606
-0.020234
-0.0225572
-0.0247017
-0.0266399
-0.0283455
-0.0297944
-0.0309649
-0.0318384
-0.0323999
-0.0326386
-0.0325483
-0.0321277
-0.0313808
-0.0303174
-0.0289528
-0.0273083
-0.0254109
-0.0232938
-0.0209954
-0.0185599
-0.0160366
-0.0134799
-0.0109491
-0.00850781
-0.00622414
-0.00417025
-0.00242197
-0.00105834
-0.000164706
0.00154064
0.00474727
0.00797557
0.0111461
0.0141988
0.0170869
0.0197752
0.0222392
0.0244627
0.0264365
0.028157
0.0296244
0.0308421
0.0318152
0.0325499
0.0330528
0.0333305
0.033389
0.0332336
0.032869
0.032299
0.0315268
0.0305551
0.0293864
0.0280232
0.0264681
0.0247246
0.0227969
0.0206902
0.0184116
0.0159693
0.0133739
0.0106378
0.00777565
0.00480429
0.00174298
-0.00138676
-0.00456115
-0.00775434
-0.0109385
-0.0140842
-0.0171605
-0.0201354
-0.0229765
-0.0256509
-0.0281263
-0.0303712
-0.0323557
-0.0340518
-0.0354345
-0.0364821
-0.0371767
-0.0375054
-0.03746
-0.0370381
-0.0362435
-0.0350859
-0.033582
-0.0317546
-0.0296338
-0.0272558
-0.0246635
-0.0219057
-0.0190373
-0.0161185
-0.0132147
-0.0103961
-0.00773695
-0.00531558
-0.00321347
-0.0015146
-0.000308319
0.00187441
0.00568337
0.00945373
0.0131105
0.0165976
0.0198718
0.0229015
0.025665
0.0281488
0.0303462
0.0322557
0.0338794
0.0352224
0.0362912
0.0370934
0.0376365
0.0379279
0.0379744
0.037782
0.0373556
0.0366996
0.0358173
0.0347118
0.0333857
0.0318418
0.0300829
0.028113
0.0259365
0.0235594
0.0209893
0.0182356
0.0153096
0.0122251
0.00899811
0.00564734
0.00219393
-0.00133841
-0.00492346
-0.00853265
-0.0121352
-0.0156985
-0.019188
-0.0225684
-0.0258031
-0.0288554
-0.0316889
-0.034268
-0.0365586
-0.0385288
-0.0401498
-0.0413961
-0.042247
-0.0426865
-0.0427044
-0.0422967
-0.0414664
-0.0402231
-0.0385842
-0.0365744
-0.034226
-0.0315788
-0.0286797
-0.0255826
-0.0223479
-0.0190417
-0.0157361
-0.0125077
-0.00943749
-0.00661028
-0.00411362
-0.00203688
-0.000474072
0.00223485
0.00669221
0.0110438
0.0152195
0.0191678
0.0228499
0.0262381
0.0293144
0.0320686
0.034497
0.0366006
0.038384
0.0398541
0.0410194
0.0418886
0.0424708
0.0427743
0.0428066
0.0425744
0.0420832
0.0413375
0.0403412
0.0390975
0.0376091
0.0358791
0.0339106
0.0317077
0.0292754
0.0266201
0.0237501
0.0206753
0.0174083
0.0139639
0.0103595
0.00661543
0.00275466
-0.00119695
-0.00521083
-0.00925573
-0.0132979
-0.0173015
-0.0212287
-0.0250401
-0.0286954
-0.0321537
-0.0353741
-0.0383167
-0.040943
-0.0432166
-0.0451044
-0.0465772
-0.0476101
-0.0481843
-0.0482867
-0.0479114
-0.0470598
-0.0457414
-0.0439738
-0.0417833
-0.0392043
-0.03628
-0.0330615
-0.0296076
-0.0259843
-0.0222642
-0.018526
-0.0148534
-0.0113343
-0.00806068
-0.00512654
-0.00262734
-0.0006625
0.00262083
0.0077707
0.012741
0.0174671
0.0219027
0.0260137
0.0297771
0.0331793
0.0362138
0.0388805
0.0411834
0.0431299
0.0447292
0.0459918
0.0469282
0.0475488
0.0478631
0.0478796
0.0476056
0.0470471
0.0462092
0.0450959
0.0437106
0.0420564
0.0401363
0.0379539
0.0355132
0.0328196
0.02988
0.0267031
0.0232996
0.0196828
0.0158686
0.0118757
0.00772587
0.00344379
-0.000942681
-0.00540266
-0.00990233
-0.0144051
-0.0188718
-0.0232611
-0.0275299
-0.0316336
-0.0355271
-0.039165
-0.0425025
-0.0454962
-0.0481052
-0.0502914
-0.052021
-0.0532652
-0.0540009
-0.0542121
-0.0538901
-0.0530346
-0.0516541
-0.0497662
-0.0473983
-0.044587
-0.0413784
-0.0378278
-0.0339991
-0.0299642
-0.0258023
-0.021599
-0.0174455
-0.0134376
-0.00967442
-0.00625742
-0.00328885
-0.000874435
0.00303112
0.00891557
0.0145405
0.0198472
0.0247948
0.0293551
0.03351
0.0372507
0.0405753
0.0434875
0.045995
0.0481081
0.0498389
0.0512
0.052204
0.0528629
0.0531874
0.053187
0.0528699
0.0522427
0.0513108
0.0500787
0.0485498
0.0467275
0.0446149
0.0422155
0.0395338
0.0365752
0.0333469
0.029858
0.0261198
0.0221462
0.0179541
0.0135633
0.00899671
0.00428073
-0.000554966
-0.00547734
-0.0104501
-0.0154338
-0.0203861
-0.0252623
-0.0300152
-0.0345962
-0.0389555
-0.0430429
-0.0468086
-0.0502041
-0.0531829
-0.0557019
-0.0577221
-0.0592097
-0.0601373
-0.0604849
-0.0602405
-0.0594014
-0.0579747
-0.0559774
-0.0534375
-0.0503934
-0.0468942
-0.0429993
-0.0387776
-0.0343071
-0.029674
-0.0249714
-0.0202985
-0.015759
-0.0114606
-0.00751262
-0.00402508
-0.00111102
0.00346447
0.0101234
0.016437
0.0223529
0.0278365
0.0328654
0.0374275
0.0415191
0.0451433
0.0483083
0.0510255
0.053309
0.0551737
0.0566349
0.0577074
0.0584048
0.0587394
0.0587219
0.0583612
0.0576647
0.0566383
0.0552865
0.0536133
0.051622
0.0493157
0.0466982
0.0437737
0.0405481
0.0370285
0.0332243
0.0291473
0.0248118
0.0202355
0.0154389
0.0104463
0.0052854
-1.25135e-05
-0.00541238
-0.0108756
-0.01636
-0.0218202
-0.0272079
-0.0324721
-0.0375598
-0.0424166
-0.0469871
-0.0512163
-0.05505
-0.0584359
-0.0613251
-0.0636728
-0.0654397
-0.0665931
-0.0671083
-0.0669694
-0.0661705
-0.0647164
-0.0626233
-0.059919
-0.0566436
-0.0528488
-0.0485978
-0.0439649
-0.0390344
-0.0338996
-0.0286616
-0.0234282
-0.018312
-0.0134297
-0.00889973
-0.00484054
-0.00137373
0.00391955
0.0113905
0.0184249
0.0249772
0.0310193
0.0365354
0.0415196
0.0459741
0.0499072
0.0533319
0.0562643
0.058722
0.0607234
0.0622866
0.0634288
0.0641656
0.0645109
0.0644766
0.0640727
0.0633073
0.0621866
0.0607157
0.0588986
0.0567387
0.0542393
0.0514038
0.0482367
0.0447437
0.040932
0.0368112
0.0323931
0.0276925
0.0227275
0.0175194
0.0120932
0.00647795
0.000706349
-0.00518477
-0.0111546
-0.0171585
-0.0231482
-0.0290718
-0.0348745
-0.0404989
-0.0458857
-0.0509744
-0.0557042
-0.0600147
-0.0638476
-0.0671475
-0.0698629
-0.0719485
-0.0733654
-0.0740835
-0.0740819
-0.0733508
-0.0718919
-0.0697196
-0.0668616
-0.0633584
-0.0592645
-0.0546468
-0.0495848
-0.0441692
-0.038501
-0.0326899
-0.0268527
-0.0211119
-0.0155941
-0.0104276
-0.00574062
-0.00166437
0.00439494
0.0127131
0.0204984
0.0277124
0.0343344
0.0403552
0.0457758
0.0506044
0.0548554
0.058547
0.0616998
0.0643357
0.0664768
0.0681443
0.0693578
0.0701354
0.0704925
0.0704426
0.0699967
0.0691636
0.0679501
0.0663616
0.0644023
0.0620757
0.0593849
0.0563333
0.0529254
0.0491664
0.0450638
0.0406267
0.0358673
0.0308004
0.0254442
0.0198207
0.0139554
0.00787831
0.00162333
-0.00477116
-0.0112625
-0.0178036
-0.0243433
-0.0308266
-0.0371947
-0.043386
-0.049336
-0.0549789
-0.0602478
-0.065076
-0.0693983
-0.0731522
-0.0762792
-0.0787266
-0.0804488
-0.0814091
-0.0815809
-0.0809493
-0.0795122
-0.0772814
-0.0742832
-0.0705588
-0.0661644
-0.0611706
-0.0556621
-0.0497363
-0.0435021
-0.0370784
-0.0305919
-0.0241759
-0.0179676
-0.0121065
-0.00673159
-0.00198507
0.00488916
0.0140871
0.0226512
0.0305507
0.0377723
0.0443144
0.0501847
0.0553984
0.0599759
0.063941
0.0673196
0.0701379
0.0724218
0.0741961
0.0754831
0.0763033
0.0766741
0.0766104
0.0761244
0.0752256
0.0739217
0.0722183
0.0701198
0.0676295
0.0647506
0.0614864
0.0578409
0.0538193
0.0494286
0.0446778
0.0395788
0.0341463
0.0283987
0.022358
0.0160502
0.00950586
0.0027598
-0.00414832
-0.0111741
-0.0182686
-0.0253778
-0.0324436
-0.0394035
-0.0461915
-0.0527382
-0.058972
-0.0648198
-0.0702082
-0.0750646
-0.0793188
-0.0829044
-0.0857607
-0.0878341
-0.0890806
-0.0894664
-0.0889708
-0.0875866
-0.085322
-0.0822013
-0.0782653
-0.0735715
-0.0681941
-0.0622228
-0.0557618
-0.0489285
-0.0418513
-0.0346678
-0.0275228
-0.0205656
-0.0139479
-0.00782062
-0.00233833
0.00540062
0.0155082
0.0248767
0.0334836
0.0413232
0.0484017
0.0547344
0.0603434
0.0652556
0.0695009
0.0731104
0.0761152
0.0785454
0.0804292
0.0817922
0.0826573
0.0830441
0.082969
0.0824455
0.0814842
0.0800931
0.0782785
0.0760447
0.0733952
0.0703329
0.066861
0.062983
0.0587037
0.0540296
0.0489695
0.0435347
0.0377397
0.0316025
0.0251451
0.0183937
0.0113789
0.00413631
-0.00329351
-0.0108648
-0.0185268
-0.0262232
-0.0338929
-0.0414699
-0.0488838
-0.0560603
-0.0629221
-0.0693895
-0.0753821
-0.0808194
-0.0856228
-0.0897173
-0.0930332
-0.0955082
-0.0970893
-0.0977349
-0.0974167
-0.0961215
-0.0938527
-0.0906315
-0.0864975
-0.081509
-0.0757429
-0.069294
-0.0622734
-0.0548073
-0.0470344
-0.0391041
-0.0311736
-0.0234054
-0.0159646
-0.00901577
-0.00272696
0.00592765
0.0169718
0.0271681
0.0365021
0.0449765
0.0526056
0.0594122
0.0654261
0.0706808
0.0752126
0.0790581
0.0822535
0.0848334
0.0868298
0.0882716
0.0891842
0.0895897
0.0895062
0.0889485
0.0879282
0.0864542
0.0845329
0.082169
0.0793658
0.0761262
0.0724528
0.0683488
0.0638185
0.0588677
0.0535046
0.0477399
0.0415876
0.035065
0.0281939
0.021
0.0135142
0.00577213
-0.00218495
-0.0103104
-0.0185517
-0.0268509
-0.035144
-0.0433617
-0.0514295
-0.0592682
-0.0667947
-0.0739228
-0.0805645
-0.086631
-0.0920349
-0.0966918
-0.100522
-0.103453
-0.105422
-0.106378
-0.106284
-0.10512
-0.102882
-0.0995875
-0.0952736
-0.0899988
-0.0838421
-0.076903
-0.0692996
-0.0611671
-0.0526555
-0.0439263
-0.0351507
-0.0265056
-0.0181709
-0.010326
-0.00315414
0.00646848
0.0184733
0.0295181
0.0395971
0.0487214
0.0569137
0.064205
0.0706325
0.076237
0.0810611
0.0851475
0.0885376
0.0912707
0.0933827
0.0949062
0.0958694
0.0962967
0.0962082
0.0956201
0.0945452
0.092993
0.0909705
0.0884825
0.0855323
0.0821225
0.0782553
0.0739333
0.0691602
0.0639411
0.0582833
0.0521967
0.0456944
0.038793
0.0315135
0.0238811
0.0159263
0.00768471
-0.000802373
-0.00948762
-0.0183175
-0.0272324
-0.0361659
-0.0450458
-0.0537937
-0.0623256
-0.0705528
-0.0783822
-0.0857182
-0.0924635
-0.0985212
-0.103796
-0.108199
-0.111645
-0.11406
-0.115383
-0.115567
-0.114581
-0.112415
-0.10908
-0.10461
-0.0990616
-0.0925162
-0.0850771
-0.0768694
-0.0680376
-0.0587433
-0.0491616
-0.0394784
-0.0298865
-0.0205822
-0.0117612
-0.00362337
0.00702126
0.0200076
0.031919
0.0427587
0.0525464
0.0613134
0.0690989
0.0759481
0.0819089
0.0870308
0.0913626
0.0949514
0.097841
0.100072
0.10168
0.102697
0.103149
0.103059
0.102445
0.101321
0.0996957
0.0975781
0.0949728
0.0918831
0.0883113
0.0842592
0.0797287
0.0747226
0.0692452
0.0633028
0.0569043
0.0500616
0.0427903
0.0351104
0.0270463
0.0186275
0.00988913
0.000872413
-0.00837523
-0.0177997
-0.0273399
-0.036928
-0.0464888
-0.0559404
-0.0651944
-0.0741564
-0.0827268
-0.0908022
-0.0982763
-0.105042
-0.110994
-0.11603
-0.120053
-0.122978
-0.12473
-0.12525
-0.124497
-0.122451
-0.119115
-0.114519
-0.108716
-0.101788
-0.0938432
-0.0850121
-0.0754492
-0.0653281
-0.0548386
-0.0441825
-0.03357
-0.0232153
-0.0133321
-0.00413852
0.00758407
0.0215696
0.0343631
0.0459769
0.0564397
0.0657913
0.0740795
0.0813574
0.0876805
0.0931052
0.0976867
0.101478
0.104527
0.10688
0.108576
0.109649
0.11013
0.110043
0.109407
0.108238
0.106546
0.10434
0.101625
0.098404
0.0946794
0.0904522
0.0857237
0.0804958
0.0747718
0.0685567
0.0618582
0.0546869
0.0470572
0.0389876
0.0305011
0.0216264
0.0123975
0.00285493
-0.00695412
-0.0169754
-0.0271472
-0.0374002
-0.047657
-0.0578328
-0.0678348
-0.0775636
-0.0869129
-0.0957715
-0.104024
-0.111553
-0.118242
-0.123975
-0.128643
-0.132145
-0.134394
-0.135315
-0.134856
-0.132984
-0.129695
-0.125009
-0.118977
-0.11168
-0.103227
-0.0937565
-0.0834324
-0.0724409
-0.0609871
-0.0492902
-0.0375793
-0.0260881
-0.0150502
-0.00470377
0.00815492
0.023154
0.0368423
0.0492415
0.060389
0.0703337
0.0791319
0.0868446
0.0935352
0.0992671
0.104102
0.108098
0.11131
0.113788
0.115574
0.116707
0.11722
0.11714
0.116487
0.115278
0.113525
0.111238
0.108421
0.105078
0.10121
0.0968188
0.0919039
0.0864666
0.080509
0.0740348
0.0670503
0.0595644
0.05159
0.0431438
0.0342476
0.0249281
0.0152183
0.00515739
-0.00520818
-0.0158246
-0.0266299
-0.037554
-0.048518
-0.0594342
-0.0702066
-0.0807306
-0.0908939
-0.100578
-0.109657
-0.118005
-0.125491
-0.131987
-0.137369
-0.141521
-0.144339
-0.145734
-0.145638
-0.144004
-0.140816
-0.136085
-0.129857
-0.122208
-0.113252
-0.103131
-0.0920179
-0.0801133
-0.0676379
-0.05483
-0.0419389
-0.02922
-0.0169282
-0.00532368
0.00873176
0.0247552
0.0393483
0.0525417
0.064382
0.0749267
0.0842408
0.0923935
0.0994558
0.105499
0.11059
0.114794
0.118171
0.120776
0.122655
0.123851
0.124399
0.124329
0.123663
0.12242
0.120613
0.118251
0.115341
0.111885
0.107884
0.10334
0.0982513
0.0926181
0.0864412
0.079723
0.072468
0.0646835
0.0563805
0.0475738
0.0382831
0.0285335
0.0183559
0.0077881
-0.0031249
-0.0143302
-0.0257664
-0.037363
-0.0490403
-0.0607088
-0.0722692
-0.0836127
-0.0946214
-0.105169
-0.115122
-0.124341
-0.132685
-0.140012
-0.14618
-0.151059
-0.154525
-0.156472
-0.156814
-0.15549
-0.152466
-0.147744
-0.141361
-0.133388
-0.123939
-0.11316
-0.101235
-0.0883768
-0.0748227
-0.0608314
-0.0466747
-0.032631
-0.0189792
-0.00600313
0.00931252
0.0263678
0.0418726
0.0558668
0.0684058
0.0795559
0.0893905
0.0979872
0.105425
0.111781
0.117131
0.121546
0.12509
0.127823
0.129797
0.131058
0.131644
0.131588
0.130913
0.129641
0.127785
0.125356
0.12236
0.118801
0.114679
0.109993
0.104744
0.0989292
0.0925485
0.0856026
0.0780944
0.0700292
0.0614159
0.0522671
0.0426004
0.0324384
0.02181
0.0107508
-0.000696075
-0.0124793
-0.0245385
-0.0368038
-0.0491951
-0.0616219
-0.0739827
-0.0861649
-0.0980455
-0.109491
-0.12036
-0.130503
-0.139765
-0.147989
-0.155018
-0.160702
-0.164899
-0.167483
-0.168348
-0.167412
-0.164627
-0.159978
-0.153489
-0.145229
-0.135305
-0.12387
-0.111113
-0.0972625
-0.082573
-0.0673247
-0.0518132
-0.0363426
-0.0212173
-0.00674733
0.00989511
0.0279863
0.044407
0.0592062
0.0724478
0.0842069
0.0945654
0.103609
0.111424
0.118096
0.123706
0.128332
0.132044
0.134907
0.136978
0.138306
0.138932
0.138891
0.138212
0.136915
0.135016
0.132527
0.129454
0.1258
0.121567
0.116753
0.111356
0.105375
0.0988066
0.0916506
0.0839078
0.0755815
0.0666783
0.0572085
0.0471869
0.0366337
0.0255751
0.0140442
0.00208161
-0.0102634
-0.0229324
-0.0358567
-0.0489568
-0.0621418
-0.0753087
-0.0883425
-0.101116
-0.113489
-0.125313
-0.136426
-0.146663
-0.15585
-0.163815
-0.170386
-0.175402
-0.178714
-0.180192
-0.179734
-0.17727
-0.172767
-0.166236
-0.157733
-0.147363
-0.135279
-0.121678
-0.106801
-0.0909207
-0.0743407
-0.0573822
-0.040377
-0.0236575
-0.00756186
0.0104775
0.0296051
0.0469431
0.062549
0.0764954
0.0888655
0.0997496
0.109241
0.117435
0.124423
0.130294
0.135132
0.139012
0.142006
0.144173
0.145568
0.146236
0.146214
0.145532
0.144215
0.142278
0.139735
0.136592
0.132853
0.128519
0.123589
0.118059
0.111926
0.105187
0.0978393
0.0898818
0.0813156
0.0721448
0.0623771
0.0520247
0.0411046
0.0296402
0.0176614
0.00520599
-0.00767958
-0.0209393
-0.0345066
-0.0483036
-0.0622397
-0.0762118
-0.090103
-0.103783
-0.117106
-0.129916
-0.142043
-0.153308
-0.163523
-0.172496
-0.180038
-0.185963
-0.190098
-0.192288
-0.192406
-0.190357
-0.186085
-0.179584
-0.170897
-0.160119
-0.147403
-0.132953
-0.117019
-0.0998965
-0.0819102
-0.06341
-0.0447573
-0.0263152
-0.00845258
0.0110575
0.0312188
0.0494727
0.0658848
0.0805359
0.0935174
0.104927
0.114867
0.123439
0.130743
0.136875
0.141923
0.145971
0.149094
0.151358
0.15282
0.153529
0.153527
0.152845
0.15151
0.14954
0.146948
0.143742
0.139927
0.135503
0.130468
0.124818
0.118549
0.111657
0.104137
0.0959851
0.0872014
0.0777871
0.0677469
0.05709
0.0458305
0.0339881
0.0215895
0.0086689
-0.00473059
-0.0185562
-0.0327442
-0.0472189
-0.0618917
-0.07666
-0.0914062
-0.105998
-0.120286
-0.134108
-0.147284
-0.159624
-0.170926
-0.18098
-0.189575
-0.196501
-0.20156
-0.204567
-0.205367
-0.203836
-0.199894
-0.193509
-0.184707
-0.173573
-0.160253
-0.144956
-0.127945
-0.10953
-0.090064
-0.069925
-0.0495072
-0.0292068
-0.00942571
0.0116334
0.0328224
0.051988
0.0692036
0.0845576
0.0981488
0.110083
0.12047
0.129419
0.137037
0.143427
0.148684
0.152897
0.156147
0.158505
0.160033
0.160784
0.160801
0.16012
0.158769
0.156768
0.154132
0.15087
0.146986
0.142481
0.137353
0.131597
0.125208
0.11818
0.110506
0.102182
0.0932042
0.0835716
0.0732862
0.0623537
0.0507848
0.0385958
0.0258093
0.0124558
-0.00142565
-0.0157862
-0.0305658
-0.045692
-0.0610791
-0.0766261
-0.0922164
-0.107717
-0.122976
-0.137825
-0.152079
-0.165535
-0.177977
-0.189179
-0.198908
-0.206928
-0.213012
-0.216947
-0.218544
-0.217646
-0.214142
-0.207973
-0.199141
-0.187715
-0.173833
-0.157704
-0.139599
-0.11985
-0.098832
-0.076956
-0.0546509
-0.0323489
-0.0104878
0.0122033
0.0344111
0.0544817
0.0724959
0.0885488
0.102747
0.115203
0.126034
0.135357
0.143286
0.14993
0.155392
0.159767
0.16314
0.165589
0.16718
0.167969
0.168004
0.167323
0.165957
0.163928
0.161252
0.157938
0.153992
0.149415
0.144205
0.138355
0.131861
0.124714
0.116906
0.108432
0.0992844
0.0894601
0.078958
0.0677808
0.0559353
0.043434
0.0302954
0.0165457
0.00221927
-0.0126394
-0.0279748
-0.0437189
-0.0597895
-0.076089
-0.0925029
-0.108898
-0.125124
-0.141007
-0.156356
-0.170959
-0.184589
-0.197
-0.207938
-0.217144
-0.224359
-0.229336
-0.231851
-0.231711
-0.228767
-0.222927
-0.214164
-0.202526
-0.188138
-0.171203
-0.152001
-0.13088
-0.108243
-0.0845315
-0.0602131
-0.035759
-0.0116455
0.0127655
0.0359803
0.0569472
0.0757529
0.092499
0.107299
0.120272
0.131542
0.141234
0.149469
0.156362
0.162024
0.166555
0.170047
0.172582
0.174231
0.175054
0.175104
0.174422
0.173039
0.170982
0.168268
0.164907
0.160905
0.156264
0.15098
0.145049
0.138464
0.131215
0.123294
0.114691
0.105398
0.0954092
0.0847204
0.0733309
0.0612438
0.0484674
0.0350159
0.0209107
0.00618124
-0.0091331
-0.0249821
-0.0413028
-0.0580181
-0.0750346
-0.0922416
-0.109509
-0.126685
-0.143596
-0.160047
-0.17582
-0.190673
-0.204346
-0.216565
-0.227043
-0.235491
-0.241628
-0.245189
-0.24594
-0.24369
-0.238308
-0.229731
-0.217978
-0.203153
-0.185454
-0.165164
-0.142644
-0.118323
-0.0926791
-0.0662185
-0.0394546
-0.0129061
0.0133185
0.0375264
0.0593784
0.0789668
0.0963987
0.111793
0.125277
0.136981
0.147035
0.155568
0.162704
0.168558
0.173238
0.176841
0.179455
0.181155
0.182008
0.182067
0.181379
0.179978
0.177892
0.17514
0.171734
0.16768
0.162981
0.157634
0.151633
0.14497
0.137636
0.129619
0.12091
0.111497
0.101371
0.0905269
0.0789588
0.0666668
0.0536548
0.0399326
0.0255163
0.0104303
-0.00529187
-0.0216059
-0.0384549
-0.0557676
-0.0734566
-0.091416
-0.10952
-0.127619
-0.145542
-0.16309
-0.180039
-0.19614
-0.211119
-0.22468
-0.236511
-0.246294
-0.253708
-0.258447
-0.26023
-0.258821
-0.254039
-0.24578
-0.234026
-0.218856
-0.200451
-0.179094
-0.155158
-0.129097
-0.101426
-0.0726915
-0.0434539
-0.0142768
0.0138612
0.0390461
0.0617706
0.0821313
0.10024
0.116221
0.130207
0.142335
0.152743
0.161567
0.168935
0.174972
0.179791
0.183496
0.186179
0.187923
0.188796
0.188859
0.188159
0.186736
0.184618
0.181826
0.178376
0.174273
0.169522
0.164118
0.158057
0.15133
0.143926
0.135833
0.127038
0.11753
0.107296
0.0963265
0.0846147
0.0721559
0.0589499
0.0450015
0.030322
0.0149298
-0.00114764
-0.0178724
-0.0351945
-0.0530497
-0.0713574
-0.0900184
-0.108913
-0.127896
-0.146799
-0.165425
-0.183546
-0.200906
-0.21722
-0.232173
-0.245432
-0.256643
-0.265449
-0.271499
-0.274463
-0.27405
-0.270026
-0.262236
-0.250615
-0.235209
-0.216176
-0.19379
-0.168434
-0.140587
-0.110796
-0.0796561
-0.0477749
-0.0157652
0.0143927
0.0405371
0.0641202
0.0852412
0.104016
0.120573
0.135051
0.147594
0.158345
0.167447
0.175037
0.181244
0.18619
0.189985
0.192726
0.194502
0.195386
0.195443
0.194724
0.193271
0.191116
0.188283
0.184788
0.180638
0.175837
0.170384
0.164272
0.157492
0.150032
0.14188
0.133021
0.123442
0.113127
0.102065
0.0902449
0.0776584
0.0643012
0.0501734
0.0352809
0.0196363
0.00326053
-0.0138155
-0.0315493
-0.0498845
-0.0687486