/*--------------------------------*- C++ -*----------------------------------*\
  =========                 |
  \\      /  F ield         | OpenFOAM: The Open Source CFD Toolbox
   \\    /   O peration     | Website:  https://openfoam.org
    \\  /    A nd           | Version:  dev
     \\/     M anipulation  |
\*---------------------------------------------------------------------------*/
FoamFile
{
    format      ascii;
    class       surfaceScalarField;
    location    "17.1";
    object      phi;
}
// * * * * * * * * * * * * * * * * * * * * * * * * * * * * * * * * * * * * * //

dimensions      [0 3 -1 0 0 0 0];

internalField   nonuniform List<scalar> 
10224
(
3.36674e-08
-3.49183e-08
8.76571e-08
-5.39651e-08
1.2409e-07
-3.64283e-08
1.24934e-07
-8.47068e-10
8.32377e-08
4.16923e-08
-2.26345e-09
8.54952e-08
-1.29739e-07
1.27479e-07
-2.95891e-07
1.66151e-07
-4.96661e-07
2.00765e-07
-7.27748e-07
2.31085e-07
-9.84886e-07
2.57142e-07
-1.26399e-06
2.79111e-07
-1.56124e-06
2.97246e-07
-1.87307e-06
3.1183e-07
-2.19622e-06
3.23149e-07
-2.52769e-06
3.31469e-07
-2.86471e-06
3.37025e-07
-3.20473e-06
3.40018e-07
-3.54533e-06
3.40606e-07
-3.88425e-06
3.38915e-07
-4.21928e-06
3.3503e-07
-4.54829e-06
3.29005e-07
-4.86915e-06
3.20864e-07
-5.17975e-06
3.10609e-07
-5.47798e-06
2.98226e-07
-5.76168e-06
2.83697e-07
-6.02868e-06
2.66999e-07
-6.2768e-06
2.48117e-07
-6.50384e-06
2.27046e-07
-6.70764e-06
2.038e-07
-6.88606e-06
1.78416e-07
-7.03702e-06
1.50962e-07
-7.15856e-06
1.2154e-07
-7.24885e-06
9.02905e-08
-7.30624e-06
5.73918e-08
-7.32931e-06
2.30662e-08
-7.31689e-06
-1.24209e-08
-7.26813e-06
-4.87618e-08
-7.18252e-06
-8.56079e-08
-7.05995e-06
-1.22572e-07
-6.90071e-06
-1.59235e-07
-6.70557e-06
-1.95149e-07
-6.47572e-06
-2.29844e-07
-6.21288e-06
-2.62838e-07
-5.91924e-06
-2.93644e-07
-5.59746e-06
-3.21782e-07
-5.25067e-06
-3.46786e-07
-4.88246e-06
-3.68217e-07
-4.49678e-06
-3.85675e-07
-4.09798e-06
-3.98806e-07
-3.69066e-06
-4.07314e-07
-3.27969e-06
-4.10971e-07
-2.87007e-06
-4.0962e-07
-2.46689e-06
-4.03186e-07
-2.07521e-06
-3.91677e-07
-1.70002e-06
-3.7519e-07
-1.34611e-06
-3.5391e-07
-1.01801e-06
-3.28109e-07
-7.19858e-07
-2.98148e-07
-4.55383e-07
-2.64475e-07
-2.27756e-07
-2.27626e-07
-3.95219e-08
-1.88234e-07
1.07512e-07
-1.47034e-07
2.12408e-07
-1.04895e-07
2.75273e-07
-6.28655e-08
2.97536e-07
-2.22613e-08
2.82362e-07
1.51753e-08
2.35333e-07
4.70295e-08
1.65492e-07
6.98413e-08
8.71084e-08
7.83847e-08
2.25266e-08
6.45822e-08
2.2526e-08
5.3761e-08
-8.86545e-08
1.12072e-07
-1.12254e-07
1.17658e-07
-4.20107e-08
3.81896e-08
7.86059e-08
-1.42685e-07
2.22551e-07
-4.3026e-07
3.73063e-07
-8.22752e-07
5.19976e-07
-1.31403e-06
6.57433e-07
-1.89554e-06
7.82271e-07
-2.55747e-06
8.93015e-07
-3.28956e-06
9.89233e-07
-4.08157e-06
1.07113e-06
-4.92361e-06
1.13928e-06
-5.80623e-06
1.19445e-06
-6.72057e-06
1.23749e-06
-7.6583e-06
1.2692e-06
-8.61164e-06
1.29036e-06
-9.57325e-06
1.30162e-06
-1.05362e-05
1.30353e-06
-1.14938e-05
1.29652e-06
-1.24397e-05
1.28091e-06
-1.33675e-05
1.25689e-06
-1.42713e-05
1.22459e-06
-1.51447e-05
1.18405e-06
-1.59818e-05
1.13528e-06
-1.67763e-05
1.07826e-06
-1.75223e-05
1.01295e-06
-1.82135e-05
9.39352e-07
-1.8844e-05
8.57519e-07
-1.94077e-05
7.6756e-07
-1.9899e-05
6.69679e-07
-2.03122e-05
5.64186e-07
-2.06422e-05
4.51514e-07
-2.08841e-05
3.32231e-07
-2.10338e-05
2.07049e-07
-2.10876e-05
7.68295e-08
-2.10426e-05
-5.74141e-08
-2.08968e-05
-1.94519e-07
-2.06492e-05
-3.3318e-07
-2.02999e-05
-4.71963e-07
-1.98498e-05
-6.09318e-07
-1.93013e-05
-7.43603e-07
-1.8658e-05
-8.73105e-07
-1.79248e-05
-9.96072e-07
-1.71077e-05
-1.11074e-06
-1.62141e-05
-1.21538e-06
-1.52526e-05
-1.30831e-06
-1.42328e-05
-1.38796e-06
-1.31656e-05
-1.45291e-06
-1.20625e-05
-1.50188e-06
-1.0936e-05
-1.53384e-06
-9.79903e-06
-1.54796e-06
-8.66493e-06
-1.54372e-06
-7.54726e-06
-1.52086e-06
-6.4595e-06
-1.47943e-06
-5.41488e-06
-1.41982e-06
-4.42607e-06
-1.34272e-06
-3.50502e-06
-1.24916e-06
-2.66265e-06
-1.14052e-06
-1.90864e-06
-1.01848e-06
-1.25118e-06
-8.85089e-07
-6.96654e-07
-7.42762e-07
-2.49369e-07
-5.9432e-07
8.88214e-08
-4.43086e-07
3.18982e-07
-2.93026e-07
4.457e-07
-1.48978e-07
4.7794e-07
-1.70627e-08
4.30147e-07
9.48241e-08
3.23723e-07
1.76267e-07
1.88632e-07
2.13478e-07
6.42783e-08
1.88937e-07
8.68051e-08
3.72075e-08
-1.25857e-07
4.29613e-08
-1.1802e-07
-4.38224e-08
4.47648e-08
-2.59353e-07
2.94124e-07
-6.23183e-07
5.86382e-07
-1.1424e-06
8.92285e-07
-1.81526e-06
1.19283e-06
-2.63411e-06
1.47627e-06
-3.58757e-06
1.73574e-06
-4.66215e-06
1.9676e-06
-5.84329e-06
2.17038e-06
-7.11613e-06
2.34397e-06
-8.46597e-06
2.48912e-06
-9.8786e-06
2.60708e-06
-1.13404e-05
2.69929e-06
-1.28385e-05
2.76727e-06
-1.43605e-05
2.81242e-06
-1.58949e-05
2.83602e-06
-1.74305e-05
2.83914e-06
-1.89567e-05
2.82265e-06
-2.04629e-05
2.78719e-06
-2.19393e-05
2.7332e-06
-2.33756e-05
2.66097e-06
-2.47622e-05
2.57065e-06
-2.60892e-05
2.46229e-06
-2.73469e-05
2.33594e-06
-2.85256e-05
2.19161e-06
-2.96156e-05
2.02939e-06
-3.06076e-05
1.84947e-06
-3.14922e-05
1.65219e-06
-3.22606e-05
1.43808e-06
-3.29043e-05
1.20788e-06
-3.34154e-05
9.62591e-07
-3.37867e-05
7.03507e-07
-3.40118e-05
4.32206e-07
-3.40856e-05
1.50578e-07
-3.40038e-05
-1.39178e-07
-3.37638e-05
-4.3456e-07
-3.33642e-05
-7.32779e-07
-3.28053e-05
-1.03079e-06
-3.20894e-05
-1.3253e-06
-3.12201e-05
-1.61287e-06
-3.02033e-05
-1.88988e-06
-2.90467e-05
-2.15268e-06
-2.77599e-05
-2.39757e-06
-2.63543e-05
-2.62096e-06
-2.48432e-05
-2.81937e-06
-2.32417e-05
-2.98952e-06
-2.15661e-05
-3.12846e-06
-1.98344e-05
-3.23358e-06
-1.80656e-05
-3.30272e-06
-1.62793e-05
-3.33422e-06
-1.4496e-05
-3.32698e-06
-1.27364e-05
-3.2805e-06
-1.10209e-05
-3.19494e-06
-9.3696e-06
-3.07112e-06
-7.80177e-06
-2.91054e-06
-6.33551e-06
-2.71542e-06
-4.98733e-06
-2.4887e-06
-3.77181e-06
-2.23399e-06
-2.70119e-06
-1.95571e-06
-1.78493e-06
-1.65902e-06
-1.02926e-06
-1.34999e-06
-4.3666e-07
-1.03568e-06
-5.23997e-09
-7.24444e-07
2.72042e-07
-4.26259e-07
4.08231e-07
-1.5325e-07
4.2352e-07
7.9536e-08
3.46484e-07
2.53305e-07
2.15258e-07
3.44703e-07
7.84898e-08
3.25708e-07
1.65296e-07
1.7987e-09
-1.2765e-07
-7.92091e-08
-3.70274e-08
-2.97967e-07
2.63509e-07
-6.88112e-07
6.84273e-07
-1.26792e-06
1.16619e-06
-2.04363e-06
1.66799e-06
-3.01244e-06
2.16163e-06
-4.16509e-06
2.62892e-06
-5.48799e-06
3.05864e-06
-6.96484e-06
3.44445e-06
-8.57781e-06
3.78335e-06
-1.03085e-05
4.07461e-06
-1.21383e-05
4.31895e-06
-1.40491e-05
4.51795e-06
-1.60235e-05
4.67364e-06
-1.80444e-05
4.78822e-06
-2.00958e-05
4.86381e-06
-2.21622e-05
4.90236e-06
-2.42286e-05
4.90555e-06
-2.62807e-05
4.87472e-06
-2.83044e-05
4.81093e-06
-3.02861e-05
4.71493e-06
-3.22124e-05
4.58722e-06
-3.40699e-05
4.42813e-06
-3.58454e-05
4.23784e-06
-3.7526e-05
4.01649e-06
-3.90986e-05
3.76426e-06
-4.05506e-05
3.4814e-06
-4.18695e-05
3.16836e-06
-4.30432e-05
2.82586e-06
-4.406e-05
2.45491e-06
-4.4909e-05
2.0569e-06
-4.55801e-05
1.63365e-06
-4.6064e-05
1.18743e-06
-4.63528e-05
7.2102e-07
-4.64399e-05
2.37688e-07
-4.63203e-05
-2.58792e-07
-4.59907e-05
-7.64152e-07
-4.54498e-05
-1.27366e-06
-4.46984e-05
-1.78217e-06
-4.37396e-05
-2.28416e-06
-4.25786e-05
-2.77383e-06
-4.12233e-05
-3.24518e-06
-3.96839e-05
-3.69207e-06
-3.79731e-05
-4.10839e-06
-3.61059e-05
-4.48814e-06
-3.40997e-05
-4.82556e-06
-3.1974e-05
-5.11523e-06
-2.97502e-05
-5.35226e-06
-2.74515e-05
-5.53235e-06
-2.51022e-05
-5.65192e-06
-2.27282e-05
-5.70826e-06
-2.03556e-05
-5.69955e-06
-1.80111e-05
-5.62501e-06
-1.57211e-05
-5.48493e-06
-1.35115e-05
-5.2807e-06
-1.14072e-05
-5.01491e-06
-9.43131e-06
-4.69129e-06
-7.6052e-06
-4.3148e-06
-5.94758e-06
-3.89162e-06
-4.47412e-06
-3.42917e-06
-3.19694e-06
-2.93621e-06
-2.124e-06
-2.42293e-06
-1.2585e-06
-1.90118e-06
-5.98227e-07
-1.38472e-06
-1.34757e-07
-8.89728e-07
1.47362e-07
-4.35369e-07
2.71544e-07
-4.4645e-08
2.7019e-07
2.54661e-07
1.85724e-07
4.29171e-07
7.20321e-08
4.39401e-07
2.37328e-07
-4.21155e-08
-8.55411e-08
-2.30113e-07
1.50954e-07
-6.06488e-07
6.39873e-07
-1.19774e-06
1.27554e-06
-2.01759e-06
1.98604e-06
-3.06917e-06
2.71957e-06
-4.34729e-06
3.43975e-06
-5.84052e-06
4.12215e-06
-7.53299e-06
4.75113e-06
-9.40595e-06
5.31741e-06
-1.14389e-05
5.81626e-06
-1.36103e-05
6.24608e-06
-1.58988e-05
6.60737e-06
-1.82828e-05
6.90194e-06
-2.07414e-05
7.13232e-06
-2.32546e-05
7.30134e-06
-2.58026e-05
7.41183e-06
-2.83666e-05
7.46641e-06
-3.09285e-05
7.46738e-06
-3.34704e-05
7.41662e-06
-3.59751e-05
7.31562e-06
-3.84256e-05
7.1655e-06
-4.08054e-05
6.96703e-06
-4.30981e-05
6.72075e-06
-4.52873e-05
6.42704e-06
-4.7357e-05
6.08623e-06
-4.92915e-05
5.69872e-06
-5.10751e-05
5.26506e-06
-5.26929e-05
4.78609e-06
-5.413e-05
4.26303e-06
-5.53727e-05
3.69756e-06
-5.64077e-05
3.09192e-06
-5.7223e-05
2.44897e-06
-5.78078e-05
1.77225e-06
-5.81528e-05
1.06599e-06
-5.82503e-05
3.35172e-07
-5.80946e-05
-4.14505e-07
-5.76821e-05
-1.17664e-06
-5.70116e-05
-1.94416e-06
-5.60843e-05
-2.70941e-06
-5.49043e-05
-3.46421e-06
-5.34781e-05
-4.19997e-06
-5.18155e-05
-4.90783e-06
-4.99288e-05
-5.57877e-06
-4.78334e-05
-6.20379e-06
-4.55475e-05
-6.77408e-06
-4.30918e-05
-7.28119e-06
-4.04899e-05
-7.7172e-06
-3.77672e-05
-8.07492e-06
-3.49515e-05
-8.34807e-06
-3.2072e-05
-8.53142e-06
-2.91592e-05
-8.621e-06
-2.62446e-05
-8.61416e-06
-2.33599e-05
-8.50978e-06
-2.05365e-05
-8.30829e-06
-1.78054e-05
-8.0118e-06
-1.51962e-05
-7.62412e-06
-1.27366e-05
-7.15083e-06
-1.04522e-05
-6.59928e-06
-8.36514e-06
-5.97865e-06
-6.49435e-06
-5.29995e-06
-4.85438e-06
-4.57617e-06
-3.45497e-06
-3.82235e-06
-2.30034e-06
-3.05581e-06
-1.38856e-06
-2.2965e-06
-7.10809e-07
-1.56748e-06
-2.50666e-07
-8.95513e-07
1.6671e-08
-3.11981e-07
1.25187e-07
1.46147e-07
1.18944e-07
4.35415e-07
5.34777e-08
5.04869e-07
2.90806e-07
-8.94395e-08
3.89165e-09
-3.95185e-07
4.56711e-07
-9.44533e-07
1.18922e-06
-1.754e-06
2.085e-06
-2.83036e-06
3.06239e-06
-4.17181e-06
4.06102e-06
-5.76951e-06
5.03745e-06
-7.60909e-06
5.96173e-06
-9.67209e-06
6.81414e-06
-1.19373e-05
7.58258e-06
-1.43816e-05
8.26056e-06
-1.6981e-05
8.84555e-06
-1.97114e-05
9.33775e-06
-2.25485e-05
9.73908e-06
-2.54687e-05
1.00525e-05
-2.84488e-05
1.02814e-05
-3.14664e-05
1.04294e-05
-3.44995e-05
1.04996e-05
-3.75271e-05
1.0495e-05
-4.05285e-05
1.0418e-05
-4.34834e-05
1.02705e-05
-4.63721e-05
1.00542e-05
-4.9175e-05
9.76994e-06
-5.18729e-05
9.41866e-06
-5.44469e-05
9.00097e-06
-5.68781e-05
8.51746e-06
-5.91482e-05
7.96883e-06
-6.12392e-05
7.35605e-06
-6.31335e-05
6.68046e-06
-6.48145e-05
5.94394e-06
-6.62659e-05
5.14901e-06
-6.74729e-05
4.29894e-06
-6.84218e-05
3.39785e-06
-6.91003e-05
2.45076e-06
-6.9498e-05
1.46365e-06
-6.96063e-05
4.43479e-07
-6.9419e-05
-6.01838e-07
-6.89322e-05
-1.66344e-06
-6.81447e-05
-2.73158e-06
-6.70584e-05
-3.79574e-06
-6.56779e-05
-4.8447e-06
-6.40112e-05
-5.86675e-06
-6.20692e-05
-6.84976e-06
-5.98665e-05
-7.78148e-06
-5.74206e-05
-8.64965e-06
-5.47524e-05
-9.44229e-06
-5.18857e-05
-1.01479e-05
-4.88472e-05
-1.07558e-05
-4.5666e-05
-1.12561e-05
-4.23737e-05
-1.16403e-05
-3.90037e-05
-1.19014e-05
-3.55908e-05
-1.20339e-05
-3.21707e-05
-1.20343e-05
-2.87796e-05
-1.19009e-05
-2.54536e-05
-1.16343e-05
-2.22278e-05
-1.12375e-05
-1.91363e-05
-1.07157e-05
-1.62108e-05
-1.00763e-05
-1.34805e-05
-9.32961e-06
-1.09711e-05
-8.48801e-06
-8.70444e-06
-7.5666e-06
-6.69757e-06
-6.58304e-06
-4.96218e-06
-5.55774e-06
-3.50391e-06
-4.51407e-06
-2.32177e-06
-3.47864e-06
-1.40741e-06
-2.48183e-06
-7.4458e-07
-1.55835e-06
-3.08487e-07
-7.48076e-07
-6.52278e-08
-9.71122e-08
2.88644e-08
3.41324e-07
2.81477e-08
5.05587e-07
3.18954e-07
-1.37568e-07
1.41452e-07
-5.65872e-07
8.85022e-07
-1.29632e-06
1.91967e-06
-2.33394e-06
3.12262e-06
-3.67704e-06
4.40547e-06
-5.31751e-06
5.7015e-06
-7.24178e-06
6.96172e-06
-9.43173e-06
8.15169e-06
-1.18659e-05
9.24826e-06
-1.45202e-05
1.02369e-05
-1.73692e-05
1.11096e-05
-2.03866e-05
1.18629e-05
-2.35456e-05
1.24967e-05
-2.68197e-05
1.30132e-05
-3.01827e-05
1.34155e-05
-3.3609e-05
1.37078e-05
-3.70736e-05
1.3894e-05
-4.05521e-05
1.39781e-05
-4.40207e-05
1.39636e-05
-4.74562e-05
1.38535e-05
-5.08358e-05
1.36501e-05
-5.4137e-05
1.33554e-05
-5.73378e-05
1.29708e-05
-6.04165e-05
1.24974e-05
-6.33517e-05
1.19361e-05
-6.61221e-05
1.12879e-05
-6.87072e-05
1.05539e-05
-7.10866e-05
9.73546e-06
-7.32408e-05
8.83466e-06
-7.51509e-05
7.85412e-06
-7.67993e-05
6.79736e-06
-7.81692e-05
5.66885e-06
-7.92455e-05
4.47416e-06
-8.00148e-05
3.22001e-06
-8.04654e-05
1.91432e-06
-8.05882e-05
5.66287e-07
-8.03764e-05
-8.13696e-07
-7.98258e-05
-2.21404e-06
-7.89353e-05
-3.62204e-06
-7.7707e-05
-5.02401e-06
-7.61463e-05
-6.40543e-06
-7.4262e-05
-7.75108e-06
-7.20664e-05
-9.04532e-06
-6.95756e-05
-1.02723e-05
-6.68091e-05
-1.14162e-05
-6.37899e-05
-1.24615e-05
-6.05444e-05
-1.33935e-05
-5.71019e-05
-1.41982e-05
-5.3495e-05
-1.4863e-05
-4.97584e-05
-1.5377e-05
-4.5929e-05
-1.57308e-05
-4.20455e-05
-1.59175e-05
-3.81474e-05
-1.59324e-05
-3.42749e-05
-1.57733e-05
-3.0468e-05
-1.54412e-05
-2.67662e-05
-1.49394e-05
-2.3207e-05
-1.42748e-05
-1.98262e-05
-1.34571e-05
-1.66565e-05
-1.24993e-05
-1.37271e-05
-1.14175e-05
-1.10625e-05
-1.02311e-05
-8.68261e-06
-8.96294e-06
-6.60129e-06
-7.63907e-06
-4.82608e-06
-6.28927e-06
-3.35751e-06
-4.94722e-06
-2.1885e-06
-3.65084e-06
-1.30389e-06
-2.44295e-06
-6.80012e-07
-1.37196e-06
-2.84293e-07
-4.92832e-07
-7.49632e-08
1.31994e-07
-7.15983e-10
4.3134e-07
3.18238e-07
-1.85255e-07
3.26707e-07
-7.37293e-07
1.43706e-06
-1.65208e-06
2.83445e-06
-2.92259e-06
4.39314e-06
-4.53775e-06
6.02063e-06
-6.48225e-06
7.646e-06
-8.73687e-06
9.21635e-06
-1.12791e-05
1.0694e-05
-1.4084e-05
1.20531e-05
-1.71244e-05
1.32774e-05
-2.03724e-05
1.43575e-05
-2.37991e-05
1.52896e-05
-2.73757e-05
1.60733e-05
-3.10733e-05
1.67108e-05
-3.48636e-05
1.72059e-05
-3.87189e-05
1.7563e-05
-4.26118e-05
1.77869e-05
-4.65159e-05
1.78821e-05
-5.04049e-05
1.78526e-05
-5.42534e-05
1.7702e-05
-5.80364e-05
1.74331e-05
-6.17292e-05
1.70482e-05
-6.53075e-05
1.6549e-05
-6.87472e-05
1.59371e-05
-7.20249e-05
1.52137e-05
-7.51171e-05
1.43802e-05
-7.80013e-05
1.3438e-05
-8.06551e-05
1.23893e-05
-8.30572e-05
1.12367e-05
-8.5187e-05
9.98388e-06
-8.7025e-05
8.63536e-06
-8.85531e-05
7.19701e-06
-8.97549e-05
5.67599e-06
-9.06158e-05
4.08089e-06
-9.11233e-05
2.42181e-06
-9.12674e-05
7.10324e-07
-9.10406e-05
-1.04045e-06
-9.04386e-05
-2.81599e-06
-8.94603e-05
-4.60038e-06
-8.81078e-05
-6.37654e-06
-8.63869e-05
-8.12633e-06
-8.43071e-05
-9.83084e-06
-8.18818e-05
-1.14706e-05
-7.91283e-05
-1.30258e-05
-7.60675e-05
-1.44769e-05
-7.27243e-05
-1.58047e-05
-6.91273e-05
-1.69905e-05
-6.53082e-05
-1.80173e-05
-6.1302e-05
-1.88692e-05
-5.71465e-05
-1.95325e-05
-5.28818e-05
-1.99955e-05
-4.85497e-05
-2.02496e-05
-4.41934e-05
-2.02886e-05
-3.98568e-05
-2.011e-05
-3.55836e-05
-1.97143e-05
-3.14169e-05
-1.91061e-05
-2.73983e-05
-1.82935e-05
-2.35669e-05
-1.72884e-05
-1.99593e-05
-1.6107e-05
-1.66077e-05
-1.47691e-05
-1.35401e-05
-1.32987e-05
-1.07791e-05
-1.17239e-05
-8.34128e-06
-1.00769e-05
-6.23644e-06
-8.39411e-06
-4.46726e-06
-6.7164e-06
-3.02859e-06
-5.08951e-06
-1.90717e-06
-3.56437e-06
-1.08127e-06
-2.19785e-06
-5.20612e-07
-1.05349e-06
-1.86318e-07
-2.023e-07
-3.11612e-08
2.76185e-07
2.87075e-07
-2.31872e-07
5.58578e-07
-9.06698e-07
2.11188e-06
-2.00584e-06
3.93359e-06
-3.51024e-06
5.89754e-06
-5.39903e-06
7.90944e-06
-7.6491e-06
9.89607e-06
-1.0235e-05
1.18023e-05
-1.31294e-05
1.35883e-05
-1.63032e-05
1.52268e-05
-1.97261e-05
1.67003e-05
-2.33674e-05
1.79988e-05
-2.71958e-05
1.9118e-05
-3.11802e-05
2.00577e-05
-3.52898e-05
2.08204e-05
-3.94944e-05
2.14104e-05
-4.3764e-05
2.18326e-05
-4.80695e-05
2.20925e-05
-5.23824e-05
2.2195e-05
-5.66748e-05
2.2145e-05
-6.0919e-05
2.19462e-05
-6.5088e-05
2.16022e-05
-6.91553e-05
2.11155e-05
-7.30946e-05
2.04883e-05
-7.68798e-05
1.97224e-05
-8.04855e-05
1.88195e-05
-8.38866e-05
1.77813e-05
-8.70585e-05
1.66099e-05
-8.99771e-05
1.5308e-05
-9.26195e-05
1.38791e-05
-9.49635e-05
1.23278e-05
-9.69881e-05
1.066e-05
-9.86739e-05
8.8828e-06
-0.000100003
7.00526e-06
-0.00010096
5.03793e-06
-0.000101532
2.99318e-06
-0.000101706
8.85202e-07
-0.000101477
-1.27005e-06
-0.000100838
-3.45488e-06
-9.97883e-05
-5.65004e-06
-9.833e-05
-7.83479e-06
-9.64692e-05
-9.98721e-06
-9.42156e-05
-1.20844e-05
-9.15833e-05
-1.41029e-05
-8.85905e-05
-1.60187e-05
-8.52593e-05
-1.78081e-05
-8.1616e-05
-1.94479e-05
-7.76909e-05
-2.09157e-05
-7.35177e-05
-2.21905e-05
-6.91338e-05
-2.32531e-05
-6.45793e-05
-2.40869e-05
-5.98974e-05
-2.46775e-05
-5.51327e-05
-2.50142e-05
-5.03319e-05
-2.50894e-05
-4.55422e-05
-2.48997e-05
-4.08108e-05
-2.44457e-05
-3.61847e-05
-2.37323e-05
-3.1709e-05
-2.27692e-05
-2.74267e-05
-2.15707e-05
-2.33779e-05
-2.01558e-05
-1.95986e-05
-1.85484e-05
-1.612e-05
-1.67773e-05
-1.2968e-05
-1.4876e-05
-1.01621e-05
-1.28828e-05
-7.71501e-06
-1.08412e-05
-5.63209e-06
-8.79932e-06
-3.91074e-06
-6.81086e-06
-2.5402e-06
-4.93492e-06
-1.50138e-06
-3.23667e-06
-7.66903e-07
-1.78797e-06
-3.01393e-07
-6.67811e-07
-6.20891e-08
3.68828e-08
2.24985e-07
-2.77142e-07
8.3572e-07
-1.07256e-06
2.90729e-06
-2.35398e-06
5.21502e-06
-4.0906e-06
7.63417e-06
-6.25174e-06
1.00706e-05
-8.80615e-06
1.24505e-05
-1.17219e-05
1.4718e-05
-1.49661e-05
1.68326e-05
-1.85056e-05
1.87663e-05
-2.23065e-05
2.05013e-05
-2.63352e-05
2.20274e-05
-3.05578e-05
2.33407e-05
-3.49412e-05
2.44411e-05
-3.94526e-05
2.53318e-05
-4.40597e-05
2.60175e-05
-4.87311e-05
2.6504e-05
-5.34358e-05
2.67972e-05
-5.81437e-05
2.69029e-05
-6.2825e-05
2.68262e-05
-6.74505e-05
2.65717e-05
-7.19915e-05
2.61432e-05
-7.64197e-05
2.55436e-05
-8.0707e-05
2.47755e-05
-8.48258e-05
2.38412e-05
-8.87489e-05
2.27426e-05
-9.24496e-05
2.14819e-05
-9.59016e-05
2.00619e-05
-9.90795e-05
1.84859e-05
-0.000101959
1.67582e-05
-0.000104515
1.48845e-05
-0.000106727
1.28719e-05
-0.000108574
1.07293e-05
-0.000110036
8.46741e-06
-0.000111097
6.0989e-06
-0.000111742
3.63856e-06
-0.00011196
1.10327e-06
-0.000111742
-1.48803e-06
-0.000111083
-4.11436e-06
-0.00010998
-6.75292e-06
-0.000108435
-9.37922e-06
-0.000106455
-1.19673e-05
-0.00010405
-1.44902e-05
-0.000101232
-1.692e-05
-9.80225e-05
-1.92286e-05
-9.44429e-05
-2.13877e-05
-9.0521e-05
-2.33698e-05
-8.62883e-05
-2.51484e-05
-8.17802e-05
-2.66985e-05
-7.70361e-05
-2.79973e-05
-7.20984e-05
-2.90246e-05
-6.70126e-05
-2.97633e-05
-6.18264e-05
-3.02003e-05
-5.65895e-05
-3.03264e-05
-5.13523e-05
-3.01369e-05
-4.61659e-05
-2.96321e-05
-4.10806e-05
-2.88176e-05
-3.61455e-05
-2.77042e-05
-3.14076e-05
-2.63086e-05
-2.69106e-05
-2.46527e-05
-2.26944e-05
-2.27646e-05
-1.87941e-05
-2.06776e-05
-1.52391e-05
-1.8431e-05
-1.20525e-05
-1.60695e-05
-9.25022e-06
-1.36434e-05
-6.84082e-06
-1.12087e-05
-4.8248e-06
-8.82687e-06
-3.19447e-06
-6.56525e-06
-1.93387e-06
-4.49728e-06
-1.01894e-06
-2.70289e-06
-4.18082e-07
-1.26867e-06
-9.29482e-08
-2.88251e-07
1.32037e-07
-3.20949e-07
1.15667e-06
-1.23402e-06
3.82038e-06
-2.69426e-06
6.67526e-06
-4.65959e-06
9.59951e-06
-7.08962e-06
1.25006e-05
-9.94494e-06
1.53058e-05
-1.31868e-05
1.79599e-05
-1.67769e-05
2.04227e-05
-2.06774e-05
2.26668e-05
-2.48507e-05
2.46747e-05
-2.92602e-05
2.64369e-05
-3.38696e-05
2.79501e-05
-3.86434e-05
2.92149e-05
-4.35469e-05
3.02353e-05
-4.85463e-05
3.10169e-05
-5.36083e-05
3.1566e-05
-5.87006e-05
3.18895e-05
-6.37915e-05
3.19938e-05
-6.88497e-05
3.18845e-05
-7.38447e-05
3.15667e-05
-7.87462e-05
3.10447e-05
-8.35244e-05
3.03218e-05
-8.81498e-05
2.9401e-05
-9.25935e-05
2.82848e-05
-9.68266e-05
2.69757e-05
-0.000100821
2.54764e-05
-0.000104549
2.379e-05
-0.000107984
2.19206e-05
-0.000111099
1.98737e-05
-0.000113871
1.76557e-05
-0.000116274
1.52753e-05
-0.000118288
1.27429e-05
-0.000119891
1.00711e-05
-0.000121067
7.27465e-06
-0.000121799
4.37089e-06
-0.000122076
1.37944e-06
-0.000121886
-1.67765e-06
-0.000121224
-4.77607e-06
-0.000120088
-7.88934e-06
-0.000118478
-1.09891e-05
-0.0001164
-1.40452e-05
-0.000113864
-1.70263e-05
-0.000110884
-1.99001e-05
-0.000107479
-2.26338e-05
-0.000103672
-2.51947e-05
-9.94911e-05
-2.75505e-05
-9.49692e-05
-2.96703e-05
-9.0143e-05
-3.15247e-05
-8.50533e-05
-3.3087e-05
-7.97446e-05
-3.43332e-05
-7.42647e-05
-3.52432e-05
-6.86642e-05
-3.58009e-05
-6.29954e-05
-3.59951e-05
-5.73124e-05
-3.58199e-05
-5.16696e-05
-3.52749e-05
-4.61212e-05
-3.43659e-05
-4.07204e-05
-3.31051e-05
-3.55182e-05
-3.15108e-05
-3.05625e-05
-2.96084e-05
-2.58974e-05
-2.74296e-05
-2.15622e-05
-2.50128e-05
-1.75902e-05
-2.24029e-05
-1.40087e-05
-1.96511e-05
-1.08373e-05
-1.68148e-05
-8.08839e-06
-1.39576e-05
-5.76596e-06
-1.11493e-05
-3.86585e-06
-8.46536e-06
-2.3756e-06
-5.98753e-06
-1.27475e-06
-3.80374e-06
-5.35461e-07
-2.00796e-06
-1.23536e-07
-7.00178e-07
8.50208e-09
-3.63254e-07
1.51993e-06
-1.39063e-06
4.84777e-06
-3.0253e-06
8.30993e-06
-5.21447e-06
1.17887e-05
-7.9083e-06
1.51944e-05
-1.10593e-05
1.84568e-05
-1.46219e-05
2.15225e-05
-1.85522e-05
2.43529e-05
-2.28075e-05
2.69221e-05
-2.73467e-05
2.92139e-05
-3.21298e-05
3.122e-05
-3.7118e-05
3.29382e-05
-4.22736e-05
3.43705e-05
-4.75601e-05
3.55218e-05
-5.29419e-05
3.63987e-05
-5.83844e-05
3.70086e-05
-6.38539e-05
3.73591e-05
-6.93173e-05
3.74572e-05
-7.47422e-05
3.73094e-05
-8.00968e-05
3.69212e-05
-8.53495e-05
3.62974e-05
-9.04693e-05
3.54416e-05
-9.54255e-05
3.43572e-05
-0.000100188
3.30471e-05
-0.000104726
3.15142e-05
-0.000109011
2.97615e-05
-0.000113014
2.77928e-05
-0.000116707
2.56131e-05
-0.000120061
2.32284e-05
-0.000123052
2.06465e-05
-0.000125654
1.78774e-05
-0.000127844
1.4933e-05
-0.000129601
1.18277e-05
-0.000130905
8.57873e-06
-0.00013174
5.20569e-06
-0.000132092
1.73108e-06
-0.000131949
-1.81996e-06
-0.000131306
-5.41968e-06
-0.000130157
-9.03787e-06
-0.000128504
-1.26421e-05
-0.000126351
-1.61981e-05
-0.000123707
-1.967e-05
-0.000120587
-2.30207e-05
-0.000117008
-2.62128e-05
-0.000112994
-2.92085e-05
-0.000108573
-3.19709e-05
-0.00010378
-3.4464e-05
-9.86504e-05
-3.6654e-05
-9.32278e-05
-3.85096e-05
-8.75581e-05
-4.00029e-05
-8.16913e-05
-4.111e-05
-7.56805e-05
-4.18118e-05
-6.95811e-05
-4.20945e-05
-6.34504e-05
-4.19506e-05
-5.73465e-05
-4.13788e-05
-5.13277e-05
-4.03847e-05
-4.54514e-05
-3.89814e-05
-3.97729e-05
-3.71893e-05
-3.43449e-05
-3.50365e-05
-2.92159e-05
-3.25586e-05
-2.44299e-05
-2.97988e-05
-2.0025e-05
-2.68079e-05
-1.60326e-05
-2.36434e-05
-1.2477e-05
-2.03704e-05
-9.37466e-06
-1.706e-05
-6.73361e-06
-1.37903e-05
-4.5536e-06
-1.06454e-05
-2.82597e-06
-7.71517e-06
-1.53396e-06
-5.09575e-06
-6.53429e-07
-2.88849e-06
-1.53879e-07
-1.19973e-06
-1.45375e-07
-4.04046e-07
1.92397e-06
-1.54209e-06
5.98581e-06
-3.34617e-06
1.0114e-05
-5.7533e-06
1.41958e-05
-8.70457e-06
1.81457e-05
-1.21446e-05
2.18968e-05
-1.60211e-05
2.5399e-05
-2.02843e-05
2.86162e-05
-2.48872e-05
3.15249e-05
-2.97845e-05
3.41112e-05
-3.4933e-05
3.63686e-05
-4.02915e-05
3.82967e-05
-4.582e-05
3.9899e-05
-5.14802e-05
4.1182e-05
-5.72351e-05
4.21535e-05
-6.30486e-05
4.28221e-05
-6.88857e-05
4.31962e-05
-7.47124e-05
4.32839e-05
-8.04951e-05
4.30921e-05
-8.62008e-05
4.2627e-05
-9.17972e-05
4.18937e-05
-9.7252e-05
4.08965e-05
-0.000102534
3.96389e-05
-0.000107611
3.81241e-05
-0.000112452
3.63555e-05
-0.000117027
3.43366e-05
-0.000121306
3.20717e-05
-0.000125259
2.95664e-05
-0.000128859
2.68277e-05
-0.000132077
2.38644e-05
-0.000134887
2.06877e-05
-0.000137265
1.73113e-05
-0.000139189
1.37514e-05
-0.000140637
1.00272e-05
-0.000141592
6.16089e-06
-0.000142039
2.17779e-06
-0.000141965
-1.89387e-06
-0.000141362
-6.0229e-06
-0.000140225
-1.01753e-05
-0.000138552
-1.43147e-05
-0.000136348
-1.84022e-05
-0.00013362
-2.23975e-05
-0.000130382
-2.62588e-05
-0.000126652
-2.99434e-05
-0.000122452
-3.34085e-05
-0.000117811
-3.6612e-05
-0.000112762
-3.95129e-05
-0.000107344
-4.20722e-05
-0.0001016
-4.42537e-05
-9.55774e-05
-4.60251e-05
-8.93291e-05
-4.73583e-05
-8.29101e-05
-4.82308e-05
-7.63789e-05
-4.86257e-05
-6.97962e-05
-4.85333e-05
-6.32239e-05
-4.7951e-05
-5.67246e-05
-4.6884e-05
-5.036e-05
-4.53459e-05
-4.41905e-05
-4.33588e-05
-3.82737e-05
-4.09533e-05
-3.26632e-05
-3.8169e-05
-2.74083e-05
-3.50538e-05
-2.2552e-05
-3.16641e-05
-1.8131e-05
-2.80645e-05
-1.41744e-05
-2.4327e-05
-1.07033e-05
-2.05311e-05
-7.73038e-06
-1.67633e-05
-5.25957e-06
-1.31162e-05
-3.28622e-06
-9.68851e-06
-1.7974e-06
-6.58458e-06
-7.72457e-07
-3.91343e-06
-1.84154e-07
-1.78804e-06
-3.2953e-07
-4.43315e-07
2.36728e-06
-1.68818e-06
7.23068e-06
-3.65617e-06
1.2082e-05
-6.27463e-06
1.68143e-05
-9.47596e-06
2.1347e-05
-1.31971e-05
2.5618e-05
-1.73793e-05
2.95811e-05
-2.19671e-05
3.32041e-05
-2.69088e-05
3.64666e-05
-3.21553e-05
3.93577e-05
-3.76603e-05
4.18736e-05
-4.33799e-05
4.40162e-05
-4.9272e-05
4.57911e-05
-5.52965e-05
4.72066e-05
-6.1415e-05
4.8272e-05
-6.75902e-05
4.89973e-05
-7.3786e-05
4.9392e-05
-7.99673e-05
4.94652e-05
-8.60997e-05
4.92245e-05
-9.21494e-05
4.86767e-05
-9.8083e-05
4.78274e-05
-0.000103868
4.66812e-05
-0.000109471
4.5242e-05
-0.00011486
4.35135e-05
-0.000120004
4.14991e-05
-0.00012487
3.9203e-05
-0.000129428
3.66298e-05
-0.000133648
3.37859e-05
-0.000137499
3.06789e-05
-0.000140954
2.73189e-05
-0.000143984
2.37182e-05
-0.000146565
1.98919e-05
-0.000148672
1.58581e-05
-0.000150283
1.16381e-05
-0.000151378
7.2565e-06
-0.000151942
2.74124e-06
-0.000151959
-1.8763e-06
-0.000151421
-6.56152e-06
-0.000150319
-1.12767e-05
-0.000148653
-1.59812e-05
-0.000146423
-2.0632e-05
-0.000143637
-2.51838e-05
-0.000140305
-2.95899e-05
-0.000136446
-3.38024e-05
-0.000132082
-3.77732e-05
-0.000127239
-4.14545e-05
-0.000121952
-4.47998e-05
-0.00011626
-4.77648e-05
-0.000110206
-5.03079e-05
-0.000103839
-5.23918e-05
-9.72134e-05
-5.39837e-05
-9.03872e-05
-5.5057e-05
-8.34216e-05
-5.55913e-05
-7.63808e-05
-5.55741e-05
-6.93308e-05
-5.5001e-05
-6.23386e-05
-5.38763e-05
-5.54709e-05
-5.22136e-05
-4.87932e-05
-5.00365e-05
-4.23686e-05
-4.73779e-05
-3.62566e-05
-4.4281e-05
-3.05121e-05
-4.07984e-05
-2.51838e-05
-3.69923e-05
-2.03142e-05
-3.29341e-05
-1.59378e-05
-2.87033e-05
-1.2081e-05
-2.43879e-05
-8.76139e-06
-2.00829e-05
-5.98753e-06
-1.589e-05
-3.75902e-06
-1.1917e-05
-2.06673e-06
-8.27687e-06
-8.9342e-07
-5.08674e-06
-2.1464e-07
-2.46682e-06
-5.44173e-07
-4.8104e-07
2.84832e-06
-1.82871e-06
8.57835e-06
-3.9547e-06
1.4208e-05
-6.7772e-06
1.96368e-05
-1.02203e-05
2.47902e-05
-1.42137e-05
2.96114e-05
-1.86922e-05
3.40595e-05
-2.3595e-05
3.81069e-05
-2.88657e-05
4.17373e-05
-3.44515e-05
4.49435e-05
-4.0303e-05
4.77251e-05
-4.63736e-05
5.00868e-05
-5.26193e-05
5.20368e-05
-5.89984e-05
5.35856e-05
-6.54708e-05
5.47444e-05
-7.19984e-05
5.55248e-05
-7.85439e-05
5.59376e-05
-8.50716e-05
5.59928e-05
-9.15462e-05
5.56991e-05
-9.79332e-05
5.50637e-05
-0.000104199
5.40929e-05
-0.000110309
5.27915e-05
-0.000116231
5.1164e-05
-0.000121932
4.92141e-05
-0.000127378
4.69457e-05
-0.000132538
4.43632e-05
-0.00013738
4.14718e-05
-0.000141873
3.82783e-05
-0.000145985
3.47912e-05
-0.000149688
3.10215e-05
-0.000152952
2.69824e-05
-0.000155751
2.26907e-05
-0.000158058
1.8166e-05
-0.000159852
1.34316e-05
-0.00016111
8.51438e-06
-0.000161813
3.44497e-06
-0.000161947
-1.74232e-06
-0.000161499
-7.00951e-06
-0.000160461
-1.23152e-05
-0.000158828
-1.76146e-05
-0.000156599
-2.28602e-05
-0.000153781
-2.8002e-05
-0.000150383
-3.29881e-05
-0.00014642
-3.77652e-05
-0.000141914
-4.22796e-05
-0.000136891
-4.64776e-05
-0.000131384
-5.03068e-05
-0.000125431
-5.37169e-05
-0.000119079
-5.66607e-05
-0.000112376
-5.90949e-05
-0.000105377
-6.09819e-05
-9.81446e-05
-6.22898e-05
-9.07413e-05
-6.29946e-05
-8.32354e-05
-6.308e-05
-7.56971e-05
-6.25393e-05
-6.81981e-05
-6.13753e-05
-6.08105e-05
-5.96013e-05
-5.36054e-05
-5.72415e-05
-4.66521e-05
-5.43312e-05
-4.00163e-05
-5.09168e-05
-3.37591e-05
-4.70555e-05
-2.7936e-05
-4.28154e-05
-2.25956e-05
-3.82746e-05
-1.77784e-05
-3.35205e-05
-1.35168e-05
-2.86496e-05
-9.83369e-06
-2.3766e-05
-6.74274e-06
-1.8981e-05
-4.24801e-06
-1.44118e-05
-2.34426e-06
-1.01806e-05
-1.01747e-06
-6.41353e-06
-2.45687e-07
-3.2386e-06
-7.89862e-07
-5.17185e-07
3.3655e-06
-1.96345e-06
1.00246e-05
-4.24116e-06
1.64857e-05
-7.25983e-06
2.26554e-05
-1.09357e-05
2.84661e-05
-1.51916e-05
3.38672e-05
-1.99559e-05
3.88239e-05
-2.5163e-05
4.33139e-05
-3.07518e-05
4.73261e-05
-3.66659e-05
5.08576e-05
-4.28528e-05
5.3912e-05
-4.92636e-05
5.64975e-05
-5.58522e-05
5.86255e-05
-6.25753e-05
6.03087e-05
-6.93916e-05
6.15608e-05
-7.62619e-05
6.23951e-05
-8.31483e-05
6.2824e-05
-9.0014e-05
6.28586e-05
-9.68234e-05
6.25085e-05
-0.000103542
6.17818e-05
-0.000110134
6.06851e-05
-0.000116566
5.92238e-05
-0.000122805
5.74026e-05
-0.000128816
5.52255e-05
-0.000134567
5.26966e-05
-0.000140025
4.98207e-05
-0.000145156
4.66032e-05
-0.000149929
4.30515e-05
-0.000154313
3.91747e-05
-0.000158276
3.49844e-05
-0.000161788
3.04952e-05
-0.000164822
2.57247e-05
-0.000167351
2.06943e-05
-0.000169348
1.5429e-05
-0.000170792
9.95792e-06
-0.000171661
4.31407e-06
-0.000171938
-1.46535e-06
-0.000171608
-7.33911e-06
-0.000170661
-1.32621e-05
-0.00016909
-1.91857e-05
-0.000166892
-2.50578e-05
-0.000164071
-3.08235e-05
-0.000160633
-3.64257e-05
-0.000156593
-4.18055e-05
-0.000151969
-4.69032e-05
-0.000146788
-5.1659e-05
-0.000141081
-5.60143e-05
-0.000134885
-5.99121e-05
-0.000128247
-6.32989e-05
-0.000121217
-6.61253e-05
-0.000113851
-6.83475e-05
-0.000106213
-6.99283e-05
-9.83686e-05
-7.08387e-05
-9.03903e-05
-7.10583e-05
-8.23526e-05
-7.05771e-05
-7.4332e-05
-6.93958e-05
-6.64065e-05
-6.75268e-05
-5.86534e-05
-6.49946e-05
-5.11485e-05
-6.18361e-05
-4.39645e-05
-5.81008e-05
-3.71696e-05
-5.38504e-05
-3.08264e-05
-4.91587e-05
-2.49904e-05
-4.41106e-05
-1.97091e-05
-3.88017e-05
-1.50212e-05
-3.33375e-05
-1.09557e-05
-2.78315e-05
-7.53154e-06
-2.24051e-05
-4.75761e-06
-1.71857e-05
-2.63269e-06
-1.23055e-05
-1.14596e-06
-7.90026e-06
-2.77687e-07
-4.10687e-06
-1.06755e-06
-5.517e-07
3.9172e-06
-2.09217e-06
1.15651e-05
-4.51494e-06
1.89085e-05
-7.72136e-06
2.58619e-05
-1.16203e-05
3.2365e-05
-1.61278e-05
3.83747e-05
-2.11667e-05
4.38628e-05
-2.66662e-05
4.88134e-05
-3.25611e-05
5.3221e-05
-3.87914e-05
5.7088e-05
-4.53018e-05
6.04224e-05
-5.20409e-05
6.32366e-05
-5.89608e-05
6.55454e-05
-6.60167e-05
6.73646e-05
-7.31662e-05
6.87103e-05
-8.03691e-05
6.9598e-05
-8.75868e-05
7.00417e-05
-9.47821e-05
7.00539e-05
-0.000101919
6.96452e-05
-0.000108962