/*--------------------------------*- C++ -*----------------------------------*\
  =========                 |
  \\      /  F ield         | OpenFOAM: The Open Source CFD Toolbox
   \\    /   O peration     | Website:  https://openfoam.org
    \\  /    A nd           | Version:  dev
     \\/     M anipulation  |
\*---------------------------------------------------------------------------*/
FoamFile
{
    format      ascii;
    class       volVectorField;
    location    "17.1";
    object      U;
}
// * * * * * * * * * * * * * * * * * * * * * * * * * * * * * * * * * * * * * //

dimensions      [0 1 -1 0 0 0 0];

internalField   nonuniform List<vector> 
5184
(
(1.22798e-05 -1.27271e-05 0)
(4.50449e-05 -2.08598e-05 0)
(8.01367e-05 -1.7204e-05 0)
(9.57055e-05 -8.15695e-06 0)
(8.18076e-05 2.69655e-06 0)
(3.60783e-05 1.36297e-05 0)
(-4.09218e-05 2.38456e-05 0)
(-0.000147175 3.3033e-05 0)
(-0.000279901 4.10767e-05 0)
(-0.00043604 4.79832e-05 0)
(-0.000612473 5.3814e-05 0)
(-0.00080617 5.86535e-05 0)
(-0.00101427 6.25935e-05 0)
(-0.00123412 6.57255e-05 0)
(-0.00146325 6.81347e-05 0)
(-0.00169941 6.98963e-05 0)
(-0.00194053 7.10742e-05 0)
(-0.0021847 7.17203e-05 0)
(-0.00243013 7.18753e-05 0)
(-0.00267516 7.15692e-05 0)
(-0.00291816 7.08217e-05 0)
(-0.00315759 6.96434e-05 0)
(-0.00339192 6.8037e-05 0)
(-0.00361962 6.59993e-05 0)
(-0.00383917 6.35229e-05 0)
(-0.00404904 6.05982e-05 0)
(-0.00424767 5.7215e-05 0)
(-0.00443349 5.3364e-05 0)
(-0.00460492 4.90378e-05 0)
(-0.00476039 4.42335e-05 0)
(-0.00489834 3.89535e-05 0)
(-0.00501726 3.32071e-05 0)
(-0.00511568 2.70114e-05 0)
(-0.00519222 2.03926e-05 0)
(-0.00524564 1.3386e-05 0)
(-0.00527482 6.03721e-06 0)
(-0.00527881 -1.59772e-06 0)
(-0.00525689 -9.45253e-06 0)
(-0.00520856 -1.74508e-05 0)
(-0.00513359 -2.55068e-05 0)
(-0.00503204 -3.35263e-05 0)
(-0.00490428 -4.1408e-05 0)
(-0.00475103 -4.9045e-05 0)
(-0.00457333 -5.63264e-05 0)
(-0.00437257 -6.314e-05 0)
(-0.00415053 -6.93739e-05 0)
(-0.00390927 -7.49197e-05 0)
(-0.00365123 -7.96743e-05 0)
(-0.00337913 -8.35435e-05 0)
(-0.00309596 -8.64435e-05 0)
(-0.00280496 -8.8304e-05 0)
(-0.00250955 -8.90697e-05 0)
(-0.00221329 -8.87023e-05 0)
(-0.00191983 -8.7182e-05 0)
(-0.00163283 -8.45084e-05 0)
(-0.00135594 -8.07009e-05 0)
(-0.00109269 -7.57987e-05 0)
(-0.000846438 -6.98602e-05 0)
(-0.00062033 -6.29627e-05 0)
(-0.000417216 -5.52021e-05 0)
(-0.00023959 -4.66921e-05 0)
(-8.95297e-05 -3.75656e-05 0)
(3.13776e-05 -2.79772e-05 0)
(0.000122116 -1.81086e-05 0)
(0.000182352 -8.18481e-06 0)
(0.000212585 1.49933e-06 0)
(0.000214395 1.05221e-05 0)
(0.000190822 1.82468e-05 0)
(0.000146885 2.36633e-05 0)
(9.06611e-05 2.50824e-05 0)
(3.65908e-05 1.98215e-05 0)
(6.22689e-06 6.24262e-06 0)
(2.07985e-05 -4.5861e-05 0)
(6.54461e-05 -6.55682e-05 0)
(9.43806e-05 -4.03848e-05 0)
(7.23297e-05 7.77515e-06 0)
(-1.94909e-05 6.57549e-05 0)
(-0.000187868 0.000125989 0)
(-0.000433368 0.000184213 0)
(-0.000752771 0.000238175 0)
(-0.00114054 0.000286744 0)
(-0.00158991 0.000329481 0)
(-0.00209353 0.000366348 0)
(-0.00264395 0.000397534 0)
(-0.0032339 0.000423348 0)
(-0.00385638 0.000444157 0)
(-0.0045048 0.00046034 0)
(-0.00517297 0.000472254 0)
(-0.00585509 0.000480221 0)
(-0.00654574 0.000484516 0)
(-0.00723978 0.000485362 0)
(-0.00793234 0.00048293 0)
(-0.00861872 0.000477343 0)
(-0.00929438 0.000468676 0)
(-0.00995485 0.000456969 0)
(-0.0105957 0.00044223 0)
(-0.0112126 0.000424447 0)
(-0.0118011 0.000403598 0)
(-0.0123567 0.000379658 0)
(-0.0128752 0.000352611 0)
(-0.0133521 0.000322458 0)
(-0.013783 0.000289224 0)
(-0.0141638 0.00025297 0)
(-0.0144904 0.0002138 0)
(-0.0147588 0.000171862 0)
(-0.0149655 0.000127359 0)
(-0.0151071 8.05509e-05 0)
(-0.0151809 3.17543e-05 0)
(-0.0151845 -1.86522e-05 0)
(-0.0151161 -7.02313e-05 0)
(-0.0149746 -0.000122489 0)
(-0.0147596 -0.000174878 0)
(-0.0144714 -0.000226808 0)
(-0.0141114 -0.000277645 0)
(-0.0136817 -0.000326731 0)
(-0.0131852 -0.000373388 0)
(-0.0126258 -0.000416933 0)
(-0.0120086 -0.000456691 0)
(-0.0113391 -0.000492011 0)
(-0.0106241 -0.00052228 0)
(-0.0098708 -0.000546937 0)
(-0.00908738 -0.000565488 0)
(-0.0082825 -0.000577521 0)
(-0.00746533 -0.000582717 0)
(-0.00664538 -0.000580859 0)
(-0.00583237 -0.000571845 0)
(-0.00503608 -0.000555689 0)
(-0.00426615 -0.00053253 0)
(-0.00353196 -0.000502631 0)
(-0.00284241 -0.000466379 0)
(-0.00220578 -0.000424289 0)
(-0.00162952 -0.000376998 0)
(-0.00112012 -0.000325274 0)
(-0.000682871 -0.000270019 0)
(-0.000321684 -0.000212293 0)
(-3.88471e-05 -0.000153344 0)
(0.000165265 -9.46799e-05 0)
(0.000292567 -3.81778e-05 0)
(0.000347789 1.37109e-05 0)
(0.000339179 5.76842e-05 0)
(0.000279202 8.91567e-05 0)
(0.000185676 0.00010164 0)
(8.6224e-05 8.63732e-05 0)
(1.96549e-05 3.64488e-05 0)
(1.75901e-05 -8.11619e-05 0)
(4.11513e-05 -9.47149e-05 0)
(1.92604e-05 -1.87987e-05 0)
(-8.44439e-05 0.000106167 0)
(-0.000290693 0.00025472 0)
(-0.000608201 0.000410451 0)
(-0.00103822 0.000563071 0)
(-0.00157692 0.000706448 0)
(-0.00221715 0.000837149 0)
(-0.00294973 0.000953476 0)
(-0.00376439 0.00105483 0)
(-0.00465043 0.00114132 0)
(-0.00559716 0.00121344 0)
(-0.00659412 0.00127193 0)
(-0.00763127 0.00131761 0)
(-0.00869907 0.00135129 0)
(-0.00978844 0.00137375 0)
(-0.0108908 0.00138566 0)
(-0.011998 0.00138759 0)
(-0.0131021 0.00137997 0)
(-0.0141956 0.00136313 0)
(-0.0152711 0.0013373 0)
(-0.0163214 0.00130261 0)
(-0.0173395 0.00125911 0)
(-0.0183181 0.00120682 0)
(-0.0192503 0.00114574 0)
(-0.0201291 0.00107584 0)
(-0.0209476 0.000997151 0)
(-0.0216987 0.00090973 0)
(-0.0223759 0.000813717 0)
(-0.0229726 0.000709344 0)
(-0.0234824 0.000596954 0)
(-0.0238994 0.000477021 0)
(-0.0242183 0.000350157 0)
(-0.024434 0.000217127 0)
(-0.0245424 7.88518e-05 0)
(-0.0245402 -6.3591e-05 0)
(-0.0244247 -0.000208968 0)
(-0.0241945 -0.0003559 0)
(-0.0238492 -0.000502871 0)
(-0.0233897 -0.00064825 0)
(-0.0228182 -0.000790307 0)
(-0.022138 -0.000927243 0)
(-0.0213541 -0.00105722 0)
(-0.0204725 -0.00117839 0)
(-0.0195011 -0.00128893 0)
(-0.0184486 -0.0013871 0)
(-0.0173252 -0.00147125 0)
(-0.0161424 -0.00153988 0)
(-0.0149125 -0.00159168 0)
(-0.0136489 -0.00162556 0)
(-0.0123655 -0.00164066 0)
(-0.0110768 -0.00163644 0)
(-0.00979773 -0.00161263 0)
(-0.00854307 -0.0015693 0)
(-0.00732753 -0.00150685 0)
(-0.00616534 -0.00142603 0)
(-0.00506999 -0.00132793 0)
(-0.00405403 -0.00121399 0)
(-0.00312872 -0.00108602 0)
(-0.00230378 -0.000946188 0)
(-0.0015871 -0.000797054 0)
(-0.000984425 -0.000641621 0)
(-0.000498983 -0.000483411 0)
(-0.0001311 -0.000326617 0)
(0.000122281 -0.000176317 0)
(0.000268235 -3.88168e-05 0)
(0.000318571 7.78788e-05 0)
(0.00029039 0.000163488 0)
(0.000206875 0.000204862 0)
(0.000102232 0.000185902 0)
(2.49328e-05 9.0255e-05 0)
(8.79943e-06 -9.74924e-05 0)
(-7.15297e-06 -7.26871e-05 0)
(-0.000107814 8.52163e-05 0)
(-0.000322582 0.000318592 0)
(-0.000669647 0.000590006 0)
(-0.00115739 0.000873883 0)
(-0.00178654 0.00115323 0)
(-0.00255233 0.00141728 0)
(-0.00344621 0.00165959 0)
(-0.00445717 0.00187662 0)
(-0.00557274 0.00206684 0)
(-0.00677974 0.00222999 0)
(-0.00806478 0.00236662 0)
(-0.00941461 0.00247779 0)
(-0.0108164 0.00256475 0)
(-0.0122576 0.00262884 0)
(-0.0137265 0.00267134 0)
(-0.0152116 0.00269339 0)
(-0.016702 0.00269598 0)
(-0.0181872 0.00267989 0)
(-0.019657 0.00264573 0)
(-0.0211014 0.00259392 0)
(-0.0225106 0.00252472 0)
(-0.0238751 0.00243831 0)
(-0.0251854 0.00233475 0)
(-0.0264319 0.0022141 0)
(-0.0276054 0.0020764 0)
(-0.0286965 0.00192178 0)
(-0.0296962 0.00175043 0)
(-0.0305956 0.00156271 0)
(-0.0313862 0.00135913 0)
(-0.0320598 0.00114044 0)
(-0.0326088 0.00090761 0)
(-0.0330261 0.000661866 0)
(-0.0333056 0.000404724 0)
(-0.0334419 0.000137981 0)
(-0.033431 -0.000136278 0)
(-0.0332696 -0.000415689 0)
(-0.0329563 -0.000697621 0)
(-0.0324908 -0.000979204 0)
(-0.0318743 -0.00125736 0)
(-0.03111 -0.00152883 0)
(-0.0302025 -0.00179024 0)
(-0.0291584 -0.00203818 0)
(-0.0279858 -0.00226918 0)
(-0.0266949 -0.00247987 0)
(-0.0252972 -0.00266701 0)
(-0.023806 -0.00282756 0)
(-0.0222362 -0.00295873 0)
(-0.0206038 -0.00305811 0)
(-0.0189261 -0.00312368 0)
(-0.0172211 -0.0031539 0)
(-0.0155076 -0.00314774 0)
(-0.0138047 -0.00310476 0)
(-0.0121317 -0.0030251 0)
(-0.0105073 -0.00290954 0)
(-0.00894997 -0.00275951 0)
(-0.00747711 -0.0025771 0)
(-0.00610482 -0.00236507 0)
(-0.0048476 -0.00212685 0)
(-0.00371792 -0.0018666 0)
(-0.00272589 -0.00158919 0)
(-0.00187883 -0.00130033 0)
(-0.00118088 -0.00100668 0)
(-0.000632523 -0.000716036 0)
(-0.000230069 -0.00043766 0)
(3.4929e-05 -0.000182678 0)
(0.00017633 3.53215e-05 0)
(0.000213818 0.000199646 0)
(0.000173508 0.000289927 0)
(9.27761e-05 0.000281892 0)
(2.39751e-05 0.000147013 0)
(-2.15513e-06 -8.40876e-05 0)
(-6.73662e-05 2.14184e-05 0)
(-0.000264149 0.000295854 0)
(-0.000609613 0.000668077 0)
(-0.00111621 0.00109036 0)
(-0.00179012 0.00152885 0)
(-0.00263035 0.00196017 0)
(-0.00363051 0.00236887 0)
(-0.00478049 0.00274526 0)
(-0.00606758 0.00308372 0)
(-0.00747745 0.00338149 0)
(-0.00899488 0.00363774 0)
(-0.0106043 0.00385295 0)
(-0.0122902 0.00402835 0)
(-0.0140372 0.0041656 0)
(-0.0158306 0.00426652 0)
(-0.0176561 0.0043329 0)
(-0.0194998 0.00436639 0)
(-0.0213483 0.0043684 0)
(-0.0231888 0.00434011 0)
(-0.0250086 0.00428242 0)
(-0.0267955 0.004196 0)
(-0.0285374 0.00408131 0)
(-0.0302224 0.00393863 0)
(-0.0318388 0.00376817 0)
(-0.0333748 0.00357009 0)
(-0.0348192 0.00334455 0)
(-0.0361604 0.00309186 0)
(-0.0373876 0.00281244 0)
(-0.0384899 0.00250696 0)
(-0.0394571 0.00217636 0)
(-0.0402793 0.00182191 0)
(-0.0409474 0.00144526 0)
(-0.0414533 0.00104846 0)
(-0.0417895 0.000633982 0)
(-0.04195 0.000204736 0)
(-0.0419299 -0.000235923 0)
(-0.0417257 -0.000684215 0)
(-0.0413358 -0.00113596 0)
(-0.0407602 -0.00158661 0)
(-0.0400006 -0.00203131 0)
(-0.0390609 -0.00246495 0)
(-0.037947 -0.00288225 0)
(-0.0366667 -0.00327782 0)
(-0.0352301 -0.00364631 0)
(-0.0336494 -0.00398245 0)
(-0.0319385 -0.00428117 0)
(-0.0301133 -0.00453777 0)
(-0.0281917 -0.00474792 0)
(-0.0261928 -0.00490787 0)
(-0.0241372 -0.00501451 0)
(-0.0220464 -0.00506544 0)
(-0.019943 -0.00505909 0)
(-0.0178495 -0.00499478 0)
(-0.015789 -0.00487277 0)
(-0.013784 -0.0046943 0)
(-0.0118564 -0.00446165 0)
(-0.0100268 -0.00417811 0)
(-0.00831471 -0.00384808 0)
(-0.00673728 -0.00347699 0)
(-0.00530946 -0.00307139 0)
(-0.0040434 -0.00263903 0)
(-0.00294795 -0.00218886 0)
(-0.00202826 -0.00173129 0)
(-0.00128528 -0.00127833 0)
(-0.00071527 -0.00084402 0)
(-0.000309271 -0.000444814 0)
(-5.25479e-05 -0.000100245 0)
(7.57307e-05 0.000166384 0)
(0.000103015 0.000327373 0)
(6.72526e-05 0.000350022 0)
(1.96118e-05 0.000193728 0)
(-1.37113e-05 -3.71788e-05 0)
(-0.000132815 0.000197845 0)
(-0.000435605 0.000627109 0)
(-0.000923999 0.00116999 0)
(-0.00160259 0.00177062 0)
(-0.00247392 0.00238823 0)
(-0.00353413 0.00299383 0)
(-0.00477454 0.00356767 0)
(-0.00618306 0.00409692 0)
(-0.00774519 0.00457386 0)
(-0.00944482 0.0049944 0)
(-0.0112649 0.00535707 0)
(-0.013188 0.00566212 0)
(-0.0151966 0.0059109 0)
(-0.0172734 0.00610541 0)
(-0.0194016 0.00624789 0)
(-0.0215648 0.00634064 0)
(-0.0237469 0.00638577 0)
(-0.0259325 0.00638516 0)
(-0.0281066 0.00634037 0)
(-0.0302545 0.00625263 0)
(-0.0323617 0.00612288 0)
(-0.0344141 0.00595179 0)
(-0.0363979 0.00573982 0)
(-0.0382991 0.00548734 0)
(-0.0401043 0.00519467 0)
(-0.0418001 0.00486218 0)
(-0.0433732 0.0044904 0)
(-0.044811 0.0040801 0)
(-0.0461011 0.00363237 0)
(-0.0472315 0.00314869 0)
(-0.0481911 0.00263101 0)
(-0.0489696 0.00208181 0)
(-0.0495575 0.00150412 0)
(-0.0499466 0.000901594 0)
(-0.05013 0.000278466 0)
(-0.0501025 -0.000360408 0)
(-0.0498602 -0.00100958 0)
(-0.0494015 -0.00166307 0)
(-0.0487263 -0.00231438 0)
(-0.0478371 -0.00295658 0)
(-0.0467384 -0.00358244 0)
(-0.045437 -0.00418445 0)
(-0.0439421 -0.00475502 0)
(-0.0422651 -0.00528657 0)
(-0.0404201 -0.00577166 0)
(-0.038423 -0.00620318 0)
(-0.0362921 -0.00657445 0)
(-0.0340475 -0.00687944 0)
(-0.0317113 -0.00711284 0)
(-0.0293067 -0.00727026 0)
(-0.0268586 -0.00734835 0)
(-0.0243922 -0.0073449 0)
(-0.0219338 -0.00725894 0)
(-0.0195092 -0.00709086 0)
(-0.0171444 -0.00684243 0)
(-0.0148643 -0.00651689 0)
(-0.0126927 -0.00611894 0)
(-0.0106516 -0.00565481 0)
(-0.00876106 -0.00513225 0)
(-0.00703819 -0.00456059 0)
(-0.00549713 -0.00395078 0)
(-0.00414833 -0.00331551 0)
(-0.00299817 -0.00266934 0)
(-0.00204842 -0.00202897 0)
(-0.00129585 -0.00141356 0)
(-0.000731701 -0.000845211 0)
(-0.000341286 -0.000349566 0)
(-0.000103696 4.34431e-05 0)
(8.64705e-06 0.000298918 0)
(3.2267e-05 0.000376092 0)
(1.35708e-05 0.000223973 0)
(-2.51839e-05 4.44199e-05 0)
(-0.00019988 0.000461573 0)
(-0.000613551 0.00108686 0)
(-0.00125169 0.00183367 0)
(-0.00210981 0.00264027 0)
(-0.00318575 0.0034605 0)
(-0.00447192 0.00426081 0)
(-0.00595664 0.00501779 0)
(-0.00762542 0.00571589 0)
(-0.00946173 0.00634542 0)
(-0.0114476 0.00690111 0)
(-0.0135643 0.00738079 0)
(-0.0157926 0.00778447 0)
(-0.0181132 0.00811359 0)
(-0.0205072 0.00837042 0)
(-0.0229559 0.0085576 0)
(-0.0254411 0.00867789 0)
(-0.027945 0.00873387 0)
(-0.0304502 0.00872785 0)
(-0.0329398 0.00866179 0)
(-0.0353972 0.00853724 0)
(-0.0378063 0.00835542 0)
(-0.040151 0.00811724 0)
(-0.0424155 0.00782337 0)
(-0.0445843 0.00747439 0)
(-0.0466421 0.00707083 0)
(-0.0485737 0.00661331 0)
(-0.0503645 0.0061027 0)
(-0.052 0.00554018 0)
(-0.0534665 0.00492734 0)
(-0.0547507 0.00426635 0)
(-0.0558401 0.00355996 0)
(-0.0567233 0.00281162 0)
(-0.0573899 0.00202552 0)
(-0.0578309 0.00120665 0)
(-0.0580388 0.000360763 0)
(-0.0580077 -0.000505583 0)
(-0.0577337 -0.00138507 0)
(-0.0572148 -0.00226967 0)
(-0.0564514 -0.00315071 0)
(-0.0554461 -0.00401898 0)
(-0.054204 -0.00486484 0)
(-0.0527327 -0.00567834 0)
(-0.0510424 -0.00644941 0)
(-0.0491459 -0.007168 0)
(-0.0470586 -0.0078243 0)
(-0.0447983 -0.00840887 0)
(-0.0423851 -0.00891291 0)
(-0.0398413 -0.0093284 0)
(-0.0371912 -0.00964834 0)
(-0.0344607 -0.00986692 0)
(-0.0316771 -0.00997966 0)
(-0.0288685 -0.00998363 0)
(-0.0260639 -0.00987754 0)
(-0.0232922 -0.00966189 0)
(-0.0205822 -0.00933899 0)
(-0.0179616 -0.00891313 0)
(-0.0154571 -0.00839054 0)
(-0.0130934 -0.00777948 0)
(-0.0108928 -0.00709022 0)
(-0.00887497 -0.00633515 0)
(-0.00705593 -0.00552873 0)
(-0.00544793 -0.00468768 0)
(-0.00405882 -0.00383106 0)
(-0.00289161 -0.00298053 0)
(-0.00194404 -0.00216063 0)
(-0.00120819 -0.00139926 0)
(-0.000670152 -0.000728214 0)
(-0.000309765 -0.000183932 0)
(-0.000100253 0.000191835 0)
(-7.90309e-06 0.000351025 0)
(6.81729e-06 0.00023433 0)
(-3.63149e-05 0.000160695 0)
(-0.000266678 0.000814442 0)
(-0.000792876 0.00167886 0)
(-0.00158378 0.00266412 0)
(-0.00262521 0.00370466 0)
(-0.00390963 0.00475055 0)
(-0.00542508 0.00576483 0)
(-0.00715627 0.00672128 0)
(-0.00908592 0.00760215 0)
(-0.0111952 0.00839619 0)
(-0.0134641 0.00909709 0)
(-0.0158722 0.00970214 0)
(-0.0183986 0.0102112 0)
(-0.0210224 0.0106257 0)
(-0.0237232 0.0109482 0)
(-0.0264805 0.0111819 0)
(-0.0292747 0.0113297 0)
(-0.0320864 0.0113949 0)
(-0.0348965 0.01138 0)
(-0.0376866 0.0112875 0)
(-0.0404384 0.0111193 0)
(-0.0431341 0.0108767 0)
(-0.045756 0.0105611 0)
(-0.0482868 0.0101732 0)
(-0.0507092 0.009714 0)
(-0.0530065 0.00918418 0)
(-0.0551621 0.00858471 0)
(-0.0571597 0.00791683 0)
(-0.0589836 0.00718223 0)
(-0.0606187 0.00638311 0)
(-0.0620504 0.00552239 0)
(-0.0632653 0.00460377 0)
(-0.0642509 0.00363178 0)
(-0.0649959 0.00261192 0)
(-0.0654905 0.00155064 0)
(-0.0657266 0.000455393 0)
(-0.0656979 -0.000665401 0)
(-0.0654 -0.00180237 0)
(-0.064831 -0.00294526 0)
(-0.0639912 -0.00408302 0)
(-0.0628834 -0.00520396 0)
(-0.0615131 -0.00629581 0)
(-0.0598885 -0.00734599 0)
(-0.0580207 -0.00834174 0)
(-0.0559234 -0.00927032 0)
(-0.0536132 -0.0101193 0)
(-0.0511093 -0.0108768 0)
(-0.0484335 -0.0115315 0)
(-0.0456099 -0.0120734 0)
(-0.0426647 -0.0124936 0)
(-0.0396261 -0.0127846 0)
(-0.0365236 -0.0129407 0)
(-0.033388 -0.0129582 0)
(-0.0302507 -0.0128354 0)
(-0.0271434 -0.0125727 0)
(-0.0240974 -0.0121732 0)
(-0.0211434 -0.0116421 0)
(-0.0183107 -0.0109873 0)
(-0.0156264 -0.0102192 0)
(-0.0131157 -0.00935072 0)
(-0.0108002 -0.00839754 0)
(-0.0086984 -0.00737785 0)
(-0.0068244 -0.00631261 0)
(-0.00518788 -0.00522562 0)
(-0.00379342 -0.00414369 0)
(-0.00264021 -0.0030969 0)
(-0.00172169 -0.002119 0)
(-0.00102533 -0.0012479 0)
(-0.000532351 -0.000526334 0)
(-0.000217455 -2.45322e-06 0)
(-5.05948e-05 0.000269273 0)
(-1.18723e-07 0.000223097 0)
(-4.70118e-05 0.000311007 0)
(-0.000332235 0.00125635 0)
(-0.000970588 0.00240405 0)
(-0.00191465 0.00366316 0)
(-0.00314041 0.00496609 0)
(-0.00463455 0.0062606 0)
(-0.00638026 0.00750752 0)
(-0.00835829 0.00867872 0)
(-0.0105482 0.00975491 0)
(-0.0129285 0.0107238 0)
(-0.0154772 0.0115783 0)
(-0.0181719 0.0123154 0)
(-0.0209901 0.0129348 0)
(-0.0239094 0.0134383 0)
(-0.026908 0.0138286 0)
(-0.0299639 0.0141093 0)
(-0.0330562 0.0142838 0)
(-0.0361639 0.0143557 0)
(-0.0392668 0.0143282 0)
(-0.0423449 0.0142038 0)
(-0.0453785 0.0139848 0)
(-0.0483484 0.0136731 0)
(-0.0512354 0.01327 0)
(-0.0540208 0.0127767 0)
(-0.0566861 0.0121943 0)
(-0.059213 0.0115238 0)
(-0.0615837 0.0107666 0)
(-0.0637805 0.00992434 0)
(-0.0657865 0.00899926 0)
(-0.0675855 0.00799428 0)
(-0.0691618 0.00691316 0)
(-0.0705009 0.00576059 0)
(-0.0715893 0.00454234 0)
(-0.072415 0.00326529 0)
(-0.0729674 0.00193752 0)
(-0.0732377 0.000568261 0)
(-0.0732191 -0.000832035 0)
(-0.072907 -0.0022518 0)
(-0.0722991 -0.00367841 0)
(-0.0713955 -0.00509828 0)
(-0.0701992 -0.00649704 0)
(-0.0687158 -0.00785965 0)
(-0.066954 -0.00917069 0)
(-0.0649253 -0.0104145 0)
(-0.0626443 -0.0115755 0)
(-0.0601285 -0.0126384 0)
(-0.0573981 -0.0135887 0)
(-0.0544763 -0.0144124 0)
(-0.0513888 -0.0150973 0)
(-0.0481635 -0.0156323 0)
(-0.0448306 -0.0160082 0)
(-0.0414216 -0.0162179 0)
(-0.0379696 -0.0162567 0)
(-0.0345085 -0.0161223 0)
(-0.0310725 -0.0158153 0)
(-0.0276955 -0.0153391 0)
(-0.0244109 -0.0147001 0)
(-0.0212506 -0.0139077 0)
(-0.0182446 -0.0129746 0)
(-0.0154204 -0.0119165 0)
(-0.0128024 -0.0107525 0)
(-0.0104112 -0.00950457 0)
(-0.00826344 -0.00819819 0)
(-0.00637072 -0.00686201 0)
(-0.00473966 -0.00552813 0)
(-0.00337128 -0.00423227 0)
(-0.00226086 -0.00301406 0)
(-0.0013977 -0.00191743 0)
(-0.000764897 -0.000991202 0)
(-0.000339065 -0.00028945 0)
(-9.42532e-05 0.00012774 0)
(-6.96794e-06 0.00018963 0)
(-5.72632e-05 0.000494446 0)
(-0.000396071 0.00178605 0)
(-0.00114496 0.00326153 0)
(-0.0022408 0.0048304 0)
(-0.00364987 0.00642451 0)
(-0.00535289 0.00799065 0)
(-0.00732794 0.0094886 0)
(-0.00955151 0.0108892 0)
(-0.0119997 0.0121724 0)
(-0.0146483 0.0133253 0)
(-0.017473 0.0143406 0)
(-0.0204495 0.0152151 0)
(-0.0235537 0.0159488 0)
(-0.0267616 0.0165436 0)
(-0.03005 0.0170028 0)
(-0.0333959 0.0173302 0)
(-0.0367769 0.0175298 0)
(-0.0401708 0.0176056 0)
(-0.0435562 0.017561 0)
(-0.0469119 0.0173993 0)
(-0.050217 0.0171228 0)
(-0.0534509 0.0167337 0)
(-0.0565935 0.0162336 0)
(-0.0596246 0.015624 0)
(-0.0625246 0.0149063 0)
(-0.0652739 0.0140818 0)
(-0.0678535 0.0131523 0)
(-0.0702448 0.0121198 0)
(-0.0724296 0.0109873 0)
(-0.0743906 0.00975848 0)
(-0.0761111 0.0084379 0)
(-0.0775758 0.00703139 0)
(-0.0787701 0.00554601 0)
(-0.0796812 0.00399013 0)
(-0.0802978 0.00237351 0)
(-0.0806105 0.000707302 0)
(-0.0806118 -0.000995928 0)
(-0.0802965 -0.0027223 0)
(-0.0796621 -0.00445668 0)
(-0.0787083 -0.00618283 0)
(-0.0774381 -0.00788355 0)
(-0.0758569 -0.00954089 0)
(-0.0739737 -0.0111364 0)
(-0.0718002 -0.0126514 0)
(-0.0693515 -0.0140672 0)
(-0.0666457 -0.0153656 0)
(-0.063704 -0.0165289 0)
(-0.0605506 -0.0175409 0)
(-0.0572125 -0.0183863 0)
(-0.0537191 -0.0190519 0)
(-0.0501023 -0.0195266 0)
(-0.0463957 -0.0198017 0)
(-0.0426344 -0.0198714 0)
(-0.0388546 -0.0197326 0)
(-0.035093 -0.0193858 0)
(-0.0313862 -0.0188349 0)
(-0.0277703 -0.0180871 0)
(-0.0242798 -0.0171537 0)
(-0.0209477 -0.0160494 0)
(-0.0178042 -0.014793 0)
(-0.0148765 -0.0134067 0)
(-0.0121879 -0.0119168 0)
(-0.0097573 -0.0103531 0)
(-0.00759905 -0.00874936 0)
(-0.00572201 -0.00714305 0)
(-0.00412947 -0.0055756 0)
(-0.00281889 -0.00409252 0)
(-0.00178182 -0.00274373 0)
(-0.00100354 -0.0015839 0)
(-0.000462875 -0.000672684 0)
(-0.000138064 -7.518e-05 0)
(-1.36152e-05 0.00013385 0)
(-6.70861e-05 0.000709981 0)
(-0.000457959 0.00240164 0)
(-0.00131499 0.00424922 0)
(-0.00256002 0.00616386 0)
(-0.00414989 0.0080781 0)
(-0.00605932 0.00993895 0)
(-0.00826122 0.0117062 0)
(-0.0107276 0.0133505 0)
(-0.013431 0.0148518 0)
(-0.0163443 0.0161972 0)
(-0.0194407 0.0173795 0)
(-0.0226939 0.018396 0)
(-0.0260782 0.019247 0)
(-0.0295682 0.0199347 0)
(-0.0331393 0.020463 0)
(-0.0367673 0.0208361 0)
(-0.0404287 0.0210587 0)
(-0.0441003 0.0211351 0)
(-0.0477595 0.0210693 0)
(-0.0513841 0.0208646 0)
(-0.0549523 0.0205239 0)
(-0.0584423 0.0200497 0)
(-0.0618329 0.0194438 0)
(-0.065103 0.0187079 0)
(-0.0682317 0.0178437 0)
(-0.0711987 0.0168528 0)
(-0.0739837 0.0157376 0)
(-0.076567 0.0145005 0)
(-0.0789297 0.0131452 0)
(-0.0810533 0.0116759 0)
(-0.0829203 0.0100984 0)
(-0.0845142 0.00841965 0)
(-0.0858198 0.00664793 0)
(-0.0868234 0.00479319 0)
(-0.0875129 0.00286695 0)
(-0.0878779 0.000882361 0)
(-0.0879105 -0.00114584 0)
(-0.0876048 -0.00320136 0)
(-0.0869576 -0.00526649 0)
(-0.0859683 -0.00732219 0)
(-0.0846394 -0.00934833 0)
(-0.0829762 -0.0113239 0)
(-0.0809874 -0.0132273 0)
(-0.0786849 -0.0150367 0)
(-0.0760838 -0.01673 0)
(-0.0732028 -0.0182859 0)
(-0.0700637 -0.0196837 0)
(-0.0666914 -0.020904 0)
(-0.063114 -0.0219288 0)
(-0.0593623 -0.0227425 0)
(-0.0554696 -0.0233317 0)
(-0.0514714 -0.0236859 0)
(-0.0474049 -0.0237979 0)
(-0.0433086 -0.0236638 0)
(-0.0392215 -0.0232838 0)
(-0.035183 -0.0226619 0)
(-0.031232 -0.0218066 0)
(-0.027406 -0.0207303 0)
(-0.0237408 -0.0194502 0)
(-0.0202699 -0.0179878 0)
(-0.0170232 -0.0163689 0)
(-0.0140271 -0.0146238 0)
(-0.0113036 -0.012787 0)
(-0.00886964 -0.0108973 0)
(-0.00673684 -0.00899763 0)
(-0.00491112 -0.00713529 0)
(-0.00339249 -0.00536168 0)
(-0.00217502 -0.00373264 0)
(-0.00124644 -0.00230861 0)
(-0.000587877 -0.00115459 0)
(-0.000181702 -0.000340318 0)
(-2.00341e-05 5.59294e-05 0)
(-7.65052e-05 0.000956532 0)
(-0.000517801 0.00310081 0)
(-0.0014801 0.00536421 0)
(-0.0028709 0.00766043 0)
(-0.00463794 0.00992371 0)
(-0.00675009 0.0121023 0)
(-0.00917501 0.0141569 0)
(-0.0118803 0.016059 0)
(-0.0148346 0.0177891 0)
(-0.018008 0.019335 0)
(-0.0213711 0.0206903 0)
(-0.0248957 0.0218526 0)
(-0.0285541 0.0228231 0)
(-0.0323197 0.0236048 0)
(-0.0361666 0.0242019 0)
(-0.0400696 0.0246195 0)
(-0.0440039 0.0248628 0)
(-0.0479457 0.0249365 0)
(-0.0518713 0.0248449 0)
(-0.0557576 0.0245921 0)
(-0.0595818 0.024181 0)
(-0.0633215 0.0236143 0)
(-0.0669544 0.0228943 0)
(-0.0704585 0.0220229 0)
(-0.0738121 0.0210021 0)
(-0.0769939 0.0198338 0)
(-0.0799827 0.0185207 0)
(-0.082758 0.017066 0)
(-0.0852997 0.0154737 0)
(-0.0875887 0.0137492 0)
(-0.0896065 0.0118989 0)
(-0.0913356 0.00993108 0)
(-0.0927601 0.00785538 0)
(-0.0938651 0.00568329 0)
(-0.0946379 0.00342814 0)
(-0.0950672 0.00110509 0)
(-0.0951442 -0.0012689 0)
(-0.0948622 -0.00367507 0)
(-0.0942173 -0.00609303 0)
(-0.0932083 -0.00850091 0)
(-0.0918369 -0.0108755 0)
(-0.090108 -0.0131928 0)
(-0.0880299 -0.0154276 0)
(-0.0856143 -0.0175549 0)
(-0.0828762 -0.0195492 0)
(-0.0798343 -0.0213857 0)
(-0.0765109 -0.0230404 0)
(-0.0729314 -0.0244906 0)
(-0.0691247 -0.0257154 0)
(-0.0651229 -0.0266963 0)
(-0.0609605 -0.0274176 0)
(-0.0566748 -0.0278665 0)
(-0.052305 -0.0280344 0)
(-0.0478918 -0.0279161 0)
(-0.0434769 -0.0275115 0)
(-0.0391024 -0.0268245 0)
(-0.03481 -0.0258643 0)
(-0.0306406 -0.0246449 0)
(-0.0266331 -0.0231856 0)
(-0.0228242 -0.0215107 0)
(-0.0192475 -0.0196495 0)
(-0.0159324 -0.0176363 0)
(-0.0129043 -0.0155106 0)
(-0.0101834 -0.0133161 0)
(-0.00778429 -0.0111015 0)
(-0.0057159 -0.00891985 0)
(-0.00398112 -0.00682863 0)
(-0.00257679 -0.00488964 0)
(-0.00149324 -0.00316905 0)
(-0.00071392 -0.00173716 0)
(-0.00022517 -0.000668234 0)
(-2.6251e-05 -4.39158e-05 0)
(-8.55423e-05 0.001233 0)
(-0.000575549 0.00388101 0)
(-0.0016399 0.00660309 0)
(-0.00317247 0.00931621 0)
(-0.00511222 0.0119572 0)
(-0.00742237 0.0144764 0)
(-0.0100654 0.0168363 0)
(-0.0130045 0.0190101 0)
(-0.0162046 0.0209795 0)
(-0.0196326 0.0227337 0)
(-0.0232568 0.0242672 0)
(-0.0270466 0.025579 0)
(-0.030973 0.026671 0)
(-0.0350077 0.0275472 0)
(-0.0391237 0.0282128 0)
(-0.0432947 0.0286734 0)
(-0.0474952 0.0289349 0)
(-0.0517003 0.0290025 0)
(-0.0558856 0.0288812 0)
(-0.0600274 0.0285752 0)
(-0.0641019 0.0280879 0)
(-0.0680861 0.0274223 0)
(-0.0719569 0.0265808 0)
(-0.0756917 0.0255657 0)
(-0.0792678 0.0243791 0)
(-0.0826632 0.0230235 0)
(-0.085856 0.0215018 0)
(-0.0888248 0.0198177 0)
(-0.0915488 0.017976 0)
(-0.0940077 0.0159828 0)
(-0.0961824 0.0138455 0)
(-0.0980546 0.0115734 0)
(-0.0996072 0.00917759 0)
(-0.100825 0.00667115 0)
(-0.101693 0.00406916 0)
(-0.1022 0.00138881 0)
(-0.102336 -0.00135067 0)
(-0.102093 -0.00412806 0)
(-0.101467 -0.00692027 0)
(-0.100455 -0.0097025 0)
(-0.0990588 -0.0124485 0)
(-0.0972815 -0.0151307 0)
(-0.0951311 -0.017721 0)
(-0.0926187 -0.0201903 0)
(-0.0897591 -0.0225099 0)
(-0.0865707 -0.0246512 0)
(-0.0830759 -0.0265867 0)
(-0.0793004 -0.0282901 0)
(-0.0752739 -0.0297374 0)
(-0.0710291 -0.0309068 0)
(-0.0666021 -0.0317798 0)
(-0.0620316 -0.0323415 0)
(-0.0573588 -0.032581 0)
(-0.0526268 -0.032492 0)
(-0.0478798 -0.0320733 0)
(-0.0431629 -0.0313289 0)
(-0.0385209 -0.0302685 0)
(-0.0339981 -0.0289073 0)
(-0.0296369 -0.0272666 0)
(-0.0254778 -0.0253735 0)
(-0.021558 -0.0232607 0)
(-0.0179107 -0.0209669 0)
(-0.014565 -0.018536 0)
(-0.0115445 -0.0160173 0)
(-0.00886743 -0.013465 0)
(-0.00654604 -0.0109384 0)
(-0.00458634 -0.00850084 0)
(-0.0029882 -0.00622038 0)
(-0.00174465 -0.00416903 0)
(-0.000841455 -0.00242246 0)
(-0.000268689 -0.00105957 0)
(-3.23246e-05 -0.000165552 0)
(-9.42129e-05 0.0015383 0)
(-0.000631165 0.00473954 0)
(-0.00179413 0.00796204 0)
(-0.00346397 0.0111267 0)
(-0.00557135 0.0141735 0)
(-0.00807397 0.0170559 0)
(-0.0109294 0.019739 0)
(-0.0140962 0.0221981 0)
(-0.017536 0.0244172 0)
(-0.0212123 0.0263871 0)
(-0.025091 0.0281042 0)
(-0.0291396 0.0295688 0)
(-0.0333272 0.0307842 0)
(-0.0376243 0.0317555 0)
(-0.0420026 0.0324889 0)
(-0.0464349 0.032991 0)
(-0.0508949 0.0332683 0)
(-0.0553569 0.0333269 0)
(-0.059796 0.033172 0)
(-0.0641876 0.0328084 0)
(-0.0685076 0.0322397 0)
(-0.0727321 0.0314694 0)
(-0.0768376 0.0304999 0)
(-0.0808007 0.0293339 0)
(-0.0845983 0.0279737 0)
(-0.0882075 0.0264221 0)
(-0.0916058 0.0246824 0)
(-0.0947711 0.0227588 0)
(-0.0976818 0.0206568 0)
(-0.100317 0.018383 0)
(-0.102656 0.0159459 0)
(-0.104681 0.0133559 0)
(-0.106372 0.0106255 0)
(-0.107714 0.00776912 0)
(-0.108692 0.00480372 0)
(-0.109292 0.00174844 0)
(-0.109503 -0.00137523 0)
(-0.109317 -0.0045436 0)
(-0.108728 -0.00773086 0)
(-0.107731 -0.0109093 0)
(-0.106328 -0.0140494 0)
(-0.10452 -0.0171203 0)
(-0.102316 -0.0200903 0)
(-0.0997236 -0.0229268 0)
(-0.0967585 -0.0255971 0)
(-0.0934385 -0.0280688 0)
(-0.0897855 -0.0303106 0)
(-0.0858254 -0.0322925 0)
(-0.0815881 -0.0339868 0)
(-0.0771074 -0.0353682 0)
(-0.0724202 -0.0364151 0)
(-0.0675669 -0.0371098 0)
(-0.0625906 -0.0374392 0)
(-0.0575366 -0.0373952 0)
(-0.0524519 -0.0369755 0)
(-0.0473847 -0.0361835 0)
(-0.0423832 -0.0350292 0)
(-0.0374953 -0.033529 0)
(-0.0327675 -0.0317059 0)
(-0.028244 -0.0295897 0)
(-0.0239663 -0.0272166 0)
(-0.0199719 -0.0246294 0)
(-0.0162937 -0.0218768 0)
(-0.0129596 -0.0190136 0)
(-0.00999167 -0.0160998 0)
(-0.00740575 -0.0132008 0)
(-0.00521134 -0.0103866 0)
(-0.00341154 -0.0077312 0)
(-0.0020022 -0.0053129 0)
(-0.000971361 -0.003213 0)
(-0.000312632 -0.00151531 0)
(-3.83332e-05 -0.000309015 0)
(-0.000102525 0.00187133 0)
(-0.000684609 0.00567356 0)
(-0.00194254 0.00943695 0)
(-0.00374481 0.0130868 0)
(-0.00601413 0.0165671 0)
(-0.00870301 0.0198349 0)
(-0.0117642 0.0228586 0)
(-0.015152 0.0256166 0)
(-0.0188243 0.0280955 0)
(-0.0227418 0.0302887 0)
(-0.0268679 0.0321945 0)
(-0.031168 0.0338152 0)
(-0.0356096 0.0351557 0)
(-0.0401619 0.0362226 0)
(-0.0447955 0.0370234 0)
(-0.0494823 0.0375657 0)
(-0.0541952 0.0378569 0)
(-0.058908 0.0379036 0)
(-0.0635951 0.0377119 0)
(-0.0682315 0.0372868 0)
(-0.0727925 0.0366324 0)
(-0.0772538 0.0357523 0)
(-0.0815914 0.0346494 0)
(-0.0857814 0.0333264 0)
(-0.0898003 0.0317859 0)
(-0.0936245 0.0300311 0)
(-0.0972309 0.0280655 0)
(-0.100597 0.0258938 0)
(-0.1037 0.0235219 0)
(-0.106519 0.0209574 0)
(-0.109032 0.0182095 0)
(-0.111219 0.0152896 0)
(-0.113062 0.0122114 0)
(-0.114542 0.00899102 0)
(-0.115644 0.00564693 0)
(-0.116353 0.00220028 0)
(-0.116658 -0.00132527 0)
(-0.116546 -0.00490358 0)
(-0.116012 -0.00850613 0)
(-0.115051 -0.0121022 0)
(-0.11366 -0.0156592 0)
(-0.111842 -0.0191429 0)
(-0.109602 -0.0225176 0)
(-0.106949 -0.0257472 0)
(-0.103895 -0.0287948 0)
(-0.100459 -0.0316242 0)
(-0.0966622 -0.0341997 0)
(-0.0925294 -0.0364874 0)
(-0.0880912 -0.0384554 0)
(-0.0833816 -0.0400748 0)
(-0.0784388 -0.0413204 0)
(-0.0733044 -0.0421712 0)
(-0.0680236 -0.0426113 0)
(-0.0626439 -0.0426307 0)
(-0.0572152 -0.0422252 0)
(-0.0517888 -0.0413977 0)
(-0.0464168 -0.0401579 0)
(-0.0411508 -0.0385231 0)
(-0.0360416 -0.036518 0)
(-0.0311381 -0.0341747 0)
(-0.0264861 -0.0315329 0)
(-0.0221279 -0.0286395 0)
(-0.0181009 -0.0255482 0)
(-0.0144376 -0.0223192 0)
(-0.0111642 -0.0190188 0)
(-0.00830075 -0.0157186 0)
(-0.0058605 -0.0124952 0)
(-0.00384998 -0.0094294 0)
(-0.00226799 -0.00660587 0)
(-0.00110482 -0.00411198 0)
(-0.000357472 -0.00203694 0)
(-4.43677e-05 -0.000474573 0)
(-0.000110478 0.00223096 0)
(-0.00073582 0.00668013 0)
(-0.00208488 0.0110234 0)
(-0.00401437 0.015191 0)
(-0.0064395 0.0191316 0)
(-0.00930778 0.0228064 0)
(-0.0125673 0.0261879 0)
(-0.0161685 0.0292581 0)
(-0.0200656 0.032007 0)
(-0.0242164 0.0344307 0)
(-0.028582 0.0365304 0)
(-0.0331257 0.0383105 0)
(-0.0378135 0.039778 0)
(-0.0426134 0.0409413 0)
(-0.0474948 0.0418093 0)
(-0.052429 0.0423907 0)
(-0.0573881 0.042694 0)
(-0.0623454 0.0427267 0)
(-0.0672748 0.0424955 0)
(-0.072151 0.0420057 0)
(-0.0769489 0.0412621 0)
(-0.0816439 0.0402683 0)
(-0.0862115 0.0390276 0)
(-0.0906275 0.0375427 0)
(-0.0948679 0.0358167 0)