/*--------------------------------*- C++ -*----------------------------------*\
  =========                 |
  \\      /  F ield         | OpenFOAM: The Open Source CFD Toolbox
   \\    /   O peration     | Website:  https://openfoam.org
    \\  /    A nd           | Version:  dev
     \\/     M anipulation  |
\*---------------------------------------------------------------------------*/
FoamFile
{
    format      ascii;
    class       volScalarField;
    location    "17.1";
    object      Ux;
}
// * * * * * * * * * * * * * * * * * * * * * * * * * * * * * * * * * * * * * //

dimensions      [0 1 -1 0 0 0 0];

internalField   nonuniform List<scalar> 
5184
(
1.22798e-05
4.50449e-05
8.01367e-05
9.57055e-05
8.18076e-05
3.60783e-05
-4.09218e-05
-0.000147175
-0.000279901
-0.00043604
-0.000612473
-0.00080617
-0.00101427
-0.00123412
-0.00146325
-0.00169941
-0.00194053
-0.0021847
-0.00243013
-0.00267516
-0.00291816
-0.00315759
-0.00339192
-0.00361962
-0.00383917
-0.00404904
-0.00424767
-0.00443349
-0.00460492
-0.00476039
-0.00489834
-0.00501726
-0.00511568
-0.00519222
-0.00524564
-0.00527482
-0.00527881
-0.00525689
-0.00520856
-0.00513359
-0.00503204
-0.00490428
-0.00475103
-0.00457333
-0.00437257
-0.00415053
-0.00390927
-0.00365123
-0.00337913
-0.00309596
-0.00280496
-0.00250955
-0.00221329
-0.00191983
-0.00163283
-0.00135594
-0.00109269
-0.000846438
-0.00062033
-0.000417216
-0.00023959
-8.95297e-05
3.13776e-05
0.000122116
0.000182352
0.000212585
0.000214395
0.000190822
0.000146885
9.06611e-05
3.65908e-05
6.22689e-06
2.07985e-05
6.54461e-05
9.43806e-05
7.23297e-05
-1.94909e-05
-0.000187868
-0.000433368
-0.000752771
-0.00114054
-0.00158991
-0.00209353
-0.00264395
-0.0032339
-0.00385638
-0.0045048
-0.00517297
-0.00585509
-0.00654574
-0.00723978
-0.00793234
-0.00861872
-0.00929438
-0.00995485
-0.0105957
-0.0112126
-0.0118011
-0.0123567
-0.0128752
-0.0133521
-0.013783
-0.0141638
-0.0144904
-0.0147588
-0.0149655
-0.0151071
-0.0151809
-0.0151845
-0.0151161
-0.0149746
-0.0147596
-0.0144714
-0.0141114
-0.0136817
-0.0131852
-0.0126258
-0.0120086
-0.0113391
-0.0106241
-0.0098708
-0.00908738
-0.0082825
-0.00746533
-0.00664538
-0.00583237
-0.00503608
-0.00426615
-0.00353196
-0.00284241
-0.00220578
-0.00162952
-0.00112012
-0.000682871
-0.000321684
-3.88471e-05
0.000165265
0.000292567
0.000347789
0.000339179
0.000279202
0.000185676
8.6224e-05
1.96549e-05
1.75901e-05
4.11513e-05
1.92604e-05
-8.44439e-05
-0.000290693
-0.000608201
-0.00103822
-0.00157692
-0.00221715
-0.00294973
-0.00376439
-0.00465043
-0.00559716
-0.00659412
-0.00763127
-0.00869907
-0.00978844
-0.0108908
-0.011998
-0.0131021
-0.0141956
-0.0152711
-0.0163214
-0.0173395
-0.0183181
-0.0192503
-0.0201291
-0.0209476
-0.0216987
-0.0223759
-0.0229726
-0.0234824
-0.0238994
-0.0242183
-0.024434
-0.0245424
-0.0245402
-0.0244247
-0.0241945
-0.0238492
-0.0233897
-0.0228182
-0.022138
-0.0213541
-0.0204725
-0.0195011
-0.0184486
-0.0173252
-0.0161424
-0.0149125
-0.0136489
-0.0123655
-0.0110768
-0.00979773
-0.00854307
-0.00732753
-0.00616534
-0.00506999
-0.00405403
-0.00312872
-0.00230378
-0.0015871
-0.000984425
-0.000498983
-0.0001311
0.000122281
0.000268235
0.000318571
0.00029039
0.000206875
0.000102232
2.49328e-05
8.79943e-06
-7.15297e-06
-0.000107814
-0.000322582
-0.000669647
-0.00115739
-0.00178654
-0.00255233
-0.00344621
-0.00445717
-0.00557274
-0.00677974
-0.00806478
-0.00941461
-0.0108164
-0.0122576
-0.0137265
-0.0152116
-0.016702
-0.0181872
-0.019657
-0.0211014
-0.0225106
-0.0238751
-0.0251854
-0.0264319
-0.0276054
-0.0286965
-0.0296962
-0.0305956
-0.0313862
-0.0320598
-0.0326088
-0.0330261
-0.0333056
-0.0334419
-0.033431
-0.0332696
-0.0329563
-0.0324908
-0.0318743
-0.03111
-0.0302025
-0.0291584
-0.0279858
-0.0266949
-0.0252972
-0.023806
-0.0222362
-0.0206038
-0.0189261
-0.0172211
-0.0155076
-0.0138047
-0.0121317
-0.0105073
-0.00894997
-0.00747711
-0.00610482
-0.0048476
-0.00371792
-0.00272589
-0.00187883
-0.00118088
-0.000632523
-0.000230069
3.4929e-05
0.00017633
0.000213818
0.000173508
9.27761e-05
2.39751e-05
-2.15513e-06
-6.73662e-05
-0.000264149
-0.000609613
-0.00111621
-0.00179012
-0.00263035
-0.00363051
-0.00478049
-0.00606758
-0.00747745
-0.00899488
-0.0106043
-0.0122902
-0.0140372
-0.0158306
-0.0176561
-0.0194998
-0.0213483
-0.0231888
-0.0250086
-0.0267955
-0.0285374
-0.0302224
-0.0318388
-0.0333748
-0.0348192
-0.0361604
-0.0373876
-0.0384899
-0.0394571
-0.0402793
-0.0409474
-0.0414533
-0.0417895
-0.04195
-0.0419299
-0.0417257
-0.0413358
-0.0407602
-0.0400006
-0.0390609
-0.037947
-0.0366667
-0.0352301
-0.0336494
-0.0319385
-0.0301133
-0.0281917
-0.0261928
-0.0241372
-0.0220464
-0.019943
-0.0178495
-0.015789
-0.013784
-0.0118564
-0.0100268
-0.00831471
-0.00673728
-0.00530946
-0.0040434
-0.00294795
-0.00202826
-0.00128528
-0.00071527
-0.000309271
-5.25479e-05
7.57307e-05
0.000103015
6.72526e-05
1.96118e-05
-1.37113e-05
-0.000132815
-0.000435605
-0.000923999
-0.00160259
-0.00247392
-0.00353413
-0.00477454
-0.00618306
-0.00774519
-0.00944482
-0.0112649
-0.013188
-0.0151966
-0.0172734
-0.0194016
-0.0215648
-0.0237469
-0.0259325
-0.0281066
-0.0302545
-0.0323617
-0.0344141
-0.0363979
-0.0382991
-0.0401043
-0.0418001
-0.0433732
-0.044811
-0.0461011
-0.0472315
-0.0481911
-0.0489696
-0.0495575
-0.0499466
-0.05013
-0.0501025
-0.0498602
-0.0494015
-0.0487263
-0.0478371
-0.0467384
-0.045437
-0.0439421
-0.0422651
-0.0404201
-0.038423
-0.0362921
-0.0340475
-0.0317113
-0.0293067
-0.0268586
-0.0243922
-0.0219338
-0.0195092
-0.0171444
-0.0148643
-0.0126927
-0.0106516
-0.00876106
-0.00703819
-0.00549713
-0.00414833
-0.00299817
-0.00204842
-0.00129585
-0.000731701
-0.000341286
-0.000103696
8.64705e-06
3.2267e-05
1.35708e-05
-2.51839e-05
-0.00019988
-0.000613551
-0.00125169
-0.00210981
-0.00318575
-0.00447192
-0.00595664
-0.00762542
-0.00946173
-0.0114476
-0.0135643
-0.0157926
-0.0181132
-0.0205072
-0.0229559
-0.0254411
-0.027945
-0.0304502
-0.0329398
-0.0353972
-0.0378063
-0.040151
-0.0424155
-0.0445843
-0.0466421
-0.0485737
-0.0503645
-0.052
-0.0534665
-0.0547507
-0.0558401
-0.0567233
-0.0573899
-0.0578309
-0.0580388
-0.0580077
-0.0577337
-0.0572148
-0.0564514
-0.0554461
-0.054204
-0.0527327
-0.0510424
-0.0491459
-0.0470586
-0.0447983
-0.0423851
-0.0398413
-0.0371912
-0.0344607
-0.0316771
-0.0288685
-0.0260639
-0.0232922
-0.0205822
-0.0179616
-0.0154571
-0.0130934
-0.0108928
-0.00887497
-0.00705593
-0.00544793
-0.00405882
-0.00289161
-0.00194404
-0.00120819
-0.000670152
-0.000309765
-0.000100253
-7.90309e-06
6.81729e-06
-3.63149e-05
-0.000266678
-0.000792876
-0.00158378
-0.00262521
-0.00390963
-0.00542508
-0.00715627
-0.00908592
-0.0111952
-0.0134641
-0.0158722
-0.0183986
-0.0210224
-0.0237232
-0.0264805
-0.0292747
-0.0320864
-0.0348965
-0.0376866
-0.0404384
-0.0431341
-0.045756
-0.0482868
-0.0507092
-0.0530065
-0.0551621
-0.0571597
-0.0589836
-0.0606187
-0.0620504
-0.0632653
-0.0642509
-0.0649959
-0.0654905
-0.0657266
-0.0656979
-0.0654
-0.064831
-0.0639912
-0.0628834
-0.0615131
-0.0598885
-0.0580207
-0.0559234
-0.0536132
-0.0511093
-0.0484335
-0.0456099
-0.0426647
-0.0396261
-0.0365236
-0.033388
-0.0302507
-0.0271434
-0.0240974
-0.0211434
-0.0183107
-0.0156264
-0.0131157
-0.0108002
-0.0086984
-0.0068244
-0.00518788
-0.00379342
-0.00264021
-0.00172169
-0.00102533
-0.000532351
-0.000217455
-5.05948e-05
-1.18723e-07
-4.70118e-05
-0.000332235
-0.000970588
-0.00191465
-0.00314041
-0.00463455
-0.00638026
-0.00835829
-0.0105482
-0.0129285
-0.0154772
-0.0181719
-0.0209901
-0.0239094
-0.026908
-0.0299639
-0.0330562
-0.0361639
-0.0392668
-0.0423449
-0.0453785
-0.0483484
-0.0512354
-0.0540208
-0.0566861
-0.059213
-0.0615837
-0.0637805
-0.0657865
-0.0675855
-0.0691618
-0.0705009
-0.0715893
-0.072415
-0.0729674
-0.0732377
-0.0732191
-0.072907
-0.0722991
-0.0713955
-0.0701992
-0.0687158
-0.066954
-0.0649253
-0.0626443
-0.0601285
-0.0573981
-0.0544763
-0.0513888
-0.0481635
-0.0448306
-0.0414216
-0.0379696
-0.0345085
-0.0310725
-0.0276955
-0.0244109
-0.0212506
-0.0182446
-0.0154204
-0.0128024
-0.0104112
-0.00826344
-0.00637072
-0.00473966
-0.00337128
-0.00226086
-0.0013977
-0.000764897
-0.000339065
-9.42532e-05
-6.96794e-06
-5.72632e-05
-0.000396071
-0.00114496
-0.0022408
-0.00364987
-0.00535289
-0.00732794
-0.00955151
-0.0119997
-0.0146483
-0.017473
-0.0204495
-0.0235537
-0.0267616
-0.03005
-0.0333959
-0.0367769
-0.0401708
-0.0435562
-0.0469119
-0.050217
-0.0534509
-0.0565935
-0.0596246
-0.0625246
-0.0652739
-0.0678535
-0.0702448
-0.0724296
-0.0743906
-0.0761111
-0.0775758
-0.0787701
-0.0796812
-0.0802978
-0.0806105
-0.0806118
-0.0802965
-0.0796621
-0.0787083
-0.0774381
-0.0758569
-0.0739737
-0.0718002
-0.0693515
-0.0666457
-0.063704
-0.0605506
-0.0572125
-0.0537191
-0.0501023
-0.0463957
-0.0426344
-0.0388546
-0.035093
-0.0313862
-0.0277703
-0.0242798
-0.0209477
-0.0178042
-0.0148765
-0.0121879
-0.0097573
-0.00759905
-0.00572201
-0.00412947
-0.00281889
-0.00178182
-0.00100354
-0.000462875
-0.000138064
-1.36152e-05
-6.70861e-05
-0.000457959
-0.00131499
-0.00256002
-0.00414989
-0.00605932
-0.00826122
-0.0107276
-0.013431
-0.0163443
-0.0194407
-0.0226939
-0.0260782
-0.0295682
-0.0331393
-0.0367673
-0.0404287
-0.0441003
-0.0477595
-0.0513841
-0.0549523
-0.0584423
-0.0618329
-0.065103
-0.0682317
-0.0711987
-0.0739837
-0.076567
-0.0789297
-0.0810533
-0.0829203
-0.0845142
-0.0858198
-0.0868234
-0.0875129
-0.0878779
-0.0879105
-0.0876048
-0.0869576
-0.0859683
-0.0846394
-0.0829762
-0.0809874
-0.0786849
-0.0760838
-0.0732028
-0.0700637
-0.0666914
-0.063114
-0.0593623
-0.0554696
-0.0514714
-0.0474049
-0.0433086
-0.0392215
-0.035183
-0.031232
-0.027406
-0.0237408
-0.0202699
-0.0170232
-0.0140271
-0.0113036
-0.00886964
-0.00673684
-0.00491112
-0.00339249
-0.00217502
-0.00124644
-0.000587877
-0.000181702
-2.00341e-05
-7.65052e-05
-0.000517801
-0.0014801
-0.0028709
-0.00463794
-0.00675009
-0.00917501
-0.0118803
-0.0148346
-0.018008
-0.0213711
-0.0248957
-0.0285541
-0.0323197
-0.0361666
-0.0400696
-0.0440039
-0.0479457
-0.0518713
-0.0557576
-0.0595818
-0.0633215
-0.0669544
-0.0704585
-0.0738121
-0.0769939
-0.0799827
-0.082758
-0.0852997
-0.0875887
-0.0896065
-0.0913356
-0.0927601
-0.0938651
-0.0946379
-0.0950672
-0.0951442
-0.0948622
-0.0942173
-0.0932083
-0.0918369
-0.090108
-0.0880299
-0.0856143
-0.0828762
-0.0798343
-0.0765109
-0.0729314
-0.0691247
-0.0651229
-0.0609605
-0.0566748
-0.052305
-0.0478918
-0.0434769
-0.0391024
-0.03481
-0.0306406
-0.0266331
-0.0228242
-0.0192475
-0.0159324
-0.0129043
-0.0101834
-0.00778429
-0.0057159
-0.00398112
-0.00257679
-0.00149324
-0.00071392
-0.00022517
-2.6251e-05
-8.55423e-05
-0.000575549
-0.0016399
-0.00317247
-0.00511222
-0.00742237
-0.0100654
-0.0130045
-0.0162046
-0.0196326
-0.0232568
-0.0270466
-0.030973
-0.0350077
-0.0391237
-0.0432947
-0.0474952
-0.0517003
-0.0558856
-0.0600274
-0.0641019
-0.0680861
-0.0719569
-0.0756917
-0.0792678
-0.0826632
-0.085856
-0.0888248
-0.0915488
-0.0940077
-0.0961824
-0.0980546
-0.0996072
-0.100825
-0.101693
-0.1022
-0.102336
-0.102093
-0.101467
-0.100455
-0.0990588
-0.0972815
-0.0951311
-0.0926187
-0.0897591
-0.0865707
-0.0830759
-0.0793004
-0.0752739
-0.0710291
-0.0666021
-0.0620316
-0.0573588
-0.0526268
-0.0478798
-0.0431629
-0.0385209
-0.0339981
-0.0296369
-0.0254778
-0.021558
-0.0179107
-0.014565
-0.0115445
-0.00886743
-0.00654604
-0.00458634
-0.0029882
-0.00174465
-0.000841455
-0.000268689
-3.23246e-05
-9.42129e-05
-0.000631165
-0.00179413
-0.00346397
-0.00557135
-0.00807397
-0.0109294
-0.0140962
-0.017536
-0.0212123
-0.025091
-0.0291396
-0.0333272
-0.0376243
-0.0420026
-0.0464349
-0.0508949
-0.0553569
-0.059796
-0.0641876
-0.0685076
-0.0727321
-0.0768376
-0.0808007
-0.0845983
-0.0882075
-0.0916058
-0.0947711
-0.0976818
-0.100317
-0.102656
-0.104681
-0.106372
-0.107714
-0.108692
-0.109292
-0.109503
-0.109317
-0.108728
-0.107731
-0.106328
-0.10452
-0.102316
-0.0997236
-0.0967585
-0.0934385
-0.0897855
-0.0858254
-0.0815881
-0.0771074
-0.0724202
-0.0675669
-0.0625906
-0.0575366
-0.0524519
-0.0473847
-0.0423832
-0.0374953
-0.0327675
-0.028244
-0.0239663
-0.0199719
-0.0162937
-0.0129596
-0.00999167
-0.00740575
-0.00521134
-0.00341154
-0.0020022
-0.000971361
-0.000312632
-3.83332e-05
-0.000102525
-0.000684609
-0.00194254
-0.00374481
-0.00601413
-0.00870301
-0.0117642
-0.015152
-0.0188243
-0.0227418
-0.0268679
-0.031168
-0.0356096
-0.0401619
-0.0447955
-0.0494823
-0.0541952
-0.058908
-0.0635951
-0.0682315
-0.0727925
-0.0772538
-0.0815914
-0.0857814
-0.0898003
-0.0936245
-0.0972309
-0.100597
-0.1037
-0.106519
-0.109032
-0.111219
-0.113062
-0.114542
-0.115644
-0.116353
-0.116658
-0.116546
-0.116012
-0.115051
-0.11366
-0.111842
-0.109602
-0.106949
-0.103895
-0.100459
-0.0966622
-0.0925294
-0.0880912
-0.0833816
-0.0784388
-0.0733044
-0.0680236
-0.0626439
-0.0572152
-0.0517888
-0.0464168
-0.0411508
-0.0360416
-0.0311381
-0.0264861
-0.0221279
-0.0181009
-0.0144376
-0.0111642
-0.00830075
-0.0058605
-0.00384998
-0.00226799
-0.00110482
-0.000357472
-4.43677e-05
-0.000110478
-0.00073582
-0.00208488
-0.00401437
-0.0064395
-0.00930778
-0.0125673
-0.0161685
-0.0200656
-0.0242164
-0.028582
-0.0331257
-0.0378135
-0.0426134
-0.0474948
-0.052429
-0.0573881
-0.0623454
-0.0672748
-0.072151
-0.0769489
-0.0816439
-0.0862115
-0.0906275
-0.0948679
-0.0989089
-0.102727
-0.106298
-0.1096
-0.11261
-0.115307
-0.117669
-0.119676
-0.121309
-0.122552
-0.123388
-0.123803
-0.123787
-0.123329
-0.122423
-0.121066
-0.119258
-0.117003
-0.114308
-0.111185
-0.10765
-0.103724
-0.0994314
-0.0948028
-0.0898724
-0.0846792
-0.0792661
-0.0736799
-0.0679707
-0.0621914
-0.0563965
-0.050642
-0.0449839
-0.0394776
-0.0341769
-0.0291327
-0.0243924
-0.0199985
-0.0159885
-0.0123935
-0.0092379
-0.0065391
-0.00430736
-0.00254454
-0.00124323
-0.000403752
-5.05256e-05
-0.000118068
-0.000784718
-0.00222086
-0.00427204
-0.00684635
-0.00988661
-0.0133366
-0.0171427
-0.0212559
-0.0256314
-0.0302277
-0.0350064
-0.039932
-0.0449712
-0.0500926
-0.0552666
-0.0604649
-0.0656602
-0.0708261
-0.075937
-0.0809677
-0.0858931
-0.0906887
-0.09533
-0.0997926
-0.104052
-0.108085
-0.111867
-0.115375
-0.118585
-0.121476
-0.124024
-0.126209
-0.128011
-0.129411
-0.130392
-0.130939
-0.131037
-0.130677
-0.129849
-0.128548
-0.126773
-0.124525
-0.121809
-0.118637
-0.115021
-0.110983
-0.106545
-0.101739
-0.0965968
-0.0911595
-0.0854709
-0.0795794
-0.0735376
-0.0674011
-0.0612283
-0.0550792
-0.0490144
-0.0430943
-0.0373782
-0.0319225
-0.0267802
-0.0219997
-0.0176239
-0.0136892
-0.0102249
-0.0072531
-0.00478796
-0.00283467
-0.00138814
-0.000452058
-5.69088e-05
-0.000125281
-0.000831202
-0.00235016
-0.00451716
-0.00723358
-0.0104378
-0.0140696
-0.0180715
-0.0223916
-0.0269822
-0.0317997
-0.0368041
-0.0419583
-0.0472279
-0.0525807
-0.0579864
-0.0634162
-0.0688426
-0.0742389
-0.0795792
-0.0848381
-0.0899906
-0.0950119
-0.0998775
-0.104563
-0.109043
-0.113294
-0.117292
-0.121013
-0.124432
-0.127527
-0.130274
-0.132651
-0.134638
-0.136213
-0.137358
-0.138056
-0.138291
-0.138051
-0.137324
-0.136103
-0.134384
-0.132166
-0.129453
-0.126253
-0.122577
-0.118445
-0.11388
-0.108909
-0.103567
-0.0978937
-0.0919344
-0.0857392
-0.0793626
-0.0728635
-0.0663038
-0.059748
-0.0532617
-0.0469107
-0.04076
-0.0348723
-0.0293068
-0.0241183
-0.0193557
-0.0150613
-0.0112701
-0.00800891
-0.00529643
-0.00314139
-0.00154119
-0.000503014
-6.36218e-05
-0.000132101
-0.000875147
-0.00247242
-0.004749
-0.00759999
-0.0109597
-0.0147639
-0.0189519
-0.0234686
-0.0282641
-0.0332927
-0.0385126
-0.0438854
-0.0493757
-0.0549507
-0.0605793
-0.0662324
-0.0718823
-0.077502
-0.0830657
-0.0885479
-0.0939236
-0.099168
-0.104256
-0.109164
-0.113867
-0.11834
-0.122558
-0.126498
-0.130135
-0.133444
-0.136402
-0.138986
-0.141172
-0.14294
-0.144269
-0.145139
-0.145533
-0.145435
-0.144834
-0.143717
-0.14208
-0.139918
-0.137232
-0.134028
-0.130315
-0.126111
-0.121436
-0.116317
-0.110789
-0.104891
-0.0986681
-0.0921724
-0.0854608
-0.0785949
-0.0716406
-0.0646667
-0.0577443
-0.050945
-0.0443401
-0.0379991
-0.031988
-0.0263685
-0.0211964
-0.0165206
-0.0123821
-0.00881326
-0.00583763
-0.00346787
-0.00170412
-0.00055726
-7.07716e-05
-0.000138505
-0.000916409
-0.00258724
-0.00496679
-0.00794434
-0.0114504
-0.0154171
-0.0197807
-0.0244833
-0.0294726
-0.0347011
-0.0401254
-0.0457061
-0.0514067
-0.0571936
-0.0630355
-0.0689029
-0.0747678
-0.0806034
-0.0863837
-0.0920834
-0.0976775
-0.103141
-0.10845
-0.11358
-0.118506
-0.123203
-0.127646
-0.131811
-0.135672
-0.139206
-0.142386
-0.14519
-0.147592
-0.14957
-0.1511
-0.152164
-0.152739
-0.152809
-0.152357
-0.151372
-0.149842
-0.147763
-0.145131
-0.141949
-0.138225
-0.133972
-0.129209
-0.123962
-0.118265
-0.112154
-0.105678
-0.098888
-0.0918433
-0.0846086
-0.0772535
-0.0698515
-0.0624793
-0.0552147
-0.0481358
-0.0413194
-0.0348393
-0.0287646
-0.0231588
-0.0180779
-0.0135698
-0.00967307
-0.00641658
-0.00381739
-0.00187867
-0.000615452
-7.84661e-05
-0.000144467
-0.000954831
-0.00269418
-0.00516972
-0.00826534
-0.011908
-0.0160267
-0.0205547
-0.0254315
-0.0306028
-0.0360193
-0.0416362
-0.0474131
-0.0533125
-0.0593004
-0.065345
-0.0714166
-0.0774872
-0.08353
-0.0895192
-0.0954295
-0.101236
-0.106915
-0.112441
-0.117791
-0.122939
-0.127861
-0.132532
-0.136926
-0.141019
-0.144785
-0.148199
-0.151235
-0.153867
-0.156071
-0.157824
-0.1591
-0.159879
-0.16014
-0.159865
-0.159037
-0.157643
-0.155674
-0.153125
-0.149993
-0.146285
-0.14201
-0.137185
-0.131833
-0.125986
-0.119681
-0.112964
-0.105889
-0.0985164
-0.0909136
-0.0831539
-0.0753157
-0.0674813
-0.0597353
-0.052163
-0.0448492
-0.0378759
-0.0313207
-0.0252553
-0.0197441
-0.0148422
-0.0105953
-0.00703836
-0.00419323
-0.00206665
-0.000678254
-8.68138e-05
-0.000149959
-0.000990244
-0.00279278
-0.00535692
-0.00856164
-0.0123307
-0.0165902
-0.0212706
-0.0263093
-0.0316499
-0.0372417
-0.0430385
-0.0489988
-0.0550847
-0.0612615
-0.0674972
-0.073762
-0.0800277
-0.0862679
-0.0924568
-0.0985696
-0.104582
-0.110469
-0.116208
-0.121774
-0.127143
-0.132289
-0.137189
-0.141816
-0.146146
-0.150152
-0.153808
-0.157087
-0.159963
-0.162409
-0.1644
-0.16591
-0.166915
-0.167392
-0.167318
-0.166674
-0.165445
-0.163617
-0.16118
-0.15813
-0.154468
-0.150201
-0.145342
-0.139911
-0.133938
-0.127459
-0.120519
-0.113173
-0.105481
-0.0975141
-0.0893491
-0.0810691
-0.0727623
-0.0645201
-0.056436
-0.0486029
-0.0411119
-0.0340501
-0.0274983
-0.0215298
-0.0162083
-0.0115871
-0.00770806
-0.00459875
-0.00226987
-0.000746334
-9.59234e-05
-0.000154953
-0.00102248
-0.00288259
-0.00552755
-0.00883191
-0.0127166
-0.0171051
-0.0219253
-0.0271128
-0.0326093
-0.0383626
-0.0443256
-0.0504559
-0.0567148
-0.0630674
-0.0694813
-0.0759269
-0.082376
-0.0888023
-0.0951806
-0.101486
-0.107695
-0.113784
-0.119729
-0.125506
-0.131091
-0.13646
-0.141588
-0.146449
-0.151018
-0.155269
-0.159174
-0.162705
-0.165837
-0.168539
-0.170786
-0.172548
-0.1738
-0.174515
-0.174668
-0.174237
-0.173202
-0.171545
-0.169253
-0.166318
-0.162735
-0.158508
-0.153647
-0.148168
-0.142097
-0.135469
-0.128329
-0.120728
-0.112731
-0.104408
-0.095841
-0.087117
-0.0783303
-0.0695797
-0.0609665
-0.0525932
-0.0445605
-0.0369655
-0.0298994
-0.0234453
-0.0176766
-0.0126552
-0.00843076
-0.00503725
-0.00249012
-0.000820364
-0.000105904
-0.000159418
-0.00105135
-0.00296314
-0.00568073
-0.00907481
-0.0130638
-0.0175688
-0.0225157
-0.0278379
-0.0334761
-0.0393765
-0.0454911
-0.0517767
-0.0581941
-0.0647082
-0.0712864
-0.077899
-0.0845183
-0.0911181
-0.0976737
-0.104161
-0.110556
-0.116836
-0.122979
-0.128959
-0.134755
-0.140342
-0.145695
-0.150789
-0.155598
-0.160096
-0.164255
-0.168046
-0.171442
-0.174413
-0.176929
-0.17896
-0.180479
-0.181455
-0.18186
-0.181669
-0.180857
-0.179404
-0.17729
-0.174504
-0.171036
-0.166886
-0.162057
-0.156564
-0.150429
-0.143683
-0.136368
-0.128537
-0.120252
-0.111587
-0.102626
-0.0934598
-0.0841894
-0.0749207
-0.0657638
-0.0568308
-0.0482329
-0.0400783
-0.0324694
-0.0255005
-0.0192556
-0.0138064
-0.00921145
-0.00551205
-0.00272922
-0.000901015
-0.000116867
-0.000163327
-0.0010767
-0.00303398
-0.00581567
-0.00928908
-0.0133705
-0.017979
-0.0230385
-0.0284811
-0.0342458
-0.0402779
-0.0465286
-0.0529538
-0.0595142
-0.0661742
-0.0729013
-0.079666
-0.0864407
-0.0931997
-0.0999187
-0.106574
-0.113143
-0.119603
-0.125932
-0.132107
-0.138105
-0.143902
-0.149474
-0.154797
-0.159844
-0.164589
-0.169003
-0.173058
-0.176725
-0.179973
-0.182771
-0.185087
-0.186889
-0.188147
-0.188828
-0.188904
-0.188345
-0.187127
-0.185226
-0.182625
-0.179311
-0.175275
-0.170519
-0.165051
-0.158889
-0.152061
-0.144604
-0.136571
-0.128023
-0.119035
-0.109693
-0.100092
-0.0903382
-0.0805458
-0.0708335
-0.0613234
-0.0521383
-0.0433983
-0.0352182
-0.0277046
-0.0209533
-0.0150472
-0.010055
-0.0060264
-0.00298896
-0.00098896
-0.000128924
-0.000166651
-0.00109837
-0.00309471
-0.0059316
-0.00947356
-0.0136351
-0.0183335
-0.0234912
-0.0290388
-0.0349142
-0.0410619
-0.0474321
-0.0539803
-0.0606669
-0.067456
-0.0743154
-0.0812155
-0.0881292
-0.0950313
-0.101898
-0.108706
-0.115435
-0.12206
-0.128563
-0.134919
-0.141107
-0.147105
-0.152888
-0.158432
-0.163711
-0.168699
-0.173368
-0.177688
-0.181629
-0.18516
-0.188249
-0.190861
-0.192963
-0.194521
-0.1955
-0.195867
-0.19559
-0.194639
-0.192987
-0.190609
-0.187487
-0.183609
-0.178968
-0.173568
-0.167421
-0.160551
-0.152992
-0.144793
-0.136013
-0.126727
-0.117023
-0.107
-0.0967695
-0.0864525
-0.0761769
-0.0660757
-0.0562835
-0.0469336
-0.0381542
-0.0300657
-0.022777
-0.0163839
-0.0109661
-0.00658346
-0.00327111
-0.00108487
-0.000142187
-0.000169366
-0.00111623
-0.00314497
-0.00602787
-0.00962722
-0.0138561
-0.0186303
-0.0238711
-0.0295079
-0.0354776
-0.0417237
-0.048196
-0.0548496
-0.0616444
-0.0685447
-0.0755181
-0.0825356
-0.0895703
-0.0965975
-0.103594
-0.110538
-0.117408
-0.124183
-0.130843
-0.137366
-0.14373
-0.149915
-0.155897
-0.161651
-0.167154
-0.172378
-0.177295
-0.181877
-0.186092
-0.189909
-0.193293
-0.19621
-0.198624
-0.200497
-0.201794
-0.202477
-0.202509
-0.201856
-0.200486
-0.19837
-0.195483
-0.191805
-0.187326
-0.182042
-0.175958
-0.169093
-0.161476
-0.153152
-0.144178
-0.134628
-0.124589
-0.114164
-0.103469
-0.0926325
-0.0817908
-0.0710883
-0.0606723
-0.05069
-0.0412844
-0.032591
-0.0247336
-0.017822
-0.0119493
-0.00718633
-0.0035774
-0.00118942
-0.000156774
-0.000171452
-0.00113015
-0.00318446
-0.00610395
-0.00974925
-0.0140323
-0.018868
-0.0241763
-0.0298858
-0.0359325
-0.0422593
-0.0488155
-0.0555557
-0.0624398
-0.0694318
-0.0764999
-0.0836149
-0.0907507
-0.0978832
-0.10499
-0.11205
-0.119042
-0.125947
-0.132745
-0.139416
-0.14594
-0.152295
-0.158459
-0.16441
-0.170122
-0.175571
-0.180728
-0.185565
-0.19005
-0.19415
-0.197831
-0.201058
-0.203791
-0.205993
-0.207623
-0.208642
-0.209009
-0.208684
-0.207631
-0.205815
-0.203205
-0.199774
-0.195505
-0.190387
-0.184419
-0.177611
-0.169989
-0.161589
-0.152467
-0.142693
-0.132354
-0.121555
-0.110416
-0.0990711
-0.0876665
-0.0763576
-0.0653049
-0.0546705
-0.0446137
-0.0352863
-0.0268289
-0.019367
-0.0130088
-0.00783796
-0.00390954
-0.00130326
-0.000172799
-0.000172893
-0.00114006
-0.00321299
-0.00615947
-0.00983906
-0.014163
-0.0190452
-0.0244051
-0.0301703
-0.0362763
-0.0426654
-0.0492863
-0.0560935
-0.0630467
-0.0701101
-0.0772517
-0.084443
-0.0916584
-0.0988744
-0.106069
-0.113223
-0.120315
-0.127328
-0.134243
-0.141041
-0.147702
-0.154207
-0.160535
-0.166663
-0.172569
-0.178227
-0.18361
-0.188689
-0.193434
-0.197812
-0.201787
-0.205323
-0.20838
-0.210918
-0.212895
-0.214267
-0.214991
-0.215022
-0.214319
-0.21284
-0.210549
-0.207413
-0.203405
-0.198508
-0.192712
-0.18602
-0.17845
-0.170031
-0.160815
-0.150866
-0.140271
-0.129135
-0.11758
-0.105746
-0.093789
-0.0818746
-0.0701774
-0.0588753
-0.0481448
-0.0381559
-0.0290676
-0.0210235
-0.0141484
-0.00854116
-0.00426917
-0.00142706
-0.000190383
-0.000173682
-0.00114592
-0.00323045
-0.00619426
-0.00989637
-0.0142476
-0.0191615
-0.0245567
-0.0303604
-0.0365074
-0.0429396
-0.0496055
-0.0564592
-0.0634603
-0.0705731
-0.077766
-0.0850108
-0.0922824
-0.099558
-0.106817
-0.114039
-0.121208
-0.128304
-0.13531
-0.14221
-0.148984
-0.155615
-0.162083
-0.168367
-0.174444
-0.180291
-0.185881
-0.191187
-0.196178
-0.200822
-0.205083
-0.208923
-0.212304
-0.215182
-0.217513
-0.219252
-0.22035
-0.220762
-0.220438
-0.219334
-0.217404
-0.21461
-0.210916
-0.206297
-0.200734
-0.194221
-0.186766
-0.178393
-0.169144
-0.159079
-0.148282
-0.136854
-0.124921
-0.112628
-0.100136
-0.087625
-0.0752816
-0.0633009
-0.0518778
-0.0412022
-0.0314535
-0.0227953
-0.0153716
-0.00929856
-0.00465789
-0.00156147
-0.000209648
-0.000173818
-0.00114775
-0.00323689
-0.00620836
-0.00992125
-0.0142863
-0.0192167
-0.0246309
-0.0304554
-0.0366249
-0.0430807
-0.049771
-0.0566499
-0.0636768
-0.0708162
-0.0780366
-0.0853104
-0.0926131
-0.0999226
-0.107219
-0.114484
-0.121701
-0.128852
-0.135923
-0.142896
-0.149756
-0.156485
-0.163066
-0.169478
-0.175701
-0.181712
-0.187486
-0.192997
-0.198215
-0.203108
-0.207641
-0.211776
-0.215473
-0.218689
-0.221377
-0.223491
-0.22498
-0.225792
-0.225875
-0.225178
-0.22365
-0.221244
-0.217918
-0.213635
-0.208369
-0.202102
-0.194834
-0.186578
-0.177366
-0.167253
-0.156315
-0.144653
-0.132391
-0.119676
-0.106679
-0.0935876
-0.0806039
-0.0679396
-0.0558097
-0.0444254
-0.0339886
-0.0246854
-0.0166815
-0.0101126
-0.0050772
-0.00170713
-0.000230718
-0.00017331
-0.00114559
-0.00323247
-0.00620212
-0.0099142
-0.0142797
-0.0192117
-0.0246283
-0.0304562
-0.0366292
-0.0430887
-0.0497825
-0.0566645
-0.0636942
-0.0708361
-0.0780591
-0.0853361
-0.0926431
-0.0999589
-0.107265
-0.114543
-0.121778
-0.128954
-0.136058
-0.143074
-0.149988
-0.156784
-0.163446
-0.169955
-0.176294
-0.18244
-0.18837
-0.19406
-0.19948
-0.204599
-0.209384
-0.213798
-0.2178
-0.221346
-0.22439
-0.226881
-0.228769
-0.229997
-0.23051
-0.23025
-0.229162
-0.22719
-0.224283
-0.220397
-0.215492
-0.209544
-0.202537
-0.194475
-0.185379
-0.175295
-0.164291
-0.152461
-0.139929
-0.126844
-0.113379
-0.0997345
-0.0861247
-0.0727795
-0.0599341
-0.0478234
-0.0366736
-0.0266959
-0.0180804
-0.0109853
-0.0055285
-0.00186464
-0.00025372
-0.000172176
-0.00113958
-0.00321754
-0.00617616
-0.00987616
-0.0142289
-0.0191478
-0.0245508
-0.0303643
-0.0365221
-0.0429651
-0.049641
-0.0565035
-0.0635122
-0.0706317
-0.0778313
-0.0850842
-0.0923672
-0.0996598
-0.106944
-0.114204
-0.121426
-0.128594
-0.135697
-0.142722
-0.149654
-0.156482
-0.16319
-0.169762
-0.176181
-0.182428
-0.188481
-0.194318
-0.19991
-0.205229
-0.210241
-0.214911
-0.219199
-0.223062
-0.226452
-0.229319
-0.231608
-0.233262
-0.234222
-0.234425
-0.23381
-0.232314
-0.229878
-0.226447
-0.221972
-0.216414
-0.209748
-0.201964
-0.193071
-0.183101
-0.172114
-0.160196
-0.147466
-0.134071
-0.12019
-0.10603
-0.0918185
-0.0778031
-0.0642409
-0.0513912
-0.0395071
-0.0288276
-0.0195701
-0.0119184
-0.00601307
-0.00203462
-0.000278781
-0.000170448
-0.00112992
-0.00319265
-0.00613148
-0.00980862
-0.0141361
-0.0190275
-0.0244011
-0.030183
-0.0363068
-0.0427131
-0.0493495
-0.0561696
-0.0631328
-0.0702041
-0.0773531
-0.0845534
-0.0917825
-0.0990209
-0.106252
-0.11346
-0.120633
-0.127758
-0.134824
-0.141819
-0.148733
-0.155554
-0.162269
-0.168864
-0.175326
-0.181635
-0.187774
-0.19372
-0.199449
-0.204934
-0.210143
-0.215042
-0.219592
-0.223751
-0.227472
-0.230703
-0.233391
-0.235475
-0.236893
-0.237579
-0.237465
-0.236483
-0.234565
-0.231646
-0.227667
-0.222575
-0.216333
-0.208915
-0.200316
-0.190555
-0.179679
-0.167763
-0.154918
-0.141289
-0.127055
-0.11243
-0.0976523
-0.0829878
-0.0687154
-0.0551206
-0.0424856
-0.0310798
-0.0211515
-0.0129135
-0.00653205
-0.00221761
-0.000306032
-0.000168169
-0.00111687
-0.00315854
-0.00606944
-0.00971365
-0.014004
-0.0188545
-0.0241834
-0.0299169
-0.0359882
-0.0423378
-0.048913
-0.0556674
-0.0625603
-0.0695569
-0.0766271
-0.0837452
-0.0908893
-0.0980408
-0.105184
-0.112305
-0.119393
-0.126436
-0.133426
-0.140352
-0.147206
-0.153978
-0.160658
-0.167235
-0.173695
-0.180024
-0.186206
-0.192221
-0.198047
-0.203659
-0.209028
-0.214121
-0.218903
-0.223332
-0.227361
-0.230941
-0.234017
-0.236527
-0.238407
-0.239589
-0.239999
-0.239563
-0.238206
-0.235853
-0.232434
-0.227883
-0.222147
-0.215187
-0.206981
-0.197531
-0.186868
-0.175056
-0.162193
-0.148418
-0.133908
-0.118881
-0.103586
-0.0883046
-0.0733382
-0.0589999
-0.045603
-0.0334505
-0.0228248
-0.0139714
-0.00708639
-0.00241415
-0.000335603
-0.000165396
-0.00110081
-0.00311619
-0.00599187
-0.00959401
-0.0138363
-0.0186332
-0.0239032
-0.0295721
-0.0355731
-0.0418464
-0.0483389
-0.0550041
-0.0618015
-0.0686964
-0.075659
-0.0826642
-0.0896909
-0.0967215
-0.103741
-0.110738
-0.117702
-0.124624
-0.131495
-0.13831
-0.145061
-0.15174
-0.158339
-0.164851
-0.171264
-0.177567
-0.183745
-0.189783
-0.195661
-0.201356
-0.206843
-0.212092
-0.217068
-0.221733
-0.226043
-0.229947
-0.233393
-0.236318
-0.238658
-0.24034
-0.241289
-0.241426
-0.240666
-0.238927
-0.236128
-0.23219
-0.227044
-0.220635
-0.212923
-0.203892
-0.193555
-0.181958
-0.169186
-0.155366
-0.140673
-0.125321
-0.109571
-0.0937177
-0.0780848
-0.0630137
-0.0488508
-0.0359357
-0.0245888
-0.0150926
-0.00767683
-0.00262472
-0.000367626
-0.000162205
-0.0010822
-0.00306687
-0.00590104
-0.00945317
-0.0136378
-0.0183697
-0.0235675
-0.0291567
-0.0350703
-0.041248
-0.0476367
-0.0541895
-0.0608661
-0.0676319
-0.0744574
-0.0813183
-0.0881942
-0.0950686
-0.101928
-0.108762
-0.115561
-0.122319
-0.12903
-0.135688
-0.142289
-0.148828
-0.155299
-0.161697
-0.168014
-0.17424
-0.180366
-0.186377
-0.192257
-0.197988
-0.203546
-0.208905
-0.214033
-0.218895
-0.223448
-0.227646
-0.231436
-0.234758
-0.237545
-0.239726
-0.241221
-0.241947
-0.241814
-0.240731
-0.238606
-0.235349
-0.230874
-0.225109
-0.217995
-0.209496
-0.199603
-0.188342
-0.175781
-0.162033
-0.147261
-0.131679
-0.115551
-0.0991847
-0.082925
-0.0671419
-0.0522171
-0.0385295
-0.0264414
-0.0162768
-0.00830388
-0.00284975
-0.00040223
-0.000158686
-0.0010616
-0.00301209
-0.00579979
-0.00929542
-0.0134142
-0.0180713
-0.023185
-0.0286807
-0.0344908
-0.0405548
-0.0468189
-0.0532364
-0.0597667
-0.0663756
-0.0730342
-0.0797186
-0.0864095
-0.0930914
-0.0997523
-0.106383
-0.112976
-0.119527
-0.126031
-0.132486
-0.13889
-0.145239
-0.151532
-0.157765
-0.163933
-0.170031
-0.17605
-0.181981
-0.187812
-0.193525