/*--------------------------------*- C++ -*----------------------------------*\
  =========                 |
  \\      /  F ield         | OpenFOAM: The Open Source CFD Toolbox
   \\    /   O peration     | Website:  https://openfoam.org
    \\  /    A nd           | Version:  dev
     \\/     M anipulation  |
\*---------------------------------------------------------------------------*/
FoamFile
{
    format      ascii;
    class       volScalarField;
    location    "22.05";
    object      p;
}
// * * * * * * * * * * * * * * * * * * * * * * * * * * * * * * * * * * * * * //

dimensions      [0 2 -2 0 0 0 0];

internalField   nonuniform List<scalar> 
5184
(
1.76464e-06
-9.58147e-06
-9.53599e-05
-0.000248117
-0.000447346
-0.000675792
-0.000919218
-0.00116569
-0.00140605
-0.00163316
-0.00184162
-0.0020274
-0.00218757
-0.00232002
-0.0024233
-0.00249639
-0.00253863
-0.00254957
-0.00252894
-0.00247658
-0.0023924
-0.00227638
-0.00212858
-0.00194914
-0.0017383
-0.00149643
-0.00122407
-0.000921989
-0.000591167
-0.000232879
0.000151291
0.000559417
0.000989209
0.00143799
0.00190272
0.00237993
0.00286583
0.00335624
0.00384669
0.00433246
0.00480859
0.00527002
0.00571164
0.00612835
0.00651522
0.00686754
0.00718095
0.00745151
0.00767587
0.00785128
0.00797574
0.00804804
0.00806784
0.00803569
0.0079531
0.0078225
0.00764728
0.00743176
0.00718113
0.00690146
0.00659959
0.00628313
0.00596038
0.00564029
0.00533241
0.00504682
0.00479402
0.0045846
0.00442856
0.00433432
0.00430738
0.00433462
1.55315e-05
3.08012e-06
-7.14537e-05
-0.000199104
-0.000364202
-0.000554283
-0.000758422
-0.000967027
-0.00117218
-0.00136748
-0.0015479
-0.00170953
-0.00184941
-0.0019653
-0.00205557
-0.00211902
-0.00215479
-0.00216227
-0.00214105
-0.00209084
-0.00201147
-0.00190283
-0.00176496
-0.00159795
-0.00140204
-0.00117758
-0.000925105
-0.000645353
-0.00033928
-8.10464e-06
0.000346667
0.000723217
0.0011194
0.00153272
0.00196035
0.00239909
0.00284545
0.0032956
0.00374545
0.00419067
0.00462678
0.00504918
0.00545323
0.00583435
0.00618808
0.00651021
0.00679684
0.00704448
0.00725015
0.00741147
0.00752672
0.00759491
0.00761584
0.00759013
0.00751924
0.00740552
0.00725213
0.00706308
0.00684317
0.00659795
0.00633365
0.00605715
0.00577588
0.00549776
0.00523109
0.00498444
0.00476648
0.00458557
0.00444901
0.00436274
0.00433416
0.00436175
0.000102215
7.74851e-05
2.20163e-06
-0.000115233
-0.0002628
-0.000430871
-0.000610741
-0.000794581
-0.000975695
-0.00114853
-0.00130858
-0.00145227
-0.00157678
-0.00167994
-0.00176012
-0.00181606
-0.00184685
-0.0018518
-0.00183042
-0.00178233
-0.0017073
-0.0016052
-0.00147598
-0.00131972
-0.00113659
-0.000926924
-0.000691218
-0.000430151
-0.00014462
0.000164229
0.000494986
0.000845949
0.00121511
0.00160014
0.00199839
0.0024069
0.00282239
0.00324131
0.00365987
0.00407405
0.00447967
0.00487249
0.0052482
0.00560258
0.0059315
0.00623109
0.00649775
0.0067283
0.00692002
0.00707074
0.00717894
0.00724376
0.00726508
0.00724356
0.00718062
0.00707851
0.00694023
0.00676954
0.00657094
0.00634957
0.00611119
0.0058621
0.00560905
0.00535916
0.00511978
0.00489837
0.0047024
0.00453893
0.00441399
0.00433279
0.00430498
0.00433557
0.00025715
0.000205751
0.000118012
-8.33696e-07
-0.000143131
-0.000301108
-0.000467644
-0.000636372
-0.000801755
-0.000959111
-0.00110457
-0.00123501
-0.00134791
-0.00144131
-0.00151369
-0.00156387
-0.00159094
-0.00159421
-0.00157317
-0.00152742
-0.00145667
-0.00136074
-0.00123955
-0.0010931
-0.000921542
-0.00072513
-0.000504293
-0.000259638
8.02261e-06
0.00029764
0.000607913
0.000937262
0.00128382
0.00164541
0.00201956
0.0024035
0.00279414
0.00318814
0.00358194
0.00397175
0.00435364
0.00472359
0.00507754
0.0054115
0.00572158
0.00600411
0.00625571
0.00647336
0.00665452
0.00679715
0.00689984
0.00696179
0.00698294
0.00696393
0.00690615
0.00681175
0.0066836
0.00652528
0.00634101
0.00613564
0.00591455
0.00568358
0.00544892
0.00521708
0.00499468
0.00478841
0.00460487
0.00445034
0.00433026
0.00424966
0.0042186
0.00424378
0.000461739
0.000373176
0.00026466
0.000137076
-7.13565e-06
-0.000161815
-0.000321197
-0.00048028
-0.000634658
-0.000780537
-0.000914739
-0.00103465
-0.00113817
-0.00122361
-0.00128962
-0.00133518
-0.00135944
-0.00136177
-0.00134164
-0.00129866
-0.00123251
-0.00114297
-0.0010299
-0.000893257
-0.000733105
-0.000549635
-0.000343186
-0.000114273
0.000136397
0.000407889
0.000699025
0.00100837
0.00133418
0.00167447
0.00202691
0.0023889
0.00275754
0.0031297
0.00350197
0.00387077
0.00423236
0.00458291
0.00491853
0.00523541
0.00552983
0.00579825
0.00603744
0.00624449
0.00641696
0.0065529
0.00665094
0.00671033
0.006731
0.00671358
0.00665942
0.00657055
0.00644974
0.00630038
0.00612649
0.00593265
0.0057239
0.00550569
0.00528376
0.00506407
0.00485265
0.00465552
0.0044786
0.00432751
0.00420721
0.00412247
0.00408206
0.00409183
0.000699829
0.000567882
0.00043282
0.000290912
0.000139141
-1.77266e-05
-0.000175088
-0.000329202
-0.000476734
-0.000614764
-0.000740822
-0.000852862
-0.000949212
-0.00102852
-0.0010897
-0.00113189
-0.00115438
-0.0011566
-0.00113806
-0.00109838
-0.00103722
-0.000954335
-0.000849521
-0.000722674
-0.000573778
-0.000402934
-0.000210382
3.47581e-06
0.000238049
0.000492534
0.000765891
0.00105682
0.00136375
0.00168483
0.0020179
0.00236052
0.00270996
0.00306324
0.00341712
0.00376817
0.00411279
0.00444729
0.00476792
0.00507096
0.00535281
0.00561001
0.0058394
0.00603815
0.00620383
0.00633454
0.0064289
0.00648618
0.00650627
0.00648977
0.00643794
0.00635275
0.00623683
0.00609343
0.00592639
0.00574005
0.00553918
0.0053289
0.00511457
0.00490169
0.00469582
0.00450242
0.00432683
0.0041741
0.00404879
0.00395531
0.00390012
0.00388699
0.000957638
0.000779001
0.000613599
0.00045321
0.000289464
0.000125964
-3.36726e-05
-0.000186843
-0.000331214
-0.0004647
-0.000585533
-0.000692242
-0.00078362
-0.000858683
-0.00091663
-0.000956802
-0.000978647
-0.00098169
-0.000965511
-0.000929737
-0.000874035
-0.000798111
-0.000701721
-0.000584684
-0.000446897
-0.00028836
-0.000109199
9.03083e-05
0.000309704
0.000548326
0.000805279
0.00107942
0.00136933
0.0016733
0.00198934
0.00231516
0.00264818
0.00298554
0.00332414
0.00366067
0.00399163
0.00431342
0.00462237
0.00491482
0.0051872
0.00543611
0.00565838
0.00585117
0.00601208
0.00613914
0.00623098
0.00628679
0.00630642
0.0062904
0.00623991
0.00615684
0.00604369
0.0059036
0.00574023
0.00555774
0.00536069
0.00515391
0.00494246
0.0047315
0.00452616
0.0043315
0.00415236
0.00399331
0.0038586
0.00375225
0.00367795
0.0036369
0.00122306
0.000996408
0.00079841
0.000616688
0.000437766
0.000264278
9.90131e-05
-5.64553e-05
-0.000200717
-0.000332477
-0.000450643
-0.000554315
-0.000642758
-0.000715367
-0.000771643
-0.000811159
-0.000833531
-0.000838401
-0.000825421
-0.000794248
-0.000744545
-0.000675991
-0.000588283
-0.000481162
-0.000354431
-0.000207978
-4.18043e-05
0.000143948
0.000348966
0.000572738
0.000814525
0.00107334
0.00134792
0.00163672
0.00193788
0.00224926
0.00256841
0.0028926
0.00321881
0.00354383
0.00386423
0.00417645
0.00447685
0.0047618
0.00502771
0.00527115
0.00548893
0.00567815
0.00583633
0.00596146
0.00605207
0.00610727
0.00612682
0.00611117
0.0060614
0.00597928
0.00586724
0.00572828
0.00556593
0.0053842
0.00518746
0.00498034
0.00476767
0.00455432
0.00434513
0.0041448
0.0039578
0.00378832
0.00364036
0.00351763
0.00342088
0.00334868
0.00148585
0.00121096
0.000979201
0.000774316
0.000577996
0.000392073
0.000218628
5.83069e-05
-8.83302e-05
-0.000220727
-0.000338437
-0.000441114
-0.000528484
-0.000600326
-0.000656446
-0.000696656
-0.000720751
-0.000728495
-0.000719619
-0.000693814
-0.000650744
-0.000590053
-0.00051138
-0.000414381
-0.000298757
-0.000164274
-1.07982e-05
0.000161673
0.000352982
0.000562776
0.000790482
0.00103527
0.00129605
0.00157141
0.00185965
0.00215876
0.00246641
0.00277995
0.00309647
0.0034128
0.00372555
0.00403118
0.00432605
0.00460647
0.00486882
0.0051096
0.00532552
0.00551359
0.00567121
0.00579626
0.00588712
0.00594282
0.00596297
0.00594791
0.0058986
0.00581672
0.00570457
0.00556504
0.00540156
0.005218
0.0050186
0.00480785
0.00459039
0.0043709
0.00415399
0.00394413
0.00374551
0.00356199
0.00339746
0.00325542
0.00313371
0.00302838
0.00173703
0.00141441
0.00114848
0.000919372
0.000704193
0.000504102
0.000320575
0.000153416
2.4013e-06
-0.000132603
-0.000251758
-0.000355245
-0.00044324
-0.000515893
-0.000573313
-0.00061555
-0.000642575
-0.000654279
-0.000650469
-0.000630871
-0.000595147
-0.000542902
-0.000473712
-0.000387143
-0.000282783
-0.000160269
-1.93229e-05
0.000140214
0.000318347
0.000514895
0.000729452
0.000961362
0.00120969
0.00147318
0.00175029
0.00203912
0.00233744
0.0026427
0.00295206
0.00326237
0.00357026
0.00387217
0.00416442
0.00444325
0.00470494
0.00494588
0.00516264
0.00535208
0.00551145
0.00563845
0.00573132
0.00578889
0.00581065
0.00579675
0.00574804
0.00566607
0.00555302
0.00541168
0.00524538
0.00505789
0.00485335
0.00463615
0.00441082
0.00418191
0.0039539
0.0037311
0.00351751
0.00331681
0.00313283
0.00296903
0.00282044
0.00268075
0.00196867
0.00159925
0.00129929
0.00104546
0.000810543
0.000595121
0.000400141
0.000224633
6.76493e-05
-7.15866e-05
-0.000193808
-0.000299696
-0.000389854
-0.000464791
-0.000524905
-0.000570473
-0.000601643
-0.000618423
-0.000620693
-0.000608209
-0.000580623
-0.0005375
-0.000478343
-0.000402621
-0.0003098
-0.00019938
-7.09277e-05
7.58804e-05
0.000241224
0.000425099
0.000627279
0.000847282
0.00108434
0.00133736
0.00160494
0.00188529
0.00217629
0.00247549
0.00278005
0.00308689
0.0033926
0.00369358
0.00398608
0.00426623
0.00453018
0.00477416
0.00499456
0.00518805
0.00535167
0.00548291
0.00557978
0.00564093
0.00566562
0.00565385
0.00560629
0.00552433
0.00541004
0.00526609
0.00509573
0.00490266
0.00469096
0.00446494
0.00422909
0.00398791
0.00374581
0.00350705
0.00327553
0.00305485
0.00284893
0.00266125
0.00248426
0.00230939
0.00217364
0.00175863
0.00142511
0.00114648
0.000891404
0.000659938
0.000452558
0.000267581
0.000103383
-4.14128e-05
-0.000168077
-0.000277764
-0.000371478
-0.000450067
-0.000514205
-0.000564385
-0.000600915
-0.000623915
-0.000633327
-0.000628931
-0.000610361
-0.000577133
-0.000528668
-0.000464328
-0.000383451
-0.000285388
-0.000169543
-3.54144e-05
0.00011736
0.000288964
0.000479358
0.000688244
0.000915026
0.00115878
0.00141823
0.00169174
0.00197727
0.00227243
0.00257445
0.00288023
0.00318634
0.00348912
0.0037847
0.00406909
0.00433828
0.00458827
0.00481526
0.00501566
0.00518627
0.00532429
0.0054275
0.00549426
0.00552363
0.00551534
0.00546989
0.00538848
0.00527305
0.00512615
0.00495095
0.0047511
0.00453062
0.00429384
0.00404523
0.0037893
0.00353049
0.00327308
0.003021
0.00277783
0.00254771
0.0023343
0.00212756
0.00191685
0.0023454
0.00188617
0.00151983
0.00121664
0.000941315
0.000693438
0.000473051
0.000277801
0.000105428
-4.60081e-05
-0.000178284
-0.000292997
-0.000391533
-0.000475053
-0.00054449
-0.000600536
-0.000643646
-0.000674038
-0.000691707
-0.000696443
-0.000687853
-0.000665394
-0.000628397
-0.000576107
-0.000507723
-0.000422434
-0.000319473
-0.000198149
-5.79075e-05
0.000101635
0.000280636
0.000478992
0.000696289
0.000931774
0.00118432
0.00145242
0.00173414
0.00202715
0.00232872
0.00263574
0.00294475
0.003252
0.0035535
0.00384509
0.00412256
0.00438168
0.00461837
0.00482877
0.00500935
0.00515703
0.00526924
0.00534406
0.00538022
0.00537722
0.00533529
0.00525545
0.00513944
0.00498972
0.00480934
0.00460193
0.0043715
0.0041224
0.00385915
0.00358635
0.00330853
0.00303008
0.00275503
0.0024871
0.00223071
0.00198982
0.00175206
0.00150479
0.00247786
0.00197591
0.00157767
0.0012504
0.000954994
0.000690608
0.000456873
0.000250797
6.9521e-05
-8.94327e-05
-0.000228317
-0.000349144
-0.000453657
-0.000543311
-0.000619274
-0.000682423
-0.000733343
-0.000772333
-0.000799427
-0.000814415
-0.000816866
-0.000806163
-0.000781538
-0.000742108
-0.00068692
-0.000614995
-0.000525377
-0.00041718
-0.000289639
-0.000142161
2.56218e-05
0.00021381
0.000422186
0.000650179
0.000896825
0.00116074
0.00144011
0.00173268
0.00203575
0.0023462
0.00266053
0.00297488
0.00328513
0.00358693
0.00387582
0.00414733
0.00439705
0.00462078
0.00481465
0.00497519
0.00509947
0.00518519
0.00523074
0.0052353
0.0051988
0.00512201
0.00500649
0.00485454
0.00466913
0.00445383
0.00421268
0.0039501
0.00367069
0.00337921
0.00308035
0.0027787
0.00247849
0.00218365
0.00189903
0.00162897
0.00135885
0.00107411
0.00256533
0.00202224
0.00159318
0.00124245
0.000927343
0.000646559
0.00039934
0.000182085
-8.6416e-06
-0.000175827
-0.000322174
-0.000450091
-0.00056165
-0.00065858
-0.000742266
-0.000813747
-0.000873721
-0.000922555
-0.000960307
-0.00098675
-0.0010014
-0.00100357
-0.000992359
-0.000966756
-0.000925644
-0.00086786
-0.00079225
-0.000697715
-0.00058327
-0.000448099
-0.000291606
-0.000113471
8.62992e-05
0.000307328
0.000548828
0.000809568
0.00108785
0.00138149
0.00168785
0.00200379
0.00232576
0.0026498
0.00297163
0.0032867
0.00359029
0.00387761
0.0041439
0.00438459
0.00459538
0.00477238
0.00491221
0.00501216
0.0050702
0.00508509
0.00505646
0.00498476
0.00487131
0.00471824
0.00452842
0.00430537
0.00405317
0.00377631
0.00347958
0.0031679
0.00284623
0.00251943
0.00219202
0.00186823
0.00155344
0.00125248
0.000948543
0.000625133
0.00260239
0.00201985
0.00156113
0.00118775
0.000853449
0.000556536
0.000295859
6.72241e-05
-0.000133358
-0.000309362
-0.000463922
-0.000599815
-0.000719424
-0.000824731
-0.000917315
-0.000998361
-0.00106866
-0.00112864
-0.00117835
-0.00121754
-0.00124568
-0.00126195
-0.00126536
-0.00125472
-0.00122876
-0.0011861
-0.00112539
-0.00104529
-0.000944593
-0.000822233
-0.000677373
-0.000509456
-0.000318258
-0.000103941
0.000132901
0.000391206
0.000669412
0.000965437
0.00127668
0.00160002
0.00193186
0.00226813
0.00260438
0.00293584
0.0032575
0.00356422
0.00385089
0.00411246
0.00434418
0.00454165
0.00470101
0.00481902
0.00489316
0.00492176
0.004904
0.00484
0.00473078
0.00457825
0.00438516
0.00415499
0.00389185
0.00360034
0.00328545
0.00295236
0.00260635
0.00225262
0.00189608
0.00154136
0.00119444
0.000860765
0.000521334
0.000157716
0.00258391
0.00196369
0.0014766
0.00108143
0.00072859
0.000415941
0.000141951
-9.81483e-05
-0.000308884
-0.0004942
-0.000657641
-0.000802334
-0.000930952
-0.00104571
-0.00114836
-0.00124023
-0.00132216
-0.00139463
-0.00145769
-0.00151104
-0.00155406
-0.00158583
-0.00160522
-0.00161088
-0.00160134
-0.00157503
-0.00153035
-0.00146573
-0.00137971
-0.00127096
-0.00113838
-0.000981158
-0.000798811
-0.000591266
-0.000358896
-0.000102574
0.000176299
0.000475761
0.000793283
0.00112577
0.00146956
0.00182052
0.002174
0.00252501
0.00286823
0.00319816
0.00350923
0.00379594
0.00405298
0.00427541
0.00445876
0.00459921
0.00469369
0.00473996
0.00473673
0.00468367
0.00458146
0.00443175
0.00423712
0.00400098
0.00372748
0.00342137
0.00308786
0.00273244
0.00236077
0.0019785
0.00159099
0.00120337
0.000822325
0.000453991
7.71414e-05
-0.000328634
0.002505
0.00184896
0.00133486
0.000918897
0.000548243
0.000220344
-6.67215e-05
-0.000318284
-0.000539394
-0.000734447
-0.000907382
-0.00106166
-0.00120022
-0.00132549
-0.0014394
-0.00154335
-0.00163829
-0.00172468
-0.00180256
-0.00187158
-0.00193102
-0.00197985
-0.00201677
-0.00204026
-0.00204865
-0.00204015
-0.00201291
-0.00196511
-0.001895
-0.00180098
-0.00168166
-0.00153595
-0.00136308
-0.00116272
-0.000934979
-0.000680519
-0.000400549
-9.68805e-05
0.000228054
0.0005712
0.000928889
0.00129687
0.00167036
0.00204411
0.00241248
0.00276958
0.00310936
0.00342578
0.00371296
0.00396529
0.00417765
0.00434555
0.00446523
0.00453383
0.00454947
0.00451131
0.00441959
0.00427563
0.0040818
0.00384143
0.00355869
0.00323849
0.00288628
0.00250792
0.00210952
0.00169725
0.00127701
0.000854517
0.000437261
3.21568e-05
-0.000384319
-0.000834637
0.002361
0.0016711
0.00113145
0.000695753
0.000308098
-3.4492e-05
-0.000334329
-0.000597293
-0.000828943
-0.00103411
-0.00121712
-0.00138174
-0.00153117
-0.00166803
-0.0017944
-0.00191176
-0.00202112
-0.00212294
-0.00221722
-0.00230355
-0.00238109
-0.0024487
-0.0025049
-0.00254798
-0.00257606
-0.0025871
-0.00257899
-0.00254965
-0.00249702
-0.00241921
-0.00231451
-0.0021815
-0.00201913
-0.00182674
-0.00160418
-0.00135184
-0.0010707
-0.000762397
-0.000429217
-7.41463e-05
0.000299154
0.000686362
0.00108254
0.0014822
0.00187938
0.00226776
0.0026408
0.00299186
0.00331438
0.00360207
0.00384905
0.00405003
0.00420049
0.00429682
0.00433645
0.00431791
0.00424092
0.0041064
0.00391644
0.00367422
0.00338394
0.00305065
0.00268009
0.00227853
0.00185259
0.00140902
0.000954366
0.000495007
3.93499e-05
-0.000404818
-0.000863435
-0.00136114
0.0021475
0.00142582
0.000862161
0.000407856
4.07405e-06
-0.000352592
-0.000664846
-0.000939108
-0.00118143
-0.00139707
-0.00159071
-0.00176643
-0.00192766
-0.0020772
-0.00221726
-0.00234941
-0.00247467
-0.00259352
-0.00270589
-0.0028113
-0.0029088
-0.00299708
-0.00307451
-0.00313918
-0.00318895
-0.00322155
-0.0032346
-0.00322569
-0.00319248
-0.00313273
-0.00304439
-0.00292571
-0.00277527
-0.00259209
-0.00237569
-0.00212615
-0.00184418
-0.00153119
-0.0011893
-0.000821358
-0.000430995
-2.25712e-05
0.000398846
0.000827537
0.00125721
0.00168112
0.00209217
0.0024831
0.00284662
0.00317564
0.00346343
0.00370382
0.00389138
0.00402165
0.00409122
0.00409788
0.00404072
0.00392016
0.00373791
0.00349696
0.0032015
0.0028567
0.00246862
0.00204398
0.00158995
0.00111397
0.000623296
0.000125067
-0.00037129
-0.000857013
-0.00136061
-0.00190903
0.00186035
0.00110909
0.000523046
5.13248e-05
-0.000367659
-0.000737744
-0.00106203
-0.00134745
-0.00160056
-0.00182702
-0.00203185
-0.00221942
-0.00239339
-0.00255674
-0.00271177
-0.00286013
-0.00300287
-0.00314042
-0.0032727
-0.0033991
-0.00351856
-0.00362961
-0.00373044
-0.00381891
-0.00389267
-0.00394915
-0.00398569
-0.00399956
-0.00398808
-0.00394865
-0.00387886
-0.00377656
-0.00363997
-0.00346771
-0.00325892
-0.00301334
-0.00273136
-0.00241409
-0.00206342
-0.00168206
-0.00127351
-0.000842158
-0.000393157
6.75646e-05
0.000533394
0.000997136
0.00145114
0.00188746
0.00229803
0.00267487
0.00301029
0.00329712
0.00352892
0.00370019
0.00380657
0.00384496
0.00381368
0.0037125
0.00354269
0.00330696
0.00300942
0.00265535
0.00225113
0.00180395
0.00132163
0.000812327
0.000284127
-0.000254987
-0.000794453
-0.00132443
-0.00187617
-0.00247913
0.00149569
0.000717158
0.000110442
-0.000377446
-0.00081066
-0.00119347
-0.00152937
-0.00182581
-0.00208981
-0.00232742
-0.002544
-0.0027442
-0.00293188
-0.00311018
-0.00328151
-0.00344758
-0.00360943
-0.00376749
-0.00392158
-0.00407102
-0.00421461
-0.00435072
-0.00447734
-0.0045921
-0.0046924
-0.00477539
-0.00483809
-0.00487745
-0.00489041
-0.004874
-0.00482539
-0.00474203
-0.00462169
-0.00446257
-0.00426338
-0.00402346
-0.0037428
-0.00342217
-0.00306318
-0.00266828
-0.00224085
-0.0017852
-0.00130655
-0.000811
-0.000305459
0.000202435
0.000704455
0.00119194
0.00165597
0.0020876
0.00247809
0.00281914
0.00310313
0.0033234
0.00347444
0.00355211
0.00355378
0.00347846
0.00332681
0.00310118
0.0028055
0.00244516
0.00202681
0.00155816
0.0010477
0.000504431
-6.26788e-05
-0.000644688
-0.00122977
-0.00180689
-0.00241029
-0.00307208
0.00104996
0.00024659
-0.000379004
-0.000881755
-0.00132819
-0.001723
-0.00207009
-0.00237739
-0.00265237
-0.00290148
-0.00313039
-0.003344
-0.00354639
-0.00374083
-0.00392984
-0.00411515
-0.00429784
-0.00447827
-0.00465623
-0.0048309
-0.00500095
-0.00516459
-0.00531959
-0.00546337
-0.00559304
-0.00570548
-0.00579738
-0.00586531
-0.00590585
-0.00591559
-0.00589128
-0.0058299
-0.00572875
-0.00558555
-0.00539853
-0.00516653
-0.00488912
-0.00456664
-0.00420032
-0.00379232
-0.0033458
-0.00286494
-0.00235495
-0.00182205
-0.00127344
-0.000717154
-0.000162015
0.000382571
0.000906794
0.00140066
0.00185427
0.00225803
0.00260303
0.00288125
0.00308585
0.00321146
0.00325431
0.00321245
0.0030858
0.00287619
0.0025873
0.00222452
0.00179479
0.00130632
0.00076835
0.00019076
-0.000416473
-0.00104335
-0.00167665
-0.00230401
-0.00296288
-0.0036883
0.000519936
-0.000305715
-0.000948314
-0.00146457
-0.00192318
-0.00232926
-0.00268708
-0.00300508
-0.00329115
-0.0035521
-0.00379392
-0.00402175
-0.00423986
-0.00445167
-0.00465976
-0.00486593
-0.00507123
-0.00527601
-0.00547997
-0.00568218
-0.00588118
-0.00607499
-0.00626118
-0.00643694
-0.00659911
-0.00674424
-0.00686869
-0.00696867
-0.00704032
-0.0070798
-0.0070834
-0.00704758
-0.00696913
-0.00684521
-0.00667351
-0.00645236
-0.00618076
-0.00585857
-0.00548656
-0.00506652
-0.00460128
-0.00409482
-0.00355228
-0.00297993
-0.00238518
-0.00177645
-0.00116315
-0.000555431
3.59508e-05
0.000599889
0.00112519
0.0016009
0.00201658
0.00236269
0.00263086
0.00281424
0.00290773
0.0029082
0.00281462
0.00262813
0.00235203
0.00199164
0.00155411
0.00104819
0.00048386
-0.000128012
-0.000776358
-0.00145
-0.00213416
-0.00281502
-0.00353354
-0.00432788
-9.7236e-05
-0.000942491
-0.00160015
-0.00212852
-0.00259823
-0.0030148
-0.00338291
-0.00371144
-0.00400869
-0.00428184
-0.00453715
-0.00478002
-0.00501488
-0.00524529
-0.00547392
-0.00570259
-0.00593235
-0.00616351
-0.0063957
-0.00662787
-0.00685843
-0.00708522
-0.00730561
-0.00751653
-0.00771455
-0.00789591
-0.00805661
-0.00819246
-0.00829917
-0.00837245
-0.00840804
-0.00840189
-0.0083502
-0.00824954
-0.00809699
-0.00789024
-0.00762772
-0.00730867
-0.00693333
-0.00650299
-0.00602009
-0.00548831
-0.00491259
-0.00429918
-0.00365564
-0.00299075
-0.00231441
-0.00163756
-0.000971926
-0.000329783
0.000276304
0.00083383
0.00133071
0.00175564
0.00209852
0.00235077
0.00250568
0.00255869
0.0025076
0.00235266
0.00209659
0.00174453
0.00130378
0.000783573
0.000194685
-0.000450969
-0.00114113
-0.0018633
-0.002601
-0.00333878
-0.00412141
-0.00499044
-0.000804002
-0.00166608
-0.00233679
-0.00287583
-0.00335553
-0.00378183
-0.00415975
-0.00449864
-0.00480717
-0.00509286
-0.00536226
-0.00562097
-0.00587363
-0.00612389
-0.00637451
-0.00662734
-0.00688344
-0.00714307
-0.00740577
-0.00767042
-0.00793526
-0.00819797
-0.00845571
-0.00870517
-0.00894264
-0.00916402
-0.00936496
-0.00954085
-0.00968697
-0.00979851
-0.00987067
-0.00989882
-0.00987853
-0.00980572
-0.00967679
-0.00948873
-0.00923926
-0.00892696
-0.00855142
-0.00811332
-0.00761459
-0.00705848
-0.00644966
-0.00579425
-0.00509985
-0.00437549
-0.00363159
-0.00287979
-0.00213281
-0.00140414
-0.000707816
-5.80057e-05
0.000531365
0.00104705
0.00147691
0.00181039
0.00203889
0.00215613
0.00215844
0.00204492
0.00181753
0.00148101
0.00104273
0.000512351
-9.85322e-05
-0.000776904
-0.0015092
-0.00228149
-0.00307538
-0.00387363
-0.00472512
-0.00567509
-0.00160238
-0.00247842
-0.0031601
-0.00370834
-0.00419691
-0.00463214
-0.0050194
-0.00536845
-0.00568835
-0.00598691
-0.00627097
-0.00654633
-0.0068178
-0.00708915
-0.0073632
-0.00764186
-0.00792617
-0.00821636
-0.00851191
-0.00881159
-0.00911351
-0.00941517
-0.00971355
-0.0100051
-0.0102858
-0.0105512
-0.0107966
-0.0110171
-0.0112073
-0.0113619
-0.0114757
-0.0115433
-0.0115596
-0.0115198
-0.0114196
-0.0112552
-0.0110236
-0.0107224
-0.0103506
-0.00990816
-0.00939628
-0.00881771
-0.0081767
-0.00747911
-0.00673247
-0.00594599
-0.00513048
-0.00429826
-0.003463
-0.00263947
-0.00184321
-0.00109019
-0.00039634
0.000222914
0.000753169
0.00118156
0.00149727
0.00169197
0.00176018
0.00169954
0.00151099
0.00119866
0.000769828
0.000234504
-0.000394918
-0.00110426
-0.00187855
-0.00270227
-0.00355493
-0.00441727
-0.00534266
-0.00638028
-0.00249392
-0.00338097
-0.00407151
-0.00462746
-0.00512376
-0.0055671
-0.00596321
-0.00632222
-0.00665354
-0.00696528
-0.00726453
-0.00755731
-0.00784856
-0.00814219
-0.00844109
-0.0087472
-0.00906157
-0.00938441
-0.00971513
-0.0100524
-0.0103942
-0.0107379
-0.0110803
-0.0114175
-0.0117453
-0.012059
-0.0123534
-0.0126231
-0.0128624
-0.0130654
-0.0132262
-0.0133388
-0.0133975
-0.0133965
-0.0133308
-0.0131958
-0.0129874
-0.0127027
-0.0123394
-0.0118969
-0.0113754
-0.0107772
-0.0101058
-0.00936681
-0.00856744
-0.00771694
-0.00682645
-0.00590887
-0.00497879
-0.00405221
-0.00314627
-0.00227881
-0.00146794
-0.000731476
-8.63746e-05
0.000451884
0.000869892
0.00115688
0.00130518
0.00131063
0.00117276
0.000894881
0.000483918
-4.98635e-05
-0.000693317
-0.00143107
-0.00224663
-0.00312276
-0.00403661
-0.00496671
-0.00597126
-0.00710369
-0.00347968
-0.00437475
-0.00507202
-0.00563416
-0.00613703
-0.00658766
-0.00699209
-0.00736083
-0.00770359
-0.00802878
-0.0083437
-0.00865459
-0.00896653
-0.00928355
-0.00960862
-0.00994374
-0.0102899
-0.0106474
-0.0110156
-0.011393
-0.0117775
-0.0121663
-0.012556
-0.0129426
-0.0133215
-0.0136877
-0.0140357
-0.0143596
-0.0146533
-0.0149102
-0.0151238
-0.0152874
-0.0153945
-0.0154387
-0.0154139
-0.0153146
-0.0151358
-0.0148734
-0.0145244
-0.0140869
-0.0135606
-0.0129465
-0.0122477
-0.011469
-0.0106174
-0.00970196
-0.00873398
-0.00772685
-0.00669598
-0.00565857
-0.00463336
-0.00364014
-0.00269933
-0.00183136
-0.00105601
-0.000391728
0.000145106
0.000540851
0.00078522
0.000871782
0.000798297
0.000566861
0.000183829
-0.000340477
-0.000992239
-0.00175487
-0.00261028
-0.00353933
-0.00451658
-0.0055181
-0.00660728
-0.00784211
-0.00456021
-0.0054603
-0.00616214
-0.00672895
-0.00723724
-0.0076943
-0.00810652
-0.00848471
-0.00883888
-0.00917769
-0.00950868
-0.00983827
-0.0101717
-0.0105131
-0.0108656
-0.0112311
-0.0116108
-0.0120048
-0.0124125
-0.0128324
-0.0132623
-0.0136992
-0.0141396
-0.0145792
-0.0150133
-0.0154364
-0.0158426
-0.0162258
-0.0165791
-0.0168956
-0.017168
-0.017389
-0.0175511
-0.0176472
-0.0176702
-0.0176136
-0.0174712
-0.017238
-0.0169098
-0.0164837
-0.015958
-0.015333
-0.0146107
-0.0137953
-0.0128931
-0.0119129
-0.010866
-0.00976614
-0.00862934
-0.00747397
-0.00632031
-0.00519016
-0.00410636
-0.00309214
-0.00217038
-0.00136283
-0.000689262
-0.000166669
0.000191539
0.000376167
0.000382721
0.000211665
-0.000131567
-0.000636838
-0.00128979
-0.00207264
-0.00296563
-0.00394753
-0.00499008
-0.00606659
-0.00724604
-0.00859127
-0.00573554
-0.00663764
-0.00734192
-0.00791191
-0.00842443
-0.00888707
-0.0093065
-0.0096938
-0.0100593
-0.0104118
-0.0107591
-0.0111079
-0.0114634
-0.0118301
-0.0122109
-0.0126081
-0.0130227
-0.013455
-0.0139042
-0.0143688
-0.0148466
-0.0153345
-0.0158288
-0.0163249
-0.0168179
-0.0173022
-0.0177714
-0.0182188
-0.0186372
-0.0190191
-0.0193565
-0.0196414
-0.0198655
-0.0200206
-0.0200987
-0.0200922
-0.0199939
-0.0197974
-0.0194974
-0.0190896
-0.0185712
-0.0179412
-0.0172007
-0.0163527
-0.0154029
-0.0143595
-0.0132335
-0.0120388
-0.010792
-0.00951243
-0.00822186
-0.00694408
-0.00570439
-0.00452898
-0.00344409
-0.00247512
-0.00164568
-0.000976607
-0.000484987
-0.000183362
-7.90438e-05
-0.000173712
-0.000463291
-0.000938148
-0.00158358
-0.00238068
-0.00330796
-0.00434196
-0.0054513
-0.00660621
-0.00788168
-0.00934567
-0.00700515
-0.00790633
-0.00861096
-0.00918262
-0.00969822
-0.0101656
-0.0105916
-0.0109876
-0.0113641
-0.0117303
-0.0120941
-0.0124623
-0.0128404
-0.0132328
-0.0136429
-0.0140727
-0.0145235
-0.0149954
-0.0154878
-0.0159992
-0.0165272
-0.0170686
-0.0176196
-0.0181756
-0.0187313
-0.0192808
-0.0198174
-0.0203341
-0.020823
-0.0212761
-0.0216848
-0.0220402
-0.0223332
-0.0225546
-0.0226956
-0.0227471
-0.0227009
-0.0225493
-0.0222855
-0.0219039
-0.0214004
-0.0207725
-0.0200201
-0.019145
-0.0181518
-0.0170481
-0.0158443
-0.0145541
-0.0131946
-0.0117859
-0.010351
-0.00891563
-0.00750764
-0.00615624
-0.00489126
-0.00374208
-0.00273659
-0.00189997
-0.00125364
-0.000814101
-0.000592153
-0.000592232
-0.000812152
-0.00124321
-0.00187063
-0.00267452
-0.00363162
-0.00471611
-0.00589319
-0.00712968
-0.00850697
-0.0100984
-0.00836799
-0.0092654
-0.00996836
-0.0105403
-0.0110578
-0.0115289
-0.0119608
-0.012365
-0.0127523
-0.0131319
-0.0135121
-0.0138997
-0.0143005
-0.0147191
-0.0151588
-0.015622
-0.0161097
-0.0166224
-0.0171594
-0.0177191
-0.0182992
-0.0188965
-0.0195069
-0.0201257
-0.0207475
-0.0213661
-0.0219744
-0.022565
-0.0231296
-0.0236595
-0.0241456
-0.024578
-0.024947
-0.0252423
-0.0254538
-0.0255716
-0.0255859
-0.0254877
-0.0252688
-0.0249222
-0.024442
-0.0238244
-0.0230676
-0.0221721
-0.0211413
-0.0199816
-0.0187028
-0.0173182
-0.0158449
-0.0143034
-0.0127181
-0.0111164
-0.0095285
-0.00798684
-0.00652492
-0.00517642
-0.0039739
-0.00294749
-0.00212353
-0.00152325
-0.00116165
-0.00104665
-0.00117861
-0.00155029
-0.00214723
-0.00294873
-0.00392982
-0.0050622
-0.00630729
-0.00762821
-0.00911312
-0.0108411
-0.00982247
-0.0107134
-0.0114128
-0.0119836
-0.0125019
-0.0129759
-0.0134129
-0.0138247
-0.0142221
-0.0146148
-0.015011
-0.0154178
-0.0158412
-0.0162859
-0.0167554
-0.017252
-0.0177773
-0.0183314
-0.0189138
-0.0195231
-0.0201568
-0.0208117
-0.0214837
-0.022168
-0.0228588
-0.0235498
-0.0242337
-0.0249026
-0.0255478
-0.0261599
-0.0267292
-0.0272451
-0.0276969
-0.0280734
-0.0283634
-0.0285556
-0.0286391
-0.0286033
-0.0284385
-0.028136
-0.0276883
-0.02709
-0.0263373
-0.0254294
-0.0243681
-0.0231584
-0.0218091
-0.0203329
-0.0187463
-0.0170704
-0.0153302
-0.0135548
-0.0117768
-0.0100315
-0.00835629
-0.00678943
-0.00536851
-0.00412915
-0.00310327
-0.0023176
-0.0017922
-0.00153931
-0.00156261
-0.00185698
-0.00240879
-0.00319682
-0.00419451
-0.00537096
-0.00668357
-0.00809129
-0.00968951
-0.0115632
-0.0113665
-0.0122485
-0.0129426
-0.0135109
-0.0140289
-0.0145048
-0.0149462
-0.0153647
-0.0157716
-0.0161766
-0.0165881
-0.0170136
-0.017459
-0.0179293
-0.0184282
-0.0189582
-0.0195208
-0.0201165
-0.0207448
-0.0214042
-0.0220925
-0.0228063
-0.0235415
-0.0242933
-0.0250557
-0.0258221
-0.0265849
-0.027336
-0.0280661
-0.0287653
-0.0294233
-0.0300287
-0.0305699
-0.0310347
-0.0314108
-0.0316856
-0.0318469
-0.0318825
-0.0317812
-0.0315324
-0.0311271
-0.0305576
-0.0298188
-0.0289076
-0.0278241
-0.0265719
-0.0251584
-0.0235949
-0.0218977
-0.0200875
-0.0181901
-0.0162356
-0.0142587
-0.0122978
-0.010394
-0.0085903
-0.00692962
-0.00545357
-0.0042004
-0.00320312
-0.00248777
-0.00207185
-0.00196331
-0.00215995
-0.0026496
-0.003411
-0.00441612
-0.00563147
-0.00701012
-0.00850647
-0.0102235
-0.0122524
-0.0129975
-0.0138684
-0.0145555
-0.0151202
-0.0156369
-0.0161137
-0.0165584
-0.0169828
-0.0173982
-0.0178145
-0.0182403
-0.0186833
-0.0191498
-0.0196447
-0.020172
-0.0207346
-0.0213339
-0.0219707
-0.0226446
-0.0233543
-0.0240974
-0.0248708