/*--------------------------------*- C++ -*----------------------------------*\
  =========                 |
  \\      /  F ield         | OpenFOAM: The Open Source CFD Toolbox
   \\    /   O peration     | Website:  https://openfoam.org
    \\  /    A nd           | Version:  dev
     \\/     M anipulation  |
\*---------------------------------------------------------------------------*/
FoamFile
{
    format      ascii;
    class       surfaceScalarField;
    location    "22.05";
    object      phi;
}
// * * * * * * * * * * * * * * * * * * * * * * * * * * * * * * * * * * * * * //

dimensions      [0 3 -1 0 0 0 0];

internalField   nonuniform List<scalar> 
10224
(
3.37361e-08
-3.48911e-08
8.77559e-08
-5.40155e-08
1.24258e-07
-3.65025e-08
1.25175e-07
-9.18389e-10
8.3529e-08
4.16454e-08
-1.94836e-09
8.54776e-08
-1.29433e-07
1.27485e-07
-2.9562e-07
1.66187e-07
-4.96449e-07
2.00828e-07
-7.27621e-07
2.31172e-07
-9.84871e-07
2.57249e-07
-1.26411e-06
2.79237e-07
-1.5615e-06
2.97389e-07
-1.87349e-06
3.11988e-07
-2.19681e-06
3.23318e-07
-2.52845e-06
3.31647e-07
-2.86566e-06
3.3721e-07
-3.20587e-06
3.40209e-07
-3.54668e-06
3.40803e-07
-3.88579e-06
3.39117e-07
-4.22103e-06
3.35234e-07
-4.55024e-06
3.29208e-07
-4.8713e-06
3.21064e-07
-5.18211e-06
3.10805e-07
-5.48052e-06
2.98418e-07
-5.76441e-06
2.83883e-07
-6.03159e-06
2.67177e-07
-6.27987e-06
2.48285e-07
-6.50707e-06
2.27202e-07
-6.71101e-06
2.03941e-07
-6.88955e-06
1.78541e-07
-7.04062e-06
1.51069e-07
-7.16225e-06
1.21627e-07
-7.25261e-06
9.03558e-08
-7.31004e-06
5.7434e-08
-7.33312e-06
2.30843e-08
-7.3207e-06
-1.24279e-08
-7.2719e-06
-4.87945e-08
-7.18624e-06
-8.56665e-08
-7.06358e-06
-1.22657e-07
-6.90423e-06
-1.59346e-07
-6.70895e-06
-1.95284e-07
-6.47895e-06
-2.30003e-07
-6.21593e-06
-2.63019e-07
-5.92208e-06
-2.93845e-07
-5.60008e-06
-3.22e-07
-5.25306e-06
-3.47018e-07
-4.8846e-06
-3.68461e-07
-4.49868e-06
-3.85927e-07
-4.09961e-06
-3.99062e-07
-3.69204e-06
-4.07571e-07
-3.28082e-06
-4.11225e-07
-2.87095e-06
-4.09867e-07
-2.46753e-06
-4.03422e-07
-2.07563e-06
-3.91899e-07
-1.70023e-06
-3.75395e-07
-1.34614e-06
-3.54093e-07
-1.01787e-06
-3.28268e-07
-7.19592e-07
-2.98281e-07
-4.55012e-07
-2.6458e-07
-2.27309e-07
-2.27703e-07
-3.9028e-08
-1.88281e-07
1.08023e-07
-1.47052e-07
2.12907e-07
-1.04884e-07
2.75736e-07
-6.28281e-08
2.97937e-07
-2.22011e-08
2.82683e-07
1.5253e-08
2.35563e-07
4.71182e-08
1.65629e-07
6.99332e-08
8.71636e-08
7.84703e-08
2.25307e-08
6.46443e-08
2.25382e-08
5.38325e-08
-8.87192e-08
1.12252e-07
-1.12437e-07
1.1797e-07
-4.22236e-08
3.86209e-08
7.84299e-08
-1.42183e-07
2.2245e-07
-4.29755e-07
3.7305e-07
-8.22324e-07
5.20054e-07
-1.31375e-06
6.5761e-07
-1.89546e-06
7.82546e-07
-2.55767e-06
8.93377e-07
-3.29009e-06
9.89672e-07
-4.08249e-06
1.07164e-06
-4.92495e-06
1.13985e-06
-5.80804e-06
1.19508e-06
-6.72288e-06
1.23815e-06
-7.66114e-06
1.26991e-06
-8.61502e-06
1.29109e-06
-9.57719e-06
1.30238e-06
-1.05407e-05
1.30431e-06
-1.14989e-05
1.29731e-06
-1.24453e-05
1.28169e-06
-1.33738e-05
1.25767e-06
-1.42781e-05
1.22536e-06
-1.51521e-05
1.18481e-06
-1.59897e-05
1.13602e-06
-1.67848e-05
1.07897e-06
-1.75312e-05
1.01362e-06
-1.82229e-05
9.39984e-07
-1.88538e-05
8.581e-07
-1.9418e-05
7.68084e-07
-1.99096e-05
6.70139e-07
-2.03231e-05
5.64576e-07
-2.06533e-05
4.51827e-07
-2.08954e-05
3.3246e-07
-2.10451e-05
2.07189e-07
-2.10989e-05
7.68768e-08
-2.10539e-05
-5.74621e-08
-2.0908e-05
-1.94664e-07
-2.06603e-05
-3.33424e-07
-2.03106e-05
-4.72304e-07
-1.98602e-05
-6.09755e-07
-1.93114e-05
-7.44132e-07
-1.86677e-05
-8.73721e-07
-1.79339e-05
-9.96768e-07
-1.71162e-05
-1.11151e-06
-1.6222e-05
-1.21621e-06
-1.52599e-05
-1.30919e-06
-1.42394e-05
-1.38889e-06
-1.31715e-05
-1.45386e-06
-1.20677e-05
-1.50285e-06
-1.09405e-05
-1.53481e-06
-9.80276e-06
-1.54893e-06
-8.66796e-06
-1.54466e-06
-7.54963e-06
-1.52176e-06
-6.46125e-06
-1.48028e-06
-5.41604e-06
-1.4206e-06
-4.42671e-06
-1.34342e-06
-3.5052e-06
-1.24978e-06
-2.66244e-06
-1.14104e-06
-1.90811e-06
-1.0189e-06
-1.25041e-06
-8.85411e-07
-6.95711e-07
-7.42977e-07
-2.48336e-07
-5.94429e-07
8.98717e-08
-4.43093e-07
3.19982e-07
-2.92939e-07
4.4659e-07
-1.48807e-07
4.78673e-07
-1.68285e-08
4.30696e-07
9.50964e-08
3.2408e-07
1.76544e-07
1.88811e-07
2.13723e-07
6.43182e-08
1.8911e-07
8.68644e-08
3.72785e-08
-1.25998e-07
4.31637e-08
-1.18326e-07
-4.34915e-08
4.44301e-08
-2.58932e-07
2.93871e-07
-6.22752e-07
5.86271e-07
-1.14205e-06
8.92352e-07
-1.8151e-06
1.1931e-06
-2.63423e-06
1.47674e-06
-3.58809e-06
1.7364e-06
-4.66316e-06
1.96845e-06
-5.84488e-06
2.17139e-06
-7.11837e-06
2.34513e-06
-8.46894e-06
2.49041e-06
-9.88234e-06
2.60848e-06
-1.1345e-05
2.70079e-06
-1.28439e-05
2.76883e-06
-1.43669e-05
2.81405e-06
-1.59022e-05
2.8377e-06
-1.74387e-05
2.84085e-06
-1.89658e-05
2.82438e-06
-2.0473e-05
2.78892e-06
-2.19503e-05
2.73492e-06
-2.33876e-05
2.66267e-06
-2.47751e-05
2.5723e-06
-2.6103e-05
2.4639e-06
-2.73615e-05
2.33748e-06
-2.85409e-05
2.19306e-06
-2.96317e-05
2.03075e-06
-3.06243e-05
1.85072e-06
-3.15095e-05
1.65331e-06
-3.22784e-05
1.43905e-06
-3.29225e-05
1.20869e-06
-3.3434e-05
9.63237e-07
-3.38055e-05
7.03971e-07
-3.40308e-05
4.32478e-07
-3.41045e-05
1.50649e-07
-3.40227e-05
-1.39313e-07
-3.37824e-05
-4.34905e-07
-3.33825e-05
-7.33335e-07
-3.28233e-05
-1.03155e-06
-3.21068e-05
-1.32627e-06
-3.12369e-05
-1.61403e-06
-3.02194e-05
-1.89123e-06
-2.90619e-05
-2.1542e-06
-2.77742e-05
-2.39925e-06
-2.63676e-05
-2.62277e-06
-2.48555e-05
-2.82129e-06
-2.32529e-05
-2.99153e-06
-2.15762e-05
-3.13053e-06
-1.98434e-05
-3.23568e-06
-1.80734e-05
-3.30483e-06
-1.6286e-05
-3.33631e-06
-1.45016e-05
-3.32901e-06
-1.27409e-05
-3.28246e-06
-1.10244e-05
-3.19679e-06
-9.3722e-06
-3.07283e-06
-7.80353e-06
-2.9121e-06
-6.33651e-06
-2.7168e-06
-4.98768e-06
-2.48988e-06
-3.77162e-06
-2.23497e-06
-2.70056e-06
-1.95646e-06
-1.78398e-06
-1.65956e-06
-1.02812e-06
-1.3503e-06
-4.35428e-07
-1.03578e-06
-4.02193e-09
-7.24346e-07
2.7316e-07
-4.25991e-07
4.09176e-07
-1.52845e-07
4.24244e-07
8.00324e-08
3.46971e-07
2.5383e-07
2.15522e-07
3.4518e-07
7.85653e-08
3.26054e-07
1.65432e-07
1.86166e-09
-1.27861e-07
-7.90385e-08
-3.74266e-08
-2.97716e-07
2.63108e-07
-6.87862e-07
6.84016e-07
-1.26777e-06
1.16618e-06
-2.0437e-06
1.66828e-06
-3.01286e-06
2.16226e-06
-4.166e-06
2.62988e-06
-5.48952e-06
3.05992e-06
-6.9671e-06
3.44603e-06
-8.58091e-06
3.78521e-06
-1.03125e-05
4.07671e-06
-1.21434e-05
4.32127e-06
-1.40553e-05
4.52045e-06
-1.60308e-05
4.6763e-06
-1.8053e-05
4.791e-06
-2.01056e-05
4.86669e-06
-2.21733e-05
4.90532e-06
-2.4241e-05
4.90855e-06
-2.62943e-05
4.87774e-06
-2.83193e-05
4.81395e-06
-3.03023e-05
4.71792e-06
-3.22298e-05
4.59017e-06
-3.40885e-05
4.431e-06
-3.58653e-05
4.24061e-06
-3.75469e-05
4.01914e-06
-3.91206e-05
3.76675e-06
-4.05736e-05
3.48371e-06
-4.18933e-05
3.17048e-06
-4.30678e-05
2.82775e-06
-4.40853e-05
2.45655e-06
-4.49348e-05
2.05826e-06
-4.56063e-05
1.63471e-06
-4.60905e-05
1.18818e-06
-4.63795e-05
7.21436e-07
-4.64666e-05
2.37758e-07
-4.63468e-05
-2.59075e-07
-4.60169e-05
-7.64793e-07
-4.54756e-05
-1.27466e-06
-4.47236e-05
-1.78352e-06
-4.3764e-05
-2.28586e-06
-4.26022e-05
-2.77587e-06
-4.12459e-05
-3.24752e-06
-3.97054e-05
-3.69471e-06
-3.79933e-05
-4.11129e-06
-3.61249e-05
-4.49127e-06
-3.41173e-05
-4.82887e-06
-3.19901e-05
-5.1187e-06
-2.97648e-05
-5.35583e-06
-2.74645e-05
-5.53597e-06
-2.51138e-05
-5.65556e-06
-2.27382e-05
-5.71186e-06
-2.03642e-05
-5.70307e-06
-1.80182e-05
-5.6284e-06
-1.57269e-05
-5.48813e-06
-1.3516e-05
-5.28369e-06
-1.14105e-05
-5.01763e-06
-9.43359e-06
-4.69372e-06
-7.60656e-06
-4.31691e-06
-5.94815e-06
-3.89337e-06
-4.47406e-06
-3.43056e-06
-3.19639e-06
-2.93723e-06
-2.1231e-06
-2.42359e-06
-1.2574e-06
-1.90148e-06
-5.97052e-07
-1.3847e-06
-1.33626e-07
-8.89418e-07
1.48352e-07
-4.34829e-07
2.72323e-07
-4.39446e-08
2.70724e-07
2.55431e-07
1.8602e-07
4.29894e-07
7.21246e-08
4.39945e-07
2.37556e-07
-4.2069e-08
-8.57931e-08
-2.30017e-07
1.50522e-07
-6.06406e-07
6.39498e-07
-1.19779e-06
1.2754e-06
-2.0179e-06
1.98628e-06
-3.06988e-06
2.72027e-06
-4.34856e-06
3.44094e-06
-5.84251e-06
4.12383e-06
-7.53587e-06
4.75328e-06
-9.40984e-06
5.32e-06
-1.14439e-05
5.81926e-06
-1.36166e-05
6.24944e-06
-1.59064e-05
6.61104e-06
-1.82918e-05
6.90588e-06
-2.0752e-05
7.13648e-06
-2.32667e-05
7.30568e-06
-2.58163e-05
7.41631e-06
-2.8382e-05
7.47099e-06
-3.09455e-05
7.47201e-06
-3.3489e-05
7.42128e-06
-3.59953e-05
7.32027e-06
-3.84475e-05
7.17009e-06
-4.08289e-05
6.97153e-06
-4.3123e-05
6.72513e-06
-4.53136e-05
6.43126e-06
-4.73847e-05
6.09025e-06
-4.93205e-05
5.70249e-06
-5.11053e-05
5.26855e-06
-5.27241e-05
4.78927e-06
-5.41622e-05
4.26585e-06
-5.54056e-05
3.69998e-06
-5.64413e-05
3.09392e-06
-5.72571e-05
2.45052e-06
-5.78422e-05
1.77331e-06
-5.81874e-05
1.06655e-06
-5.82848e-05
3.35208e-07
-5.81289e-05
-4.15003e-07
-5.7716e-05
-1.17768e-06
-5.70449e-05
-1.94574e-06
-5.61169e-05
-2.71153e-06
-5.49359e-05
-3.46684e-06
-5.35087e-05
-4.2031e-06
-5.18448e-05
-4.91143e-06
-4.99567e-05
-5.5828e-06
-4.78598e-05
-6.20821e-06
-4.55722e-05
-6.77884e-06
-4.31148e-05
-7.28623e-06
-4.05111e-05
-7.72246e-06
-3.77866e-05
-8.08034e-06
-3.4969e-05
-8.35358e-06
-3.20876e-05
-8.53696e-06
-2.91729e-05
-8.62648e-06
-2.62565e-05
-8.61952e-06
-2.33699e-05
-8.51495e-06
-2.05449e-05
-8.3132e-06
-1.78122e-05
-8.01638e-06
-1.52015e-05
-7.62833e-06
-1.27406e-05
-7.1546e-06
-1.04549e-05
-6.60258e-06
-8.36686e-06
-5.98143e-06
-6.49521e-06
-5.30221e-06
-4.85455e-06
-4.57789e-06
-3.45462e-06
-3.82352e-06
-2.29963e-06
-3.05646e-06
-1.38766e-06
-2.29667e-06
-7.09855e-07
-1.56722e-06
-2.49777e-07
-8.94906e-07
1.74019e-08
-3.11126e-07
1.25701e-07
1.47126e-07
1.19232e-07
4.36365e-07
5.35715e-08
5.05605e-07
2.91126e-07
-8.94173e-08
3.62457e-09
-3.95203e-07
4.56309e-07
-9.44696e-07
1.18899e-06
-1.75445e-06
2.08516e-06
-2.83126e-06
3.06309e-06
-4.17334e-06
4.06235e-06
-5.77187e-06
5.03946e-06
-7.61244e-06
5.9644e-06
-9.67661e-06
6.81745e-06
-1.19431e-05
7.58649e-06
-1.43889e-05
8.26502e-06
-1.69899e-05
8.85049e-06
-1.9722e-05
9.34311e-06
-2.25609e-05
9.7448e-06
-2.54829e-05
1.00585e-05
-2.8465e-05
1.02877e-05
-3.14845e-05
1.04358e-05
-3.45196e-05
1.05061e-05
-3.75492e-05
1.05016e-05
-4.05525e-05
1.04246e-05
-4.35094e-05
1.02771e-05
-4.64e-05
1.00607e-05
-4.92048e-05
9.77631e-06
-5.19045e-05
9.42483e-06
-5.44801e-05
9.00689e-06
-5.6913e-05
8.52308e-06
-5.91846e-05
7.9741e-06
-6.12769e-05
7.36091e-06
-6.31725e-05
6.68486e-06
-6.48545e-05
5.94783e-06
-6.63068e-05
5.15234e-06
-6.75146e-05
4.30166e-06
-6.8464e-05
3.39993e-06
-6.91429e-05
2.45216e-06
-6.95406e-05
1.46434e-06
-6.96489e-05
4.43437e-07
-6.94612e-05
-6.02627e-07
-6.89739e-05
-1.66498e-06
-6.81858e-05
-2.73387e-06
-6.70986e-05
-3.79877e-06
-6.5717e-05
-4.84846e-06
-6.40489e-05
-5.87119e-06
-6.21054e-05
-6.85485e-06
-5.99011e-05
-7.78716e-06
-5.74534e-05
-8.65587e-06
-5.47833e-05
-9.44897e-06
-5.19145e-05
-1.0155e-05
-4.88738e-05
-1.07632e-05
-4.56905e-05
-1.12637e-05
-4.2396e-05
-1.16481e-05
-3.90237e-05
-1.19092e-05
-3.56085e-05
-1.20416e-05
-3.21862e-05
-1.20418e-05
-2.8793e-05
-1.19082e-05
-2.5465e-05
-1.16413e-05
-2.22373e-05
-1.1244e-05
-1.9144e-05
-1.07217e-05
-1.62168e-05
-1.00818e-05
-1.3485e-05
-9.3344e-06
-1.09743e-05
-8.49211e-06
-8.70654e-06
-7.56997e-06
-6.69875e-06
-6.58568e-06
-4.96263e-06
-5.55964e-06
-3.50384e-06
-4.51526e-06
-2.32134e-06
-3.47917e-06
-1.4068e-06
-2.48176e-06
-7.43919e-07
-1.55778e-06
-3.07894e-07
-7.4715e-07
-6.47881e-08
-9.59851e-08
2.91185e-08
3.42456e-07
2.8233e-08
5.06491e-07
3.19359e-07
-1.37584e-07
1.41208e-07
-5.6603e-07
8.84755e-07
-1.29677e-06
1.91973e-06
-2.33489e-06
3.12327e-06
-3.67867e-06
4.40687e-06
-5.32004e-06
5.70373e-06
-7.24542e-06
6.96483e-06
-9.43668e-06
8.15566e-06
-1.18723e-05
9.25306e-06
-1.45283e-05
1.02425e-05
-1.73791e-05
1.11159e-05
-2.03984e-05
1.18698e-05
-2.35595e-05
1.25042e-05
-2.68357e-05
1.3021e-05
-3.0201e-05
1.34238e-05
-3.36296e-05
1.37163e-05
-3.70965e-05
1.39027e-05
-4.05773e-05
1.3987e-05
-4.40482e-05
1.39725e-05
-4.7486e-05
1.38624e-05
-5.08679e-05
1.3659e-05
-5.41713e-05
1.33641e-05
-5.73743e-05
1.29793e-05
-6.04551e-05
1.25056e-05
-6.33921e-05
1.1944e-05
-6.61644e-05
1.12954e-05
-6.87512e-05
1.05608e-05
-7.11321e-05
9.74187e-06
-7.32877e-05
8.84043e-06
-7.51991e-05
7.8592e-06
-7.68484e-05
6.80169e-06
-7.82191e-05
5.67237e-06
-7.9296e-05
4.47681e-06
-8.00656e-05
3.22175e-06
-8.05164e-05
1.91512e-06
-8.06391e-05
5.66117e-07
-8.04268e-05
-8.14853e-07
-7.98756e-05
-2.21619e-06
-7.89843e-05
-3.62518e-06
-7.7755e-05
-5.02813e-06
-7.61929e-05
-6.41048e-06
-7.43071e-05
-7.75703e-06
-7.21098e-05
-9.05212e-06
-6.96171e-05
-1.02799e-05
-6.68485e-05
-1.14245e-05
-6.38271e-05
-1.24704e-05
-6.05792e-05
-1.34029e-05
-5.71343e-05
-1.4208e-05
-5.35249e-05
-1.48732e-05
-4.97857e-05
-1.53873e-05
-4.59538e-05
-1.57412e-05
-4.20676e-05
-1.59278e-05
-3.8167e-05
-1.59425e-05
-3.4292e-05
-1.57831e-05
-3.04828e-05
-1.54505e-05
-2.67786e-05
-1.49482e-05
-2.32174e-05
-1.42829e-05
-1.98346e-05
-1.34645e-05
-1.66631e-05
-1.25059e-05
-1.37321e-05
-1.14232e-05
-1.10661e-05
-1.02359e-05
-8.68506e-06
-8.96675e-06
-6.60278e-06
-7.64193e-06
-4.82683e-06
-6.29121e-06
-3.35771e-06
-4.94828e-06
-2.18835e-06
-3.65113e-06
-1.30356e-06
-2.44257e-06
-6.79634e-07
-1.37107e-06
-2.83974e-07
-4.91645e-07
-7.47656e-08
1.33246e-07
-6.46346e-10
4.32373e-07
3.18713e-07
-1.8532e-07
3.26529e-07
-7.37612e-07
1.43705e-06
-1.65287e-06
2.83499e-06
-2.9241e-06
4.3945e-06
-4.54021e-06
6.02298e-06
-6.4859e-06
7.64942e-06
-8.74196e-06
9.22088e-06
-1.12859e-05
1.06996e-05
-1.40925e-05
1.20597e-05
-1.7135e-05
1.3285e-05
-2.03852e-05
1.4366e-05
-2.38142e-05
1.52988e-05
-2.73932e-05
1.60831e-05
-3.10933e-05
1.67212e-05
-3.48863e-05
1.72167e-05
-3.87442e-05
1.75742e-05
-4.26398e-05
1.77983e-05
-4.65465e-05
1.78937e-05
-5.04382e-05
1.78642e-05
-5.42894e-05
1.77136e-05
-5.80749e-05
1.74445e-05
-6.17702e-05
1.70594e-05
-6.53509e-05
1.656e-05
-6.8793e-05
1.59477e-05
-7.20728e-05
1.52238e-05
-7.51671e-05
1.43897e-05
-7.80532e-05
1.34469e-05
-8.07087e-05
1.23974e-05
-8.31123e-05
1.1244e-05
-8.52434e-05
9.99026e-06
-8.70825e-05
8.64077e-06
-8.86115e-05
7.20137e-06
-8.98139e-05
5.67924e-06
-9.06751e-05
4.08298e-06
-9.11827e-05
2.42269e-06
-9.13266e-05
7.09975e-07
-9.10994e-05
-1.04206e-06
-9.04967e-05
-2.81885e-06
-8.95174e-05
-4.60449e-06
-8.81636e-05
-6.38188e-06
-8.64412e-05
-8.13287e-06
-8.43598e-05
-9.83852e-06
-8.19326e-05
-1.14793e-05
-7.91769e-05
-1.30356e-05
-7.61138e-05
-1.44876e-05
-7.27681e-05
-1.5816e-05
-6.91684e-05
-1.70026e-05
-6.53466e-05
-1.80299e-05
-6.13375e-05
-1.88822e-05
-5.71792e-05
-1.95456e-05
-5.29115e-05
-2.00088e-05
-4.85765e-05
-2.02628e-05
-4.42174e-05
-2.03016e-05
-3.9878e-05
-2.01226e-05
-3.5602e-05
-1.97264e-05
-3.14327e-05
-1.91175e-05
-2.74116e-05
-1.83041e-05
-2.3578e-05
-1.72981e-05
-1.99682e-05
-1.61156e-05
-1.66147e-05
-1.47767e-05
-1.35455e-05
-1.33051e-05
-1.07831e-05
-1.17292e-05
-8.34399e-06
-1.0081e-05
-6.23817e-06
-8.39703e-06
-4.46823e-06
-6.71822e-06
-3.02902e-06
-5.09034e-06
-1.90725e-06
-3.56435e-06
-1.08117e-06
-2.19715e-06
-5.20452e-07
-1.05236e-06
-1.86194e-07
-2.01012e-07
-3.11121e-08
2.77292e-07
2.87601e-07
-2.31988e-07
5.58517e-07
-9.07195e-07
2.11225e-06
-2.00701e-06
3.9348e-06
-3.51236e-06
5.89985e-06
-5.4024e-06
7.91302e-06
-7.65398e-06
9.901e-06
-1.02417e-05
1.18086e-05
-1.31381e-05
1.35959e-05
-1.6314e-05
1.52357e-05
-1.97394e-05
1.67103e-05
-2.33832e-05
1.80098e-05
-2.72143e-05
1.91299e-05
-3.12016e-05
2.00704e-05
-3.53141e-05
2.08337e-05
-3.95216e-05
2.14242e-05
-4.37942e-05
2.18468e-05
-4.81028e-05
2.21069e-05
-5.24187e-05
2.22096e-05
-5.67141e-05
2.21596e-05
-6.09612e-05
2.19608e-05
-6.51332e-05
2.16165e-05
-6.92033e-05
2.11295e-05
-7.31452e-05
2.05019e-05
-7.6933e-05
1.97355e-05
-8.05411e-05
1.88319e-05
-8.39445e-05
1.7793e-05
-8.71184e-05
1.66208e-05
-9.00389e-05
1.5318e-05
-9.2683e-05
1.38881e-05
-9.50283e-05
1.23356e-05
-9.70541e-05
1.06665e-05
-9.87408e-05
8.88806e-06
-0.000100071
7.00914e-06
-0.000101028
5.04036e-06
-0.0001016
2.99413e-06
-0.000101774
8.84625e-07
-0.000101544
-1.27217e-06
-0.000100904
-3.45856e-06
-9.98536e-05
-5.65525e-06
-9.8394e-05
-7.84151e-06
-9.65314e-05
-9.99539e-06
-9.4276e-05
-1.2094e-05
-9.16416e-05
-1.41137e-05
-8.86463e-05
-1.60308e-05
-8.53126e-05
-1.78213e-05
-8.16666e-05
-1.94621e-05
-7.77385e-05
-2.09306e-05
-7.35623e-05
-2.22061e-05
-6.91752e-05
-2.32692e-05
-6.46176e-05
-2.41033e-05
-5.99324e-05
-2.4694e-05
-5.51645e-05
-2.50306e-05
-5.03605e-05
-2.51056e-05
-4.55676e-05
-2.49155e-05
-4.08332e-05
-2.44608e-05
-3.62041e-05
-2.37466e-05
-3.17256e-05
-2.27826e-05
-2.74407e-05
-2.1583e-05
-2.33895e-05
-2.01669e-05
-1.96079e-05
-1.85582e-05
-1.61273e-05
-1.67857e-05
-1.29735e-05
-1.4883e-05
-1.01662e-05
-1.28884e-05
-7.71786e-06
-1.08453e-05
-5.63395e-06
-8.80213e-06
-3.91184e-06
-6.81244e-06
-2.54076e-06
-4.93543e-06
-1.50159e-06
-3.23632e-06
-7.66929e-07
-1.78702e-06
-3.01355e-07
-6.66585e-07
-6.20635e-08
3.8e-08
2.25538e-07
-2.77309e-07
8.35826e-07
-1.07324e-06
2.90819e-06
-2.35554e-06
5.21709e-06
-4.09339e-06
7.6377e-06
-6.25607e-06
1.00757e-05
-8.81233e-06
1.24573e-05
-1.17302e-05
1.47264e-05
-1.49768e-05
1.68426e-05
-1.85189e-05
1.87778e-05
-2.23226e-05
2.05141e-05
-2.63542e-05
2.20414e-05
-3.058e-05
2.33557e-05
-3.49666e-05
2.4457e-05
-3.94812e-05
2.53484e-05
-4.40917e-05
2.60347e-05
-4.87665e-05
2.65216e-05
-5.34746e-05
2.68151e-05
-5.81859e-05
2.69209e-05
-6.28705e-05
2.68442e-05
-6.74993e-05
2.65895e-05
-7.20435e-05
2.61607e-05
-7.64747e-05
2.55607e-05
-8.07649e-05
2.47921e-05
-8.48865e-05
2.38571e-05
-8.88123e-05
2.27577e-05
-9.25154e-05
2.14961e-05
-9.59697e-05
2.00751e-05
-9.91495e-05
1.84978e-05
-0.00010203
1.67689e-05
-0.000104589
1.48938e-05
-0.000106802
1.28797e-05
-0.000108649
1.07355e-05
-0.000110112
8.47195e-06
-0.000111173
6.10169e-06
-0.000111819
3.63955e-06
-0.000112036
1.10241e-06
-0.000111818
-1.49074e-06
-0.000111158
-4.11894e-06
-0.000110053
-6.75935e-06
-0.000108507
-9.38745e-06
-0.000106526
-1.19773e-05
-0.000104118
-1.45019e-05
-0.000101298
-1.69332e-05
-9.80858e-05
-1.92432e-05
-9.45034e-05
-2.14037e-05
-9.05785e-05
-2.3387e-05
-8.63426e-05
-2.51665e-05
-8.18312e-05
-2.67174e-05
-7.70837e-05
-2.80168e-05
-7.21425e-05
-2.90445e-05
-6.70531e-05
-2.97834e-05
-6.18634e-05
-3.02204e-05
-5.66229e-05
-3.03461e-05
-5.13822e-05
-3.01561e-05
-4.61924e-05
-2.96507e-05
-4.11038e-05
-2.88352e-05
-3.61655e-05
-2.77208e-05
-3.14246e-05
-2.63239e-05
-2.69249e-05
-2.46666e-05
-2.27062e-05
-2.27769e-05
-1.88036e-05
-2.06883e-05
-1.52465e-05
-1.844e-05
-1.20581e-05
-1.60768e-05
-9.25429e-06
-1.36491e-05
-6.84364e-06
-1.12128e-05
-4.82664e-06
-8.82945e-06
-3.19556e-06
-6.56651e-06
-1.93443e-06
-4.49745e-06
-1.01917e-06
-2.70227e-06
-4.1814e-07
-1.26762e-06
-9.29474e-08
-2.87193e-07
1.3259e-07
-3.21171e-07
1.157e-06
-1.23491e-06
3.82193e-06
-2.69624e-06
6.67842e-06
-4.66306e-06
9.60452e-06
-7.09495e-06
1.25076e-05
-9.95247e-06
1.53148e-05
-1.31968e-05
1.79708e-05
-1.67897e-05
2.04355e-05
-2.06932e-05
2.26812e-05
-2.48698e-05
2.46907e-05
-2.92826e-05
2.64543e-05
-3.38955e-05
2.79686e-05
-3.86729e-05
2.92344e-05
-4.35801e-05
3.02556e-05
-4.85832e-05
3.10377e-05
-5.36489e-05
3.15873e-05
-5.8745e-05
3.19111e-05
-6.38395e-05
3.20154e-05
-6.89014e-05
3.19061e-05
-7.39e-05
3.15881e-05
-7.88049e-05
3.10656e-05
-8.35864e-05
3.03423e-05
-8.82151e-05
2.94208e-05
-9.26618e-05
2.83038e-05
-9.68977e-05
2.69937e-05
-0.000100895
2.54932e-05
-0.000104625
2.38055e-05
-0.000108062
2.19348e-05
-0.000111179
1.98862e-05
-0.000113952
1.76666e-05
-0.000116357
1.52844e-05
-0.000118372
1.27501e-05
-0.000119976
1.00763e-05
-0.000121152
7.27778e-06
-0.000121884
4.37189e-06
-0.00012216
1.37827e-06
-0.00012197
-1.68102e-06
-0.000121307
-4.78163e-06
-0.00012017
-7.89707e-06
-0.000118558
-1.09989e-05
-0.000116478
-1.40571e-05
-0.00011394
-1.70402e-05
-0.000110957
-1.99158e-05
-0.000107549
-2.26513e-05
-0.000103739
-2.52137e-05
-9.95556e-05
-2.75709e-05
-9.50303e-05
-2.96918e-05
-9.02005e-05
-3.15472e-05
-8.51071e-05
-3.31102e-05
-7.97947e-05
-3.43569e-05
-7.43109e-05
-3.52671e-05
-6.87065e-05
-3.58248e-05
-6.30338e-05
-3.60188e-05
-5.7347e-05
-3.5843e-05
-5.17004e-05
-3.52972e-05
-4.61484e-05
-3.43872e-05
-4.07441e-05
-3.31251e-05
-3.55385e-05
-3.15295e-05
-3.05797e-05
-2.96254e-05
-2.59118e-05
-2.74449e-05
-2.15739e-05
-2.50262e-05
-1.75995e-05
-2.24143e-05
-1.40159e-05
-1.96605e-05
-1.08427e-05
-1.68223e-05
-8.09225e-06
-1.39632e-05
-5.76858e-06
-1.11531e-05
-3.8675e-06
-8.46758e-06
-2.37654e-06
-5.98842e-06
-1.2752e-06
-3.80361e-06
-5.35623e-07
-2.0072e-06
-1.23562e-07
-6.99255e-07
9.02742e-09
-3.63532e-07
1.52053e-06
-1.39173e-06
4.85013e-06
-3.0277e-06
8.3144e-06
-5.21863e-06
1.17954e-05
-7.91464e-06
1.52036e-05
-1.10682e-05
1.84683e-05
-1.46337e-05
2.15363e-05
-1.85671e-05
2.43689e-05
-2.28259e-05
2.694e-05
-2.73687e-05
2.92335e-05
-3.21555e-05
3.12411e-05
-3.71476e-05
3.29606e-05
-4.23072e-05
3.4394e-05
-4.75977e-05
3.55461e-05
-5.29836e-05
3.64236e-05
-5.84302e-05
3.7034e-05
-6.39038e-05
3.73847e-05
-6.93713e-05
3.74829e-05
-7.48002e-05
3.73349e-05
-8.01585e-05
3.69465e-05
-8.5415e-05
3.63221e-05
-9.05384e-05
3.54657e-05
-9.5498e-05
3.43804e-05
-0.000100264
3.30693e-05
-0.000104805
3.15351e-05
-0.000109093
2.97811e-05
-0.000113098
2.78109e-05
-0.000116793
2.56295e-05
-0.00012015
2.32429e-05
-0.000123142
2.06591e-05
-0.000125746
1.78879e-05
-0.000127937
1.49412e-05
-0.000129694
1.18336e-05
-0.000130999
8.58222e-06
-0.000131833
5.2067e-06
-0.000132185
1.72956e-06
-0.000132042
-1.82403e-06
-0.000131397
-5.42629e-06
-0.000130247
-9.047e-06
-0.000128592
-1.26537e-05
-0.000126437
-1.62121e-05
-0.000123791
-1.96862e-05
-0.000120668
-2.30391e-05
-0.000117086
-2.62332e-05
-0.000113069
-2.92307e-05
-0.000108645
-3.19947e-05
-0.000103848
-3.44892e-05
-9.87146e-05
-3.66803e-05
-9.3288e-05
-3.85368e-05
-8.76142e-05
-4.00307e-05
-8.17433e-05
-4.11381e-05
-7.57282e-05
-4.18399e-05
-6.96246e-05
-4.21224e-05
-6.34898e-05
-4.19779e-05
-5.73818e-05
-4.14052e-05
-5.1359e-05
-4.041e-05
-4.54788e-05
-3.90053e-05
-3.97967e-05
-3.72116e-05
-3.43651e-05
-3.5057e-05
-2.92329e-05
-3.25771e-05
-2.44439e-05
-2.98152e-05
-2.00363e-05
-2.6822e-05
-1.60415e-05
-2.36553e-05
-1.24838e-05
-2.038e-05
-9.3796e-06
-1.70674e-05
-6.73705e-06
-1.37957e-05
-4.55585e-06
-1.06488e-05
-2.8273e-06
-7.71697e-06
-1.53464e-06
-5.09627e-06
-6.53698e-07
-2.88814e-06
-1.53933e-07
-1.19902e-06
-1.44905e-07
-4.04379e-07
1.92491e-06
-1.54338e-06
5.98913e-06
-3.34899e-06
1.012e-05
-5.75817e-06
1.42046e-05
-8.71193e-06
1.81574e-05
-1.21549e-05
2.19113e-05
-1.60346e-05
2.5416e-05
-2.03014e-05
2.86357e-05
-2.49081e-05
3.15466e-05
-2.98093e-05
3.41348e-05
-3.49621e-05
3.63939e-05
-4.03248e-05
3.83234e-05
-4.58577e-05
3.99269e-05
-5.15223e-05
4.12108e-05
-5.72816e-05
4.21829e-05
-6.30996e-05
4.28519e-05
-6.89411e-05
4.32263e-05
-7.47722e-05
4.33139e-05
-8.05591e-05
4.31219e-05
-8.6269e-05
4.26563e-05
-9.18693e-05
4.19224e-05
-9.7328e-05
4.09243e-05
-0.000102613
3.96657e-05
-0.000107694
3.81497e-05
-0.000112538
3.63797e-05
-0.000117116
3.43592e-05
-0.000121398
3.20925e-05
-0.000125354
2.95852e-05
-0.000128955
2.68443e-05
-0.000132175
2.38787e-05
-0.000134986
2.06996e-05
-0.000137366
1.73206e-05
-0.00013929
1.3758e-05
-0.000140739
1.0031e-05
-0.000141694
6.16189e-06
-0.00014214
2.1759e-06
-0.000142066
-1.89868e-06
-0.000141461
-6.03061e-06
-0.000140323
-1.01859e-05
-0.000138648
-1.43281e-05
-0.000136442
-1.84184e-05
-0.000133712
-2.24163e-05
-0.000130471
-2.628e-05
-0.000126737
-2.99668e-05
-0.000122534
-3.34341e-05
-0.000117889
-3.66394e-05
-0.000112837
-3.95419e-05
-0.000107414
-4.21025e-05
-0.000101666
-4.42851e-05
-9.56396e-05
-4.60572e-05
-8.93868e-05
-4.73908e-05
-8.29634e-05
-4.82633e-05
-7.64277e-05
-4.86581e-05
-6.98404e-05
-4.85651e-05
-6.32637e-05
-4.79819e-05
-5.67601e-05
-4.69137e-05
-5.03913e-05
-4.53741e-05
-4.42178e-05
-4.33852e-05
-3.8297e-05
-4.09777e-05
-3.2683e-05
-3.81911e-05
-2.74247e-05
-3.50735e-05
-2.25654e-05
-3.16813e-05
-1.81416e-05
-2.80791e-05
-1.41826e-05
-2.4339e-05
-1.07094e-05
-2.05406e-05
-7.73467e-06
-1.67704e-05
-5.26242e-06
-1.3121e-05
-3.28796e-06
-9.69143e-06
-1.79831e-06
-6.58591e-06
-7.72835e-07
-3.91362e-06
-1.84237e-07
-1.78762e-06
-3.29143e-07
-4.43702e-07
2.36861e-06
-1.68967e-06
7.2351e-06
-3.6594e-06
1.20897e-05
-6.28017e-06
1.68254e-05
-9.48431e-06
2.13615e-05
-1.32087e-05
2.56357e-05
-1.73945e-05
2.96017e-05
-2.19863e-05
3.32275e-05
-2.69321e-05
3.64925e-05
-3.2183e-05
3.93857e-05
-3.76926e-05
4.19034e-05
-4.34168e-05
4.40475e-05
-4.93136e-05
4.58237e-05
-5.5343e-05
4.72401e-05
-6.14662e-05
4.83062e-05
-6.76462e-05
4.90319e-05
-7.38467e-05
4.94268e-05
-8.00326e-05
4.94998e-05
-8.61695e-05
4.92588e-05
-9.22236e-05
4.87104e-05
-9.81615e-05
4.78603e-05
-0.00010395
4.67131e-05
-0.000109557
4.52727e-05
-0.00011495
4.35427e-05
-0.000120097
4.15267e-05
-0.000124967
3.92286e-05
-0.000129528
3.66534e-05
-0.00013375
3.38072e-05
-0.000137603
3.06978e-05
-0.000141059
2.73351e-05
-0.000144091
2.37316e-05
-0.000146673
1.99024e-05
-0.000148781
1.58655e-05
-0.000150392
1.16424e-05
-0.000151488
7.2575e-06
-0.000152051
2.73897e-06
-0.000152067
-1.88188e-06
-0.000151528
-6.57038e-06
-0.000150425
-1.12888e-05
-0.000148756
-1.59965e-05
-0.000146524
-2.06504e-05
-0.000143735
-2.52051e-05
-0.000140401
-2.9614e-05
-0.000136539
-3.38291e-05
-0.000132171
-3.78022e-05
-0.000127325
-4.14857e-05
-0.000122034
-4.48329e-05
-0.000116337
-4.77994e-05
-0.000110278
-5.03437e-05
-0.000103907
-5.24285e-05
-9.72769e-05
-5.40209e-05
-9.0446e-05
-5.50943e-05
-8.34756e-05
-5.56285e-05
-7.64299e-05
-5.56107e-05
-6.93752e-05
-5.50366e-05
-6.23783e-05
-5.39106e-05
-5.5506e-05
-5.22464e-05
-4.88239e-05
-5.00672e-05
-4.23951e-05
-4.74065e-05
-3.62792e-05
-4.43071e-05
-3.05309e-05
-4.08218e-05
-2.51993e-05
-3.7013e-05
-2.03266e-05
-3.29518e-05
-1.59474e-05
-2.87181e-05
-1.20882e-05
-2.43998e-05
-8.76655e-06
-2.0092e-05
-5.991e-06
-1.58966e-05
-3.76116e-06
-1.19213e-05
-2.06789e-06
-8.27919e-06
-8.93906e-07
-5.0876e-06
-2.14754e-07
-2.46677e-06
-5.43897e-07
-4.81479e-07
2.85009e-06
-1.83039e-06
8.58401e-06
-3.95833e-06
1.42177e-05
-6.7834e-06
1.96505e-05
-1.02296e-05
2.48077e-05
-1.42266e-05
2.96327e-05
-1.8709e-05
3.40842e-05
-2.36161e-05
3.81346e-05
-2.88914e-05
4.17677e-05
-3.4482e-05
4.49763e-05
-4.03384e-05
4.77598e-05
-4.6414e-05
5.01232e-05
-5.26648e-05
5.20745e-05
-5.90489e-05
5.36242e-05
-6.55265e-05
5.47837e-05
-7.20591e-05
5.55645e-05
-7.86097e-05
5.59774e-05
-8.51422e-05
5.60324e-05
-9.16216e-05
5.57381e-05
-9.80132e-05
5.51021e-05
-0.000104283
5.41302e-05
-0.000110398
5.28277e-05
-0.000116324
5.11987e-05
-0.000122028
4.92471e-05
-0.000127478
4.69767e-05
-0.000132642
4.4392e-05
-0.000137486
4.14983e-05
-0.000141981
3.83022e-05
-0.000146096
3.48123e-05
-0.0001498
3.10395e-05
-0.000153066
2.69974e-05
-0.000155866
2.27023e-05
-0.000158175
1.81742e-05
-0.000159969
1.34362e-05
-0.000161227
8.51539e-06
-0.00016193
3.44231e-06
-0.000162063
-1.74867e-06
-0.000161614
-7.01954e-06
-0.000160574
-1.23288e-05
-0.000158939
-1.76318e-05
-0.000156708
-2.28809e-05
-0.000153887
-2.8026e-05
-0.000150486
-3.30152e-05
-0.00014652
-3.77953e-05
-0.00014201
-4.23123e-05
-0.000136983
-4.65127e-05
-0.000131471
-5.0344e-05
-0.000125515
-5.37559e-05
-0.000119158
-5.67011e-05
-0.00011245
-5.91364e-05
-0.000105447
-6.1024e-05
-9.82087e-05
-6.23322e-05
-9.08004e-05
-6.30368e-05
-8.32894e-05
-6.31217e-05
-7.5746e-05
-6.258e-05
-6.8242e-05
-6.14146e-05
-6.08494e-05
-5.96389e-05
-5.36397e-05
-5.7277e-05
-4.66818e-05
-5.43643e-05
-4.00416e-05
-5.09472e-05
-3.37804e-05
-4.7083e-05
-2.79536e-05
-4.28398e-05
-2.26097e-05
-3.82957e-05
-1.77894e-05
-3.35384e-05
-1.35251e-05
-2.86642e-05
-9.83971e-06
-2.37774e-05
-6.74684e-06
-1.89895e-05
-4.25056e-06
-1.44175e-05
-2.34565e-06
-1.01841e-05
-1.01806e-06
-6.41518e-06
-2.45829e-07
-3.23901e-06
-7.89727e-07
-5.17676e-07
3.36777e-06
-1.96532e-06
1.00316e-05
-4.24516e-06
1.64975e-05
-7.26666e-06
2.26719e-05
-1.0946e-05
2.8487e-05
-1.52057e-05
3.38924e-05
-1.99743e-05
3.88528e-05
-2.5186e-05
4.33463e-05
-3.07797e-05
4.73614e-05
-3.66989e-05
5.08955e-05
-4.28911e-05
5.3952e-05
-4.93072e-05
5.65393e-05
-5.59012e-05
5.86685e-05
-6.26297e-05
6.03527e-05
-6.94515e-05
6.16055e-05
-7.63271e-05
6.24401e-05
-8.32187e-05
6.2869e-05
-9.00896e-05
6.29032e-05
-9.6904e-05
6.25525e-05
-0.000103627
6.1825e-05
-0.000110224
6.07271e-05
-0.00011666
5.92644e-05
-0.000122903
5.74415e-05
-0.000128919
5.52624e-05
-0.000134673
5.27313e-05
-0.000140134
4.98529e-05
-0.000145268
4.66327e-05
-0.000150044
4.30781e-05
-0.00015443
3.91981e-05
-0.000158395
3.50045e-05
-0.000161909
3.05117e-05
-0.000164945
2.57375e-05
-0.000167474
2.07033e-05
-0.000169472
1.54341e-05
-0.000170915
9.95895e-06
-0.000171784
4.31103e-06
-0.00017206
-1.47247e-06
-0.000171729
-7.35031e-06
-0.000170781
-1.32774e-05
-0.000169208
-1.92049e-05
-0.000167008
-2.50808e-05
-0.000164184
-3.08502e-05
-0.000160743
-3.64559e-05
-0.000156699
-4.18389e-05
-0.000152072
-4.69396e-05
-0.000146886
-5.16982e-05
-0.000141175
-5.60558e-05
-0.000134975
-5.99557e-05
-0.000128332
-6.33441e-05
-0.000121297
-6.61717e-05
-0.000113926
-6.83947e-05
-0.000106282
-6.9976e-05
-9.84327e-05
-7.08862e-05
-9.04491e-05
-7.11053e-05
-8.24059e-05
-7.06232e-05
-7.438e-05
-6.94405e-05
-6.64493e-05
-6.75696e-05
-5.86911e-05
-6.50352e-05
-5.11813e-05
-6.18741e-05
-4.39926e-05
-5.81359e-05
-3.71933e-05
-5.38823e-05
-3.0846e-05
-4.91871e-05
-2.50063e-05
-4.41355e-05
-1.97216e-05
-3.8823e-05
-1.50307e-05
-3.33551e-05
-1.09626e-05
-2.78456e-05
-7.53625e-06
-2.24158e-05
-4.76057e-06
-1.71932e-05
-2.63432e-06
-1.23104e-05
-1.14666e-06
-7.90284e-06
-2.77855e-07
-4.10781e-06
-1.06758e-06
-5.52237e-07
3.92e-06
-2.0942e-06
1.15736e-05
-4.51929e-06
1.89226e-05
-7.72876e-06
2.58814e-05
-1.16313e-05
3.23896e-05
-1.6143e-05
3.84041e-05
-2.11865e-05
4.38963e-05
-2.66909e-05
4.88507e-05
-3.2591e-05
5.32615e-05
-3.88268e-05
5.71312e-05
-4.53427e-05
6.0468e-05
-5.20875e-05
6.3284e-05
-5.90131e-05
6.55941e-05
-6.60747e-05
6.74143e-05
-7.32299e-05
6.87607e-05
-8.04383e-05
6.96486e-05
-8.76615e-05
7.00921e-05
-9.48621e-05
7.01039e-05
-0.000102004
6.96944e-05
-0.000109052
6.88727e-05