/*--------------------------------*- C++ -*----------------------------------*\
  =========                 |
  \\      /  F ield         | OpenFOAM: The Open Source CFD Toolbox
   \\    /   O peration     | Website:  https://openfoam.org
    \\  /    A nd           | Version:  dev
     \\/     M anipulation  |
\*---------------------------------------------------------------------------*/
FoamFile
{
    format      ascii;
    class       volVectorField;
    location    "22.05";
    object      U;
}
// * * * * * * * * * * * * * * * * * * * * * * * * * * * * * * * * * * * * * //

dimensions      [0 1 -1 0 0 0 0];

internalField   nonuniform List<vector> 
5184
(
(1.22997e-05 -1.27184e-05 0)
(4.51017e-05 -2.08779e-05 0)
(8.02326e-05 -1.7229e-05 0)
(9.58552e-05 -8.17947e-06 0)
(8.20034e-05 2.67983e-06 0)
(3.63038e-05 1.36207e-05 0)
(-4.06911e-05 2.38421e-05 0)
(-0.000146963 3.30366e-05 0)
(-0.000279723 4.10868e-05 0)
(-0.000435915 4.79988e-05 0)
(-0.000612418 5.38341e-05 0)
(-0.000806203 5.86776e-05 0)
(-0.0010144 6.26214e-05 0)
(-0.00123436 6.57568e-05 0)
(-0.0014636 6.81686e-05 0)
(-0.00169989 6.9932e-05 0)
(-0.00194114 7.11113e-05 0)
(-0.00218545 7.17589e-05 0)
(-0.00243103 7.19154e-05 0)
(-0.0026762 7.16107e-05 0)
(-0.00291935 7.08639e-05 0)
(-0.00315892 6.96856e-05 0)
(-0.0033934 6.80788e-05 0)
(-0.00362124 6.60404e-05 0)
(-0.00384094 6.35634e-05 0)
(-0.00405094 6.06379e-05 0)
(-0.0042497 5.72534e-05 0)
(-0.00443564 5.34004e-05 0)
(-0.00460719 4.90719e-05 0)
(-0.00476277 4.42648e-05 0)
(-0.00490082 3.89817e-05 0)
(-0.00501982 3.32316e-05 0)
(-0.00511831 2.70319e-05 0)
(-0.00519491 2.04085e-05 0)
(-0.00524837 1.33969e-05 0)
(-0.00527756 6.04303e-06 0)
(-0.00528156 -1.59728e-06 0)
(-0.00525962 -9.45761e-06 0)
(-0.00521126 -1.74615e-05 0)
(-0.00513624 -2.55232e-05 0)
(-0.00503461 -3.35484e-05 0)
(-0.00490677 -4.14357e-05 0)
(-0.00475341 -4.90779e-05 0)
(-0.00457559 -5.63644e-05 0)
(-0.0043747 -6.31824e-05 0)
(-0.0041525 -6.94202e-05 0)
(-0.00391108 -7.49692e-05 0)
(-0.00365287 -7.97264e-05 0)
(-0.00338058 -8.35974e-05 0)
(-0.00309723 -8.64985e-05 0)
(-0.00280604 -8.83591e-05 0)
(-0.00251045 -8.9124e-05 0)
(-0.00221401 -8.8755e-05 0)
(-0.00192037 -8.72324e-05 0)
(-0.00163321 -8.45556e-05 0)
(-0.00135617 -8.07441e-05 0)
(-0.00109277 -7.58369e-05 0)
(-0.000846396 -6.98928e-05 0)
(-0.000620183 -6.29893e-05 0)
(-0.000416982 -5.52223e-05 0)
(-0.000239291 -4.67057e-05 0)
(-8.91859e-05 -3.75723e-05 0)
(3.17442e-05 -2.79769e-05 0)
(0.000122485 -1.81015e-05 0)
(0.000182703 -8.17153e-06 0)
(0.000212899 1.51806e-06 0)
(0.000214657 1.05448e-05 0)
(0.000191022 1.82721e-05 0)
(0.000147017 2.36893e-05 0)
(9.07273e-05 2.51067e-05 0)
(3.6607e-05 1.98389e-05 0)
(6.22531e-06 6.24486e-06 0)
(2.08174e-05 -4.58723e-05 0)
(6.55313e-05 -6.56484e-05 0)
(9.45572e-05 -4.04856e-05 0)
(7.2604e-05 7.68776e-06 0)
(-1.9145e-05 6.56977e-05 0)
(-0.000187494 0.000125968 0)
(-0.000433019 0.000184228 0)
(-0.000752502 0.000238229 0)
(-0.0011404 0.000286836 0)
(-0.00158994 0.000329607 0)
(-0.00209378 0.000366504 0)
(-0.00264447 0.000397715 0)
(-0.00323471 0.000423552 0)
(-0.00385751 0.000444382 0)
(-0.00450628 0.000460582 0)
(-0.00517482 0.00047251 0)
(-0.00585733 0.000480488 0)
(-0.00654837 0.000484792 0)
(-0.00724283 0.000485645 0)
(-0.0079358 0.000483218 0)
(-0.0086226 0.000477633 0)
(-0.00929868 0.000468966 0)
(-0.00995957 0.000457256 0)
(-0.0106009 0.000442512 0)
(-0.0112181 0.000424722 0)
(-0.011807 0.000403863 0)
(-0.012363 0.000379911 0)
(-0.0128818 0.000352849 0)
(-0.013359 0.000322678 0)
(-0.0137903 0.000289424 0)
(-0.0141713 0.000253147 0)
(-0.0144981 0.000213951 0)
(-0.0147667 0.000171984 0)
(-0.0149735 0.000127451 0)
(-0.0151153 8.06089e-05 0)
(-0.0151891 3.17778e-05 0)
(-0.0151927 -1.86644e-05 0)
(-0.0151242 -7.028e-05 0)
(-0.0149826 -0.000122575 0)
(-0.0147674 -0.000175001 0)
(-0.0144791 -0.000226967 0)
(-0.0141188 -0.000277839 0)
(-0.0136888 -0.000326959 0)
(-0.0131919 -0.000373646 0)
(-0.0126322 -0.000417219 0)
(-0.0120145 -0.000457002 0)
(-0.0113446 -0.000492342 0)
(-0.0106291 -0.000522627 0)
(-0.00987529 -0.000547295 0)
(-0.00909135 -0.000565853 0)
(-0.00828596 -0.000577887 0)
(-0.00746827 -0.000583078 0)
(-0.00664781 -0.00058121 0)
(-0.00583431 -0.000572181 0)
(-0.00503756 -0.000556005 0)
(-0.00426719 -0.000532821 0)
(-0.0035326 -0.000502892 0)
(-0.0028427 -0.000466607 0)
(-0.00220575 -0.00042448 0)
(-0.00162924 -0.000377151 0)
(-0.00111964 -0.000325386 0)
(-0.000682239 -0.00027009 0)
(-0.00032096 -0.000212322 0)
(-3.80846e-05 -0.000153333 0)
(0.000166015 -9.46322e-05 0)
(0.000293256 -3.80976e-05 0)
(0.00034838 1.38156e-05 0)
(0.000339644 5.78032e-05 0)
(0.000279527 8.9277e-05 0)
(0.000185863 0.000101747 0)
(8.62922e-05 8.64482e-05 0)
(1.96633e-05 3.64703e-05 0)
(1.7611e-05 -8.12354e-05 0)
(4.12449e-05 -9.48934e-05 0)
(1.94556e-05 -1.90009e-05 0)
(-8.41626e-05 0.000106003 0)
(-0.000290371 0.000254629 0)
(-0.000607903 0.000410452 0)
(-0.00103801 0.000563169 0)
(-0.00157689 0.00070665 0)
(-0.00221737 0.000837451 0)
(-0.00295027 0.000953869 0)
(-0.00376531 0.00105531 0)
(-0.0046518 0.00114187 0)
(-0.00559903 0.00121406 0)
(-0.00659653 0.0012726 0)
(-0.00763426 0.00131832 0)
(-0.00870267 0.00135205 0)
(-0.00979268 0.00137454 0)
(-0.0108957 0.00138647 0)
(-0.0120035 0.00138841 0)
(-0.0131083 0.0013808 0)
(-0.0142025 0.00136397 0)
(-0.0152787 0.00133814 0)
(-0.0163297 0.00130343 0)
(-0.0173484 0.00125992 0)
(-0.0183277 0.00120761 0)
(-0.0192605 0.00114649 0)
(-0.0201399 0.00107656 0)
(-0.0209589 0.000997821 0)
(-0.0217105 0.000910346 0)
(-0.0223882 0.000814272 0)
(-0.0229852 0.000709829 0)
(-0.0234954 0.000597364 0)
(-0.0239127 0.000477348 0)
(-0.0242317 0.000350395 0)
(-0.0244476 0.000217271 0)
(-0.0245561 7.88973e-05 0)
(-0.0245538 -6.36467e-05 0)
(-0.0244382 -0.000209127 0)
(-0.0242078 -0.000356163 0)
(-0.0238623 -0.000503237 0)
(-0.0234025 -0.000648717 0)
(-0.0228305 -0.000790871 0)
(-0.0221498 -0.000927899 0)
(-0.0213653 -0.00105796 0)
(-0.0204832 -0.00117921 0)
(-0.019511 -0.00128982 0)
(-0.0184578 -0.00138804 0)
(-0.0173337 -0.00147223 0)
(-0.0161501 -0.0015409 0)
(-0.0149194 -0.00159272 0)
(-0.0136549 -0.00162659 0)
(-0.0123707 -0.00164169 0)
(-0.0110812 -0.00163744 0)
(-0.00980137 -0.00161359 0)
(-0.00854597 -0.0015702 0)
(-0.00732973 -0.00150769 0)
(-0.00616689 -0.00142678 0)
(-0.00507097 -0.00132859 0)
(-0.0040545 -0.00121456 0)
(-0.00312875 -0.00108648 0)
(-0.00230346 -0.000946539 0)
(-0.00158652 -0.000797293 0)
(-0.000983655 -0.000641749 0)
(-0.000498109 -0.000483433 0)
(-0.0001302 -0.00032654 0)
(0.000123138 -0.000176154 0)
(0.000268988 -3.85858e-05 0)
(0.000319179 7.81524e-05 0)
(0.000290827 0.000163771 0)
(0.000207138 0.000205114 0)
(0.000102341 0.000186083 0)
(2.49528e-05 9.03223e-05 0)
(8.81988e-06 -9.76214e-05 0)
(-7.06935e-06 -7.29478e-05 0)
(-0.000107654 8.49384e-05 0)
(-0.000322386 0.000318389 0)
(-0.000669484 0.000589937 0)
(-0.00115734 0.000873984 0)
(-0.0017867 0.00115352 0)
(-0.00255279 0.00141776 0)
(-0.00344706 0.00166025 0)
(-0.00445851 0.00187745 0)
(-0.00557465 0.00206782 0)
(-0.0067823 0.00223111 0)
(-0.00806805 0.00236786 0)
(-0.00941865 0.00247913 0)
(-0.0108212 0.00256618 0)
(-0.0122633 0.00263034 0)
(-0.0137331 0.0026729 0)
(-0.0152191 0.00269499 0)
(-0.0167104 0.00269761 0)
(-0.0181966 0.00268154 0)
(-0.0196673 0.00264738 0)
(-0.0211126 0.00259555 0)
(-0.0225228 0.00252634 0)
(-0.0238882 0.00243988 0)
(-0.0251993 0.00233628 0)
(-0.0264466 0.00221556 0)
(-0.0276208 0.00207778 0)
(-0.0287127 0.00192306 0)
(-0.0297131 0.00175161 0)
(-0.0306131 0.00156376 0)
(-0.0314042 0.00136005 0)
(-0.0320782 0.00114121 0)
(-0.0326275 0.000908212 0)
(-0.0330451 0.000662295 0)
(-0.0333247 0.000404971 0)
(-0.0334612 0.000138038 0)
(-0.0334501 -0.000136417 0)
(-0.0332887 -0.000416026 0)
(-0.0329751 -0.000698157 0)
(-0.0325091 -0.000979937 0)
(-0.0318922 -0.00125828 0)
(-0.0311273 -0.00152994 0)
(-0.0302192 -0.00179153 0)
(-0.0291743 -0.00203962 0)
(-0.0280009 -0.00227077 0)
(-0.026709 -0.00248159 0)
(-0.0253103 -0.00266884 0)
(-0.0238181 -0.00282946 0)
(-0.0222473 -0.00296069 0)
(-0.0206138 -0.00306011 0)
(-0.018935 -0.00312568 0)
(-0.0172289 -0.00315588 0)
(-0.0155143 -0.00314967 0)
(-0.0138104 -0.00310661 0)
(-0.0121363 -0.00302685 0)
(-0.010511 -0.00291117 0)
(-0.00895276 -0.00276099 0)
(-0.0074791 -0.00257841 0)
(-0.00610611 -0.0023662 0)
(-0.00484827 -0.00212779 0)
(-0.00371808 -0.00186733 0)
(-0.00272564 -0.00158971 0)
(-0.00187828 -0.00130065 0)
(-0.00118014 -0.0010068 0)
(-0.000631681 -0.000715973 0)
(-0.00022922 -0.000437438 0)
(3.57075e-05 -0.000182328 0)
(0.000176977 3.57583e-05 0)
(0.000214294 0.000200114 0)
(0.000173802 0.000290359 0)
(9.29031e-05 0.000282211 0)
(2.40009e-05 0.000147143 0)
(-2.13702e-06 -8.42583e-05 0)
(-6.73079e-05 2.11073e-05 0)
(-0.00026407 0.000295555 0)
(-0.000609579 0.000667911 0)
(-0.00111631 0.00109041 0)
(-0.00179046 0.00152917 0)
(-0.00263104 0.00196078 0)
(-0.00363166 0.00236977 0)
(-0.00478221 0.00274645 0)
(-0.00606999 0.00308517 0)
(-0.00748064 0.00338318 0)
(-0.00899893 0.00363965 0)
(-0.0106093 0.00385504 0)
(-0.0122962 0.00403061 0)
(-0.0140443 0.00416799 0)
(-0.0158388 0.00426902 0)
(-0.0176654 0.00433549 0)
(-0.0195102 0.00436903 0)
(-0.0213599 0.00437109 0)
(-0.0232016 0.00434281 0)
(-0.0250226 0.00428512 0)
(-0.0268107 0.00419868 0)
(-0.0285537 0.00408393 0)
(-0.0302398 0.00394119 0)
(-0.0318572 0.00377064 0)
(-0.0333943 0.00357244 0)
(-0.0348396 0.00334677 0)
(-0.0361818 0.00309391 0)
(-0.0374097 0.00281431 0)
(-0.0385128 0.00250862 0)
(-0.0394805 0.0021778 0)
(-0.0403033 0.00182311 0)
(-0.0409718 0.00144619 0)
(-0.041478 0.00104911 0)
(-0.0418144 0.000634335 0)
(-0.0419749 0.000204782 0)
(-0.0419547 -0.000236191 0)
(-0.0417503 -0.000684801 0)
(-0.0413601 -0.00113686 0)
(-0.0407839 -0.00158783 0)
(-0.0400237 -0.00203283 0)
(-0.0390833 -0.00246677 0)
(-0.0379685 -0.00288434 0)
(-0.0366873 -0.00328017 0)
(-0.0352497 -0.00364889 0)
(-0.0336678 -0.00398523 0)
(-0.0319557 -0.00428412 0)
(-0.0301293 -0.00454085 0)
(-0.0282063 -0.00475109 0)
(-0.0262061 -0.0049111 0)
(-0.0241491 -0.00501775 0)
(-0.022057 -0.00506865 0)
(-0.0199522 -0.00506222 0)
(-0.0178574 -0.0049978 0)
(-0.0157957 -0.00487563 0)
(-0.0137894 -0.00469697 0)
(-0.0118607 -0.00446408 0)
(-0.0100301 -0.00418029 0)
(-0.0083171 -0.00384997 0)
(-0.00673886 -0.00347857 0)
(-0.00531036 -0.00307267 0)
(-0.00404374 -0.00263997 0)
(-0.00294785 -0.00218949 0)
(-0.00202785 -0.0017316 0)
(-0.00128467 -0.00127836 0)
(-0.00071458 -0.000843795 0)
(-0.000308588 -0.000444385 0)
(-5.19512e-05 -9.96725e-05 0)
(7.61855e-05 0.000167022 0)
(0.000103301 0.000327981 0)
(6.73791e-05 0.000350486 0)
(1.96387e-05 0.000193926 0)
(-1.36978e-05 -3.73719e-05 0)
(-0.000132798 0.000197529 0)
(-0.000435647 0.000626866 0)
(-0.000924192 0.00116996 0)
(-0.00160305 0.00177092 0)
(-0.00247476 0.00238892 0)
(-0.0035355 0.00299493 0)
(-0.00477656 0.00356918 0)
(-0.00618586 0.00409883 0)
(-0.00774889 0.00457614 0)
(-0.00944953 0.00499702 0)
(-0.0112707 0.00536 0)
(-0.013195 0.00566531 0)
(-0.0152049 0.00591432 0)
(-0.017283 0.00610901 0)
(-0.0194126 0.00625164 0)
(-0.0215771 0.0063445 0)
(-0.0237606 0.00638971 0)
(-0.0259477 0.00638915 0)
(-0.0281232 0.00634437 0)
(-0.0302725 0.00625662 0)
(-0.0323811 0.00612682 0)
(-0.0344349 0.00595565 0)
(-0.03642 0.00574357 0)
(-0.0383225 0.00549095 0)
(-0.0401289 0.00519809 0)
(-0.0418257 0.00486539 0)
(-0.0433999 0.00449337 0)
(-0.0448387 0.0040828 0)
(-0.0461296 0.00363476 0)
(-0.0472607 0.00315074 0)
(-0.0482209 0.0026327 0)
(-0.0489998 0.0020831 0)
(-0.049588 0.00150501 0)
(-0.0499773 0.000902046 0)
(-0.0501608 0.000278472 0)
(-0.0501331 -0.000360857 0)
(-0.0498906 -0.00101049 0)
(-0.0494313 -0.00166444 0)
(-0.0487556 -0.0023162 0)
(-0.0478657 -0.00295885 0)
(-0.0467661 -0.00358512 0)
(-0.0454636 -0.00418753 0)
(-0.0439676 -0.00475847 0)
(-0.0422894 -0.00529035 0)
(-0.040443 -0.00577573 0)
(-0.0384445 -0.00620748 0)
(-0.036312 -0.00657895 0)
(-0.0340659 -0.00688407 0)
(-0.0317281 -0.00711755 0)
(-0.029322 -0.00727499 0)
(-0.0268722 -0.00735304 0)
(-0.0244042 -0.00734948 0)
(-0.0219442 -0.00726336 0)
(-0.0195181 -0.00709506 0)
(-0.0171519 -0.00684637 0)
(-0.0148704 -0.00652051 0)
(-0.0126976 -0.00612219 0)
(-0.0106554 -0.00565766 0)
(-0.00876381 -0.00513468 0)
(-0.00704007 -0.00456257 0)
(-0.00549828 -0.0039523 0)
(-0.00414889 -0.00331658 0)
(-0.00299827 -0.00266997 0)
(-0.00204821 -0.00202919 0)
(-0.00129545 -0.00141342 0)
(-0.000731217 -0.000844768 0)
(-0.000340817 -0.000348906 0)
(-0.000103315 4.42152e-05 0)
(8.89751e-06 0.000299677 0)
(3.23811e-05 0.000376689 0)
(1.35959e-05 0.000224237 0)
(-2.51788e-05 4.42283e-05 0)
(-0.000199916 0.000461313 0)
(-0.00061374 0.00108677 0)
(-0.00125216 0.00183393 0)
(-0.0021107 0.00264098 0)
(-0.00318721 0.00346173 0)
(-0.00447411 0.00426259 0)
(-0.0059597 0.00502012 0)
(-0.00762948 0.00571874 0)
(-0.00946693 0.00634878 0)
(-0.0114541 0.00690491 0)
(-0.0135721 0.00738498 0)
(-0.0158018 0.00778901 0)
(-0.018124 0.00811842 0)
(-0.0205196 0.00837548 0)
(-0.0229699 0.00856286 0)
(-0.0254567 0.00868329 0)
(-0.0279623 0.00873937 0)
(-0.0304691 0.0087334 0)
(-0.0329604 0.00866734 0)
(-0.0354195 0.00854275 0)
(-0.0378302 0.00836085 0)
(-0.0401765 0.00812254 0)
(-0.0424425 0.00782851 0)
(-0.0446128 0.00747932 0)
(-0.0466719 0.0070755 0)
(-0.0486048 0.00661768 0)
(-0.0503968 0.00610673 0)
(-0.0520334 0.00554381 0)
(-0.0535008 0.00493055 0)
(-0.0547857 0.00426909 0)
(-0.0558758 0.00356219 0)
(-0.0567595 0.00281331 0)
(-0.0574264 0.00202665 0)
(-0.0578676 0.00120719 0)
(-0.0580755 0.000360696 0)
(-0.0580442 -0.000506269 0)
(-0.0577699 -0.00138638 0)
(-0.0572505 -0.0022716 0)
(-0.0564863 -0.00315326 0)
(-0.0554802 -0.00402212 0)
(-0.054237 -0.00486854 0)
(-0.0527645 -0.00568258 0)
(-0.051073 -0.00645414 0)
(-0.0491751 -0.00717318 0)
(-0.0470862 -0.00782986 0)
(-0.0448243 -0.00841476 0)
(-0.0424093 -0.00891905 0)
(-0.0398638 -0.00933473 0)
(-0.0372118 -0.00965478 0)
(-0.0344795 -0.00987339 0)
(-0.0316939 -0.00998608 0)
(-0.0288835 -0.00998992 0)
(-0.0260771 -0.00988363 0)
(-0.0233037 -0.00966769 0)
(-0.020592 -0.00934444 0)
(-0.0179698 -0.00891816 0)
(-0.0154638 -0.0083951 0)
(-0.0130987 -0.00778351 0)
(-0.010897 -0.00709369 0)
(-0.00887804 -0.00633802 0)
(-0.00705807 -0.005531 0)
(-0.00544931 -0.00468935 0)
(-0.00405959 -0.00383215 0)
(-0.00289192 -0.00298106 0)
(-0.00194403 -0.00216068 0)
(-0.00120799 -0.00139889 0)
(-0.000669874 -0.000727541 0)
(-0.0003095 -0.000183081 0)
(-0.000100062 0.000192707 0)
(-7.81051e-06 0.000351731 0)
(6.83881e-06 0.000234649 0)
(-3.63217e-05 0.000160535 0)
(-0.000266779 0.000814321 0)
(-0.000793233 0.00167904 0)
(-0.00158456 0.0026648 0)
(-0.0026266 0.00370596 0)
(-0.00391179 0.00475253 0)
(-0.00542818 0.00576752 0)
(-0.00716048 0.00672467 0)
(-0.00909139 0.0076062 0)
(-0.0112021 0.00840086 0)
(-0.0134725 0.00910232 0)
(-0.0158822 0.00970786 0)
(-0.0184103 0.0102173 0)
(-0.0210359 0.0106322 0)
(-0.0237385 0.010955 0)
(-0.0264978 0.0111889 0)
(-0.0292939 0.0113369 0)
(-0.0321075 0.0114022 0)
(-0.0349195 0.0113874 0)
(-0.0377115 0.0112949 0)
(-0.0404652 0.0111265 0)
(-0.0431627 0.0108838 0)
(-0.0457864 0.010568 0)
(-0.0483189 0.0101799 0)
(-0.050743 0.00972042 0)
(-0.0530418 0.00919025 0)
(-0.0551988 0.00859037 0)
(-0.0571977 0.00792203 0)
(-0.0590228 0.00718691 0)
(-0.0606588 0.00638722 0)
(-0.0620915 0.00552589 0)
(-0.0633071 0.00460659 0)
(-0.0642932 0.0036339 0)
(-0.0650385 0.0026133 0)
(-0.0655333 0.00155125 0)
(-0.0657694 0.000455216 0)
(-0.0657404 -0.00066638 0)
(-0.0654422 -0.00180415 0)
(-0.0648725 -0.00294785 0)
(-0.0640319 -0.0040864 0)
(-0.0629231 -0.0052081 0)
(-0.0615516 -0.00630069 0)
(-0.0599258 -0.00735155 0)
(-0.0580565 -0.00834793 0)
(-0.0559576 -0.00927708 0)
(-0.0536457 -0.0101266 0)
(-0.0511399 -0.0108844 0)
(-0.0484622 -0.0115395 0)
(-0.0456365 -0.0120817 0)
(-0.0426893 -0.012502 0)
(-0.0396486 -0.012793 0)
(-0.036544 -0.0129491 0)
(-0.0334063 -0.0129664 0)
(-0.0302669 -0.0128433 0)
(-0.0271576 -0.0125804 0)
(-0.0241097 -0.0121804 0)
(-0.0211539 -0.0116488 0)
(-0.0183194 -0.0109934 0)
(-0.0156336 -0.0102246 0)
(-0.0131214 -0.00935545 0)
(-0.0108047 -0.00840151 0)
(-0.0087017 -0.00738106 0)
(-0.00682675 -0.00631506 0)
(-0.00518943 -0.00522732 0)
(-0.00379435 -0.00414469 0)
(-0.00264068 -0.00309726 0)
(-0.00172184 -0.00211882 0)
(-0.00102529 -0.0012473 0)
(-0.000532235 -0.000525477 0)
(-0.000217342 -1.52212e-06 0)
(-5.05305e-05 0.000270053 0)
(-1.01961e-07 0.000223461 0)
(-4.70308e-05 0.000310912 0)
(-0.000332406 0.00125646 0)
(-0.000971132 0.00240464 0)
(-0.00191578 0.00366444 0)
(-0.00314234 0.00496817 0)
(-0.00463747 0.00626355 0)
(-0.00638437 0.00751135 0)
(-0.00836375 0.00868341 0)
(-0.0105551 0.00976043 0)
(-0.0129371 0.01073 0)
(-0.0154876 0.0115852 0)
(-0.0181842 0.0123229 0)
(-0.0210044 0.0129428 0)
(-0.0239259 0.0134467 0)
(-0.0269265 0.0138374 0)
(-0.0299846 0.0141183 0)
(-0.0330791 0.0142931 0)
(-0.036189 0.0143651 0)
(-0.0392941 0.0143375 0)
(-0.0423743 0.0142131 0)
(-0.04541 0.0139941 0)
(-0.0483819 0.0136822 0)
(-0.0512709 0.0132788 0)
(-0.0540582 0.0127852 0)
(-0.0567253 0.0122024 0)
(-0.0592539 0.0115314 0)
(-0.0616261 0.0107737 0)
(-0.0638243 0.00993083 0)
(-0.0658317 0.00900508 0)
(-0.0676317 0.00799937 0)
(-0.0692089 0.00691746 0)
(-0.0705488 0.00576405 0)
(-0.0716377 0.0045449 0)
(-0.0724638 0.00326693 0)
(-0.0730163 0.00193818 0)
(-0.0732866 0.000567937 0)
(-0.0732677 -0.000833363 0)
(-0.0729552 -0.00225414 0)
(-0.0723465 -0.00368175 0)
(-0.071442 -0.0051026 0)
(-0.0702446 -0.00650231 0)
(-0.06876 -0.00786583 0)
(-0.0669967 -0.00917772 0)
(-0.0649665 -0.0104223 0)
(-0.0626837 -0.011584 0)
(-0.0601659 -0.0126476 0)
(-0.0574335 -0.0135983 0)
(-0.0545095 -0.0144225 0)
(-0.0514198 -0.0151077 0)
(-0.0481923 -0.0156429 0)
(-0.044857 -0.0160188 0)
(-0.0414456 -0.0162285 0)
(-0.0379913 -0.0162671 0)
(-0.0345279 -0.0161325 0)
(-0.0310897 -0.0158251 0)
(-0.0277105 -0.0153483 0)
(-0.0244238 -0.0147086 0)
(-0.0212616 -0.0139155 0)
(-0.0182537 -0.0129816 0)
(-0.0154278 -0.0119227 0)
(-0.0128083 -0.0107578 0)
(-0.0104158 -0.00950893 0)
(-0.00826688 -0.00820161 0)
(-0.00637318 -0.00686451 0)
(-0.00474131 -0.00552976 0)
(-0.00337231 -0.0042331 0)
(-0.00226142 -0.0030142 0)
(-0.00139795 -0.00191703 0)
(-0.000764956 -0.000990428 0)
(-0.000339044 -0.000288526 0)
(-9.42219e-05 0.000128552 0)
(-6.95646e-06 0.000190022 0)
(-5.72941e-05 0.000494454 0)
(-0.000396315 0.00178649 0)
(-0.0011457 0.00326268 0)
(-0.0022423 0.00483246 0)
(-0.00365238 0.00642759 0)
(-0.00535662 0.00799481 0)
(-0.00733311 0.00949383 0)
(-0.00955831 0.0108955 0)
(-0.0120083 0.0121797 0)
(-0.0146589 0.0133334 0)
(-0.0174857 0.0143495 0)
(-0.0204644 0.0152247 0)
(-0.0235708 0.015959 0)
(-0.0267811 0.0165543 0)
(-0.0300719 0.0170139 0)
(-0.0334202 0.0173415 0)
(-0.0368036 0.0175413 0)
(-0.0401999 0.0176172 0)
(-0.0435878 0.0175727 0)
(-0.0469458 0.0174108 0)
(-0.0502532 0.0171342 0)
(-0.0534894 0.0167448 0)
(-0.0566342 0.0162444 0)
(-0.0596674 0.0156345 0)
(-0.0625693 0.0149162 0)
(-0.0653205 0.0140911 0)
(-0.0679018 0.0131609 0)
(-0.0702946 0.0121277 0)
(-0.0724807 0.0109944 0)
(-0.0744429 0.00976462 0)
(-0.0761644 0.00844306 0)
(-0.0776298 0.00703552 0)
(-0.0788247 0.00554904 0)
(-0.0797362 0.00399201 0)
(-0.080353 0.00237421 0)
(-0.0806656 0.000706796 0)
(-0.0806665 -0.000997657 0)
(-0.0803508 -0.00272525 0)
(-0.0797155 -0.00446085 0)
(-0.0787608 -0.00618819 0)
(-0.0774894 -0.00789006 0)
(-0.0759068 -0.0095485 0)
(-0.074022 -0.011145 0)
(-0.0718468 -0.012661 0)
(-0.0693961 -0.0140776 0)
(-0.0666882 -0.0153768 0)
(-0.0637443 -0.0165408 0)
(-0.0605886 -0.0175532 0)
(-0.057248 -0.018399 0)
(-0.0537522 -0.0190649 0)
(-0.0501328 -0.0195397 0)
(-0.0464236 -0.0198148 0)
(-0.0426597 -0.0198843 0)
(-0.0388774 -0.0197452 0)
(-0.0351133 -0.0193979 0)
(-0.0314041 -0.0188463 0)
(-0.0277858 -0.0180978 0)
(-0.0242932 -0.0171636 0)
(-0.020959 -0.0160584 0)
(-0.0178136 -0.0148009 0)
(-0.0148841 -0.0134135 0)
(-0.0121939 -0.0119225 0)
(-0.00976193 -0.0103577 0)
(-0.00760248 -0.00875285 0)
(-0.00572444 -0.00714548 0)
(-0.0041311 -0.00557705 0)
(-0.0028199 -0.00409312 0)
(-0.00178238 -0.00274364 0)
(-0.0010038 -0.00158331 0)
(-0.000462955 -0.000671843 0)
(-0.000138069 -7.43843e-05 0)
(-1.36091e-05 0.000134253 0)
(-6.71297e-05 0.000710128 0)
(-0.000458282 0.0024025 0)
(-0.00131595 0.00425107 0)
(-0.00256192 0.00616689 0)
(-0.00415299 0.0080824 0)
(-0.00606389 0.00994456 0)
(-0.00826749 0.0117131 0)
(-0.0107358 0.0133586 0)
(-0.0134413 0.014861 0)
(-0.0163568 0.0162075 0)
(-0.0194556 0.0173907 0)
(-0.0227113 0.018408 0)
(-0.0260981 0.0192596 0)
(-0.0295908 0.0199479 0)
(-0.0331645 0.0204766 0)
(-0.0367952 0.0208501 0)
(-0.0404592 0.0210728 0)
(-0.0441335 0.0211493 0)
(-0.0477954 0.0210835 0)
(-0.0514227 0.0208786 0)
(-0.0549933 0.0205378 0)
(-0.0584858 0.0200632 0)
(-0.0618788 0.0194568 0)
(-0.0651511 0.0187204 0)
(-0.0682819 0.0178555 0)
(-0.0712509 0.016864 0)
(-0.0740377 0.0157479 0)
(-0.0766227 0.0145099 0)
(-0.0789868 0.0131535 0)
(-0.0811116 0.0116832 0)
(-0.0829797 0.0101045 0)
(-0.0845744 0.00842447 0)
(-0.0858806 0.00665143 0)
(-0.0868846 0.00479532 0)
(-0.0875742 0.00286767 0)
(-0.0879391 0.00088164 0)
(-0.0879713 -0.00114802 0)
(-0.0876651 -0.003205 0)
(-0.087017 -0.00527156 0)
(-0.0860267 -0.00732868 0)
(-0.0846965 -0.00935619 0)
(-0.0830318 -0.0113331 0)
(-0.0810413 -0.0132377 0)
(-0.0787369 -0.0150482 0)
(-0.0761337 -0.0167426 0)
(-0.0732505 -0.0182994 0)
(-0.070109 -0.019698 0)
(-0.0667342 -0.0209188 0)
(-0.0631542 -0.0219442 0)
(-0.0593998 -0.0227582 0)
(-0.0555043 -0.0233475 0)
(-0.0515033 -0.0237017 0)
(-0.047434 -0.0238134 0)
(-0.0433348 -0.023679 0)
(-0.039245 -0.0232984 0)
(-0.0352039 -0.0226759 0)
(-0.0312503 -0.0218197 0)
(-0.0274218 -0.0207424 0)
(-0.0237543 -0.0194613 0)
(-0.0202812 -0.0179977 0)
(-0.0170325 -0.0163775 0)
(-0.0140346 -0.0146311 0)
(-0.0113095 -0.012793 0)
(-0.00887412 -0.0109019 0)
(-0.00674012 -0.00900106 0)
(-0.0049134 -0.00713754 0)
(-0.00339398 -0.00536289 0)
(-0.00217591 -0.00373299 0)
(-0.00124691 -0.00230831 0)
(-0.000588067 -0.00115391 0)
(-0.000181746 -0.000339591 0)
(-2.00337e-05 5.63224e-05 0)
(-7.65615e-05 0.000956857 0)
(-0.000518203 0.00310219 0)
(-0.00148127 0.00536692 0)
(-0.00287319 0.00766463 0)
(-0.00464165 0.00992947 0)
(-0.00675551 0.0121096 0)
(-0.0091824 0.0141657 0)
(-0.0118898 0.0160692 0)
(-0.0148466 0.0178007 0)
(-0.0180225 0.0193478 0)
(-0.0213883 0.020704 0)
(-0.0249156 0.0218673 0)
(-0.0285768 0.0228385 0)
(-0.0323454 0.0236207 0)
(-0.0361952 0.0242183 0)
(-0.0401011 0.0246363 0)
(-0.0440384 0.0248797 0)
(-0.0479831 0.0249534 0)
(-0.0519116 0.0248619 0)
(-0.0558007 0.0246088 0)
(-0.0596277 0.0241974 0)
(-0.06337 0.0236303 0)
(-0.0670054 0.0229098 0)
(-0.0705119 0.0220377 0)
(-0.0738678 0.0210161 0)
(-0.0770516 0.0198469 0)
(-0.0800423 0.0185328 0)
(-0.0828194 0.0170769 0)
(-0.0853627 0.0154835 0)
(-0.087653 0.0137576 0)
(-0.0896718 0.011906 0)
(-0.0914019 0.00993663 0)
(-0.0928269 0.00785937 0)
(-0.0939324 0.00568567 0)
(-0.0947052 0.00342887 0)
(-0.0951344 0.00110412 0)
(-0.095211 -0.00127156 0)
(-0.0949284 -0.00367944 0)
(-0.0942827 -0.00609908 0)
(-0.0932725 -0.00850861 0)
(-0.0918997 -0.0108848 0)
(-0.0901693 -0.0132036 0)
(-0.0880894 -0.0154399 0)
(-0.0856717 -0.0175684 0)
(-0.0829314 -0.019564 0)
(-0.0798871 -0.0214015 0)
(-0.0765611 -0.0230571 0)
(-0.072979 -0.0245081 0)
(-0.0691695 -0.0257335 0)
(-0.0651648 -0.0267148 0)
(-0.0609994 -0.0274362 0)
(-0.0567107 -0.0278852 0)
(-0.0523379 -0.0280528 0)
(-0.0479217 -0.0279342 0)
(-0.0435038 -0.0275289 0)
(-0.0391263 -0.0268412 0)
(-0.0348311 -0.02588 0)
(-0.030659 -0.0246596 0)
(-0.0266489 -0.0231991 0)
(-0.0228376 -0.0215228 0)
(-0.0192586 -0.0196601 0)
(-0.0159415 -0.0176455 0)
(-0.0129115 -0.0155182 0)
(-0.010189 -0.0133222 0)
(-0.00778844 -0.0111061 0)
(-0.00571887 -0.00892309 0)
(-0.00398311 -0.00683062 0)
(-0.00257803 -0.00489057 0)
(-0.00149392 -0.00316915 0)
(-0.000714223 -0.00173674 0)
(-0.000225253 -0.000667631 0)
(-2.62568e-05 -4.35525e-05 0)
(-8.56113e-05 0.00123355 0)
(-0.000576028 0.00388302 0)
(-0.00164128 0.00660682 0)
(-0.00317514 0.00932178 0)
(-0.00511655 0.0119646 0)
(-0.00742865 0.0144857 0)
(-0.0100739 0.0168474 0)
(-0.0130155 0.0190227 0)
(-0.0162182 0.0209937 0)
(-0.019649 0.0227492 0)
(-0.0232761 0.0242839 0)
(-0.027069 0.0255966 0)
(-0.0309985 0.0266895 0)
(-0.0350364 0.0275663 0)
(-0.0391556 0.0282323 0)
(-0.0433298 0.0286932 0)
(-0.0475335 0.0289548 0)
(-0.0517417 0.0290225 0)
(-0.0559302 0.0289011 0)
(-0.0600749 0.0285948 0)
(-0.0641524 0.0281071 0)
(-0.0681394 0.0274409 0)
(-0.072013 0.0265988 0)
(-0.0757502 0.0255828 0)
(-0.0793288 0.0243953 0)
(-0.0827264 0.0230386 0)
(-0.0859212 0.0215157 0)
(-0.0888918 0.0198304 0)
(-0.0916174 0.0179872 0)
(-0.0940778 0.0159924 0)
(-0.0962536 0.0138535 0)
(-0.0981267 0.0115797 0)
(-0.0996799 0.0091821 0)
(-0.100898 0.00667379 0)
(-0.101766 0.00406989 0)
(-0.102273 0.00138759 0)
(-0.102409 -0.00135386 0)
(-0.102166 -0.00413321 0)
(-0.101538 -0.00692736 0)
(-0.100525 -0.00971148 0)
(-0.0991273 -0.0124593 0)
(-0.0973483 -0.0151433 0)
(-0.095196 -0.0177352 0)
(-0.0926815 -0.0202061 0)
(-0.0898196 -0.022527 0)
(-0.0866287 -0.0246696 0)
(-0.0831311 -0.0266061 0)
(-0.0793528 -0.0283105 0)
(-0.0753233 -0.0297584 0)
(-0.0710754 -0.0309283 0)
(-0.0666453 -0.0318016 0)
(-0.0620716 -0.0323633 0)
(-0.0573956 -0.0326026 0)
(-0.0526603 -0.0325132 0)
(-0.0479101 -0.0320939 0)
(-0.04319 -0.0313486 0)
(-0.0385449 -0.0302871 0)
(-0.0340191 -0.0289247 0)
(-0.0296551 -0.0272827 0)
(-0.0254933 -0.025388 0)
(-0.021571 -0.0232736 0)
(-0.0179214 -0.0209781 0)
(-0.0145735 -0.0185455 0)
(-0.0115512 -0.016025 0)
(-0.00887249 -0.0134711 0)
(-0.00654971 -0.0109428 0)
(-0.00458886 -0.00850378 0)
(-0.0029898 -0.00622205 0)
(-0.00174555 -0.00416966 0)
(-0.000841873 -0.00242238 0)
(-0.000268814 -0.00105915 0)
(-3.23369e-05 -0.000165238 0)
(-9.42942e-05 0.00153911 0)
(-0.000631721 0.0047423 0)
(-0.00179572 0.00796694 0)
(-0.00346704 0.0111338 0)
(-0.00557627 0.0141829 0)
(-0.00808108 0.0170674 0)
(-0.010939 0.0197525 0)
(-0.0141086 0.0222135 0)
(-0.0175512 0.0244342 0)
(-0.0212307 0.0264056 0)
(-0.0251126 0.028124 0)
(-0.0291645 0.0295897 0)
(-0.0333555 0.0308059 0)
(-0.037656 0.0317779 0)
(-0.0420377 0.0325117 0)
(-0.0464735 0.0330142 0)
(-0.0509369 0.0332916 0)
(-0.0554023 0.0333501 0)
(-0.0598447 0.0331951 0)
(-0.0642395 0.032831 0)
(-0.0685626 0.0322619 0)
(-0.0727901 0.0314908 0)
(-0.0768984 0.0305206 0)
(-0.0808642 0.0293536 0)
(-0.0846643 0.0279923 0)
(-0.0882758 0.0264394 0)
(-0.0916763 0.0246983 0)
(-0.0948435 0.0227732 0)
(-0.0977559 0.0206695 0)
(-0.100392 0.0183939 0)
(-0.102733 0.015955 0)
(-0.104758 0.013363 0)
(-0.106451 0.0106305 0)
(-0.107793 0.00777203 0)
(-0.108771 0.00480444 0)
(-0.109371 0.00174694 0)
(-0.109582 -0.00137897 0)
(-0.109395 -0.00454956 0)
(-0.108804 -0.00773902 0)
(-0.107807 -0.0109196 0)
(-0.106402 -0.0140618 0)
(-0.104593 -0.0171347 0)
(-0.102386 -0.0201066 0)
(-0.0997916 -0.0229448 0)
(-0.0968241 -0.0256167 0)
(-0.0935015 -0.0280899 0)
(-0.0898456 -0.0303329 0)
(-0.0858825 -0.0323159 0)
(-0.0816422 -0.0340109 0)
(-0.0771581 -0.0353929 0)
(-0.0724676 -0.0364402 0)
(-0.0676109 -0.037135 0)
(-0.0626311 -0.0374642 0)
(-0.0575737 -0.0374198 0)
(-0.0524856 -0.0369993 0)
(-0.047415 -0.0362065 0)
(-0.0424101 -0.035051 0)
(-0.037519 -0.0335495 0)
(-0.032788 -0.0317249 0)
(-0.0282616 -0.029607 0)
(-0.0239812 -0.0272321 0)
(-0.0199841 -0.0246429 0)
(-0.0163036 -0.0218884 0)
(-0.0129675 -0.0190232 0)
(-0.00999765 -0.0161075 0)
(-0.00741013 -0.0132066 0)
(-0.00521439 -0.0103906 0)
(-0.0034135 -0.00773374 0)
(-0.00200333 -0.00531419 0)
(-0.000971895 -0.00321335 0)
(-0.000312798 -0.00151513 0)
(-3.83519e-05 -0.000308772 0)
(-0.000102618 0.00187244 0)
(-0.000685238 0.00567717 0)
(-0.00194433 0.00944318 0)
(-0.00374824 0.0130956 0)
(-0.00601963 0.0165785 0)
(-0.00871092 0.0198488 0)
(-0.0117748 0.0228748 0)
(-0.0151656 0.0256349 0)
(-0.0188411 0.0281157 0)
(-0.022762 0.0303105 0)
(-0.0268916 0.0322176 0)
(-0.0311953 0.0338395 0)
(-0.0356405 0.0351809 0)
(-0.0401965 0.0362485 0)
(-0.0448338 0.0370498 0)
(-0.0495242 0.0375924 0)
(-0.0542408 0.0378836 0)
(-0.0589571 0.0379303 0)
(-0.0636477 0.0377383 0)
(-0.0682874 0.0373127 0)
(-0.0728517 0.0366577 0)
(-0.0773162 0.0357768 0)
(-0.0816568 0.0346729 0)
(-0.0858496 0.0333487 0)
(-0.089871 0.031807 0)
(-0.0936977 0.0300507 0)
(-0.0973063 0.0280835 0)
(-0.100674 0.02591 0)
(-0.103779 0.0235363 0)
(-0.106599 0.0209697 0)
(-0.109113 0.0182196 0)
(-0.111302 0.0152975 0)
(-0.113145 0.012217 0)
(-0.114626 0.0089942 0)
(-0.115728 0.00564765 0)
(-0.116437 0.00219851 0)
(-0.116741 -0.00132956 0)
(-0.116629 -0.00491038 0)
(-0.116094 -0.00851541 0)
(-0.115132 -0.0121139 0)
(-0.113739 -0.0156733 0)
(-0.11192 -0.0191592 0)
(-0.109677 -0.0225361 0)
(-0.107022 -0.0257676 0)
(-0.103966 -0.028817 0)
(-0.100527 -0.031648 0)
(-0.096727 -0.034225 0)
(-0.0925912 -0.0365139 0)
(-0.0881497 -0.0384828 0)
(-0.0834367 -0.0401029 0)
(-0.0784904 -0.0413489 0)
(-0.0733524 -0.0421998 0)
(-0.0680679 -0.0426399 0)
(-0.0626846 -0.0426588 0)
(-0.0572522 -0.0422527 0)
(-0.0518222 -0.0414242 0)
(-0.0464466 -0.0401832 0)
(-0.0411771 -0.0385469 0)
(-0.0360646 -0.0365401 0)
(-0.0311579 -0.0341949 0)
(-0.0265029 -0.0315511 0)
(-0.0221418 -0.0286556 0)
(-0.0181122 -0.0255621 0)
(-0.0144465 -0.0223309 0)
(-0.0111711 -0.0190283 0)
(-0.00830585 -0.015726 0)
(-0.00586407 -0.0125005 0)
(-0.00385231 -0.00943298 0)
(-0.00226935 -0.00660793 0)
(-0.00110547 -0.00411286 0)
(-0.000357678 -0.00203706 0)
(-4.43922e-05 -0.00047442 0)
(-0.000110583 0.00223241 0)
(-0.000736519 0.00668468 0)
(-0.00208686 0.0110311 0)
(-0.00401815 0.0152019 0)
(-0.00644553 0.0191454 0)
(-0.00931645 0.0228231 0)
(-0.012579 0.0262071 0)
(-0.0161834 0.0292797 0)
(-0.0200839 0.0320306 0)
(-0.0242383 0.0344561 0)
(-0.0286076 0.0365572 0)
(-0.0331552 0.0383386 0)
(-0.0378469 0.0398071 0)
(-0.0426506 0.040971 0)
(-0.047536 0.0418394 0)
(-0.052474 0.0424211 0)
(-0.0574369 0.0427245 0)
(-0.062398 0.042757 0)
(-0.0673311 0.0425254 0)
(-0.0722108 0.042035 0)
(-0.0770121 0.0412906 0)
(-0.0817103 0.0402959 0)
(-0.086281 0.039054 0)
(-0.0906999 0.0375679 0)