/*--------------------------------*- C++ -*----------------------------------*\
  =========                 |
  \\      /  F ield         | OpenFOAM: The Open Source CFD Toolbox
   \\    /   O peration     | Website:  https://openfoam.org
    \\  /    A nd           | Version:  dev
     \\/     M anipulation  |
\*---------------------------------------------------------------------------*/
FoamFile
{
    format      ascii;
    class       volScalarField;
    location    "22.05";
    object      Uy;
}
// * * * * * * * * * * * * * * * * * * * * * * * * * * * * * * * * * * * * * //

dimensions      [0 1 -1 0 0 0 0];

internalField   nonuniform List<scalar> 
5184
(
-1.27184e-05
-2.08779e-05
-1.7229e-05
-8.17947e-06
2.67983e-06
1.36207e-05
2.38421e-05
3.30366e-05
4.10868e-05
4.79988e-05
5.38341e-05
5.86776e-05
6.26214e-05
6.57568e-05
6.81686e-05
6.9932e-05
7.11113e-05
7.17589e-05
7.19154e-05
7.16107e-05
7.08639e-05
6.96856e-05
6.80788e-05
6.60404e-05
6.35634e-05
6.06379e-05
5.72534e-05
5.34004e-05
4.90719e-05
4.42648e-05
3.89817e-05
3.32316e-05
2.70319e-05
2.04085e-05
1.33969e-05
6.04303e-06
-1.59728e-06
-9.45761e-06
-1.74615e-05
-2.55232e-05
-3.35484e-05
-4.14357e-05
-4.90779e-05
-5.63644e-05
-6.31824e-05
-6.94202e-05
-7.49692e-05
-7.97264e-05
-8.35974e-05
-8.64985e-05
-8.83591e-05
-8.9124e-05
-8.8755e-05
-8.72324e-05
-8.45556e-05
-8.07441e-05
-7.58369e-05
-6.98928e-05
-6.29893e-05
-5.52223e-05
-4.67057e-05
-3.75723e-05
-2.79769e-05
-1.81015e-05
-8.17153e-06
1.51806e-06
1.05448e-05
1.82721e-05
2.36893e-05
2.51067e-05
1.98389e-05
6.24486e-06
-4.58723e-05
-6.56484e-05
-4.04856e-05
7.68776e-06
6.56977e-05
0.000125968
0.000184228
0.000238229
0.000286836
0.000329607
0.000366504
0.000397715
0.000423552
0.000444382
0.000460582
0.00047251
0.000480488
0.000484792
0.000485645
0.000483218
0.000477633
0.000468966
0.000457256
0.000442512
0.000424722
0.000403863
0.000379911
0.000352849
0.000322678
0.000289424
0.000253147
0.000213951
0.000171984
0.000127451
8.06089e-05
3.17778e-05
-1.86644e-05
-7.028e-05
-0.000122575
-0.000175001
-0.000226967
-0.000277839
-0.000326959
-0.000373646
-0.000417219
-0.000457002
-0.000492342
-0.000522627
-0.000547295
-0.000565853
-0.000577887
-0.000583078
-0.00058121
-0.000572181
-0.000556005
-0.000532821
-0.000502892
-0.000466607
-0.00042448
-0.000377151
-0.000325386
-0.00027009
-0.000212322
-0.000153333
-9.46322e-05
-3.80976e-05
1.38156e-05
5.78032e-05
8.9277e-05
0.000101747
8.64482e-05
3.64703e-05
-8.12354e-05
-9.48934e-05
-1.90009e-05
0.000106003
0.000254629
0.000410452
0.000563169
0.00070665
0.000837451
0.000953869
0.00105531
0.00114187
0.00121406
0.0012726
0.00131832
0.00135205
0.00137454
0.00138647
0.00138841
0.0013808
0.00136397
0.00133814
0.00130343
0.00125992
0.00120761
0.00114649
0.00107656
0.000997821
0.000910346
0.000814272
0.000709829
0.000597364
0.000477348
0.000350395
0.000217271
7.88973e-05
-6.36467e-05
-0.000209127
-0.000356163
-0.000503237
-0.000648717
-0.000790871
-0.000927899
-0.00105796
-0.00117921
-0.00128982
-0.00138804
-0.00147223
-0.0015409
-0.00159272
-0.00162659
-0.00164169
-0.00163744
-0.00161359
-0.0015702
-0.00150769
-0.00142678
-0.00132859
-0.00121456
-0.00108648
-0.000946539
-0.000797293
-0.000641749
-0.000483433
-0.00032654
-0.000176154
-3.85858e-05
7.81524e-05
0.000163771
0.000205114
0.000186083
9.03223e-05
-9.76214e-05
-7.29478e-05
8.49384e-05
0.000318389
0.000589937
0.000873984
0.00115352
0.00141776
0.00166025
0.00187745
0.00206782
0.00223111
0.00236786
0.00247913
0.00256618
0.00263034
0.0026729
0.00269499
0.00269761
0.00268154
0.00264738
0.00259555
0.00252634
0.00243988
0.00233628
0.00221556
0.00207778
0.00192306
0.00175161
0.00156376
0.00136005
0.00114121
0.000908212
0.000662295
0.000404971
0.000138038
-0.000136417
-0.000416026
-0.000698157
-0.000979937
-0.00125828
-0.00152994
-0.00179153
-0.00203962
-0.00227077
-0.00248159
-0.00266884
-0.00282946
-0.00296069
-0.00306011
-0.00312568
-0.00315588
-0.00314967
-0.00310661
-0.00302685
-0.00291117
-0.00276099
-0.00257841
-0.0023662
-0.00212779
-0.00186733
-0.00158971
-0.00130065
-0.0010068
-0.000715973
-0.000437438
-0.000182328
3.57583e-05
0.000200114
0.000290359
0.000282211
0.000147143
-8.42583e-05
2.11073e-05
0.000295555
0.000667911
0.00109041
0.00152917
0.00196078
0.00236977
0.00274645
0.00308517
0.00338318
0.00363965
0.00385504
0.00403061
0.00416799
0.00426902
0.00433549
0.00436903
0.00437109
0.00434281
0.00428512
0.00419868
0.00408393
0.00394119
0.00377064
0.00357244
0.00334677
0.00309391
0.00281431
0.00250862
0.0021778
0.00182311
0.00144619
0.00104911
0.000634335
0.000204782
-0.000236191
-0.000684801
-0.00113686
-0.00158783
-0.00203283
-0.00246677
-0.00288434
-0.00328017
-0.00364889
-0.00398523
-0.00428412
-0.00454085
-0.00475109
-0.0049111
-0.00501775
-0.00506865
-0.00506222
-0.0049978
-0.00487563
-0.00469697
-0.00446408
-0.00418029
-0.00384997
-0.00347857
-0.00307267
-0.00263997
-0.00218949
-0.0017316
-0.00127836
-0.000843795
-0.000444385
-9.96725e-05
0.000167022
0.000327981
0.000350486
0.000193926
-3.73719e-05
0.000197529
0.000626866
0.00116996
0.00177092
0.00238892
0.00299493
0.00356918
0.00409883
0.00457614
0.00499702
0.00536
0.00566531
0.00591432
0.00610901
0.00625164
0.0063445
0.00638971
0.00638915
0.00634437
0.00625662
0.00612682
0.00595565
0.00574357
0.00549095
0.00519809
0.00486539
0.00449337
0.0040828
0.00363476
0.00315074
0.0026327
0.0020831
0.00150501
0.000902046
0.000278472
-0.000360857
-0.00101049
-0.00166444
-0.0023162
-0.00295885
-0.00358512
-0.00418753
-0.00475847
-0.00529035
-0.00577573
-0.00620748
-0.00657895
-0.00688407
-0.00711755
-0.00727499
-0.00735304
-0.00734948
-0.00726336
-0.00709506
-0.00684637
-0.00652051
-0.00612219
-0.00565766
-0.00513468
-0.00456257
-0.0039523
-0.00331658
-0.00266997
-0.00202919
-0.00141342
-0.000844768
-0.000348906
4.42152e-05
0.000299677
0.000376689
0.000224237
4.42283e-05
0.000461313
0.00108677
0.00183393
0.00264098
0.00346173
0.00426259
0.00502012
0.00571874
0.00634878
0.00690491
0.00738498
0.00778901
0.00811842
0.00837548
0.00856286
0.00868329
0.00873937
0.0087334
0.00866734
0.00854275
0.00836085
0.00812254
0.00782851
0.00747932
0.0070755
0.00661768
0.00610673
0.00554381
0.00493055
0.00426909
0.00356219
0.00281331
0.00202665
0.00120719
0.000360696
-0.000506269
-0.00138638
-0.0022716
-0.00315326
-0.00402212
-0.00486854
-0.00568258
-0.00645414
-0.00717318
-0.00782986
-0.00841476
-0.00891905
-0.00933473
-0.00965478
-0.00987339
-0.00998608
-0.00998992
-0.00988363
-0.00966769
-0.00934444
-0.00891816
-0.0083951
-0.00778351
-0.00709369
-0.00633802
-0.005531
-0.00468935
-0.00383215
-0.00298106
-0.00216068
-0.00139889
-0.000727541
-0.000183081
0.000192707
0.000351731
0.000234649
0.000160535
0.000814321
0.00167904
0.0026648
0.00370596
0.00475253
0.00576752
0.00672467
0.0076062
0.00840086
0.00910232
0.00970786
0.0102173
0.0106322
0.010955
0.0111889
0.0113369
0.0114022
0.0113874
0.0112949
0.0111265
0.0108838
0.010568
0.0101799
0.00972042
0.00919025
0.00859037
0.00792203
0.00718691
0.00638722
0.00552589
0.00460659
0.0036339
0.0026133
0.00155125
0.000455216
-0.00066638
-0.00180415
-0.00294785
-0.0040864
-0.0052081
-0.00630069
-0.00735155
-0.00834793
-0.00927708
-0.0101266
-0.0108844
-0.0115395
-0.0120817
-0.012502
-0.012793
-0.0129491
-0.0129664
-0.0128433
-0.0125804
-0.0121804
-0.0116488
-0.0109934
-0.0102246
-0.00935545
-0.00840151
-0.00738106
-0.00631506
-0.00522732
-0.00414469
-0.00309726
-0.00211882
-0.0012473
-0.000525477
-1.52212e-06
0.000270053
0.000223461
0.000310912
0.00125646
0.00240464
0.00366444
0.00496817
0.00626355
0.00751135
0.00868341
0.00976043
0.01073
0.0115852
0.0123229
0.0129428
0.0134467
0.0138374
0.0141183
0.0142931
0.0143651
0.0143375
0.0142131
0.0139941
0.0136822
0.0132788
0.0127852
0.0122024
0.0115314
0.0107737
0.00993083
0.00900508
0.00799937
0.00691746
0.00576405
0.0045449
0.00326693
0.00193818
0.000567937
-0.000833363
-0.00225414
-0.00368175
-0.0051026
-0.00650231
-0.00786583
-0.00917772
-0.0104223
-0.011584
-0.0126476
-0.0135983
-0.0144225
-0.0151077
-0.0156429
-0.0160188
-0.0162285
-0.0162671
-0.0161325
-0.0158251
-0.0153483
-0.0147086
-0.0139155
-0.0129816
-0.0119227
-0.0107578
-0.00950893
-0.00820161
-0.00686451
-0.00552976
-0.0042331
-0.0030142
-0.00191703
-0.000990428
-0.000288526
0.000128552
0.000190022
0.000494454
0.00178649
0.00326268
0.00483246
0.00642759
0.00799481
0.00949383
0.0108955
0.0121797
0.0133334
0.0143495
0.0152247
0.015959
0.0165543
0.0170139
0.0173415
0.0175413
0.0176172
0.0175727
0.0174108
0.0171342
0.0167448
0.0162444
0.0156345
0.0149162
0.0140911
0.0131609
0.0121277
0.0109944
0.00976462
0.00844306
0.00703552
0.00554904
0.00399201
0.00237421
0.000706796
-0.000997657
-0.00272525
-0.00446085
-0.00618819
-0.00789006
-0.0095485
-0.011145
-0.012661
-0.0140776
-0.0153768
-0.0165408
-0.0175532
-0.018399
-0.0190649
-0.0195397
-0.0198148
-0.0198843
-0.0197452
-0.0193979
-0.0188463
-0.0180978
-0.0171636
-0.0160584
-0.0148009
-0.0134135
-0.0119225
-0.0103577
-0.00875285
-0.00714548
-0.00557705
-0.00409312
-0.00274364
-0.00158331
-0.000671843
-7.43843e-05
0.000134253
0.000710128
0.0024025
0.00425107
0.00616689
0.0080824
0.00994456
0.0117131
0.0133586
0.014861
0.0162075
0.0173907
0.018408
0.0192596
0.0199479
0.0204766
0.0208501
0.0210728
0.0211493
0.0210835
0.0208786
0.0205378
0.0200632
0.0194568
0.0187204
0.0178555
0.016864
0.0157479
0.0145099
0.0131535
0.0116832
0.0101045
0.00842447
0.00665143
0.00479532
0.00286767
0.00088164
-0.00114802
-0.003205
-0.00527156
-0.00732868
-0.00935619
-0.0113331
-0.0132377
-0.0150482
-0.0167426
-0.0182994
-0.019698
-0.0209188
-0.0219442
-0.0227582
-0.0233475
-0.0237017
-0.0238134
-0.023679
-0.0232984
-0.0226759
-0.0218197
-0.0207424
-0.0194613
-0.0179977
-0.0163775
-0.0146311
-0.012793
-0.0109019
-0.00900106
-0.00713754
-0.00536289
-0.00373299
-0.00230831
-0.00115391
-0.000339591
5.63224e-05
0.000956857
0.00310219
0.00536692
0.00766463
0.00992947
0.0121096
0.0141657
0.0160692
0.0178007
0.0193478
0.020704
0.0218673
0.0228385
0.0236207
0.0242183
0.0246363
0.0248797
0.0249534
0.0248619
0.0246088
0.0241974
0.0236303
0.0229098
0.0220377
0.0210161
0.0198469
0.0185328
0.0170769
0.0154835
0.0137576
0.011906
0.00993663
0.00785937
0.00568567
0.00342887
0.00110412
-0.00127156
-0.00367944
-0.00609908
-0.00850861
-0.0108848
-0.0132036
-0.0154399
-0.0175684
-0.019564
-0.0214015
-0.0230571
-0.0245081
-0.0257335
-0.0267148
-0.0274362
-0.0278852
-0.0280528
-0.0279342
-0.0275289
-0.0268412
-0.02588
-0.0246596
-0.0231991
-0.0215228
-0.0196601
-0.0176455
-0.0155182
-0.0133222
-0.0111061
-0.00892309
-0.00683062
-0.00489057
-0.00316915
-0.00173674
-0.000667631
-4.35525e-05
0.00123355
0.00388302
0.00660682
0.00932178
0.0119646
0.0144857
0.0168474
0.0190227
0.0209937
0.0227492
0.0242839
0.0255966
0.0266895
0.0275663
0.0282323
0.0286932
0.0289548
0.0290225
0.0289011
0.0285948
0.0281071
0.0274409
0.0265988
0.0255828
0.0243953
0.0230386
0.0215157
0.0198304
0.0179872
0.0159924
0.0138535
0.0115797
0.0091821
0.00667379
0.00406989
0.00138759
-0.00135386
-0.00413321
-0.00692736
-0.00971148
-0.0124593
-0.0151433
-0.0177352
-0.0202061
-0.022527
-0.0246696
-0.0266061
-0.0283105
-0.0297584
-0.0309283
-0.0318016
-0.0323633
-0.0326026
-0.0325132
-0.0320939
-0.0313486
-0.0302871
-0.0289247
-0.0272827
-0.025388
-0.0232736
-0.0209781
-0.0185455
-0.016025
-0.0134711
-0.0109428
-0.00850378
-0.00622205
-0.00416966
-0.00242238
-0.00105915
-0.000165238
0.00153911
0.0047423
0.00796694
0.0111338
0.0141829
0.0170674
0.0197525
0.0222135
0.0244342
0.0264056
0.028124
0.0295897
0.0308059
0.0317779
0.0325117
0.0330142
0.0332916
0.0333501
0.0331951
0.032831
0.0322619
0.0314908
0.0305206
0.0293536
0.0279923
0.0264394
0.0246983
0.0227732
0.0206695
0.0183939
0.015955
0.013363
0.0106305
0.00777203
0.00480444
0.00174694
-0.00137897
-0.00454956
-0.00773902
-0.0109196
-0.0140618
-0.0171347
-0.0201066
-0.0229448
-0.0256167
-0.0280899
-0.0303329
-0.0323159
-0.0340109
-0.0353929
-0.0364402
-0.037135
-0.0374642
-0.0374198
-0.0369993
-0.0362065
-0.035051
-0.0335495
-0.0317249
-0.029607
-0.0272321
-0.0246429
-0.0218884
-0.0190232
-0.0161075
-0.0132066
-0.0103906
-0.00773374
-0.00531419
-0.00321335
-0.00151513
-0.000308772
0.00187244
0.00567717
0.00944318
0.0130956
0.0165785
0.0198488
0.0228748
0.0256349
0.0281157
0.0303105
0.0322176
0.0338395
0.0351809
0.0362485
0.0370498
0.0375924
0.0378836
0.0379303
0.0377383
0.0373127
0.0366577
0.0357768
0.0346729
0.0333487
0.031807
0.0300507
0.0280835
0.02591
0.0235363
0.0209697
0.0182196
0.0152975
0.012217
0.0089942
0.00564765
0.00219851
-0.00132956
-0.00491038
-0.00851541
-0.0121139
-0.0156733
-0.0191592
-0.0225361
-0.0257676
-0.028817
-0.031648
-0.034225
-0.0365139
-0.0384828
-0.0401029
-0.0413489
-0.0421998
-0.0426399
-0.0426588
-0.0422527
-0.0414242
-0.0401832
-0.0385469
-0.0365401
-0.0341949
-0.0315511
-0.0286556
-0.0255621
-0.0223309
-0.0190283
-0.015726
-0.0125005
-0.00943298
-0.00660793
-0.00411286
-0.00203706
-0.00047442
0.00223241
0.00668468
0.0110311
0.0152019
0.0191454
0.0228231
0.0262071
0.0292797
0.0320306
0.0344561
0.0365572
0.0383386
0.0398071
0.040971
0.0418394
0.0424211
0.0427245
0.042757
0.0425254
0.042035
0.0412906
0.0402959
0.039054
0.0375679
0.0358404
0.0338748
0.031675
0.0292461
0.0265945
0.0237284
0.0206577
0.017395
0.0139551
0.0103553
0.00661589
0.00275984
-0.00118705
-0.00519624
-0.00923654
-0.0132743
-0.0172736
-0.0211967
-0.0250042
-0.028656
-0.0321111
-0.0353287
-0.0382689
-0.0408932
-0.0431654
-0.0450522
-0.0465244
-0.0475574
-0.0481321
-0.0482355
-0.0478618
-0.0470122
-0.0456962
-0.0439315
-0.0417442
-0.0391688
-0.0362482
-0.0330336
-0.0295836
-0.0259643
-0.0222481
-0.0185136
-0.0148443
-0.0113283
-0.00805723
-0.00512503
-0.0026271
-0.000662719
0.00261786
0.00776172
0.0127261
0.0174466
0.0218767
0.0259827
0.0297417
0.0331397
0.0361706
0.0388341
0.0411344
0.0430787
0.0446763
0.0459376
0.0468731
0.0474933
0.0478075
0.0478244
0.047551
0.0469936
0.0461572
0.0450457
0.0436625
0.0420108
0.0400936
0.0379143
0.0354771
0.0327874
0.0298519
0.0266792
0.0232803
0.0196683
0.015859
0.0118712
0.00772646
0.00344956
-0.000931735
-0.00538659
-0.00988121
-0.0143791
-0.018841
-0.0232259
-0.0274904
-0.0315903
-0.0354803
-0.039115
-0.0424498
-0.0454414
-0.0480486
-0.0502337
-0.0519626
-0.0532067
-0.0539429
-0.0541551
-0.0538347
-0.0529813
-0.0516034
-0.0497186
-0.0473542
-0.0445466
-0.0413421
-0.0377957
-0.0339714
-0.0299408
-0.0257832
-0.0215841
-0.0174344
-0.0134299
-0.00966971
-0.00625505
-0.00328811
-0.0008745
0.00302759
0.00890506
0.0145232
0.0198235
0.0247651
0.0293198
0.0334698
0.037206
0.0405267
0.0434355
0.0459402
0.048051
0.0497799
0.0511397
0.0521429
0.0528013
0.0531258
0.0531259
0.0528097
0.0521838
0.0512536
0.0500235
0.0484971
0.0466776
0.0445681
0.0421723
0.0394944
0.03654
0.0333162
0.029832
0.0260988
0.0221305
0.0179437
0.0135584
0.0089974
0.00428705
-0.000543007
-0.0054598
-0.0104271
-0.0154054
-0.0203526
-0.0252239
-0.0299722
-0.034549
-0.0389044
-0.0429883
-0.0467511
-0.0501441
-0.053121
-0.0556386
-0.057658
-0.0591454
-0.0600734
-0.060422
-0.0601792
-0.0593423
-0.0579183
-0.0559242
-0.0533879
-0.0503479
-0.0468531
-0.0429627
-0.0387458
-0.0342801
-0.0296518
-0.0249537
-0.020285
-0.0157495
-0.0114545
-0.00750928
-0.00402377
-0.00111091
0.00346036
0.0101112
0.0164172
0.0223259
0.0278028
0.0328257
0.0373823
0.0414691
0.0450891
0.0482504
0.0509646
0.0532457
0.0551085
0.0565684
0.05764
0.0583371
0.0586718
0.0586549
0.0582952
0.0576002
0.0565757
0.0552263
0.0535558
0.0515676
0.0492648
0.0466512
0.043731
0.0405099
0.0369952
0.0331962
0.0291246
0.0247948
0.0202243
0.0154337
0.0104471
0.00529225
4.1462e-07
-0.00539343
-0.0108507
-0.0163293
-0.021784
-0.0271664
-0.0324256
-0.0375087
-0.0423612
-0.046928
-0.0511539
-0.0549848
-0.0583686
-0.0612561
-0.0636028
-0.0653694
-0.0665231
-0.0670393
-0.066902
-0.0661053
-0.0646541
-0.0625643
-0.0598639
-0.0565928
-0.0528026
-0.0485566
-0.0439289
-0.0390036
-0.0338739
-0.0286409
-0.0234122
-0.0183005
-0.0134221
-0.0088953
-0.0048386
-0.00137342
0.00391482
0.0113767
0.0184025
0.0249467
0.0309815
0.036491
0.0414693
0.0459185
0.0498471
0.053268
0.0561972
0.0586524
0.0606519
0.0622137
0.0633551
0.0640916
0.0644371
0.0644036
0.0640009
0.0632372
0.0621187
0.0606504
0.0588363
0.0566799
0.0541842
0.051353
0.0481906
0.0447026
0.0408962
0.0367809
0.0323687
0.0276742
0.0227154
0.0175137
0.012094
0.00648527
0.000720192
-0.00516446
-0.011128
-0.0171257
-0.0231094
-0.0290272
-0.0348245
-0.0404439
-0.0458262
-0.0509108
-0.0556369
-0.0599444
-0.0637748
-0.0670728
-0.0697871
-0.0718722
-0.0732893
-0.0740082
-0.0740082
-0.0732794
-0.0718234
-0.0696547
-0.0668006
-0.0633021
-0.0592131
-0.0546006
-0.0495441
-0.0441342
-0.0384716
-0.032666
-0.026834
-0.0210982
-0.0155848
-0.010422
-0.00573798
-0.00166383
0.00438958
0.0126975
0.0204732
0.0276785
0.0342924
0.040306
0.0457201
0.0505432
0.0547894
0.0584769
0.0616264
0.0642597
0.0663988
0.0680649
0.0692777
0.0700551
0.0704126
0.0703636
0.0699191
0.0690878
0.0678768
0.0662912
0.0643352
0.0620123
0.0593257
0.0562788
0.0528759
0.0491223
0.0450253
0.0405943
0.0358411
0.0307807
0.0254312
0.0198145
0.0139562
0.00788606
0.00163803
-0.00474958
-0.0112341
-0.0177686
-0.024302
-0.0307791
-0.0371415
-0.0433273
-0.0492724
-0.0549108
-0.0601758
-0.0650006
-0.0693202
-0.0730719
-0.0761975
-0.0786442
-0.0803665
-0.0813276
-0.0815009
-0.0808716
-0.0794374
-0.0772102
-0.0742163
-0.0704966
-0.0661074
-0.0611192
-0.0556166
-0.0496969
-0.0434688
-0.037051
-0.0305704
-0.0241597
-0.0179564
-0.0120996
-0.00672819
-0.00198428
0.00488314
0.0140697
0.0226233
0.0305132
0.037726
0.0442602
0.0501237
0.0553314
0.0599038
0.0638647
0.0672397
0.0700553
0.0723373
0.0741102
0.0753965
0.0762166
0.0765879
0.0765253
0.0760409
0.0751443
0.0738431
0.0721428
0.0700479
0.0675617
0.0646874
0.0614282
0.0577881
0.0537723
0.0493876
0.0446433
0.0395509
0.0341254
0.0283849
0.0223514
0.016051
0.00951396
0.00277527
-0.00412556
-0.0111442
-0.0182316
-0.0253341
-0.0323933
-0.0393471
-0.0461293
-0.0526707
-0.0588996
-0.0647432
-0.0701279
-0.0749813
-0.0792331
-0.082817
-0.0856724
-0.0877457
-0.0889928
-0.0893801
-0.0888866
-0.0875054
-0.0852445
-0.0821281
-0.0781971
-0.0735088
-0.0681374
-0.0621723
-0.0557178
-0.048891
-0.0418203
-0.0346432
-0.0275041
-0.0205524
-0.0139395
-0.00781637
-0.00233727
0.00539394
0.015489
0.024846
0.0334424
0.0412725
0.0483426
0.0546679
0.0602706
0.0651774
0.0694183
0.0730241
0.0760261
0.0784543
0.0803368
0.0816992
0.0825643
0.0829517
0.0828779
0.0823562
0.0813973
0.0800092
0.0781979
0.0759681
0.073323
0.0702657
0.0667991
0.0629268
0.0586537
0.0539861
0.0489328
0.0435051
0.0377174
0.0315878
0.025138
0.0183943
0.0113873
0.00415248
-0.00326965
-0.0108334
-0.018488
-0.0261772
-0.03384
-0.0414105
-0.0488182
-0.0559891
-0.0628457
-0.0693085
-0.075297
-0.0807309
-0.0855317
-0.0896243
-0.0929391
-0.0954137
-0.0969953
-0.0976422
-0.0973261
-0.0960338
-0.0937688
-0.0905521
-0.0864232
-0.0814404
-0.0756806
-0.0692382
-0.0622246
-0.0547655
-0.0469996
-0.0390761
-0.0311521
-0.0233901
-0.0159547
-0.00901061
-0.0027256
0.0059203
0.0169508
0.0271346
0.0364572
0.0449215
0.0525415
0.0593404
0.0653475
0.0705966
0.0751236
0.0789653
0.0821579
0.0847358
0.0867309
0.0881721
0.0890849
0.0894912
0.0894091
0.0888535
0.0878359
0.086365
0.0844475
0.0820878
0.0792894
0.076055
0.0723873
0.0682895
0.0637657
0.0588218
0.0534659
0.0477087
0.041564
0.0350494
0.0281863
0.0210005
0.0135228
0.00578892
-0.00216009
-0.0102776
-0.0185112
-0.0268028
-0.0350887
-0.0432995
-0.0513608
-0.0591935
-0.0667145
-0.0738376
-0.0804749
-0.0865377
-0.0919387
-0.0965933
-0.100422
-0.103352
-0.105322
-0.106279
-0.106187
-0.105026
-0.102792
-0.0995017
-0.0951931
-0.0899241
-0.083774
-0.0768418
-0.0692457
-0.0611207
-0.0526166
-0.0438949
-0.0351264
-0.026488
-0.0181594
-0.0103199
-0.00315245
0.00646046
0.0184505
0.0294817
0.0395485
0.048662
0.0568448
0.0641278
0.0705482
0.0761467
0.0809659
0.0850484
0.0884356
0.0911666
0.0932774
0.0948004
0.0957639
0.0961922
0.0961053
0.0955195
0.0944475
0.0928988
0.0908803
0.0883969
0.0854518
0.0820476
0.0781864
0.0738709
0.0691047
0.0638929
0.0582426
0.0521639
0.0456696
0.0387765
0.0315054
0.0238815
0.0159352
0.00770207
-0.000776615
-0.00945359
-0.0182754
-0.0271824
-0.0361084
-0.0449811
-0.0537221
-0.0622477
-0.0704689
-0.0782931
-0.0856244
-0.0923657
-0.0984201
-0.103693
-0.108093
-0.111538
-0.113954
-0.115278
-0.115463
-0.11448
-0.112318
-0.108988
-0.104523
-0.0989808
-0.0924422
-0.0850104
-0.0768103
-0.0679865
-0.0587002
-0.0491265
-0.039451
-0.0298665
-0.020569
-0.011754
-0.00362134
0.00701259
0.019983
0.0318799
0.0427065
0.0524827
0.0612396
0.0690163
0.075858
0.0818126
0.0869294
0.0912573
0.094843
0.0977306
0.0999603
0.101568
0.102585
0.103039
0.102951
0.102339
0.101218
0.0995965
0.0974832
0.0948829
0.0917986
0.0882328
0.084187
0.0796633
0.0746645
0.0691947
0.0632603
0.0568699
0.0500356
0.042773
0.0351018
0.0270465
0.0186365
0.00990698
0.00089898
-0.00834008
-0.0177561
-0.0272882
-0.0368684
-0.0464217
-0.0558661
-0.0651134
-0.0740693
-0.0826341
-0.0907045
-0.0981742
-0.104937
-0.110886
-0.115919
-0.119942
-0.122867
-0.124619
-0.125141
-0.12439
-0.122347
-0.119016
-0.114425
-0.108629
-0.101708
-0.0937708
-0.0849477
-0.0753931
-0.0652806
-0.0547997
-0.0441519
-0.0335475
-0.0232002
-0.0133238
-0.00413611
0.00757475
0.0215432
0.0343213
0.0459213
0.0563718
0.0657127
0.0739917
0.0812617
0.0875784
0.0929978
0.0975752
0.101363
0.10441
0.106762
0.108458
0.109532
0.110014
0.109929
0.109296
0.10813
0.106442
0.104241
0.101531
0.0983157
0.0945974
0.0903769
0.0856556
0.0804353
0.0747192
0.0685124
0.0618224
0.0546599
0.0470392
0.0389785
0.0305012
0.0216356
0.0124158
0.00288222
-0.00691797
-0.0169306
-0.027094
-0.0373388
-0.0475879
-0.0577562
-0.0677513
-0.0774735
-0.0868169
-0.0956702
-0.103918
-0.111443
-0.118129
-0.123859
-0.128526
-0.132028
-0.134277
-0.1352
-0.134743
-0.132875
-0.12959
-0.12491
-0.118884
-0.111594
-0.103149
-0.0936867
-0.0833714
-0.072389
-0.0609442
-0.0492563
-0.0375541
-0.0260712
-0.0150408
-0.00470097
0.00814498
0.0231259
0.0367978
0.0491824
0.0603171
0.0702505
0.079039
0.0867436
0.0934274
0.0991539
0.103984
0.107978
0.111188
0.113664
0.11545
0.116584
0.117099
0.11702
0.11637
0.115165
0.113417
0.111134
0.108323
0.104986
0.101125
0.0967406
0.0918333
0.0864039
0.0804546
0.073989
0.0670133
0.0595365
0.0515713
0.0431344
0.0342475
0.0249375
0.015237
0.00518534
-0.00517114
-0.0157786
-0.0265753
-0.037491
-0.0484469
-0.0593556
-0.0701207
-0.080638
-0.0907951
-0.100473
-0.109548
-0.117891
-0.125374
-0.131867
-0.137247
-0.141399
-0.144217
-0.145613
-0.145519
-0.143889
-0.140705
-0.135979
-0.129757
-0.122116
-0.113168
-0.103055
-0.0919518
-0.0800567
-0.067591
-0.0547927
-0.041911
-0.029201
-0.0169175
-0.00532046
0.00872122
0.0247255
0.0393013
0.0524793
0.0643061
0.0748391
0.084143
0.0922873
0.0993426
0.10538
0.110467
0.114668
0.118043
0.120646
0.122526
0.123723
0.124273
0.124205
0.123542
0.122303
0.1205
0.118144
0.115239
0.111789
0.107796
0.103259
0.0981783
0.0925534
0.0863851
0.0796758
0.0724299
0.0646548
0.0563612
0.0475641
0.038283
0.028543
0.018375
0.00781664
-0.00308706
-0.0142833
-0.0257106
-0.0372987
-0.0489677
-0.0606283
-0.0721813
-0.0835179
-0.0945201
-0.105062
-0.115009
-0.124224
-0.132565
-0.139888
-0.146055
-0.150932
-0.154398
-0.156346
-0.15669
-0.155368
-0.152349
-0.147633
-0.141255
-0.13329
-0.123849
-0.11308
-0.101164
-0.0883155
-0.0747716
-0.0607905
-0.0466439
-0.0326099
-0.0189672
-0.00599946
0.00930142
0.0263366
0.0418233
0.0558014
0.0683262
0.0794641
0.0892882
0.0978761
0.105306
0.111657
0.117002
0.121414
0.124956
0.127688
0.129663
0.130925
0.131513
0.131459
0.130788
0.129519
0.127669
0.125245
0.122256
0.118703
0.114588
0.10991
0.104669
0.0988628
0.0924909
0.0855542
0.0780554
0.0699998
0.0613962
0.0522573
0.0426004
0.0324482
0.0218295
0.0107799
-0.00065751
-0.0124315
-0.0244817
-0.0367383
-0.0491213
-0.0615401
-0.0738932
-0.0860682
-0.0979422
-0.109382
-0.120246
-0.130384
-0.139641
-0.147862
-0.154889
-0.160571
-0.164768
-0.167353
-0.168219
-0.167286
-0.164505
-0.15986
-0.153378
-0.145125
-0.13521
-0.123783
-0.111037
-0.0971965
-0.0825177
-0.0672802
-0.0517795
-0.0363194
-0.021204
-0.0067432
0.00988348
0.0279536
0.0443554
0.0591378
0.0723648
0.0841112
0.0944588
0.103493
0.111301
0.117966
0.123572
0.128195
0.131905
0.134768
0.136839
0.138167
0.138796
0.138758
0.138082
0.13679
0.134896
0.132413
0.129346
0.125699
0.121474
0.116668
0.11128
0.105307
0.0987478
0.0916013
0.0838681
0.0755517
0.0666584
0.0571986
0.047187
0.0366438
0.0255951
0.0140739
0.00212085
-0.0102148
-0.0228747
-0.0357902
-0.0488818
-0.0620587
-0.075218
-0.0882445
-0.101011
-0.113378
-0.125196
-0.136305
-0.146537
-0.155721
-0.163682
-0.170252
-0.175267
-0.178579
-0.180058
-0.179603
-0.177143
-0.172645
-0.166119
-0.157624
-0.147262
-0.135187
-0.121597
-0.10673
-0.0908611
-0.0742925
-0.0573456
-0.0403516
-0.0236428
-0.00755724
0.0104654
0.0295711
0.0468895
0.062478
0.0764091
0.0887661
0.0996389
0.109121
0.117307
0.124289
0.130156
0.13499
0.138869
0.141861
0.144029
0.145425
0.146095
0.146077
0.145399
0.144086
0.142155
0.139618
0.136481
0.13275
0.128424
0.123502
0.117981
0.111857
0.105127
0.0977893
0.0898417
0.0812855
0.0721249
0.0623674
0.052025
0.0411151
0.0296606
0.0176916
0.00524586
-0.00763032
-0.0208809
-0.0344394
-0.0482278
-0.0621558
-0.0761202
-0.090004
-0.103677
-0.116994
-0.129798
-0.14192
-0.15318
-0.163391
-0.172361
-0.179901
-0.185824
-0.189959
-0.192151
-0.192271
-0.190224
-0.185958
-0.179463
-0.170782
-0.160013
-0.147306
-0.132866
-0.116944
-0.0998327
-0.0818584
-0.0633703
-0.0447295
-0.0262991
-0.00844746
0.011045
0.0311837
0.0494172
0.0658115
0.0804468
0.0934147
0.104813
0.114744
0.123308
0.130605
0.136732
0.141777
0.145824
0.148946
0.15121
0.152673
0.153385
0.153386
0.152709
0.151378
0.149414
0.146828
0.14363
0.139822
0.135406
0.130379
0.124739
0.118479
0.111597
0.104086
0.0959449
0.0871714
0.0777673
0.0677374
0.0570908
0.0458415
0.0340091
0.0216203
0.00870939
-0.0046807
-0.0184972
-0.0326763
-0.0471426
-0.0618073
-0.0765678
-0.0913067
-0.105891
-0.120173
-0.133989
-0.14716
-0.159495
-0.170793
-0.180844
-0.189436
-0.19636
-0.201418
-0.204426
-0.205228
-0.2037
-0.199762
-0.193383
-0.184587
-0.173461
-0.160151
-0.144865
-0.127865
-0.109462
-0.0900085
-0.0698822
-0.0494771
-0.0291892
-0.00942007
0.0116205
0.0327863
0.051931
0.0691282
0.0844659
0.0980432
0.109966
0.120343
0.129284
0.136896
0.14328
0.148534
0.152746
0.155995
0.158354
0.159883
0.160636
0.160657
0.15998
0.158634
0.15664
0.15401
0.150756
0.14688
0.142383
0.137264
0.131517
0.125138
0.118119
0.110455
0.102142
0.0931745
0.0835523
0.0732772
0.0623551
0.0507965
0.0386175
0.0258409
0.012497
-0.00137517
-0.0157266
-0.0304975
-0.0456153
-0.0609943
-0.0765336
-0.0921167
-0.10761
-0.122862
-0.137706
-0.151954
-0.165405
-0.177843
-0.189042
-0.198767
-0.206785
-0.212869
-0.216804
-0.218402
-0.217507
-0.214006
-0.207842
-0.199017
-0.187599
-0.173726
-0.157608
-0.139515
-0.119778
-0.0987728
-0.0769102
-0.0546186
-0.0323298
-0.0104816
0.0121901
0.034374
0.0544234
0.0724187
0.088455
0.102639
0.115083
0.125904
0.135218
0.143141
0.14978
0.155239
0.159612
0.162985
0.165435
0.167027
0.167819
0.167857
0.167181
0.165821
0.163798
0.161128
0.157822
0.153885
0.149316
0.144115
0.138275
0.13179
0.124653
0.116856
0.108392
0.0992552
0.0894414
0.0789498
0.0677829
0.0559477
0.0434564
0.0303277
0.0165875
0.00227034
-0.0125794
-0.0279062
-0.043642
-0.0597047
-0.0759966
-0.0924033
-0.108792
-0.125011
-0.140888
-0.156231
-0.17083
-0.184455
-0.196862
-0.207797
-0.217001
-0.224214
-0.229191
-0.231707
-0.231568
-0.228628
-0.222793
-0.214037
-0.202406
-0.188027
-0.171102
-0.151913
-0.130804
-0.10818
-0.0844827
-0.0601785
-0.0357384
-0.0116388
0.012752
0.0359426
0.0568877
0.0756742
0.0924034
0.107188
0.120149
0.13141
0.141093
0.149321
0.15621
0.161868
0.166397
0.169889
0.172425
0.174075
0.174902
0.174956
0.174278
0.172901
0.170851
0.168143
0.16479
0.160797
0.156164
0.15089
0.144969
0.138394
0.131155
0.123244
0.114652
0.10537
0.0953914
0.0847132
0.073334
0.0612571
0.0484907
0.035049
0.0209532
0.0062329
-0.00907266
-0.0249132
-0.0412258
-0.0579334
-0.0749426
-0.0921425
-0.109403
-0.126573
-0.143478
-0.159924
-0.175691
-0.190539
-0.204209
-0.216424
-0.226899
-0.235346
-0.241482
-0.245044
-0.245796
-0.243549
-0.238171
-0.2296
-0.217854
-0.203039
-0.18535
-0.165071
-0.142564
-0.118257
-0.0926273
-0.0661815
-0.0394326
-0.0128989
0.0133049
0.0374881
0.0593182
0.078887
0.0963018
0.111681
0.125153
0.136846
0.146892
0.155419
0.162549
0.1684
0.173078
0.176681
0.179295
0.180998
0.181853
0.181917
0.181234
0.179839
0.17776
0.175015
0.171616
0.167572
0.162882
0.157544
0.151553
0.144901
0.137577
0.129571
0.120872
0.11147
0.101355
0.0905208
0.0789631
0.0666813
0.0536792
0.0399666
0.0255597
0.0104826
-0.005231
-0.0215368
-0.038378
-0.0556832
-0.0733651
-0.0913177
-0.109415
-0.127508
-0.145425
-0.162968
-0.179912
-0.196009
-0.210983
-0.22454
-0.236369
-0.246149
-0.253562
-0.258301
-0.260085
-0.258678
-0.2539
-0.245646
-0.233899
-0.218738
-0.200343
-0.178997
-0.155074
-0.129028
-0.101371
-0.0726522
-0.0434303
-0.014269
0.0138475
0.0390075
0.0617099
0.0820507
0.100142
0.116108
0.130081
0.142199
0.152599
0.161415
0.168779
0.174812
0.17963
0.183334
0.186018
0.187764
0.188641
0.188708
0.188013
0.186596
0.184485
0.181701
0.178259
0.174165
0.169423
0.164029
0.157978
0.151261
0.143868
0.135785
0.127001
0.117504
0.10728
0.0963219
0.0846204
0.0721717
0.0589755
0.0450366
0.0303662
0.0149827
-0.00108635
-0.0178032
-0.0351177
-0.0529657
-0.0712666
-0.0899212
-0.108809
-0.127787
-0.146684
-0.165305
-0.183421
-0.200777
-0.217086
-0.232036
-0.245291
-0.2565
-0.265304
-0.271354
-0.274318
-0.273907
-0.269886
-0.2621
-0.250486
-0.235088
-0.216064
-0.19369
-0.168348
-0.140514
-0.110739
-0.0796148
-0.0477499
-0.0157569
0.014379
0.0404985
0.0640592
0.0851603
0.103917
0.12046
0.134925
0.147457
0.158199
0.167294
0.174879
0.181084
0.186028
0.189822
0.192564
0.194342
0.19523
0.195291
0.194578
0.193131
0.190983
0.188158
0.184671
0.18053
0.175739
0.170296
0.164194
0.157424
0.149975
0.141834
0.132986
0.123417
0.113114
0.102062
0.0902522
0.0776757
0.0643281
0.0502096
0.035326
0.0196899
0.00332223
-0.0137462
-0.0314727