/*--------------------------------*- C++ -*----------------------------------*\
  =========                 |
  \\      /  F ield         | OpenFOAM: The Open Source CFD Toolbox
   \\    /   O peration     | Website:  https://openfoam.org
    \\  /    A nd           | Version:  dev
     \\/     M anipulation  |
\*---------------------------------------------------------------------------*/
FoamFile
{
    format      ascii;
    class       volScalarField;
    location    "15.75";
    object      p;
}
// * * * * * * * * * * * * * * * * * * * * * * * * * * * * * * * * * * * * * //

dimensions      [0 2 -2 0 0 0 0];

internalField   nonuniform List<scalar> 
5184
(
4.20335e-07
-1.19179e-05
-9.78819e-05
-0.000250586
-0.000449672
-0.000677911
-0.000921042
-0.00116718
-0.00140717
-0.00163388
-0.00184191
-0.00202726
-0.002187
-0.00231903
-0.00242187
-0.00249454
-0.00253636
-0.00254689
-0.00252586
-0.00247311
-0.00238856
-0.00227218
-0.00212403
-0.00194426
-0.00173311
-0.00149096
-0.00121836
-0.000916045
-0.000585023
-0.000226563
0.00015775
0.000565992
0.000995874
0.00144473
0.0019095
0.00238674
0.00287264
0.00336305
0.00385349
0.00433923
0.00481533
0.00527674
0.00571835
0.00613506
0.00652196
0.00687433
0.0071878
0.00745848
0.00768297
0.00785856
0.00798323
0.00805578
0.00807585
0.00804402
0.00796176
0.00783153
0.0076567
0.00744158
0.00719137
0.00691212
0.00661066
0.0062946
0.00597223
0.00565249
0.00534492
0.00505959
0.00480699
0.00459772
0.00444175
0.00434752
0.00432052
0.00434768
1.33227e-05
6.83276e-07
-7.38798e-05
-0.000201471
-0.000366456
-0.000556354
-0.000760241
-0.000968543
-0.00117335
-0.00136828
-0.00154831
-0.00170955
-0.00184902
-0.0019645
-0.00205436
-0.0021174
-0.00215276
-0.00215985
-0.00213824
-0.00208764
-0.00200789
-0.00189889
-0.00176067
-0.00159333
-0.0013971
-0.00117235
-0.000919616
-0.000639622
-0.000333332
-1.96549e-06
0.000352971
0.000729661
0.00112596
0.00153938
0.00196708
0.00240589
0.00285229
0.00330247
0.00375233
0.00419756
0.00463368
0.00505609
0.00546015
0.0058413
0.00619508
0.00651728
0.006804
0.00705176
0.00725758
0.00741908
0.00753454
0.00760297
0.00762417
0.00759875
0.00752818
0.0074148
0.00726177
0.00707309
0.00685357
0.00660873
0.00634481
0.00606867
0.00578774
0.00550993
0.00524354
0.00499713
0.00477935
0.00459858
0.0044621
0.00437587
0.00434727
0.00437475
9.98138e-05
7.50351e-05
-2.48396e-07
-0.000117626
-0.000265077
-0.000432968
-0.0006126
-0.000796154
-0.000976946
-0.00114943
-0.00130912
-0.00145242
-0.00157654
-0.00167931
-0.00175909
-0.00181464
-0.00184504
-0.00184959
-0.00182782
-0.00177935
-0.00170395
-0.00160148
-0.00147191
-0.0013153
-0.00113185
-0.000921887
-0.000685903
-0.000424579
-0.000138816
0.000170243
0.000501186
0.00085231
0.00122161
0.00160676
0.00200511
0.0024137
0.00282926
0.00324824
0.00366684
0.00408105
0.00448671
0.00487955
0.00525531
0.00560973
0.00593872
0.00623839
0.00650516
0.00673583
0.00692771
0.00707861
0.00718702
0.00725207
0.00727365
0.00725241
0.00718978
0.00708799
0.00695005
0.00677972
0.00658148
0.00636047
0.00612244
0.00587369
0.00562096
0.00537135
0.00513223
0.00491104
0.00471524
0.0045519
0.00442703
0.00434587
0.00431805
0.00434854
0.000254627
0.000203177
0.000115446
-3.32877e-06
-0.000145497
-0.000303289
-0.000469585
-0.000638032
-0.000803104
-0.000960125
-0.00110523
-0.0012353
-0.00134783
-0.00144085
-0.00151284
-0.00156263
-0.00158931
-0.0015922
-0.00157076
-0.00152462
-0.0014535
-0.0013572
-0.00123565
-0.00108886
-0.000916964
-0.00072024
-0.00049911
-0.000254184
1.37253e-05
0.00030357
0.000614047
0.000943578
0.0012903
0.00165203
0.0020263
0.00241034
0.00280107
0.00319515
0.00358901
0.00397887
0.00436081
0.0047308
0.00508481
0.00541883
0.00572899
0.00601161
0.00626332
0.00648111
0.00666243
0.00680525
0.00690814
0.00697032
0.00699172
0.00697298
0.0069155
0.00682141
0.00669359
0.0065356
0.00635168
0.00614666
0.00592591
0.00569525
0.0054609
0.00522932
0.00500717
0.00480112
0.00461775
0.00446335
0.00434334
0.00426276
0.00423168
0.00425676
0.000458995
0.000370401
0.000261919
0.000134431
-9.63154e-06
-0.000164113
-0.00032325
-0.000482053
-0.000636126
-0.000781679
-0.000915538
-0.0010351
-0.00113825
-0.00122331
-0.00128895
-0.00133412
-0.001358
-0.00135993
-0.00133941
-0.00129604
-0.00122951
-0.0011396
-0.00102616
-0.000889157
-0.000728662
-0.000544866
-0.00033811
-0.000108909
0.000142026
0.000413763
0.000705124
0.00101466
0.00134066
0.00168111
0.00203369
0.0023958
0.00276455
0.0031368
0.00350915
0.00387802
0.00423967
0.00459028
0.00492597
0.00524292
0.00553742
0.00580594
0.00604525
0.00625244
0.00642508
0.0065612
0.00665944
0.00671906
0.00673998
0.00672283
0.00666895
0.00658038
0.00645989
0.00631085
0.0061373
0.00594379
0.00573537
0.00551747
0.00529584
0.0050764
0.00486522
0.0046683
0.00449155
0.00434059
0.00422038
0.00413567
0.00409523
0.00410489
0.000696783
0.000564849
0.000429861
0.000288079
0.00013648
-2.01718e-05
-0.000177279
-0.00033111
-0.000478338
-0.000616048
-0.000741771
-0.000853463
-0.000949454
-0.0010284
-0.00108921
-0.00113102
-0.00115312
-0.00115494
-0.00113601
-0.00109593
-0.00103439
-0.000951111
-0.000845916
-0.000718698
-0.000569445
-0.00039826
-0.000205385
8.7774e-06
0.000243636
0.000498387
0.000771987
0.00106314
0.00137027
0.00169152
0.00202475
0.00236751
0.00271708
0.00307046
0.00342444
0.00377557
0.00412027
0.00445484
0.00477554
0.00507866
0.0053606
0.00561791
0.00584742
0.0060463
0.00621215
0.00634304
0.00643761
0.00649511
0.00651544
0.0064992
0.00644764
0.00636275
0.00624713
0.00610405
0.00593734
0.00575133
0.00555078
0.00534081
0.00512676
0.00491415
0.0047085
0.00451531
0.00433989
0.0041873
0.00406208
0.00396864
0.00391343
0.0039002
0.000954222
0.000775667
0.000610387
0.000450159
0.000286613
0.000123346
-3.60244e-05
-0.000188906
-0.000332972
-0.00046614
-0.000586641
-0.000693006
-0.000784029
-0.000858729
-0.000916304
-0.000956094
-0.000977547
-0.00098019
-0.000963609
-0.000927434
-0.000871332
-0.00079501
-0.000698226
-0.000580803
-0.000442642
-0.000283748
-0.000104245
9.55858e-05
0.000315287
0.000554195
0.000811413
0.00108579
0.00137592
0.00168009
0.00199631
0.00232228
0.00265544
0.00299292
0.00333163
0.00366825
0.00399929
0.00432116
0.00463019
0.00492272
0.0051952
0.00544421
0.0056666
0.00585954
0.0060206
0.00614785
0.00623988
0.00629591
0.00631578
0.00630001
0.0062498
0.00616701
0.00605416
0.00591437
0.00575133
0.00556917
0.00537243
0.00516596
0.0049548
0.00474409
0.00453898
0.00434453
0.00416557
0.00400666
0.00387205
0.00376576
0.00369145
0.00365033
0.00121924
0.00099274
0.000794917
0.000613395
0.000434702
0.000261469
9.64836e-05
-5.86868e-05
-0.000202639
-0.00033408
-0.000451913
-0.000555241
-0.000643329
-0.000715575
-0.000771478
-0.000810607
-0.000832581
-0.000837042
-0.000823649
-0.000792062
-0.000741947
-0.000672979
-0.000584861
-0.000477337
-0.000350215
-0.000203385
-3.68499e-05
0.000149248
0.000354593
0.000578673
0.000820746
0.00107982
0.00135464
0.00164365
0.00194501
0.00225656
0.00257586
0.00290018
0.00322651
0.00355162
0.00387211
0.00418441
0.0044849
0.00476993
0.00503593
0.00527948
0.00549737
0.00568673
0.00584507
0.00597037
0.00606117
0.00611658
0.00613637
0.00612096
0.00607146
0.00598962
0.00587788
0.00573922
0.00557719
0.00539578
0.00519936
0.00499255
0.00478016
0.00456707
0.00435811
0.004158
0.0039712
0.00380187
0.00365402
0.00353137
0.00343464
0.0033624
0.00148159
0.00120693
0.000975406
0.000770761
0.000574701
0.000389056
0.000215907
5.58957e-05
-9.04241e-05
-0.000222497
-0.000339871
-0.000442199
-0.000529211
-0.000600684
-0.000656425
-0.000696242
-0.000719927
-0.000727251
-0.000717947
-0.000691714
-0.000648214
-0.000587091
-0.000507989
-0.000410568
-0.000294532
-0.00015965
-5.7899e-06
0.00016705
0.000358709
0.000568834
0.000796847
0.00104192
0.00130295
0.00157854
0.00186699
0.00216629
0.00247409
0.00278778
0.00310442
0.00342085
0.0037337
0.00403941
0.00433436
0.00461486
0.0048773
0.00511818
0.00533421
0.00552241
0.00568018
0.00580539
0.00589644
0.00595234
0.00597272
0.00595789
0.00590885
0.00582724
0.00571537
0.00557615
0.00541298
0.00522974
0.00503066
0.00482022
0.00460306
0.00438383
0.00416718
0.00395754
0.00375912
0.00357578
0.00341137
0.00326943
0.00314778
0.00304245
0.0017323
0.00141
0.00114437
0.00091554
0.000700653
0.000500865
0.000317654
0.00015082
1.33353e-07
-0.000134538
-0.000253349
-0.000356481
-0.00044411
-0.000516387
-0.000573418
-0.000615249
-0.000641851
-0.000653118
-0.000648863
-0.000628817
-0.000592642
-0.000539945
-0.000470304
-0.00038329
-0.000278494
-0.000155556
-1.4201e-05
0.00014573
0.000324239
0.000521141
0.000736029
0.000968243
0.00121684
0.00148059
0.00175791
0.00204693
0.00234542
0.00265084
0.00296032
0.00327074
0.00357873
0.00388072
0.00417304
0.00445195
0.00471372
0.00495475
0.00517161
0.00536117
0.00552067
0.00564783
0.00574087
0.00579863
0.0058206
0.00580693
0.00575848
0.00567678
0.00556401
0.00542297
0.00525698
0.00506981
0.00486559
0.00464871
0.00442368
0.00419506
0.00396731
0.00374475
0.00353138
0.00333086
0.00314704
0.00298336
0.00283487
0.00269523
0.00196347
0.00159446
0.00129485
0.00104134
0.000806752
0.000591661
0.000397018
0.000221853
6.52115e-05
-7.36795e-05
-0.000195547
-0.00030107
-0.000390851
-0.000465399
-0.00052511
-0.000570258
-0.000600986
-0.000617309
-0.000619112
-0.000606156
-0.000578096
-0.000534497
-0.000474864
-0.000398671
-0.000305387
-0.000194515
-6.56252e-05
8.16045e-05
0.000247351
0.000431607
0.000634143
0.000854473
0.00109182
0.00134511
0.00161292
0.00189347
0.00218466
0.00248401
0.00278871
0.00309566
0.00340146
0.00370252
0.00399508
0.0042753
0.00453932
0.00478337
0.00500386
0.00519745
0.00536119
0.00549257
0.0055896
0.00565092
0.00567582
0.00566426
0.00561695
0.00553525
0.00542124
0.00527758
0.00510753
0.00491478
0.0047034
0.0044777
0.00424217
0.00400128
0.00375947
0.00352096
0.00328968
0.00306921
0.00286347
0.00267595
0.00249909
0.00232432
0.00216796
0.00175345
0.00142034
0.00114208
0.000887366
0.000656259
0.000449241
0.000264626
0.000100787
-4.36497e-05
-0.000169947
-0.000279255
-0.000372578
-0.000450763
-0.000514481
-0.00056422
-0.000600287
-0.000622806
-0.000631725
-0.00062683
-0.000607759
-0.000574026
-0.000525055
-0.000460214
-0.000378844
-0.000280298
-0.000163984
-2.94028e-05
0.000123805
0.000295819
0.000486595
0.000695832
0.00092293
0.00116697
0.00142667
0.00170039
0.00198611
0.00228144
0.00258359
0.00288948
0.00319568
0.00349853
0.00379417
0.00407861
0.00434785
0.0045979
0.00482496
0.00502544
0.00519614
0.00533429
0.00543763
0.00550455
0.0055341
0.00552601
0.00548079
0.00539964
0.00528447
0.00513787
0.00496297
0.00476343
0.00454328
0.00430682
0.00405853
0.00380291
0.00354441
0.00328728
0.00303546
0.00279253
0.00256262
0.0023494
0.00214283
0.00193227
0.00233926
0.00188061
0.00151475
0.00121197
0.000937045
0.000689557
0.000469556
0.000274689
0.000102695
-4.83662e-05
-0.00018026
-0.000294577
-0.000392704
-0.000475801
-0.000544796
-0.000600379
-0.000643
-0.000672883
-0.000690029
-0.000694235
-0.000685112
-0.000662116
-0.00062458
-0.000571753
-0.00050284
-0.000417034
-0.000313569
-0.000191759
-5.10508e-05
0.000108933
0.000288347
0.000487078
0.000704713
0.000940498
0.00119331
0.00146164
0.00174356
0.00203674
0.00233844
0.00264557
0.00295466
0.00326198
0.00356352
0.00385515
0.00413265
0.0043918
0.00462854
0.004839
0.00501965
0.00516742
0.00527974
0.00535469
0.00539101
0.00538819
0.00534647
0.00526687
0.00515112
0.00500168
0.00482161
0.0046145
0.0043844
0.00413563
0.00387271
0.00360023
0.00332273
0.00304458
0.00276982
0.00250215
0.00224601
0.00200535
0.00176779
0.00152072
0.0024713
0.00197001
0.00157231
0.00124549
0.000950522
0.000686555
0.00045323
0.00024756
6.66803e-05
-9.18791e-05
-0.000230361
-0.000350774
-0.000454857
-0.000544066
-0.000619564
-0.000682223
-0.000732623
-0.000771072
-0.00079761
-0.000812033
-0.000813914
-0.000802636
-0.000777433
-0.000737427
-0.000681672
-0.000609191
-0.000519031
-0.000410308
-0.000282264
-0.00013431
3.39154e-05
0.000222507
0.000431245
0.000659558
0.000906484
0.00117065
0.00145022
0.00174297
0.00204617
0.00235673
0.00267113
0.00298553
0.00329581
0.00359763
0.00388653
0.00415804
0.00440777
0.00463153
0.00482544
0.00498603
0.00511039
0.00519621
0.0052419
0.00524661
0.0052103
0.00513373
0.00501846
0.00486677
0.00468166
0.00446667
0.00422585
0.00396359
0.00368452
0.00339337
0.00309485
0.00279353
0.00249364
0.00219909
0.00191475
0.00164495
0.00137508
0.00109058
0.00255839
0.00201605
0.00158758
0.00123735
0.00092271
0.000642373
0.000395589
0.000178762
-1.15473e-05
-0.000178318
-0.000324243
-0.000451723
-0.000562829
-0.000659289
-0.000742482
-0.000813442
-0.000872864
-0.000921121
-0.000958279
-0.000984118
-0.00099816
-0.000999705
-0.000987875
-0.000961653
-0.00091993
-0.000861546
-0.000785351
-0.000690249
-0.000575261
-0.000439576
-0.000282607
-0.00010404
9.61178e-05
0.000317489
0.000559288
0.000820283
0.00109878
0.0013926
0.00169909
0.00201513
0.00233717
0.00266125
0.00298309
0.00329815
0.00360171
0.003889
0.00415528
0.00439595
0.00460674
0.00478376
0.00492364
0.00502365
0.00508178
0.0050968
0.00506833
0.00499682
0.0048836
0.00473078
0.00454124
0.0043185
0.00406662
0.0037901
0.00349371
0.00318238
0.00286106
0.00253461
0.00220754
0.00188409
0.0015696
0.00126894
0.000965291
0.000642184
0.00259515
0.00201343
0.00155536
0.00118251
0.00084871
0.000552271
0.000292053
6.38675e-05
-0.000136276
-0.000311844
-0.000465959
-0.000601391
-0.000720522
-0.00082533
-0.000917391
-0.000997883
-0.0010676
-0.00112695
-0.00117603
-0.00121458
-0.00124205
-0.00125766
-0.0012604
-0.0012491
-0.00122247
-0.00117916
-0.00111782
-0.00103711
-0.000935824
-0.000812911
-0.00066754
-0.000499158
-0.000307544
-9.286e-05
0.0001443
0.000402875
0.000681302
0.000977504
0.00128888
0.00161232
0.00194421
0.0022805
0.00261674
0.00294816
0.00326976
0.00357643
0.00386302
0.00412454
0.00435621
0.00455366
0.00471302
0.00483104
0.00490524
0.00493392
0.00491629
0.00485245
0.00474343
0.00459114
0.00439832
0.00416844
0.00390561
0.00361444
0.0032999
0.00296718
0.00262153
0.00226818
0.001912
0.00155764
0.00121107
0.000877725
0.000538628
0.000175365
0.00257645
0.00195712
0.00147072
0.00107613
0.00072381
0.00041166
0.000138152
-0.000101476
-0.000311751
-0.000496609
-0.000659582
-0.000803789
-0.000931901
-0.00104613
-0.00114823
-0.0012395
-0.00132081
-0.00139262
-0.00145499
-0.00150764
-0.00154995
-0.00158101
-0.00159968
-0.00160462
-0.00159437
-0.00156735
-0.00152199
-0.00145671
-0.00137005
-0.00126071
-0.00112758
-0.00096985
-0.000787055
-0.000579116
-0.000346408
-8.98011e-05
0.000189303
0.000488945
0.000806598
0.00113917
0.001483
0.00183396
0.0021874
0.00253834
0.00288147
0.0032113
0.00352226
0.00380886
0.00406581
0.00428815
0.00447144
0.00461187
0.00470635
0.00475266
0.00474951
0.00469657
0.00459453
0.00444503
0.00425064
0.00401478
0.00374159
0.00343582
0.00310266
0.00274762
0.00237633
0.00199445
0.00160734
0.00122011
0.000839443
0.000471476
9.50023e-05
-0.000310366
0.00249741
0.00184232
0.00132896
0.000913598
0.000543498
0.000216121
-7.04406e-05
-0.000321511
-0.00054214
-0.000736713
-0.000909155
-0.00106292
-0.00120094
-0.00132565
-0.00143897
-0.00154229
-0.00163656
-0.00172224
-0.00179939
-0.00186766
-0.00192633
-0.00197439
-0.00201053
-0.00203325
-0.00204087
-0.00203161
-0.00200363
-0.00195511
-0.00188431
-0.00178965
-0.00166974
-0.00152348
-0.00135013
-0.00114934
-0.000921242
-0.000666479
-0.000386266
-8.24124e-05
0.000242651
0.000585871
0.000943584
0.00131154
0.00168496
0.00205861
0.00242684
0.00278379
0.00312342
0.00343968
0.00372669
0.00397888
0.00419112
0.00435893
0.00447856
0.00454714
0.00456281
0.00452473
0.00443313
0.00428935
0.00409574
0.00385563
0.00357318
0.0032533
0.00290145
0.00252348
0.00212548
0.00171362
0.00129381
0.00087173
0.000454886
5.01856e-05
-0.000365874
-0.000815736
0.00235338
0.00166449
0.00112561
0.000690547
0.00030347
-3.85761e-05
-0.000337889
-0.000600342
-0.000831491
-0.00103616
-0.00121865
-0.00138272
-0.00153159
-0.00166785
-0.00179358
-0.00191027
-0.00201891
-0.00211997
-0.00221347
-0.00229899
-0.00237572
-0.00244249
-0.00249785
-0.0025401
-0.00256734
-0.00257756
-0.00256865
-0.00253853
-0.00248517
-0.00240665
-0.00230131
-0.00216772
-0.00200482
-0.00181198
-0.00158903
-0.00133636
-0.00105497
-0.000746467
-0.000413161
-5.80268e-05
0.000315278
0.000702437
0.00109852
0.00149804
0.00189504
0.00228322
0.00265604
0.00300687
0.00332917
0.00361665
0.00386344
0.00406426
0.0042146
0.00431085
0.00435045
0.00433193
0.00425501
0.00412063
0.00393085
0.00368886
0.00339885
0.00306587
0.00269567
0.00229449
0.00186897
0.00142583
0.000971625
0.000512713
5.75005e-05
-0.00038623
-0.000844391
-0.0013416
0.00213997
0.00141934
0.00085649
0.000402838
-3.45983e-07
-0.00035645
-0.000668162
-0.000941895
-0.0011837
-0.00139881
-0.00159191
-0.00176705
-0.00192768
-0.00207659
-0.00221597
-0.0023474
-0.00247189
-0.00258992
-0.00270146
-0.002806
-0.00290262
-0.00299
-0.00306653
-0.00313029
-0.00317916
-0.00321087
-0.00322306
-0.00321331
-0.0031793
-0.00311879
-0.00302976
-0.00291044
-0.00275944
-0.00257577
-0.00235894
-0.00210905
-0.00182681
-0.00151362
-0.0011716
-0.000803604
-0.000413256
-4.90697e-06
0.000416379
0.000844889
0.00127434
0.00169799
0.00210876
0.00249939
0.00286262
0.00319135
0.00347887
0.00371902
0.00390639
0.00403651
0.00410597
0.00411259
0.00405545
0.00393496
0.00375284
0.0035121
0.00321687
0.00287237
0.00248464
0.00206038
0.00160678
0.00113124
0.00064104
0.000143285
-0.000352598
-0.000837853
-0.00134096
-0.00188884
0.00185303
0.00110286
0.000517646
4.65963e-05
-0.000371774
-0.00074128
-0.00106501
-0.00134989
-0.00160246
-0.00182836
-0.00203262
-0.00221959
-0.00239292
-0.00255559
-0.0027099
-0.00285749
-0.00299941
-0.00313609
-0.00326747
-0.00339294
-0.00351145
-0.00362154
-0.00372139
-0.00380889
-0.00388167
-0.0039372
-0.0039728
-0.00398577
-0.00397342
-0.00393317
-0.00386263
-0.00375965
-0.00362244
-0.00344964
-0.00324039
-0.00299443
-0.00271216
-0.00239468
-0.00204389
-0.00166248
-0.00125397
-0.000822714
-0.000373879
8.66179e-05
0.000552172
0.0010156
0.00146925
0.0019052
0.0023154
0.00269186
0.00302693
0.00331343
0.00354495
0.00371598
0.00382218
0.00386045
0.00382912
0.00372795
0.00355822
0.00332265
0.00302531
0.00267151
0.00226763
0.00182083
0.00133893
0.000830093
0.000302379
-0.00023624
-0.000775205
-0.00130468
-0.0018559
-0.00245826
0.00148871
0.00071129
0.000105427
-0.000381776
-0.000814364
-0.00119659
-0.00153191
-0.0018278
-0.00209123
-0.00232827
-0.00254426
-0.00274381
-0.00293082
-0.0031084
-0.00327896
-0.0034442
-0.00360517
-0.0037623
-0.00391543
-0.00406388
-0.00420645
-0.00434152
-0.00446709
-0.0045808
-0.00468005
-0.00476201
-0.00482371
-0.00486209
-0.00487412
-0.00485682
-0.0048074
-0.0047233
-0.00460229
-0.00444258
-0.0042429
-0.00400257
-0.00372159
-0.00340075
-0.00304162
-0.00264668
-0.0022193
-0.00176378
-0.00128533
-0.000790053
-0.000284842
0.000222671
0.00072427
0.0012113
0.00167487
0.00210604
0.00249609
0.00283671
0.00312032
0.00334026
0.00349103
0.00356849
0.00357003
0.00349465
0.00334302
0.00311748
0.00282197
0.00246186
0.00204382
0.00157554
0.00106551
0.00052271
-4.39011e-05
-0.000625396
-0.00120996
-0.00178655
-0.00238939
-0.00305055
0.00104345
0.000241215
-0.000383515
-0.000885572
-0.00133137
-0.00172559
-0.00207209
-0.00237882
-0.00265323
-0.00290174
-0.00313002
-0.00334296
-0.00354463
-0.00373831
-0.00392649
-0.00411093
-0.00429267
-0.00447212
-0.00464904
-0.00482265
-0.00499161
-0.00515413
-0.005308
-0.00545065
-0.00557921
-0.00569054
-0.00578135
-0.00584823
-0.00588776
-0.00589655
-0.00587136
-0.00580918
-0.00570731
-0.00556348
-0.00537591
-0.00514348
-0.00486572
-0.004543
-0.00417655
-0.00376851
-0.00332205
-0.00284134
-0.00233159
-0.00179901
-0.00125078
-0.000694948
-0.000140305
0.000403749
0.000927417
0.00142072
0.00187377
0.00227701
0.00262152
0.0028993
0.00310353
0.00322884
0.00327147
0.00322947
0.00310276
0.00289317
0.00260439
0.00224181
0.00181235
0.00132425
0.000786693
0.000209575
-0.000397151
-0.0010235
-0.00165625
-0.00228306
-0.00294134
-0.0036661
0.000514046
-0.000310466
-0.000952199
-0.00146776
-0.00192573
-0.00233121
-0.00268844
-0.00300585
-0.00329133
-0.00355166
-0.00379282
-0.00401995
-0.0042373
-0.0044483
-0.00465551
-0.00486074
-0.00506505
-0.00526878
-0.00547163
-0.0056727
-0.00587053
-0.00606314
-0.00624813
-0.00642268
-0.00658365
-0.00672759
-0.00685087
-0.00694972
-0.00702029
-0.00705875
-0.0070614
-0.00702471
-0.00694548
-0.00682087
-0.0066486
-0.00642696
-0.00615499
-0.00583254
-0.00546039
-0.00504031
-0.00457514
-0.00406886
-0.00352659
-0.0029546
-0.00236029
-0.00175208
-0.00113936
-0.000532257
5.84721e-05
0.000621743
0.00114639
0.00162145
0.00203653
0.00238208
0.00264977
0.00283274
0.0029259
0.00292613
0.0028324
0.00264586
0.00236981
0.00200957
0.00157228
0.00106669
0.000502764
-0.00010864
-0.000756475
-0.00142957
-0.00211317
-0.00279346
-0.00351136
-0.00430499
-0.000102365
-0.000946488
-0.00160328
-0.00213096
-0.00260003
-0.003016
-0.00338351
-0.00371145
-0.00400809
-0.0042806
-0.00453523
-0.00477735
-0.00501142
-0.00524097
-0.00546866
-0.00569634
-0.00592504
-0.00615508
-0.00638609
-0.00661705
-0.00684636
-0.00707187
-0.00729097
-0.0075006
-0.00769733
-0.00787742
-0.00803686
-0.0081715
-0.00827705
-0.00834923
-0.00838381
-0.00837672
-0.00832418
-0.00822278
-0.0080696
-0.00786233
-0.0075994
-0.00728007
-0.00690457
-0.00647419
-0.00599137
-0.00545978
-0.00488437
-0.00427137
-0.00362833
-0.00296402
-0.00228834
-0.00161221
-0.000947323
-0.000305956
0.000299353
0.000856117
0.00135227
0.00177653
0.00211879
0.00237051
0.00252497
0.00257764
0.0025263
0.00237122
0.00211513
0.00176316
0.0013226
0.000802685
0.00021418
-0.000431019
-0.00112067
-0.00184229
-0.00257941
-0.00331661
-0.00409859
-0.00496688
-0.00080823
-0.00166919
-0.00233905
-0.00287741
-0.00335648
-0.00378217
-0.0041595
-0.00449777
-0.00480569
-0.00509071
-0.0053594
-0.00561734
-0.00586916
-0.00611851
-0.00636814
-0.00661992
-0.00687489
-0.00713332
-0.00739478
-0.00765813
-0.00792165
-0.008183
-0.00843937
-0.00868745
-0.00892353
-0.00914355
-0.00934316
-0.00951776
-0.00966264
-0.00977299
-0.00984407
-0.00987121
-0.00985
-0.00977639
-0.00964677
-0.00945814
-0.00920823
-0.00889563
-0.00851991
-0.00808176
-0.00758312
-0.00702722
-0.00641873
-0.00576377
-0.00506993
-0.00434622
-0.00360306
-0.00285207
-0.00210594
-0.00137816
-0.000682738
-3.38165e-05
0.000554693
0.00106956
0.00149868
0.0018315
0.00205943
0.00217621
0.00217816
0.0020644
0.00183689
0.00150039
0.00106225
0.000532117
-7.84164e-05
-0.000756352
-0.00148815
-0.00225989
-0.00305319
-0.00385084
-0.00470166
-0.00565086
-0.00160556
-0.00248051
-0.00316136
-0.00370894
-0.00419689
-0.00463151
-0.00501818
-0.00536661
-0.00568588
-0.00598376
-0.00626707
-0.00654163
-0.00681222
-0.0070826
-0.00735562
-0.00763316
-0.00791628
-0.00820521
-0.00849944
-0.00879775
-0.00909825
-0.00939848
-0.00969539
-0.00998545
-0.0102647
-0.0105286
-0.0107727
-0.0109917
-0.0111806
-0.011334
-0.0114466
-0.0115131
-0.0115284
-0.0114878
-0.0113869
-0.0112219
-0.0109897
-0.0106882
-0.0103162
-0.0098737
-0.0093619
-0.00878356
-0.0081429
-0.0074458
-0.00669977
-0.00591401
-0.00509932
-0.004268
-0.0034337
-0.00261117
-0.00181593
-0.00106393
-0.000371083
0.000247217
0.000776583
0.00120417
0.00151918
0.00171327
0.001781
0.00172002
0.00153125
0.00121886
0.000790094
0.000254964
-0.000374149
-0.00108308
-0.00185689
-0.00268007
-0.00353214
-0.00439387
-0.00531857
-0.00635539
-0.00249592
-0.00338193
-0.00407167
-0.00462696
-0.00512266
-0.0055654
-0.00596092
-0.00631931
-0.00664998
-0.00696103
-0.00725951
-0.00755144
-0.00784177
-0.00813439
-0.0084322
-0.00873713
-0.00905024
-0.00937175
-0.00970107
-0.0100369
-0.0103772
-0.0107194
-0.0110602
-0.0113959
-0.0117221
-0.0120343
-0.0123272
-0.0125954
-0.0128333
-0.013035
-0.0131945
-0.013306
-0.0133635
-0.0133617
-0.0132952
-0.0131595
-0.0129506
-0.0126655
-0.012302
-0.0118593
-0.011338
-0.01074
-0.010069
-0.00933053
-0.00853182
-0.00768211
-0.00679251
-0.00587592
-0.0049469
-0.00402144
-0.00311664
-0.00225034
-0.0014406
-0.000705241
-6.11773e-05
0.000476126
0.00089328
0.00117953
0.00132722
0.0013322
0.00119401
0.000915962
0.000504983
-2.86688e-05
-0.000671863
-0.00140924
-0.00222435
-0.00309994
-0.00401321
-0.0049427
-0.00594655
-0.00707815
-0.00348038
-0.00437445
-0.00507095
-0.00563246
-0.00613475
-0.00658479
-0.00698864
-0.00735676
-0.00769886
-0.00802333
-0.00833746
-0.00864747
-0.00895845
-0.00927441
-0.00959833
-0.00993221
-0.0102771
-0.0106332
-0.0109999
-0.0113757
-0.0117586
-0.0121458
-0.0125339
-0.0129189
-0.0132962
-0.0136608
-0.0140072
-0.0143295
-0.0146216
-0.0148771
-0.0150894
-0.0152518
-0.0153578
-0.015401
-0.0153753
-0.0152753
-0.0150959
-0.0148331
-0.0144838
-0.0140463
-0.01352
-0.0129062
-0.0122078
-0.0114296
-0.0105787
-0.00966414
-0.00869713
-0.00769107
-0.00666136
-0.00562518
-0.00460123
-0.0036093
-0.00266978
-0.00180305
-0.0010289
-0.000365725
0.0001701
0.000564953
0.000808566
0.000894524
0.000820598
0.000588888
0.000205749
-0.000318506
-0.00097007
-0.00173237
-0.00258736
-0.0035159
-0.00449258
-0.00549348
-0.00658196
-0.00781594
-0.00455948
-0.00545862
-0.00615974
-0.00672596
-0.00723367
-0.00769017
-0.00810182
-0.00847938
-0.00883288
-0.00917096
-0.00950114
-0.00982981
-0.0101622
-0.0105025
-0.0108538
-0.011218
-0.0115963
-0.0119889
-0.0123951
-0.0128134
-0.0132416
-0.0136768
-0.0141155
-0.0145534
-0.0149857
-0.0154071
-0.0158116
-0.0161931
-0.0165449
-0.0168599
-0.0171309
-0.0173506
-0.0175115
-0.0176066
-0.0176286
-0.0175712
-0.0174282
-0.0171946
-0.0168661
-0.0164398
-0.0159142
-0.0152895
-0.0145676
-0.0137528
-0.0128513
-0.0118721
-0.0108262
-0.00972745
-0.0085919
-0.00743786
-0.00628558
-0.00515685
-0.00407448
-0.00306165
-0.00214123
-0.00133495
-0.000662554
-0.00014101
0.000216289
0.000400169
0.000406149
0.000234702
-0.000108742
-0.000614051
-0.00126688
-0.00204946
-0.00294206
-0.00392348
-0.00496548
-0.00604138
-0.00722012
-0.00856448
-0.00573326
-0.00663449
-0.00733809
-0.00790752
-0.0084195
-0.0088816
-0.00930046
-0.00968714
-0.0100519
-0.0104037
-0.0107502
-0.011098
-0.0114525
-0.011818
-0.0121976
-0.0125934
-0.0130066
-0.0134373
-0.0138849
-0.0143479
-0.014824
-0.0153101
-0.0158025
-0.0162969
-0.0167881
-0.0172705
-0.0177379
-0.0181836
-0.0186004
-0.0189807
-0.0193167
-0.0196002
-0.019823
-0.019977
-0.0200541
-0.0200468
-0.0199478
-0.0197509
-0.0194505
-0.0190425
-0.0185242
-0.0178945
-0.0171544
-0.016307
-0.0153579
-0.0143155
-0.0131906
-0.0119971
-0.0107516
-0.00947352
-0.00818445
-0.00690821
-0.00567008
-0.00449621
-0.00341282
-0.00244527
-0.00161717
-0.0009493
-0.000458747
-0.000158021
-5.44184e-05
-0.000149608
-0.000439514
-0.00091451
-0.0015599
-0.0023568
-0.00328374
-0.0043173
-0.00542611
-0.00658042
-0.00785518
-0.0093183
-0.00700121
-0.0079016
-0.00860561
-0.00917675
-0.00969184
-0.0101587
-0.0105841
-0.0109795
-0.0113554
-0.0117208
-0.0120837
-0.0124509
-0.012828
-0.0132192
-0.013628
-0.0140564
-0.0145056
-0.014976
-0.0154667
-0.0159764
-0.0165025
-0.0170421
-0.0175913
-0.0181454
-0.0186992
-0.0192468
-0.0197816
-0.0202964
-0.0207836
-0.0212351
-0.0216422
-0.0219961
-0.0222878
-0.0225081
-0.022648
-0.0226986
-0.0226517
-0.0224996
-0.0222354
-0.0218537
-0.0213502
-0.0207227
-0.0199706
-0.0190961
-0.0181037
-0.017001
-0.0157983
-0.0145095
-0.0131514
-0.0117442
-0.0103109
-0.00887715
-0.00747084
-0.00612113
-0.00485779
-0.00371019
-0.00270618
-0.00187094
-0.00122583
-0.000787354
-0.000566271
-0.000567011
-0.000787385
-0.00121869
-0.00184617
-0.00264993
-0.00360676
-0.00469086
-0.00586743
-0.00710334
-0.00847993
-0.0100705
-0.0083623
-0.00925901
-0.00996141
-0.0105328
-0.0110499
-0.0115205
-0.0119519
-0.0123555
-0.0127421
-0.0131209
-0.0135002
-0.0138868
-0.0142866
-0.014704
-0.0151423
-0.015604
-0.0160902
-0.0166012
-0.0171365
-0.0176944
-0.0182726
-0.0188679
-0.0194764
-0.0200933
-0.0207131
-0.0213297
-0.0219361
-0.0225248
-0.0230877
-0.0236159
-0.0241003
-0.0245312
-0.0248988
-0.0251929
-0.0254033
-0.0255201
-0.0255337
-0.025435
-0.0252158
-0.0248689
-0.0243888
-0.0237714
-0.023015
-0.0221201
-0.0210901
-0.0199315
-0.0186539
-0.0172706
-0.0157987
-0.0142589
-0.0126752
-0.0110753
-0.0094892
-0.00794934
-0.00648921
-0.00514244
-0.00394156
-0.00291669
-0.00209411
-0.00149505
-0.00113447
-0.00102028
-0.00115283
-0.00152488
-0.00212198
-0.00292344
-0.00390433
-0.00503636
-0.006281
-0.00760136
-0.00908558
-0.0108127
-0.00981495
-0.0107053
-0.0114042
-0.0119745
-0.0124924
-0.012966
-0.0134025
-0.0138136
-0.0142104
-0.0146023
-0.0149976
-0.0154034
-0.0158257
-0.0162691
-0.0167372
-0.0172324
-0.017756
-0.0183084
-0.0188891
-0.0194965
-0.0201282
-0.0207811
-0.0214511
-0.0221334
-0.0228222
-0.0235112
-0.0241931
-0.0248601
-0.0255034
-0.0261137
-0.0266813
-0.0271957
-0.027646
-0.0280212
-0.0283101
-0.0285014
-0.0285841
-0.0285477
-0.0283825
-0.0280798
-0.0276322
-0.027034
-0.0262818
-0.0253746
-0.024314
-0.0231054
-0.0217573
-0.0202824
-0.0186974
-0.0170231
-0.0152847
-0.0135111
-0.011735
-0.00999162
-0.00831835
-0.00675335
-0.00533422
-0.00409654
-0.00307221
-0.00228792
-0.00176369
-0.00151176
-0.00153579
-0.00183067
-0.00238274
-0.00317084
-0.00416841
-0.00534458
-0.00665678
-0.00806399
-0.00966154
-0.0115344
-0.0113571
-0.0122386
-0.0129322
-0.0135002
-0.0140178
-0.0144933
-0.0149341
-0.0153521
-0.0157584
-0.0161625
-0.0165732
-0.0169976
-0.0174419
-0.0179109
-0.0184083
-0.0189368
-0.0194978
-0.0200917
-0.0207182
-0.0213757
-0.022062
-0.0227737
-0.0235069
-0.0242566
-0.0250169
-0.0257812
-0.026542
-0.0272911
-0.0280193
-0.0287167
-0.0293729
-0.0299767
-0.0305164
-0.0309799
-0.0313548
-0.0316287
-0.0317892
-0.0318242
-0.0317225
-0.0314735
-0.0310682
-0.030499
-0.0297605
-0.02885
-0.0277674
-0.0265162
-0.0251038
-0.0235418
-0.0218461
-0.0200377
-0.018142
-0.0161895
-0.0142146
-0.0122557
-0.0103539
-0.00855216
-0.0068934
-0.00541918
-0.0041677
-0.00317195
-0.00245792
-0.00204312
-0.00193545
-0.00213274
-0.00262278
-0.00338435
-0.00438944
-0.00560459
-0.00698289
-0.00847877
-0.0101952
-0.0122232
-0.0129861
-0.0138567
-0.0145434
-0.0151078
-0.0156241
-0.0161006
-0.0165448
-0.0169687
-0.0173834
-0.0177989
-0.0182238
-0.0186658
-0.019131
-0.0196247
-0.0201506
-0.0207115
-0.0213092
-0.0219442
-0.0226163
-0.0233239
-0.024065
-0.0248363
-0.0256337
-0.0264522