/*--------------------------------*- C++ -*----------------------------------*\
  =========                 |
  \\      /  F ield         | OpenFOAM: The Open Source CFD Toolbox
   \\    /   O peration     | Website:  https://openfoam.org
    \\  /    A nd           | Version:  dev
     \\/     M anipulation  |
\*---------------------------------------------------------------------------*/
FoamFile
{
    format      ascii;
    class       surfaceScalarField;
    location    "15.75";
    object      phi;
}
// * * * * * * * * * * * * * * * * * * * * * * * * * * * * * * * * * * * * * //

dimensions      [0 3 -1 0 0 0 0];

internalField   nonuniform List<scalar> 
10224
(
3.41533e-08
-3.44277e-08
8.78484e-08
-5.36984e-08
1.2413e-07
-3.62797e-08
1.24869e-07
-7.35438e-10
8.30929e-08
4.17789e-08
-2.47476e-09
8.55676e-08
-1.30014e-07
1.27539e-07
-2.96213e-07
1.66197e-07
-4.97015e-07
2.00799e-07
-7.28125e-07
2.31109e-07
-9.85281e-07
2.57156e-07
-1.2644e-06
2.79118e-07
-1.56165e-06
2.97247e-07
-1.87347e-06
3.11827e-07
-2.19661e-06
3.23141e-07
-2.52807e-06
3.31456e-07
-2.86508e-06
3.37008e-07
-3.20507e-06
3.39997e-07
-3.54566e-06
3.40584e-07
-3.88455e-06
3.38892e-07
-4.21956e-06
3.35006e-07
-4.54854e-06
3.28978e-07
-4.86937e-06
3.20834e-07
-5.17995e-06
3.10577e-07
-5.47814e-06
2.98194e-07
-5.76181e-06
2.83665e-07
-6.02877e-06
2.66969e-07
-6.27686e-06
2.48087e-07
-6.50388e-06
2.27017e-07
-6.70765e-06
2.03772e-07
-6.88604e-06
1.7839e-07
-7.03698e-06
1.50939e-07
-7.1585e-06
1.2152e-07
-7.24877e-06
9.02736e-08
-7.30615e-06
5.73782e-08
-7.32921e-06
2.30565e-08
-7.31679e-06
-1.24261e-08
-7.26802e-06
-4.87616e-08
-7.18242e-06
-8.56016e-08
-7.05986e-06
-1.2256e-07
-6.90064e-06
-1.59217e-07
-6.70552e-06
-1.95126e-07
-6.4757e-06
-2.29816e-07
-6.2129e-06
-2.62806e-07
-5.91929e-06
-2.93608e-07
-5.59754e-06
-3.21742e-07
-5.2508e-06
-3.46744e-07
-4.88263e-06
-3.68174e-07
-4.49699e-06
-3.85632e-07
-4.09823e-06
-3.98763e-07
-3.69095e-06
-4.07273e-07
-3.28002e-06
-4.10932e-07
-2.87044e-06
-4.09584e-07
-2.46728e-06
-4.03154e-07
-2.07563e-06
-3.91651e-07
-1.70046e-06
-3.7517e-07
-1.34656e-06
-3.53896e-07
-1.01846e-06
-3.28102e-07
-7.20311e-07
-2.98149e-07
-4.55827e-07
-2.64483e-07
-2.28182e-07
-2.27643e-07
-3.99214e-08
-1.88258e-07
1.07147e-07
-1.47066e-07
2.12083e-07
-1.04935e-07
2.74996e-07
-6.2913e-08
2.9731e-07
-2.23149e-08
2.82192e-07
1.51188e-08
2.3522e-07
4.69737e-08
1.65432e-07
6.97898e-08
8.70897e-08
7.83427e-08
2.25289e-08
6.4558e-08
2.25256e-08
5.3964e-08
-8.83864e-08
1.12179e-07
-1.11907e-07
1.17596e-07
-4.1686e-08
3.79638e-08
7.89042e-08
-1.43069e-07
2.22815e-07
-4.30786e-07
3.73284e-07
-8.234e-07
5.2015e-07
-1.31477e-06
6.57568e-07
-1.89634e-06
7.82371e-07
-2.55831e-06
8.9308e-07
-3.29042e-06
9.89266e-07
-4.08244e-06
1.07114e-06
-4.92446e-06
1.13927e-06
-5.80705e-06
1.19442e-06
-6.72134e-06
1.23744e-06
-7.65902e-06
1.26914e-06
-8.6123e-06
1.29028e-06
-9.57383e-06
1.30153e-06
-1.05367e-05
1.30344e-06
-1.14942e-05
1.29642e-06
-1.244e-05
1.2808e-06
-1.33678e-05
1.25677e-06
-1.42714e-05
1.22447e-06
-1.51448e-05
1.18393e-06
-1.59818e-05
1.13516e-06
-1.67762e-05
1.07813e-06
-1.75221e-05
1.01283e-06
-1.82132e-05
9.39236e-07
-1.88436e-05
8.57408e-07
-1.94073e-05
7.67456e-07
-1.98985e-05
6.69584e-07
-2.03117e-05
5.64102e-07
-2.06416e-05
4.51442e-07
-2.08835e-05
3.32172e-07
-2.10331e-05
2.07005e-07
-2.10869e-05
7.68018e-08
-2.10419e-05
-5.74231e-08
-2.08961e-05
-1.94508e-07
-2.06486e-05
-3.33148e-07
-2.02992e-05
-4.71911e-07
-1.98492e-05
-6.09246e-07
-1.93008e-05
-7.43511e-07
-1.86576e-05
-8.72994e-07
-1.79245e-05
-9.95944e-07
-1.71075e-05
-1.1106e-06
-1.6214e-05
-1.21522e-06
-1.52526e-05
-1.30815e-06
-1.4233e-05
-1.38779e-06
-1.31659e-05
-1.45274e-06
-1.20629e-05
-1.50171e-06
-1.09365e-05
-1.53367e-06
-9.79967e-06
-1.54781e-06
-8.66568e-06
-1.54358e-06
-7.5481e-06
-1.52073e-06
-6.46042e-06
-1.47932e-06
-5.41586e-06
-1.41973e-06
-4.4271e-06
-1.34265e-06
-3.50608e-06
-1.24913e-06
-2.66372e-06
-1.14051e-06
-1.90971e-06
-1.0185e-06
-1.25221e-06
-8.85138e-07
-6.9763e-07
-7.42839e-07
-2.50271e-07
-5.94426e-07
8.80121e-08
-4.43219e-07
3.18282e-07
-2.93183e-07
4.45123e-07
-1.49156e-07
4.77494e-07
-1.72524e-08
4.29833e-07
9.46345e-08
3.23532e-07
1.76092e-07
1.88543e-07
2.13336e-07
6.42586e-08
1.88849e-07
8.67822e-08
3.72457e-08
-1.2563e-07
4.29391e-08
-1.17592e-07
-4.39936e-08
4.52533e-08
-2.59698e-07
2.9461e-07
-6.23704e-07
5.8682e-07
-1.14308e-06
8.92654e-07
-1.81606e-06
1.19313e-06
-2.63498e-06
1.47649e-06
-3.5885e-06
1.73588e-06
-4.66309e-06
1.96768e-06
-5.84422e-06
2.17039e-06
-7.11701e-06
2.34393e-06
-8.46679e-06
2.48904e-06
-9.87933e-06
2.60696e-06
-1.1341e-05
2.69914e-06
-1.2839e-05
2.76708e-06
-1.43609e-05
2.81221e-06
-1.58951e-05
2.83579e-06
-1.74306e-05
2.8389e-06
-1.89566e-05
2.82239e-06
-2.04627e-05
2.78692e-06
-2.19388e-05
2.73292e-06
-2.33751e-05
2.66068e-06
-2.47615e-05
2.57036e-06
-2.60883e-05
2.46201e-06
-2.73458e-05
2.33566e-06
-2.85244e-05
2.19133e-06
-2.96142e-05
2.02913e-06
-3.06061e-05
1.84923e-06
-3.14906e-05
1.65197e-06
-3.22589e-05
1.43788e-06
-3.29025e-05
1.2077e-06
-3.34135e-05
9.62444e-07
-3.37847e-05
7.03393e-07
-3.40098e-05
4.32128e-07
-3.40836e-05
1.5054e-07
-3.40018e-05
-1.39174e-07
-3.37618e-05
-4.34512e-07
-3.33623e-05
-7.32686e-07
-3.28035e-05
-1.03065e-06
-3.20877e-05
-1.32512e-06
-3.12185e-05
-1.61264e-06
-3.02019e-05
-1.88961e-06
-2.90455e-05
-2.15237e-06
-2.77588e-05
-2.39724e-06
-2.63535e-05
-2.6206e-06
-2.48426e-05
-2.81899e-06
-2.32413e-05
-2.98913e-06
-2.1566e-05
-3.12806e-06
-1.98345e-05
-3.23319e-06
-1.80658e-05
-3.30234e-06
-1.62798e-05
-3.33386e-06
-1.44967e-05
-3.32664e-06
-1.27372e-05
-3.2802e-06
-1.10219e-05
-3.19468e-06
-9.37072e-06
-3.0709e-06
-7.803e-06
-2.91037e-06
-6.33682e-06
-2.71531e-06
-4.98868e-06
-2.48864e-06
-3.77318e-06
-2.234e-06
-2.70254e-06
-1.95578e-06
-1.78622e-06
-1.65915e-06
-1.03047e-06
-1.35018e-06
-4.37762e-07
-1.03593e-06
-6.20424e-09
-7.2474e-07
2.71236e-07
-4.26594e-07
4.07597e-07
-1.53612e-07
4.23063e-07
7.91683e-08
3.46193e-07
2.5296e-07
2.15112e-07
3.44416e-07
7.84481e-08
3.25516e-07
1.65231e-07
1.78156e-09
-1.27408e-07
-7.92975e-08
-3.65079e-08
-2.98182e-07
2.64139e-07
-6.88481e-07
6.84907e-07
-1.26843e-06
1.16677e-06
-2.04426e-06
1.66847e-06
-3.01314e-06
2.162e-06
-4.16582e-06
2.62917e-06
-5.48871e-06
3.05877e-06
-6.9655e-06
3.44447e-06
-8.57838e-06
3.78327e-06
-1.03089e-05
4.07445e-06
-1.21386e-05
4.31871e-06
-1.40492e-05
4.51764e-06
-1.60234e-05
4.67328e-06
-1.80441e-05
4.78781e-06
-2.00953e-05
4.86337e-06
-2.21614e-05
4.90189e-06
-2.42275e-05
4.90504e-06
-2.62793e-05
4.87419e-06
-2.83028e-05
4.81038e-06
-3.02843e-05
4.71437e-06
-3.22102e-05
4.58667e-06
-3.40675e-05
4.42758e-06
-3.58428e-05
4.2373e-06
-3.75231e-05
4.01597e-06
-3.90955e-05
3.76376e-06
-4.05473e-05
3.48092e-06
-4.1866e-05
3.16793e-06
-4.30395e-05
2.82547e-06
-4.40562e-05
2.45456e-06
-4.49051e-05
2.0566e-06
-4.5576e-05
1.63341e-06
-4.60599e-05
1.18725e-06
-4.63487e-05
7.20912e-07
-4.64358e-05
2.37653e-07
-4.63162e-05
-2.58749e-07
-4.59867e-05
-7.64029e-07
-4.54459e-05
-1.27346e-06
-4.46947e-05
-1.78188e-06
-4.3736e-05
-2.2838e-06
-4.25753e-05
-2.77339e-06
-4.12202e-05
-3.24467e-06
-3.96811e-05
-3.69149e-06
-3.79706e-05
-4.10776e-06
-3.61037e-05
-4.48747e-06
-3.40978e-05
-4.82485e-06
-3.19725e-05
-5.1145e-06
-2.9749e-05
-5.35153e-06
-2.74506e-05
-5.53162e-06
-2.51017e-05
-5.65121e-06
-2.2728e-05
-5.70758e-06
-2.03557e-05
-5.69891e-06
-1.80115e-05
-5.62443e-06
-1.57217e-05
-5.48441e-06
-1.35124e-05
-5.28026e-06
-1.14082e-05
-5.01455e-06
-9.43247e-06
-4.69103e-06
-7.60647e-06
-4.31464e-06
-5.94892e-06
-3.89155e-06
-4.47548e-06
-3.42921e-06
-3.19829e-06
-2.93635e-06
-2.12529e-06
-2.42318e-06
-1.2597e-06
-1.90152e-06
-5.99288e-07
-1.38515e-06
-1.35658e-07
-8.90222e-07
1.46642e-07
-4.3591e-07
2.71015e-07
-4.52029e-08
2.69847e-07
2.54128e-07
1.85545e-07
4.28717e-07
7.1978e-08
4.39088e-07
2.3721e-07
-4.21419e-08
-8.52617e-08
-2.30207e-07
1.51556e-07
-6.06674e-07
6.40602e-07
-1.19803e-06
1.27626e-06
-2.01794e-06
1.98668e-06
-3.06955e-06
2.72008e-06
-4.34765e-06
3.4401e-06
-5.84081e-06
4.12233e-06
-7.53317e-06
4.75114e-06
-9.40597e-06
5.31727e-06
-1.14387e-05
5.81597e-06
-1.36099e-05
6.24567e-06
-1.5898e-05
6.60685e-06
-1.82817e-05
6.90133e-06
-2.07401e-05
7.13163e-06
-2.32529e-05
7.30058e-06
-2.58005e-05
7.41102e-06
-2.83642e-05
7.46556e-06
-3.09256e-05
7.46648e-06
-3.34671e-05
7.4157e-06
-3.59714e-05
7.31469e-06
-3.84216e-05
7.16456e-06
-4.0801e-05
6.9661e-06
-4.30933e-05
6.71983e-06
-4.52821e-05
6.42615e-06
-4.73516e-05
6.08538e-06
-4.92857e-05
5.69791e-06
-5.10691e-05
5.26431e-06
-5.26866e-05
4.7854e-06
-5.41235e-05
4.26241e-06
-5.5366e-05
3.69703e-06
-5.64009e-05
3.09148e-06
-5.72161e-05
2.44863e-06
-5.78008e-05
1.77201e-06
-5.81458e-05
1.06586e-06
-5.82433e-05
3.35167e-07
-5.80877e-05
-4.14385e-07
-5.76753e-05
-1.17639e-06
-5.7005e-05
-1.94379e-06
-5.60779e-05
-2.70891e-06
-5.48982e-05
-3.46358e-06
-5.34723e-05
-4.19923e-06
-5.181e-05
-4.90697e-06
-4.99237e-05
-5.57781e-06
-4.78287e-05
-6.20275e-06
-4.55432e-05
-6.77297e-06
-4.3088e-05
-7.28003e-06
-4.04865e-05
-7.716e-06
-3.77643e-05
-8.07371e-06
-3.49491e-05
-8.34687e-06
-3.20701e-05
-8.53025e-06
-2.91578e-05
-8.61986e-06
-2.62436e-05
-8.61309e-06
-2.33592e-05
-8.50879e-06
-2.05362e-05
-8.3074e-06
-1.78055e-05
-8.01102e-06
-1.51966e-05
-7.62347e-06
-1.27373e-05
-7.15032e-06
-1.0453e-05
-6.59891e-06
-8.36613e-06
-5.97843e-06
-6.49544e-06
-5.29989e-06
-4.85552e-06
-4.57627e-06
-3.4561e-06
-3.82259e-06
-2.30142e-06
-3.05619e-06
-1.38955e-06
-2.29702e-06
-7.11674e-07
-1.5681e-06
-2.51372e-07
-8.96212e-07
1.6142e-08
-3.12715e-07
1.24839e-07
1.45435e-07
1.1876e-07
4.34798e-07
5.34209e-08
5.0443e-07
2.90632e-07
-8.94544e-08
4.19255e-09
-3.95245e-07
4.57343e-07
-9.44627e-07
1.18998e-06
-1.7541e-06
2.08573e-06
-2.83042e-06
3.06299e-06
-4.17178e-06
4.06144e-06
-5.76934e-06
5.03765e-06
-7.60872e-06
5.9617e-06
-9.67147e-06
6.81388e-06
-1.19363e-05
7.58212e-06
-1.43803e-05
8.25991e-06
-1.69793e-05
8.84474e-06
-1.97093e-05
9.33679e-06
-2.25459e-05
9.738e-06
-2.54656e-05
1.00513e-05
-2.84452e-05
1.02802e-05
-3.14623e-05
1.0428e-05
-3.44949e-05
1.04982e-05
-3.7522e-05
1.04935e-05
-4.05228e-05
1.04165e-05
-4.34772e-05
1.02691e-05
-4.63654e-05
1.00527e-05
-4.91678e-05
9.76851e-06
-5.18652e-05
9.41727e-06
-5.44387e-05
8.99962e-06
-5.68695e-05
8.51618e-06
-5.91392e-05
7.96763e-06
-6.12298e-05
7.35494e-06
-6.31239e-05
6.67946e-06
-6.48045e-05
5.94306e-06
-6.62558e-05
5.14826e-06
-6.74626e-05
4.29833e-06
-6.84114e-05
3.39739e-06
-6.90898e-05
2.45047e-06
-6.94875e-05
1.46353e-06
-6.95959e-05
4.43536e-07
-6.94087e-05
-6.01596e-07
-6.89221e-05
-1.66301e-06
-6.81349e-05
-2.73096e-06
-6.70489e-05
-3.79493e-06
-6.56687e-05
-4.84372e-06
-6.40024e-05
-5.86559e-06
-6.20609e-05
-6.84845e-06
-5.98587e-05
-7.78002e-06
-5.74133e-05
-8.64807e-06
-5.47457e-05
-9.44061e-06
-5.18796e-05
-1.01462e-05
-4.88416e-05
-1.0754e-05
-4.56611e-05
-1.12543e-05
-4.23694e-05
-1.16385e-05
-3.9e-05
-1.18996e-05
-3.55877e-05
-1.20322e-05
-3.21682e-05
-1.20326e-05
-2.87776e-05
-1.18993e-05
-2.54521e-05
-1.16329e-05
-2.22268e-05
-1.12363e-05
-1.91357e-05
-1.07146e-05
-1.62106e-05
-1.00755e-05
-1.34806e-05
-9.32893e-06
-1.09715e-05
-8.48754e-06
-8.70501e-06
-7.56634e-06
-6.69829e-06
-6.58299e-06
-4.96297e-06
-5.55791e-06
-3.50473e-06
-4.51443e-06
-2.32256e-06
-3.47919e-06
-1.40813e-06
-2.48253e-06
-7.45184e-07
-1.55916e-06
-3.08951e-07
-7.48947e-07
-6.55401e-08
-9.79726e-08
2.86972e-08
3.40564e-07
2.80956e-08
5.05035e-07
3.18728e-07
-1.37568e-07
1.41758e-07
-5.65864e-07
8.85634e-07
-1.29626e-06
1.92037e-06
-2.33379e-06
3.12325e-06
-3.67671e-06
4.40591e-06
-5.31696e-06
5.70168e-06
-7.24093e-06
6.96162e-06
-9.43053e-06
8.1513e-06
-1.18642e-05
9.24759e-06
-1.45181e-05
1.0236e-05
-1.73666e-05
1.11084e-05
-2.03834e-05
1.18615e-05
-2.35418e-05
1.24952e-05
-2.68152e-05
1.30115e-05
-3.01776e-05
1.34137e-05
-3.36032e-05
1.37058e-05
-3.70672e-05
1.3892e-05
-4.0545e-05
1.3976e-05
-4.40129e-05
1.39615e-05
-4.74477e-05
1.38513e-05
-5.08266e-05
1.3648e-05
-5.41271e-05
1.33533e-05
-5.73274e-05
1.29687e-05
-6.04055e-05
1.24954e-05
-6.334e-05
1.19342e-05
-6.61099e-05
1.12861e-05
-6.86945e-05
1.05522e-05
-7.10735e-05
9.73393e-06
-7.32273e-05
8.83328e-06
-7.51372e-05
7.85292e-06
-7.67853e-05
6.79636e-06
-7.8155e-05
5.66806e-06
-7.92312e-05
4.47359e-06
-8.00004e-05
3.21966e-06
-8.04511e-05
1.91423e-06
-8.0574e-05
5.66443e-07
-8.03623e-05
-8.13281e-07
-7.9812e-05
-2.21336e-06
-7.89218e-05
-3.6211e-06
-7.76939e-05
-5.02282e-06
-7.61337e-05
-6.40399e-06
-7.42498e-05
-7.74941e-06
-7.20549e-05
-9.04343e-06
-6.95647e-05
-1.02702e-05
-6.67988e-05
-1.14139e-05
-6.37803e-05
-1.24591e-05
-6.05355e-05
-1.3391e-05
-5.70939e-05
-1.41956e-05
-5.34877e-05
-1.48604e-05
-4.97518e-05
-1.53744e-05
-4.59232e-05
-1.57282e-05
-4.20404e-05
-1.5915e-05
-3.81431e-05
-1.593e-05
-3.42713e-05
-1.57711e-05
-3.04651e-05
-1.54391e-05
-2.67638e-05
-1.49376e-05
-2.32052e-05
-1.42732e-05
-1.98249e-05
-1.34557e-05
-1.66557e-05
-1.24982e-05
-1.37266e-05
-1.14166e-05
-1.10624e-05
-1.02306e-05
-8.68272e-06
-8.96265e-06
-6.60158e-06
-7.63905e-06
-4.82649e-06
-6.28952e-06
-3.35798e-06
-4.9477e-06
-2.18897e-06
-3.65154e-06
-1.30432e-06
-2.44381e-06
-6.8036e-07
-1.37291e-06
-2.84536e-07
-4.93794e-07
-7.50973e-08
1.31127e-07
-7.59152e-10
4.30699e-07
3.17968e-07
-1.85235e-07
3.2699e-07
-7.37196e-07
1.43759e-06
-1.65183e-06
2.835e-06
-2.92212e-06
4.39353e-06
-4.53697e-06
6.02076e-06
-6.48108e-06
7.64579e-06
-8.73525e-06
9.21579e-06
-1.1277e-05
1.0693e-05
-1.40812e-05
1.20518e-05
-1.7121e-05
1.32758e-05
-2.03683e-05
1.43557e-05
-2.37942e-05
1.52875e-05
-2.737e-05
1.6071e-05
-3.10668e-05
1.67083e-05
-3.48563e-05
1.72032e-05
-3.87107e-05
1.75602e-05
-4.26028e-05
1.7784e-05
-4.6506e-05
1.78792e-05
-5.03941e-05
1.78497e-05
-5.42419e-05
1.7699e-05
-5.8024e-05
1.74301e-05
-6.1716e-05
1.70453e-05
-6.52935e-05
1.65462e-05
-6.87325e-05
1.59344e-05
-7.20095e-05
1.52112e-05
-7.51012e-05
1.43778e-05
-7.79848e-05
1.34358e-05
-8.06381e-05
1.23873e-05
-8.30398e-05
1.12349e-05
-8.51692e-05
9.98232e-06
-8.70069e-05
8.63407e-06
-8.85348e-05
7.19601e-06
-8.97365e-05
5.67529e-06
-9.05974e-05
4.08052e-06
-9.11049e-05
2.42176e-06
-9.12491e-05
7.10618e-07
-9.10226e-05
-1.03982e-06
-9.04209e-05
-2.815e-06
-8.9443e-05
-4.59905e-06
-8.80909e-05
-6.37487e-06
-8.63705e-05
-8.12435e-06
-8.42914e-05
-9.82855e-06
-8.18668e-05
-1.1468e-05
-7.9114e-05
-1.3023e-05
-7.6054e-05
-1.44739e-05
-7.27117e-05
-1.58014e-05
-6.91155e-05
-1.69872e-05
-6.52973e-05
-1.80138e-05
-6.1292e-05
-1.88657e-05
-5.71375e-05
-1.95289e-05
-5.28736e-05
-1.99921e-05
-4.85425e-05
-2.02462e-05
-4.41871e-05
-2.02854e-05
-3.98513e-05
-2.01069e-05
-3.5579e-05
-1.97115e-05
-3.1413e-05
-1.91035e-05
-2.73951e-05
-1.82911e-05
-2.35644e-05
-1.72864e-05
-1.99573e-05
-1.61053e-05
-1.66063e-05
-1.47677e-05
-1.35391e-05
-1.32977e-05
-1.07785e-05
-1.17233e-05
-8.34095e-06
-1.00766e-05
-6.23634e-06
-8.39412e-06
-4.46731e-06
-6.71673e-06
-3.02875e-06
-5.0901e-06
-1.90736e-06
-3.56519e-06
-1.08146e-06
-2.19881e-06
-5.20762e-07
-1.05449e-06
-1.86407e-07
-2.03226e-07
-3.11927e-08
2.75485e-07
2.86774e-07
-2.31826e-07
5.58814e-07
-9.06499e-07
2.11226e-06
-2.00538e-06
3.93388e-06
-3.50942e-06
5.89757e-06
-5.39776e-06
7.9091e-06
-7.64727e-06
9.89531e-06
-1.02326e-05
1.18011e-05
-1.31262e-05
1.35867e-05
-1.62992e-05
1.52248e-05
-1.97213e-05
1.66979e-05
-2.33616e-05
1.7996e-05
-2.71891e-05
1.91149e-05
-3.11726e-05
2.00544e-05
-3.52812e-05
2.08169e-05
-3.94847e-05
2.14067e-05
-4.37533e-05
2.18288e-05
-4.80578e-05
2.20886e-05
-5.23697e-05
2.21911e-05
-5.6661e-05
2.2141e-05
-6.09042e-05
2.19423e-05
-6.50723e-05
2.15982e-05
-6.91387e-05
2.11116e-05
-7.3077e-05
2.04846e-05
-7.68614e-05
1.97188e-05
-8.04664e-05
1.88161e-05
-8.38667e-05
1.77781e-05
-8.7038e-05
1.6607e-05
-8.99561e-05
1.53054e-05
-9.2598e-05
1.38768e-05
-9.49415e-05
1.23259e-05
-9.69658e-05
1.06584e-05
-9.86514e-05
8.88159e-06
-9.99806e-05
7.00444e-06
-0.000100938
5.03753e-06
-0.000101509
2.99321e-06
-0.000101684
8.85672e-07
-0.000101455
-1.26913e-06
-0.000100816
-3.45353e-06
-9.9767e-05
-5.64824e-06
-9.83093e-05
-7.83257e-06
-9.64491e-05
-9.98459e-06
-9.41962e-05
-1.20814e-05
-9.15648e-05
-1.40995e-05
-8.85728e-05
-1.6015e-05
-8.52425e-05
-1.78042e-05
-8.16002e-05
-1.94437e-05
-7.76761e-05
-2.09113e-05
-7.35039e-05
-2.2186e-05
-6.9121e-05
-2.32486e-05
-6.45677e-05
-2.40823e-05
-5.98868e-05
-2.4673e-05
-5.51232e-05
-2.50097e-05
-5.03234e-05
-2.50851e-05
-4.55347e-05
-2.48956e-05
-4.08043e-05
-2.44418e-05
-3.61791e-05
-2.37287e-05
-3.17042e-05
-2.2766e-05
-2.74228e-05
-2.15678e-05
-2.33747e-05
-2.01533e-05
-1.95961e-05
-1.85464e-05
-1.6118e-05
-1.67757e-05
-1.29665e-05
-1.48748e-05
-1.0161e-05
-1.28821e-05
-7.71432e-06
-1.08408e-05
-5.63168e-06
-8.79936e-06
-3.91054e-06
-6.81125e-06
-2.54013e-06
-4.93559e-06
-1.50139e-06
-3.23755e-06
-7.66942e-07
-1.78894e-06
-3.01429e-07
-6.68739e-07
-6.21063e-08
3.61622e-08
2.24668e-07
-2.77065e-07
8.35878e-07
-1.07225e-06
2.90745e-06
-2.3533e-06
5.21494e-06
-4.08943e-06
7.6337e-06
-6.24994e-06
1.00696e-05
-8.80363e-06
1.2449e-05
-1.17185e-05
1.4716e-05
-1.49619e-05
1.683e-05
-1.85003e-05
1.87633e-05
-2.23002e-05
2.04978e-05
-2.63278e-05
2.20236e-05
-3.05493e-05
2.33365e-05
-3.49315e-05
2.44366e-05
-3.94417e-05
2.53271e-05
-4.40476e-05
2.60126e-05
-4.87178e-05
2.6499e-05
-5.34214e-05
2.67921e-05
-5.81281e-05
2.68978e-05
-6.28082e-05
2.68211e-05
-6.74326e-05
2.65666e-05
-7.19725e-05
2.61382e-05
-7.63996e-05
2.55387e-05
-8.06859e-05
2.47708e-05
-8.48037e-05
2.38367e-05
-8.8726e-05
2.27384e-05
-9.24259e-05
2.1478e-05
-9.58772e-05
2.00583e-05
-9.90544e-05
1.84826e-05
-0.000101933
1.67553e-05
-0.000104489
1.48821e-05
-0.000106701
1.287e-05
-0.000108547
1.07279e-05
-0.000110009
8.46648e-06
-0.00011107
6.09849e-06
-0.000111716
3.63869e-06
-0.000111934
1.10395e-06
-0.000111716
-1.48679e-06
-0.000111057
-4.11258e-06
-0.000109955
-6.7506e-06
-0.000108411
-9.37638e-06
-0.000106432
-1.1964e-05
-0.000104027
-1.44864e-05
-0.00010121
-1.69158e-05
-9.80014e-05
-1.92239e-05
-9.44228e-05
-2.13827e-05
-9.0502e-05
-2.33646e-05
-8.62704e-05
-2.51429e-05
-8.17635e-05
-2.66929e-05
-7.70205e-05
-2.79915e-05
-7.20841e-05
-2.90188e-05
-6.69994e-05
-2.97576e-05
-6.18145e-05
-3.01947e-05
-5.65787e-05
-3.03209e-05
-5.13427e-05
-3.01316e-05
-4.61574e-05
-2.96272e-05
-4.10732e-05
-2.8813e-05
-3.61391e-05
-2.77e-05
-3.14021e-05
-2.63048e-05
-2.69061e-05
-2.46494e-05
-2.26907e-05
-2.27617e-05
-1.87911e-05
-2.06753e-05
-1.52368e-05
-1.84292e-05
-1.20507e-05
-1.60682e-05
-9.24889e-06
-1.36426e-05
-6.83989e-06
-1.12084e-05
-4.82419e-06
-8.82694e-06
-3.19411e-06
-6.56568e-06
-1.93367e-06
-4.49798e-06
-1.01886e-06
-2.70375e-06
-4.18061e-07
-1.26954e-06
-9.29487e-08
-2.88949e-07
1.3172e-07
-3.20843e-07
1.15672e-06
-1.23362e-06
3.82023e-06
-2.69337e-06
6.67469e-06
-4.65806e-06
9.59839e-06
-7.0873e-06
1.24989e-05
-9.94172e-06
1.53034e-05
-1.31826e-05
1.79568e-05
-1.67716e-05
2.0419e-05
-2.06709e-05
2.26625e-05
-2.4843e-05
2.46699e-05
-2.92512e-05
2.64318e-05
-3.38593e-05
2.79445e-05
-3.86317e-05
2.92091e-05
-4.35339e-05
3.02292e-05
-4.85319e-05
3.10106e-05
-5.35925e-05
3.15596e-05
-5.86835e-05
3.18831e-05
-6.3773e-05
3.19873e-05
-6.88299e-05
3.1878e-05
-7.38236e-05
3.15603e-05
-7.87239e-05
3.10384e-05
-8.35009e-05
3.03157e-05
-8.81253e-05
2.93952e-05
-9.25679e-05
2.82793e-05
-9.68e-05
2.69705e-05
-0.000100794
2.54715e-05
-0.000104521
2.37856e-05
-0.000107955
2.19167e-05
-0.00011107
1.98702e-05
-0.000113841
1.76529e-05
-0.000116244
1.52731e-05
-0.000118257
1.27412e-05
-0.000119861
1.007e-05
-0.000121036
7.27424e-06
-0.000121769
4.37114e-06
-0.000122045
1.38036e-06
-0.000121856
-1.67606e-06
-0.000121195
-4.77381e-06
-0.000120059
-7.88643e-06
-0.00011845
-1.09855e-05
-0.000116373
-1.4041e-05
-0.000113838
-1.70216e-05
-0.000110858
-1.98949e-05
-0.000107454
-2.26281e-05
-0.000103648
-2.51886e-05
-9.94689e-05
-2.7544e-05
-9.49483e-05
-2.96635e-05
-9.01233e-05
-3.15178e-05
-8.50349e-05
-3.30799e-05
-7.97276e-05
-3.43261e-05
-7.42491e-05
-3.52361e-05
-6.86498e-05
-3.57939e-05
-6.29824e-05
-3.59883e-05
-5.73007e-05
-3.58134e-05
-5.16592e-05
-3.52687e-05
-4.6112e-05
-3.43601e-05
-4.07124e-05
-3.30997e-05
-3.55112e-05
-3.15059e-05
-3.05566e-05
-2.96041e-05
-2.58925e-05
-2.74258e-05
-2.15581e-05
-2.50096e-05
-1.75869e-05
-2.24003e-05
-1.40061e-05
-1.96491e-05
-1.08353e-05
-1.68134e-05
-8.08692e-06
-1.39568e-05
-5.76493e-06
-1.11489e-05
-3.86518e-06
-8.46543e-06
-2.37519e-06
-5.98796e-06
-1.27454e-06
-3.8044e-06
-5.3538e-07
-2.0087e-06
-1.23519e-07
-7.00808e-07
8.20257e-09
-3.63119e-07
1.51984e-06
-1.39012e-06
4.84723e-06
-3.0242e-06
8.30877e-06
-5.21258e-06
1.17868e-05
-7.90546e-06
1.51917e-05
-1.10554e-05
1.84533e-05
-1.46168e-05
2.15183e-05
-1.85458e-05
2.4348e-05
-2.27998e-05
2.69165e-05
-2.73376e-05
2.92077e-05
-3.21192e-05
3.12134e-05
-3.71059e-05
3.29312e-05
-4.226e-05
3.43632e-05
-4.75449e-05
3.55142e-05
-5.29252e-05
3.63909e-05
-5.83662e-05
3.70007e-05
-6.38342e-05
3.73511e-05
-6.92961e-05
3.74492e-05
-7.47196e-05
3.73015e-05
-8.00727e-05
3.69135e-05
-8.53241e-05
3.62898e-05
-9.04426e-05
3.54343e-05
-9.53976e-05
3.43502e-05
-0.000100159
3.30405e-05
-0.000104696
3.15079e-05
-0.00010898
2.97557e-05
-0.000112982
2.77876e-05
-0.000116674
2.56084e-05
-0.000120028
2.32243e-05
-0.000123019
2.06432e-05
-0.00012562
1.78747e-05
-0.00012781
1.4931e-05
-0.000129566
1.18266e-05
-0.000130871
8.57832e-06
-0.000131706
5.20608e-06
-0.000132057
1.73226e-06
-0.000131916
-1.81798e-06
-0.000131272
-5.41691e-06
-0.000130125
-9.03433e-06
-0.000128472
-1.26378e-05
-0.00012632
-1.61931e-05
-0.000123677
-1.96643e-05
-0.000120558
-2.30145e-05
-0.00011698
-2.6206e-05
-0.000112967
-2.92012e-05
-0.000108548
-3.19631e-05
-0.000103756
-3.44559e-05
-9.86279e-05
-3.66457e-05
-9.32067e-05
-3.85011e-05
-8.75385e-05
-3.99943e-05
-8.16731e-05
-4.11014e-05
-7.56638e-05
-4.18033e-05
-6.95658e-05
-4.20863e-05
-6.34365e-05
-4.19426e-05
-5.73341e-05
-4.13711e-05
-5.13167e-05
-4.03775e-05
-4.54417e-05
-3.89747e-05
-3.97644e-05
-3.71832e-05
-3.43376e-05
-3.50309e-05
-2.92097e-05
-3.25537e-05
-2.44247e-05
-2.97946e-05
-2.00207e-05
-2.68043e-05
-1.60292e-05
-2.36406e-05
-1.24744e-05
-2.03682e-05
-9.37264e-06
-1.70585e-05
-6.73215e-06
-1.37894e-05
-4.55261e-06
-1.0645e-05
-2.82535e-06
-7.71522e-06
-1.53362e-06
-5.09613e-06
-6.53286e-07
-2.88903e-06
-1.53845e-07
-1.20025e-06
-1.45641e-07
-4.03883e-07
1.92372e-06
-1.54148e-06
5.98483e-06
-3.34486e-06
1.01121e-05
-5.75107e-06
1.4193e-05
-8.70125e-06
1.81419e-05
-1.214e-05
2.18921e-05
-1.60152e-05
2.53934e-05
-2.0277e-05
2.86098e-05
-2.48783e-05
3.15179e-05
-2.9774e-05
3.41035e-05
-3.49209e-05
3.63603e-05
-4.02777e-05
3.8288e-05
-4.58045e-05
3.989e-05
-5.14631e-05
4.11727e-05
-5.72162e-05
4.2144e-05
-6.30281e-05
4.28125e-05
-6.88636e-05
4.31866e-05
-7.46886e-05
4.32743e-05
-8.04698e-05
4.30826e-05
-8.6174e-05
4.26177e-05
-9.17689e-05
4.18847e-05
-9.72223e-05
4.08877e-05
-0.000102503
3.96305e-05
-0.000107578
3.81163e-05
-0.000112419
3.63482e-05
-0.000116993
3.43298e-05
-0.000121271
3.20656e-05
-0.000125223
2.9561e-05
-0.000128822
2.6823e-05
-0.000132039
2.38605e-05
-0.000134849
2.06847e-05
-0.000137227
1.73091e-05
-0.000139151
1.37501e-05
-0.000140599
1.00268e-05
-0.000141555
6.16142e-06
-0.000142002
2.17925e-06
-0.000141928
-1.89148e-06
-0.000141325
-6.01958e-06
-0.000140189
-1.01711e-05
-0.000138517
-1.43096e-05
-0.000136314
-1.83963e-05
-0.000133587
-2.23909e-05
-0.00013035
-2.62514e-05
-0.000126621
-2.99353e-05
-0.000122422
-3.33999e-05
-0.000117782
-3.66029e-05
-0.000112735
-3.95034e-05
-0.000107318
-4.20623e-05
-0.000101576
-4.42437e-05
-9.55552e-05
-4.60149e-05
-8.93084e-05
-4.73482e-05
-8.2891e-05
-4.82207e-05
-7.63614e-05
-4.86159e-05
-6.97803e-05
-4.85238e-05
-6.32095e-05
-4.79418e-05
-5.67117e-05
-4.68753e-05
-5.03486e-05
-4.53378e-05
-4.41805e-05
-4.33513e-05
-3.8265e-05
-4.09465e-05
-3.26558e-05
-3.81629e-05
-2.7402e-05
-3.50484e-05
-2.25468e-05
-3.16595e-05
-1.81268e-05
-2.80606e-05
-1.4171e-05
-2.43239e-05
-1.07007e-05
-2.05288e-05
-7.72848e-06
-1.67617e-05
-5.25825e-06
-1.31152e-05
-3.28539e-06
-9.68809e-06
-1.79693e-06
-6.58459e-06
-7.72253e-07
-3.9137e-06
-1.84104e-07
-1.7884e-06
-3.29745e-07
-4.43125e-07
2.36685e-06
-1.68747e-06
7.22918e-06
-3.65466e-06
1.20793e-05
-6.27208e-06
1.68104e-05
-9.47217e-06
2.1342e-05
-1.3192e-05
2.56119e-05
-1.73726e-05
2.9574e-05
-2.19588e-05
3.31961e-05
-2.68988e-05
3.64578e-05
-3.21436e-05
3.93482e-05
-3.76468e-05
4.18636e-05
-4.33645e-05
4.40057e-05
-4.92548e-05
4.57803e-05
-5.52775e-05
4.71954e-05
-6.13941e-05
4.82607e-05
-6.75675e-05
4.89859e-05
-7.37616e-05
4.93806e-05
-7.99411e-05
4.94538e-05
-8.60718e-05
4.92133e-05
-9.21199e-05
4.86658e-05
-9.8052e-05
4.78168e-05
-0.000103835
4.6671e-05
-0.000109437
4.52323e-05
-0.000114825
4.35043e-05
-0.000119968
4.14906e-05
-0.000124833
3.91951e-05
-0.00012939
3.66228e-05
-0.000133609
3.37796e-05
-0.000137459
3.06735e-05
-0.000140913
2.73145e-05
-0.000143943
2.37147e-05
-0.000146524
1.98894e-05
-0.00014863
1.58567e-05
-0.000150241
1.16377e-05
-0.000151337
7.25718e-06
-0.000151901
2.743e-06
-0.000151919
-1.87348e-06
-0.000151381
-6.55764e-06
-0.00015028
-1.12718e-05
-0.000148614
-1.59753e-05
-0.000146385
-2.06251e-05
-0.0001436
-2.51761e-05
-0.00014027
-2.95813e-05
-0.000136413
-3.37931e-05
-0.000132049
-3.77632e-05
-0.000127208
-4.14439e-05
-0.000121923
-4.47888e-05
-0.000116232
-4.77534e-05
-0.000110179
-5.02963e-05
-0.000103814
-5.238e-05
-9.71904e-05
-5.39719e-05
-9.03658e-05
-5.50452e-05
-8.34019e-05
-5.55798e-05
-7.63628e-05
-5.55629e-05
-6.93145e-05
-5.49902e-05
-6.23239e-05
-5.38659e-05
-5.54578e-05
-5.22039e-05
-4.87816e-05
-5.00274e-05
-4.23585e-05
-4.73696e-05
-3.62479e-05
-4.42734e-05
-3.05047e-05
-4.07917e-05
-2.51777e-05
-3.69865e-05
-2.03092e-05
-3.29291e-05
-1.59338e-05
-2.86993e-05
-1.20779e-05
-2.43847e-05
-8.75907e-06
-2.00805e-05
-5.9859e-06
-1.58884e-05
-3.75796e-06
-1.1916e-05
-2.06614e-06
-8.27641e-06
-8.93154e-07
-5.08669e-06
-2.14577e-07
-2.46697e-06
-5.44321e-07
-4.80826e-07
2.84767e-06
-1.82791e-06
8.57626e-06
-3.953e-06
1.42044e-05
-6.77435e-06
1.96317e-05
-1.02161e-05
2.47838e-05
-1.4208e-05
2.96038e-05
-1.86848e-05
3.40507e-05
-2.35858e-05
3.80971e-05
-2.88547e-05
4.17267e-05
-3.44386e-05
4.49321e-05
-4.02882e-05
4.77131e-05
-4.63568e-05
5.00743e-05
-5.26005e-05
5.2024e-05
-5.89776e-05
5.35725e-05
-6.54481e-05
5.47312e-05
-7.19737e-05
5.55115e-05
-7.85174e-05
5.59243e-05
-8.50433e-05
5.59797e-05
-9.15161e-05
5.56861e-05
-9.79014e-05
5.50511e-05
-0.000104165
5.40806e-05
-0.000110274
5.27798e-05
-0.000116195
5.11528e-05
-0.000121894
4.92036e-05
-0.000127339
4.69359e-05
-0.000132498
4.43542e-05
-0.000137339
4.14637e-05
-0.000141831
3.82712e-05
-0.000145942
3.47851e-05
-0.000149644
3.10164e-05
-0.000152908
2.69785e-05
-0.000155706
2.26879e-05
-0.000158014
1.81644e-05
-0.000159808
1.34312e-05
-0.000161066
8.51521e-06
-0.00016177
3.44701e-06
-0.000161904
-1.73906e-06
-0.000161457
-7.00505e-06
-0.000160419
-1.23095e-05
-0.000158786
-1.76078e-05
-0.000156559
-2.28524e-05
-0.000153742
-2.79932e-05
-0.000150345
-3.29783e-05
-0.000146383
-3.77546e-05
-0.000141878
-4.22682e-05
-0.000136857
-4.64655e-05
-0.000131351
-5.02942e-05
-0.000125401
-5.37039e-05
-0.00011905
-5.66473e-05
-0.000112348
-5.90814e-05
-0.000105352
-6.09683e-05
-9.8121e-05
-6.22763e-05
-9.07195e-05
-6.29812e-05
-8.32154e-05
-6.3067e-05
-7.56789e-05
-6.25267e-05
-6.81816e-05
-6.13632e-05
-6.07957e-05
-5.95898e-05
-5.35924e-05
-5.72308e-05
-4.66406e-05
-5.43213e-05
-4.00063e-05
-5.09077e-05
-3.37506e-05
-4.70474e-05
-2.79289e-05
-4.28082e-05
-2.25897e-05
-3.82683e-05
-1.77737e-05
-3.35153e-05
-1.35131e-05
-2.86453e-05
-9.83093e-06
-2.37627e-05
-6.74079e-06
-1.89785e-05
-4.24674e-06
-1.44101e-05
-2.34353e-06
-1.01796e-05
-1.01714e-06
-6.41307e-06
-2.45608e-07
-3.23851e-06
-7.89928e-07
-5.16951e-07
3.36462e-06
-1.96258e-06
1.00219e-05
-4.2393e-06
1.64811e-05
-7.25671e-06
2.26492e-05
-1.09311e-05
2.84582e-05
-1.51853e-05
3.3858e-05
-1.99479e-05
3.88133e-05
-2.5153e-05
4.33023e-05
-3.07398e-05
4.73135e-05
-3.66519e-05
5.08442e-05
-4.28368e-05
5.3898e-05
-4.92455e-05
5.6483e-05
-5.5832e-05
5.86105e-05
-6.2553e-05
6.02935e-05
-6.93673e-05
6.15455e-05
-7.62355e-05
6.23797e-05
-8.31199e-05
6.28087e-05
-8.99837e-05
6.28435e-05
-9.67913e-05
6.24937e-05
-0.000103508
6.17674e-05
-0.000110098
6.06711e-05
-0.000116529
5.92105e-05
-0.000122766
5.73899e-05
-0.000128776
5.52136e-05
-0.000134526
5.26856e-05
-0.000139982
4.98105e-05
-0.000145112
4.65941e-05
-0.000149885
4.30435e-05
-0.000154267
3.91678e-05
-0.00015823
3.49787e-05
-0.000161742
3.04907e-05
-0.000164776
2.57216e-05
-0.000167304
2.06925e-05
-0.000169301
1.54286e-05
-0.000170745
9.95887e-06
-0.000171614
4.3164e-06
-0.000171892
-1.46165e-06
-0.000171563
-7.33407e-06
-0.000170616
-1.32558e-05
-0.000169046
-1.91781e-05
-0.000166849
-2.5049e-05
-0.000164029
-3.08136e-05
-0.000160593
-3.64147e-05
-0.000156554
-4.17935e-05
-0.000151932
-4.68903e-05
-0.000146752
-5.16455e-05
-0.000141046
-5.60001e-05
-0.000134852
-5.98974e-05
-0.000128216
-6.32838e-05
-0.000121187
-6.611e-05
-0.000113824
-6.8332e-05
-0.000106187
-6.99129e-05
-9.83447e-05
-7.08234e-05
-9.03684e-05
-7.10434e-05
-8.23325e-05
-7.05626e-05
-7.43139e-05
-6.93818e-05
-6.63902e-05
-6.75135e-05
-5.86389e-05
-6.49821e-05
-5.11357e-05
-6.18245e-05
-4.39533e-05
-5.80901e-05
-3.716e-05
-5.38407e-05
-3.08183e-05
-4.915e-05
-2.49837e-05
-4.41029e-05
-1.97037e-05
-3.87952e-05
-1.5017e-05
-3.3332e-05
-1.09525e-05
-2.78271e-05
-7.52928e-06
-2.24017e-05
-4.75613e-06
-1.71832e-05
-2.63184e-06
-1.23039e-05
-1.14558e-06
-7.89934e-06
-2.77591e-07
-4.1065e-06
-1.06752e-06
-5.51447e-07
3.91606e-06
-2.09122e-06
1.15617e-05
-4.51292e-06
1.89028e-05
-7.71799e-06
2.58542e-05
-1.16153e-05
3.23555e-05
-1.61211e-05
3.83637e-05
-2.11581e-05
4.38503e-05
-2.66555e-05
4.87997e-05
-3.25483e-05
5.32063e-05
-3.87765e-05
5.70724e-05
-4.52847e-05
6.04062e-05
-5.20216e-05
6.32199e-05
-5.89393e-05
6.55283e-05
-6.5993e-05
6.73472e-05
-7.31404e-05
6.86928e-05
-8.03412e-05
6.95805e-05
-8.75568e-05
7.00243e-05
-9.47501e-05
7.00368e-05
-0.000101885
6.96284e-05
-0.000108926