/*--------------------------------*- C++ -*----------------------------------*\
  =========                 |
  \\      /  F ield         | OpenFOAM: The Open Source CFD Toolbox
   \\    /   O peration     | Website:  https://openfoam.org
    \\  /    A nd           | Version:  dev
     \\/     M anipulation  |
\*---------------------------------------------------------------------------*/
FoamFile
{
    format      ascii;
    class       volVectorField;
    location    "15.75";
    object      U;
}
// * * * * * * * * * * * * * * * * * * * * * * * * * * * * * * * * * * * * * //

dimensions      [0 1 -1 0 0 0 0];

internalField   nonuniform List<vector> 
5184
(
(1.24667e-05 -1.25427e-05 0)
(4.53156e-05 -2.07497e-05 0)
(8.02314e-05 -1.7148e-05 0)
(9.56921e-05 -8.12295e-06 0)
(8.17291e-05 2.72224e-06 0)
(3.59465e-05 1.36505e-05 0)
(-4.11002e-05 2.38628e-05 0)
(-0.000147391 3.30464e-05 0)
(-0.000280146 4.10867e-05 0)
(-0.000436305 4.79905e-05 0)
(-0.000612752 5.3819e-05 0)
(-0.00080646 5.86565e-05 0)
(-0.00101457 6.25954e-05 0)
(-0.00123441 6.57265e-05 0)
(-0.00146353 6.81346e-05 0)
(-0.00169968 6.98949e-05 0)
(-0.0019408 7.10716e-05 0)
(-0.00218495 7.1717e-05 0)
(-0.00243038 7.18719e-05 0)
(-0.00267538 7.15657e-05 0)
(-0.00291837 7.08177e-05 0)
(-0.00315778 6.96386e-05 0)
(-0.00339209 6.80313e-05 0)
(-0.00361977 6.5993e-05 0)
(-0.0038393 6.35164e-05 0)
(-0.00404915 6.05918e-05 0)
(-0.00424775 5.72087e-05 0)
(-0.00443355 5.33576e-05 0)
(-0.00460496 4.90314e-05 0)
(-0.00476041 4.42273e-05 0)
(-0.00489834 3.89476e-05 0)
(-0.00501724 3.32017e-05 0)
(-0.00511564 2.70066e-05 0)
(-0.00519217 2.03883e-05 0)
(-0.00524558 1.33823e-05 0)
(-0.00527475 6.0342e-06 0)
(-0.00527874 -1.59985e-06 0)
(-0.00525681 -9.45349e-06 0)
(-0.00520848 -1.74504e-05 0)
(-0.00513352 -2.5505e-05 0)
(-0.00503198 -3.35233e-05 0)
(-0.00490424 -4.1404e-05 0)
(-0.004751 -4.90399e-05 0)
(-0.00457332 -5.63204e-05 0)
(-0.0043726 -6.3133e-05 0)
(-0.00415057 -6.93661e-05 0)
(-0.00390935 -7.49113e-05 0)
(-0.00365134 -7.96657e-05 0)
(-0.00337926 -8.35348e-05 0)
(-0.00309613 -8.6435e-05 0)
(-0.00280516 -8.82958e-05 0)
(-0.00250977 -8.90619e-05 0)
(-0.00221354 -8.86953e-05 0)
(-0.0019201 -8.71759e-05 0)
(-0.00163313 -8.45036e-05 0)
(-0.00135625 -8.06974e-05 0)
(-0.00109301 -7.57966e-05 0)
(-0.000846764 -6.98597e-05 0)
(-0.000620658 -6.2964e-05 0)
(-0.00041754 -5.52052e-05 0)
(-0.000239905 -4.66971e-05 0)
(-8.98282e-05 -3.75724e-05 0)
(3.1101e-05 -2.79857e-05 0)
(0.000121867 -1.8119e-05 0)
(0.000182135 -8.19708e-06 0)
(0.000212403 1.48546e-06 0)
(0.000214252 1.05075e-05 0)
(0.000190721 1.82326e-05 0)
(0.000146824 2.36503e-05 0)
(9.0635e-05 2.5072e-05 0)
(3.65881e-05 1.98162e-05 0)
(6.22942e-06 6.24406e-06 0)
(2.0894e-05 -4.55682e-05 0)
(6.5591e-05 -6.53291e-05 0)
(9.44043e-05 -4.02122e-05 0)
(7.22243e-05 7.91499e-06 0)
(-1.97141e-05 6.58738e-05 0)
(-0.000188199 0.000126087 0)
(-0.000433794 0.000184293 0)
(-0.000753275 0.000238237 0)
(-0.0011411 0.00028679 0)
(-0.0015905 0.000329514 0)
(-0.00209414 0.000366368 0)
(-0.00264458 0.000397542 0)
(-0.00323452 0.000423348 0)
(-0.00385698 0.000444151 0)
(-0.00450537 0.000460327 0)
(-0.00517351 0.000472236 0)
(-0.00585559 0.000480198 0)
(-0.00654619 0.000484488 0)
(-0.00724018 0.000485331 0)
(-0.00793268 0.000482896 0)
(-0.008619 0.000477306 0)
(-0.0092946 0.000468637 0)
(-0.00995501 0.000456927 0)
(-0.0105958 0.000442186 0)
(-0.0112126 0.000424403 0)
(-0.011801 0.000403554 0)
(-0.0123566 0.000379614 0)
(-0.012875 0.000352568 0)
(-0.0133518 0.000322416 0)
(-0.0137827 0.000289185 0)
(-0.0141635 0.000252934 0)
(-0.01449 0.000213767 0)
(-0.0147584 0.000171833 0)
(-0.014965 0.000127335 0)
(-0.0151067 8.05317e-05 0)
(-0.0151804 3.1741e-05 0)
(-0.015184 -1.86589e-05 0)
(-0.0151156 -7.02305e-05 0)
(-0.0149741 -0.00012248 0)
(-0.0147591 -0.000174862 0)
(-0.014471 -0.000226783 0)
(-0.014111 -0.000277614 0)
(-0.0136813 -0.000326693 0)
(-0.0131849 -0.000373343 0)
(-0.0126257 -0.000416882 0)
(-0.0120085 -0.000456636 0)
(-0.0113391 -0.000491953 0)
(-0.0106241 -0.00052222 0)
(-0.00987096 -0.000546876 0)
(-0.00908763 -0.000565428 0)
(-0.00828284 -0.000577463 0)
(-0.00746575 -0.000582662 0)
(-0.00664588 -0.000580809 0)
(-0.00583295 -0.000571801 0)
(-0.00503672 -0.000555652 0)
(-0.00426684 -0.000532501 0)
(-0.00353269 -0.000502611 0)
(-0.00284317 -0.00046637 0)
(-0.00220655 -0.00042429 0)
(-0.00163029 -0.00037701 0)
(-0.00112088 -0.000325297 0)
(-0.000683597 -0.000270054 0)
(-0.000322364 -0.000212338 0)
(-3.94662e-05 -0.0001534 0)
(0.000164719 -9.47457e-05 0)
(0.000292105 -3.8252e-05 0)
(0.000347419 1.36325e-05 0)
(0.000338906 5.76064e-05 0)
(0.000279022 8.90855e-05 0)
(0.00018558 0.000101583 0)
(8.61919e-05 8.63394e-05 0)
(1.96515e-05 3.64434e-05 0)
(1.76167e-05 -8.09763e-05 0)
(4.11766e-05 -9.44362e-05 0)
(1.91993e-05 -1.85052e-05 0)
(-8.46295e-05 0.000106449 0)
(-0.000291007 0.000254974 0)
(-0.000608637 0.000410666 0)
(-0.00103875 0.000563242 0)
(-0.00157753 0.00070658 0)
(-0.00221781 0.000837244 0)
(-0.00295041 0.000953536 0)
(-0.00376507 0.00105486 0)
(-0.00465109 0.00114132 0)
(-0.00559778 0.00121342 0)
(-0.00659468 0.00127189 0)
(-0.00763176 0.00131755 0)
(-0.00869948 0.00135122 0)
(-0.00978876 0.00137367 0)
(-0.010891 0.00138557 0)
(-0.0119981 0.00138748 0)
(-0.0131021 0.00137985 0)
(-0.0141954 0.00136301 0)
(-0.0152708 0.00133717 0)
(-0.0163211 0.00130247 0)
(-0.017339 0.00125898 0)
(-0.0183175 0.00120669 0)
(-0.0192496 0.00114561 0)
(-0.0201283 0.00107571 0)
(-0.0209466 0.000997027 0)
(-0.0216977 0.000909613 0)
(-0.0223748 0.000813608 0)
(-0.0229713 0.000709244 0)
(-0.0234811 0.000596866 0)
(-0.0238981 0.000476945 0)
(-0.0242169 0.000350096 0)
(-0.0244326 0.000217083 0)
(-0.024541 7.88261e-05 0)
(-0.0245387 -6.35967e-05 0)
(-0.0244232 -0.000208953 0)
(-0.0241931 -0.000355863 0)
(-0.0238479 -0.000502812 0)
(-0.0233885 -0.000648169 0)
(-0.022817 -0.000790205 0)
(-0.0221369 -0.000927122 0)
(-0.0213531 -0.00105708 0)
(-0.0204717 -0.00117823 0)
(-0.0195004 -0.00128876 0)
(-0.018448 -0.00138692 0)
(-0.0173249 -0.00147107 0)
(-0.0161422 -0.0015397 0)
(-0.0149125 -0.0015915 0)
(-0.013649 -0.00162538 0)
(-0.0123658 -0.0016405 0)
(-0.0110772 -0.00163629 0)
(-0.00979828 -0.00161249 0)
(-0.00854374 -0.00156918 0)
(-0.0073283 -0.00150676 0)
(-0.00616619 -0.00142596 0)
(-0.00507091 -0.00132788 0)
(-0.004055 -0.00121398 0)
(-0.0031297 -0.00108604 0)
(-0.00230476 -0.000946235 0)
(-0.00158806 -0.000797132 0)
(-0.000985333 -0.000641728 0)
(-0.000499821 -0.000483547 0)
(-0.000131849 -0.000326777 0)
(0.00012164 -0.000176497 0)
(0.000267715 -3.90101e-05 0)
(0.000318179 7.76842e-05 0)
(0.000290124 0.000163307 0)
(0.000206723 0.000204713 0)
(0.000102173 0.000185807 0)
(2.49225e-05 9.02256e-05 0)
(8.79964e-06 -9.73281e-05 0)
(-7.17926e-06 -7.23467e-05 0)
(-0.000107917 8.5623e-05 0)
(-0.000322792 0.000319003 0)
(-0.000669969 0.00059038 0)
(-0.00115781 0.0008742 0)
(-0.00178702 0.00115348 0)
(-0.00255285 0.00141746 0)
(-0.00344674 0.0016597 0)
(-0.00445767 0.00187668 0)
(-0.00557319 0.00206684 0)
(-0.00678011 0.00222993 0)
(-0.00806504 0.00236653 0)
(-0.00941475 0.00247765 0)
(-0.0108164 0.00256458 0)
(-0.0122575 0.00262865 0)
(-0.0137262 0.00267112 0)
(-0.0152111 0.00269316 0)
(-0.0167013 0.00269573 0)
(-0.0181863 0.00267963 0)
(-0.0196559 0.00264546 0)
(-0.0211001 0.00259364 0)
(-0.0225092 0.00252444 0)
(-0.0238735 0.00243802 0)
(-0.0251836 0.00233447 0)
(-0.0264299 0.00221382 0)
(-0.0276032 0.00207614 0)
(-0.0286942 0.00192153 0)
(-0.0296937 0.0017502 0)
(-0.0305931 0.00156249 0)
(-0.0313835 0.00135894 0)
(-0.032057 0.00114028 0)
(-0.0326059 0.000907473 0)
(-0.0330232 0.000661762 0)
(-0.0333026 0.000404655 0)
(-0.033439 0.000137951 0)
(-0.033428 -0.000136268 0)
(-0.0332667 -0.000415636 0)
(-0.0329535 -0.000697525 0)
(-0.032488 -0.000979064 0)
(-0.0318717 -0.00125717 0)
(-0.0311075 -0.0015286 0)
(-0.0302002 -0.00178998 0)
(-0.0291562 -0.00203788 0)
(-0.0279839 -0.00226885 0)
(-0.0266931 -0.00247952 0)
(-0.0252957 -0.00266665 0)
(-0.0238048 -0.00282718 0)
(-0.0222352 -0.00295835 0)
(-0.0206031 -0.00305773 0)
(-0.0189256 -0.00312331 0)
(-0.0172208 -0.00315355 0)
(-0.0155076 -0.00314741 0)
(-0.0138049 -0.00310446 0)
(-0.012132 -0.00302484 0)
(-0.0105078 -0.00290932 0)
(-0.00895063 -0.00275934 0)
(-0.00747789 -0.00257698 0)
(-0.0061057 -0.002365 0)
(-0.00484855 -0.00212684 0)
(-0.0037189 -0.00186664 0)
(-0.00272687 -0.00158929 0)
(-0.00187979 -0.00130049 0)
(-0.00118178 -0.00100689 0)
(-0.00063334 -0.000716299 0)
(-0.00023078 -0.00043796 0)
(3.43427e-05 -0.000183005 0)
(0.00017588 3.49882e-05 0)
(0.000213507 0.000199331 0)
(0.000173327 0.000289662 0)
(9.2702e-05 0.000281713 0)
(2.39608e-05 0.000146948 0)
(-2.16157e-06 -8.39004e-05 0)
(-6.74036e-05 2.18258e-05 0)
(-0.000264247 0.000296353 0)
(-0.000609785 0.000668579 0)
(-0.00111644 0.00109081 0)
(-0.0017904 0.00152922 0)
(-0.00263063 0.00196044 0)
(-0.00363076 0.00236904 0)
(-0.00478067 0.00274533 0)
(-0.00606765 0.0030837 0)
(-0.00747739 0.00338138 0)
(-0.00899466 0.00363756 0)
(-0.0106039 0.0038527 0)
(-0.0122895 0.00402804 0)
(-0.0140363 0.00416525 0)
(-0.0158295 0.00426613 0)
(-0.0176547 0.00433248 0)
(-0.0194981 0.00436593 0)
(-0.0213464 0.00436792 0)
(-0.0231866 0.00433961 0)
(-0.0250061 0.00428191 0)
(-0.0267928 0.00419549 0)
(-0.0285344 0.00408079 0)
(-0.0302191 0.00393812 0)
(-0.0318352 0.00376768 0)
(-0.033371 0.00356961 0)
(-0.0348151 0.0033441 0)
(-0.0361562 0.00309143 0)
(-0.0373832 0.00281204 0)
(-0.0384853 0.0025066 0)
(-0.0394523 0.00217605 0)
(-0.0402744 0.00182165 0)
(-0.0409425 0.00144506 0)
(-0.0414483 0.00104831 0)
(-0.0417845 0.000633896 0)
(-0.0419449 0.000204716 0)
(-0.0419248 -0.000235873 0)
(-0.0417208 -0.000684092 0)
(-0.041331 -0.00113576 0)
(-0.0407555 -0.00158634 0)
(-0.0399961 -0.00203097 0)
(-0.0390566 -0.00246454 0)
(-0.0379429 -0.00288177 0)
(-0.0366629 -0.00327729 0)
(-0.0352266 -0.00364573 0)
(-0.0336462 -0.00398183 0)
(-0.0319356 -0.00428053 0)
(-0.0301108 -0.0045371 0)
(-0.0281895 -0.00474724 0)
(-0.0261909 -0.0049072 0)
(-0.0241356 -0.00501386 0)
(-0.0220452 -0.00506481 0)
(-0.0199421 -0.0050585 0)
(-0.0178489 -0.00499424 0)
(-0.0157887 -0.00487229 0)
(-0.013784 -0.00469389 0)
(-0.0118565 -0.00446131 0)
(-0.0100272 -0.00417786 0)
(-0.00831525 -0.0038479 0)
(-0.00673794 -0.0034769 0)
(-0.00531022 -0.0030714 0)
(-0.00404421 -0.00263913 0)
(-0.00294877 -0.00218905 0)
(-0.00202906 -0.00173156 0)
(-0.00128603 -0.00127868 0)
(-0.000715945 -0.00084443 0)
(-0.000309841 -0.000445267 0)
(-5.29946e-05 -0.000100715 0)
(7.54161e-05 0.000165932 0)
(0.000102829 0.000326986 0)
(6.71752e-05 0.00034975 0)
(1.95965e-05 0.000193622 0)
(-1.37162e-05 -3.69667e-05 0)
(-0.000132841 0.000198298 0)
(-0.000435663 0.000627657 0)
(-0.000924075 0.00117053 0)
(-0.00160266 0.00177109 0)
(-0.00247394 0.00238859 0)
(-0.00353407 0.00299405 0)
(-0.00477436 0.00356775 0)
(-0.00618271 0.00409686 0)
(-0.00774464 0.00457367 0)
(-0.00944403 0.0049941 0)
(-0.0112638 0.00535666 0)
(-0.0131866 0.00566162 0)
(-0.0151949 0.00591032 0)
(-0.0172714 0.00610476 0)
(-0.0193992 0.00624719 0)
(-0.021562 0.00633989 0)
(-0.0237437 0.00638499 0)
(-0.025929 0.00638435 0)
(-0.0281027 0.00633954 0)
(-0.0302502 0.0062518 0)
(-0.032357 0.00612205 0)
(-0.0344091 0.00595096 0)
(-0.0363925 0.00573901 0)
(-0.0382934 0.00548656 0)
(-0.0400983 0.00519392 0)
(-0.0417937 0.00486147 0)
(-0.0433666 0.00448975 0)
(-0.0448042 0.00407951 0)
(-0.046094 0.00363184 0)
(-0.0472243 0.00314823 0)
(-0.0481838 0.00263063 0)
(-0.0489621 0.00208152 0)
(-0.0495499 0.00150393 0)
(-0.049939 0.000901501 0)
(-0.0501225 0.000278478 0)
(-0.050095 -0.000360286 0)
(-0.0498529 -0.00100935 0)
(-0.0493943 -0.00166273 0)
(-0.0487193 -0.00231392 0)
(-0.0478304 -0.00295602 0)
(-0.0467319 -0.00358177 0)
(-0.0454308 -0.00418369 0)
(-0.0439362 -0.00475418 0)
(-0.0422597 -0.00528565 0)
(-0.040415 -0.00577068 0)
(-0.0384183 -0.00620215 0)
(-0.0362879 -0.0065734 0)
(-0.0340438 -0.00687837 0)
(-0.031708 -0.00711178 0)
(-0.0293039 -0.00726922 0)
(-0.0268561 -0.00734735 0)
(-0.0243902 -0.00734395 0)
(-0.0219321 -0.00725806 0)
(-0.019508 -0.00709006 0)
(-0.0171435 -0.00684173 0)
(-0.0148637 -0.00651629 0)
(-0.0126924 -0.00611846 0)
(-0.0106516 -0.00565445 0)
(-0.00876125 -0.00513202 0)
(-0.00703855 -0.00456049 0)
(-0.0054976 -0.00395082 0)
(-0.00414888 -0.00331567 0)
(-0.00299875 -0.00266963 0)
(-0.00204901 -0.00202937 0)
(-0.0012964 -0.00141405 0)
(-0.000732181 -0.000845766 0)
(-0.000341675 -0.000350152 0)
(-0.000103977 4.287e-05 0)
(8.47837e-06 0.000298416 0)
(3.21959e-05 0.000375732 0)
(1.35565e-05 0.000223828 0)
(-2.51859e-05 4.46427e-05 0)
(-0.000199882 0.000462032 0)
(-0.000613536 0.0010874 0)
(-0.00125163 0.00183418 0)
(-0.00210965 0.00264067 0)
(-0.00318544 0.00346074 0)
(-0.00447143 0.00426087 0)
(-0.00595592 0.00501767 0)
(-0.00762441 0.00571558 0)
(-0.0094604 0.00634496 0)
(-0.0114459 0.00690049 0)
(-0.0135622 0.00738003 0)
(-0.01579 0.0077836 0)
(-0.0181103 0.00811262 0)
(-0.0205038 0.00836936 0)
(-0.022952 0.00855648 0)
(-0.0254367 0.00867671 0)
(-0.0279401 0.00873265 0)
(-0.0304448 0.00872661 0)
(-0.0329339 0.00866052 0)
(-0.0353909 0.00853597 0)
(-0.0377995 0.00835416 0)
(-0.0401437 0.008116 0)
(-0.0424077 0.00782218 0)
(-0.0445761 0.00747324 0)
(-0.0466335 0.00706973 0)
(-0.0485648 0.00661229 0)
(-0.0503552 0.00610177 0)
(-0.0519905 0.00553933 0)
(-0.0534567 0.0049266 0)
(-0.0547407 0.00426572 0)
(-0.0558299 0.00355945 0)
(-0.056713 0.00281125 0)
(-0.0573796 0.00202529 0)
(-0.0578206 0.00120657 0)
(-0.0580285 0.000360833 0)
(-0.0579975 -0.000505356 0)
(-0.0577237 -0.00138468 0)
(-0.057205 -0.00226912 0)
(-0.0564418 -0.00315001 0)
(-0.0554368 -0.00401813 0)
(-0.054195 -0.00486384 0)
(-0.0527241 -0.00567721 0)
(-0.0510343 -0.00644816 0)
(-0.0491383 -0.00716665 0)
(-0.0470515 -0.00782286 0)
(-0.0447917 -0.00840737 0)
(-0.042379 -0.00891136 0)
(-0.0398358 -0.00932684 0)
(-0.0371862 -0.00964678 0)
(-0.0344563 -0.00986538 0)
(-0.0316732 -0.00997817 0)
(-0.0288651 -0.00998221 0)
(-0.0260611 -0.00987622 0)
(-0.0232899 -0.00966067 0)
(-0.0205803 -0.0093379 0)
(-0.0179601 -0.00891218 0)
(-0.015456 -0.00838975 0)
(-0.0130926 -0.00777885 0)
(-0.0108924 -0.00708977 0)
(-0.00887477 -0.00633487 0)
(-0.00705593 -0.00552863 0)
(-0.00544808 -0.00468775 0)
(-0.00405908 -0.0038313 0)
(-0.00289194 -0.00298091 0)
(-0.00194439 -0.00216115 0)
(-0.00120852 -0.00139987 0)
(-0.000670437 -0.000728882 0)
(-0.000309981 -0.000184598 0)
(-0.000100387 0.000191242 0)
(-7.96139e-06 0.000350591 0)
(6.80511e-06 0.000234149 0)
(-3.63128e-05 0.000160911 0)
(-0.000266648 0.000814868 0)
(-0.000792765 0.00167933 0)
(-0.00158353 0.00266451 0)
(-0.00262478 0.00370489 0)
(-0.00390895 0.00475057 0)
(-0.00542409 0.00576462 0)
(-0.00715492 0.00672084 0)
(-0.00908416 0.00760148 0)
(-0.011193 0.00839531 0)
(-0.0134614 0.00909603 0)
(-0.015869 0.00970091 0)
(-0.0183948 0.0102098 0)
(-0.0210181 0.0106242 0)
(-0.0237182 0.0109466 0)
(-0.026475 0.0111802 0)
(-0.0292685 0.011328 0)
(-0.0320796 0.0113931 0)
(-0.0348891 0.0113782 0)
(-0.0376786 0.0112857 0)
(-0.0404298 0.0111174 0)
(-0.0431249 0.0108749 0)
(-0.0457462 0.0105593 0)
(-0.0482765 0.0101716 0)
(-0.0506984 0.0097124 0)
(-0.0529953 0.00918267 0)
(-0.0551504 0.00858331 0)
(-0.0571476 0.00791556 0)
(-0.0589712 0.00718109 0)
(-0.0606059 0.00638213 0)
(-0.0620375 0.00552158 0)
(-0.0632522 0.00460312 0)
(-0.0642377 0.00363132 0)
(-0.0649826 0.00261166 0)
(-0.0654772 0.00155059 0)
(-0.0657134 0.000455548 0)
(-0.0656848 -0.000665031 0)
(-0.0653872 -0.00180178 0)
(-0.0648184 -0.00294446 0)
(-0.0639789 -0.00408201 0)
(-0.0628714 -0.00520274 0)
(-0.0615015 -0.00629441 0)
(-0.0598774 -0.00734441 0)
(-0.0580101 -0.00833999 0)
(-0.0559134 -0.00926844 0)
(-0.0536038 -0.0101173 0)
(-0.0511005 -0.0108747 0)
(-0.0484254 -0.0115294 0)
(-0.0456024 -0.0120712 0)
(-0.0426579 -0.0124914 0)
(-0.0396199 -0.0127824 0)
(-0.0365181 -0.0129386 0)
(-0.0333831 -0.0129562 0)
(-0.0302465 -0.0128335 0)
(-0.0271398 -0.012571 0)
(-0.0240944 -0.0121716 0)
(-0.0211409 -0.0116407 0)
(-0.0183086 -0.0109861 0)
(-0.0156248 -0.0102182 0)
(-0.0131145 -0.00934995 0)
(-0.0107994 -0.00839698 0)
(-0.00869782 -0.00737752 0)
(-0.00682407 -0.00631251 0)
(-0.00518773 -0.00522574 0)
(-0.00379341 -0.004144 0)
(-0.0026403 -0.00309738 0)
(-0.00172182 -0.00211961 0)
(-0.00102548 -0.0012486 0)
(-0.000532479 -0.000527054 0)
(-0.000217543 -3.10797e-06 0)
(-5.0636e-05 0.000268784 0)
(-1.28148e-07 0.000222889 0)
(-4.70038e-05 0.000311198 0)
(-0.000332166 0.00125669 0)
(-0.000970371 0.00240437 0)
(-0.00191421 0.00366334 0)
(-0.00313968 0.00496604 0)
(-0.00463345 0.00626028 0)
(-0.00637873 0.00750691 0)
(-0.00835626 0.00867783 0)
(-0.0105456 0.00975375 0)
(-0.0129253 0.0107224 0)
(-0.0154734 0.0115766 0)
(-0.0181674 0.0123135 0)
(-0.0209849 0.0129328 0)
(-0.0239036 0.0134361 0)
(-0.0269014 0.0138264 0)
(-0.0299566 0.0141069 0)
(-0.0330481 0.0142814 0)
(-0.0361551 0.0143533 0)
(-0.0392573 0.0143257 0)
(-0.0423346 0.0142013 0)
(-0.0453675 0.0139824 0)
(-0.0483367 0.0136707 0)
(-0.0512231 0.0132677 0)
(-0.0540079 0.0127745 0)
(-0.0566726 0.0121922 0)
(-0.059199 0.0115218 0)
(-0.0615691 0.0107648 0)
(-0.0637655 0.00992268 0)
(-0.0657712 0.0089978 0)
(-0.0675698 0.00799303 0)
(-0.0691459 0.00691213 0)
(-0.0704847 0.00575979 0)
(-0.071573 0.0045418 0)
(-0.0723987 0.00326501 0)
(-0.0729511 0.00193751 0)
(-0.0732215 0.000568529 0)
(-0.0732031 -0.000831485 0)
(-0.0728912 -0.00225097 0)
(-0.0722836 -0.0036773 0)
(-0.0713804 -0.0050969 0)
(-0.0701845 -0.00649539 0)
(-0.0687016 -0.00785776 0)
(-0.0669404 -0.00916857 0)
(-0.0649123 -0.0104122 0)
(-0.0626319 -0.011573 0)
(-0.0601167 -0.0126358 0)
(-0.0573871 -0.0135859 0)
(-0.054466 -0.0144096 0)
(-0.0513793 -0.0150944 0)
(-0.0481548 -0.0156294 0)
(-0.0448226 -0.0160053 0)
(-0.0414143 -0.0162151 0)
(-0.0379631 -0.016254 0)
(-0.0345028 -0.0161198 0)
(-0.0310674 -0.0158129 0)
(-0.0276912 -0.0153369 0)
(-0.0244072 -0.0146981 0)
(-0.0212475 -0.0139059 0)
(-0.018242 -0.0129731 0)
(-0.0154183 -0.0119153 0)
(-0.0128008 -0.0107516 0)
(-0.01041 -0.00950393 0)
(-0.00826256 -0.00819783 0)
(-0.00637012 -0.00686192 0)
(-0.00473928 -0.00552829 0)
(-0.00337107 -0.00423264 0)
(-0.00226077 -0.00301461 0)
(-0.00139769 -0.00191811 0)
(-0.000764921 -0.000991926 0)
(-0.000339097 -0.000290128 0)
(-9.42741e-05 0.000127221 0)
(-6.97404e-06 0.000189405 0)
(-5.72482e-05 0.000494593 0)
(-0.00039596 0.00178626 0)
(-0.00114463 0.00326163 0)
(-0.00224015 0.00483027 0)
(-0.00364882 0.00642407 0)
(-0.00535135 0.00798987 0)
(-0.00732584 0.00948746 0)
(-0.00954878 0.0108877 0)
(-0.0119963 0.0121706 0)
(-0.0146442 0.0133232 0)
(-0.0174681 0.0143382 0)
(-0.0204438 0.0152125 0)
(-0.0235471 0.015946 0)
(-0.0267543 0.0165407 0)
(-0.0300418 0.0169997 0)
(-0.0333868 0.017327 0)
(-0.0367669 0.0175266 0)
(-0.04016 0.0176023 0)
(-0.0435445 0.0175578 0)
(-0.0468994 0.017396 0)
(-0.0502036 0.0171196 0)
(-0.0534368 0.0167306 0)
(-0.0565786 0.0162306 0)
(-0.0596091 0.0156212 0)
(-0.0625084 0.0149036 0)
(-0.0652571 0.0140793 0)
(-0.0678362 0.0131499 0)
(-0.070227 0.0121177 0)
(-0.0724114 0.0109855 0)
(-0.074372 0.00975692 0)
(-0.0760923 0.00843663 0)
(-0.0775567 0.00703044 0)
(-0.0787509 0.00554538 0)
(-0.0796619 0.00398984 0)
(-0.0802786 0.00237356 0)
(-0.0805914 0.00070771 0)
(-0.0805929 -0.000995164 0)
(-0.0802779 -0.00272118 0)
(-0.0796438 -0.00445521 0)
(-0.0786905 -0.00618102 0)
(-0.0774207 -0.00788141 0)
(-0.0758401 -0.00953845 0)
(-0.0739575 -0.0111337 0)
(-0.0717847 -0.0126484 0)
(-0.0693367 -0.014064 0)
(-0.0666316 -0.0153622 0)
(-0.0636907 -0.0165254 0)
(-0.0605382 -0.0175372 0)
(-0.0572009 -0.0183826 0)
(-0.0537084 -0.0190482 0)
(-0.0500924 -0.0195229 0)
(-0.0463867 -0.0197981 0)
(-0.0426262 -0.0198679 0)
(-0.0388473 -0.0197293 0)
(-0.0350865 -0.0193827 0)
(-0.0313805 -0.018832 0)
(-0.0277653 -0.0180845 0)
(-0.0242756 -0.0171513 0)
(-0.0209442 -0.0160474 0)
(-0.0178013 -0.0147913 0)
(-0.0148741 -0.0134053 0)
(-0.0121859 -0.0119157 0)
(-0.00975582 -0.0103524 0)
(-0.00759794 -0.00874897 0)
(-0.00572121 -0.00714296 0)
(-0.00412893 -0.00557578 0)
(-0.00281855 -0.00409294 0)
(-0.00178163 -0.00274432 0)
(-0.00100345 -0.00158457 0)
(-0.000462846 -0.000673342 0)
(-0.000138062 -7.56985e-05 0)
(-1.36174e-05 0.00013362 0)
(-6.70643e-05 0.000710061 0)
(-0.000457808 0.00240166 0)
(-0.00131455 0.004249 0)
(-0.00255918 0.00616331 0)
(-0.00414852 0.00807715 0)
(-0.00605735 0.00993758 0)
(-0.00825856 0.0117044 0)
(-0.0107242 0.0133483 0)
(-0.0134268 0.0148492 0)
(-0.0163392 0.0161943 0)
(-0.0194347 0.0173763 0)
(-0.022687 0.0183926 0)
(-0.0260703 0.0192433 0)
(-0.0295593 0.0199308 0)
(-0.0331294 0.020459 0)
(-0.0367564 0.020832 0)
(-0.0404168 0.0210546 0)
(-0.0440874 0.021131 0)
(-0.0477457 0.0210651 0)
(-0.0513694 0.0208605 0)
(-0.0549367 0.0205199 0)
(-0.0584258 0.0200458 0)
(-0.0618156 0.01944 0)
(-0.0650849 0.0187043 0)
(-0.0682129 0.0178403 0)
(-0.0711792 0.0168497 0)
(-0.0739636 0.0157347 0)
(-0.0765464 0.014498 0)
(-0.0789087 0.0131429 0)
(-0.0810319 0.011674 0)
(-0.0828985 0.0100969 0)
(-0.0844922 0.00841853 0)
(-0.0857978 0.00664721 0)
(-0.0868013 0.00479289 0)
(-0.0874908 0.00286708 0)
(-0.087856 0.000882932 0)
(-0.0878887 -0.00114483 0)
(-0.0875834 -0.00319992 0)
(-0.0869365 -0.00526461 0)
(-0.0859477 -0.0073199 0)
(-0.0846193 -0.00934565 0)
(-0.0829567 -0.0113209 0)
(-0.0809686 -0.0132239 0)
(-0.0786668 -0.015033 0)
(-0.0760666 -0.016726 0)
(-0.0731864 -0.0182817 0)
(-0.0700482 -0.0196794 0)
(-0.0666768 -0.0208995 0)
(-0.0631004 -0.0219243 0)
(-0.0593496 -0.0227379 0)
(-0.0554579 -0.0233271 0)
(-0.0514607 -0.0236814 0)
(-0.0473951 -0.0237935 0)
(-0.0432997 -0.0236596 0)
(-0.0392135 -0.0232798 0)
(-0.035176 -0.0226582 0)
(-0.0312258 -0.0218031 0)
(-0.0274006 -0.0207272 0)
(-0.0237362 -0.0194475 0)
(-0.020266 -0.0179854 0)
(-0.0170199 -0.0163669 0)
(-0.0140245 -0.0146222 0)
(-0.0113015 -0.0127858 0)
(-0.00886801 -0.0108965 0)
(-0.00673561 -0.00899721 0)
(-0.00491024 -0.0071352 0)
(-0.00339189 -0.00536188 0)
(-0.00217465 -0.00373307 0)
(-0.00124624 -0.00230917 0)
(-0.000587785 -0.00115518 0)
(-0.000181677 -0.000340804 0)
(-2.00322e-05 5.57049e-05 0)
(-7.64768e-05 0.000956522 0)
(-0.00051761 0.00310057 0)
(-0.00147955 0.00536361 0)
(-0.00286986 0.00765937 0)
(-0.00463627 0.00992214 0)
(-0.00674768 0.0121002 0)
(-0.0091718 0.0141543 0)
(-0.0118762 0.0160559 0)
(-0.0148296 0.0177856 0)
(-0.0180019 0.0193311 0)
(-0.021364 0.0206861 0)
(-0.0248875 0.0218482 0)
(-0.0285448 0.0228184 0)
(-0.0323094 0.0235999 0)
(-0.0361552 0.0241969 0)
(-0.040057 0.0246144 0)
(-0.0439903 0.0248576 0)
(-0.047931 0.0249313 0)
(-0.0518555 0.0248398 0)
(-0.0557408 0.024587 0)
(-0.059564 0.024176 0)
(-0.0633028 0.0236095 0)
(-0.0669347 0.0228897 0)
(-0.070438 0.0220186 0)
(-0.0737908 0.020998 0)
(-0.0769718 0.01983 0)
(-0.07996 0.0185173 0)
(-0.0827347 0.0170629 0)
(-0.085276 0.015471 0)
(-0.0875646 0.0137469 0)
(-0.089582 0.0118971 0)
(-0.0913109 0.00992978 0)
(-0.0927353 0.00785457 0)
(-0.0938403 0.005683 0)
(-0.0946131 0.00342837 0)
(-0.0950425 0.00110584 0)
(-0.0951197 -0.00126762 0)
(-0.0948381 -0.00367326 0)
(-0.0941936 -0.00609072 0)
(-0.0931851 -0.0084981 0)
(-0.0918143 -0.0108723 0)
(-0.0900861 -0.013189 0)
(-0.0880087 -0.0154235 0)
(-0.0855938 -0.0175504 0)
(-0.0828566 -0.0195443 0)
(-0.0798157 -0.0213806 0)
(-0.0764932 -0.023035 0)
(-0.0729147 -0.0244851 0)
(-0.069109 -0.0257098 0)
(-0.0651082 -0.0266907 0)
(-0.0609469 -0.027412 0)
(-0.0566623 -0.027861 0)
(-0.0522935 -0.028029 0)
(-0.0478814 -0.0279109 0)
(-0.0434675 -0.0275065 0)
(-0.039094 -0.0268198 0)
(-0.0348025 -0.0258599 0)
(-0.030634 -0.024641 0)
(-0.0266274 -0.0231821 0)
(-0.0228194 -0.0215076 0)
(-0.0192434 -0.0196468 0)
(-0.015929 -0.0176342 0)
(-0.0129016 -0.0155088 0)
(-0.0101812 -0.0133148 0)
(-0.00778262 -0.0111006 0)
(-0.00571467 -0.00891941 0)
(-0.00398025 -0.00682854 0)
(-0.00257622 -0.00488983 0)
(-0.00149291 -0.00316943 0)
(-0.000713764 -0.00173763 0)
(-0.000225121 -0.000668655 0)
(-2.62454e-05 -4.41221e-05 0)
(-8.55073e-05 0.00123289 0)
(-0.000575318 0.00388047 0)
(-0.00163925 0.00660202 0)
(-0.00317122 0.00931454 0)
(-0.00511025 0.0119549 0)
(-0.00741956 0.0144735 0)
(-0.0100617 0.0168328 0)
(-0.0129997 0.019006 0)
(-0.0161988 0.020975 0)
(-0.0196257 0.0227287 0)
(-0.0232486 0.0242619 0)
(-0.0270373 0.0255734 0)
(-0.0309624 0.0266652 0)
(-0.034996 0.0275412 0)
(-0.0391107 0.0282066 0)
(-0.0432805 0.0286671 0)
(-0.0474798 0.0289285 0)
(-0.0516837 0.0289962 0)
(-0.0558679 0.028875 0)
(-0.0600086 0.028569 0)
(-0.0640821 0.0280819 0)
(-0.0680652 0.0274165 0)
(-0.0719351 0.0265753 0)
(-0.0756689 0.0255604 0)
(-0.0792442 0.0243742 0)
(-0.0826388 0.023019 0)
(-0.0858309 0.0214977 0)
(-0.0887991 0.0198141 0)
(-0.0915226 0.0179729 0)
(-0.0939811 0.0159801 0)
(-0.0961555 0.0138434 0)
(-0.0980274 0.0115719 0)
(-0.0995798 0.00917669 0)
(-0.100797 0.00667086 0)
(-0.101665 0.00406949 0)
(-0.102173 0.00138976 0)
(-0.102309 -0.0013491 0)
(-0.102067 -0.00412588 0)
(-0.101441 -0.00691748 0)
(-0.10043 -0.00969913 0)
(-0.0990338 -0.0124446 0)
(-0.0972572 -0.0151263 0)
(-0.0951076 -0.017716 0)
(-0.092596 -0.020185 0)
(-0.0897373 -0.0225041 0)
(-0.0865499 -0.0246451 0)
(-0.0830561 -0.0265803 0)
(-0.0792817 -0.0282836 0)
(-0.0752562 -0.0297307 0)
(-0.0710125 -0.0309001 0)
(-0.0665866 -0.0317731 0)
(-0.0620173 -0.0323349 0)
(-0.0573457 -0.0325745 0)
(-0.0526148 -0.0324857 0)
(-0.0478689 -0.0320673 0)
(-0.0431531 -0.0313232 0)
(-0.0385122 -0.0302631 0)
(-0.0339904 -0.0289024 0)
(-0.0296302 -0.0272622 0)
(-0.025472 -0.0253695 0)
(-0.021553 -0.0232573 0)
(-0.0179066 -0.020964 0)
(-0.0145616 -0.0185336 0)
(-0.0115417 -0.0160154 0)
(-0.00886531 -0.0134637 0)
(-0.00654445 -0.0109375 0)
(-0.00458521 -0.00850037 0)
(-0.00298745 -0.00622027 0)
(-0.0017442 -0.00416918 0)
(-0.000841233 -0.00242277 0)
(-0.000268617 -0.00105989 0)
(-3.23157e-05 -0.000165727 0)
(-9.41716e-05 0.00153806 0)
(-0.000630897 0.00473865 0)
(-0.00179338 0.00796042 0)
(-0.00346255 0.0111243 0)
(-0.0055691 0.0141704 0)
(-0.00807077 0.0170521 0)
(-0.0109251 0.0197344 0)
(-0.0140909 0.0221929 0)
(-0.0175294 0.0244115 0)
(-0.0212045 0.026381 0)
(-0.0250819 0.0280977 0)
(-0.0291292 0.029562 0)
(-0.0333155 0.0307771 0)
(-0.0376112 0.0317482 0)
(-0.0419882 0.0324814 0)
(-0.0464192 0.0329835 0)
(-0.0508779 0.0332608 0)
(-0.0553387 0.0333194 0)
(-0.0597766 0.0331646 0)
(-0.064167 0.0328011 0)
(-0.0684858 0.0322327 0)
(-0.0727092 0.0314626 0)
(-0.0768137 0.0304934 0)
(-0.0807758 0.0293277 0)
(-0.0845725 0.027968 0)
(-0.0881809 0.0264168 0)
(-0.0915785 0.0246776 0)
(-0.0947432 0.0227546 0)
(-0.0976533 0.0206531 0)
(-0.100288 0.0183799 0)
(-0.102627 0.0159435 0)
(-0.104651 0.0133543 0)
(-0.106343 0.0106245 0)
(-0.107685 0.00776884 0)
(-0.108662 0.00480415 0)
(-0.109263 0.0017496 0)
(-0.109474 -0.00137335 0)
(-0.109288 -0.00454101 0)
(-0.108699 -0.00772757 0)
(-0.107703 -0.0109053 0)
(-0.106301 -0.0140448 0)
(-0.104494 -0.0171151 0)
(-0.10229 -0.0200846 0)
(-0.0996987 -0.0229205 0)
(-0.0967346 -0.0255904 0)
(-0.0934156 -0.0280617 0)
(-0.0897636 -0.0303032 0)
(-0.0858046 -0.0322849 0)
(-0.0815686 -0.033979 0)
(-0.0770889 -0.0353603 0)
(-0.072403 -0.0364072 0)
(-0.0675509 -0.037102 0)
(-0.0625758 -0.0374315 0)
(-0.057523 -0.0373878 0)
(-0.0524396 -0.0369683 0)
(-0.0473736 -0.0361767 0)
(-0.0423732 -0.0350228 0)
(-0.0374865 -0.033523 0)
(-0.0327597 -0.0317005 0)
(-0.0282373 -0.0295848 0)
(-0.0239605 -0.0272123 0)
(-0.019967 -0.0246256 0)
(-0.0162897 -0.0218737 0)
(-0.0129563 -0.019011 0)
(-0.0099891 -0.0160979 0)
(-0.0074038 -0.0131994 0)
(-0.00520994 -0.0103856 0)
(-0.0034106 -0.0077307 0)
(-0.00200163 -0.00531275 0)
(-0.000971074 -0.00321309 0)
(-0.000312537 -0.0015155 0)
(-3.83214e-05 -0.000309148 0)
(-0.000102478 0.00187094 0)
(-0.000684307 0.00567228 0)
(-0.0019417 0.00943472 0)
(-0.00374321 0.0130836 0)
(-0.00601162 0.016563 0)
(-0.00869945 0.0198299 0)
(-0.0117594 0.0228529 0)
(-0.015146 0.0256102 0)
(-0.018817 0.0280885 0)
(-0.0227332 0.0302812 0)
(-0.0268579 0.0321866 0)
(-0.0311566 0.0338069 0)
(-0.0355968 0.0351472 0)
(-0.0401477 0.0362139 0)
(-0.0447799 0.0370146 0)
(-0.0494653 0.0375568 0)
(-0.0541768 0.037848 0)
(-0.0588883 0.0378948 0)
(-0.0635741 0.0377032 0)
(-0.0682092 0.0372783 0)
(-0.072769 0.0366242 0)
(-0.0772291 0.0357444 0)
(-0.0815657 0.0346419 0)
(-0.0857547 0.0333193 0)
(-0.0897726 0.0317793 0)
(-0.0935959 0.030025 0)
(-0.0972016 0.02806 0)
(-0.100567 0.025889 0)
(-0.103669 0.0235178 0)
(-0.106487 0.0209539 0)
(-0.109 0.0182068 0)
(-0.111187 0.0152877 0)
(-0.11303 0.0122103 0)
(-0.11451 0.00899073 0)
(-0.115612 0.00564747 0)
(-0.116322 0.00220165 0)
(-0.116626 -0.00132308 0)
(-0.116515 -0.00490057 0)
(-0.115982 -0.00850234 0)
(-0.115021 -0.0120977 0)
(-0.113631 -0.0156539 0)
(-0.111813 -0.0191369 0)
(-0.109574 -0.022511 0)
(-0.106922 -0.02574 0)
(-0.103869 -0.0287871 0)
(-0.100435 -0.0316161 0)
(-0.0966384 -0.0341912 0)
(-0.0925068 -0.0364786 0)
(-0.0880697 -0.0384464 0)
(-0.0833614 -0.0400657 0)
(-0.0784198 -0.0413112 0)
(-0.0732868 -0.0421621 0)
(-0.0680072 -0.0426024 0)
(-0.0626288 -0.042622 0)
(-0.0572015 -0.0422168 0)
(-0.0517764 -0.0413897 0)
(-0.0464056 -0.0401503 0)
(-0.0411408 -0.038516 0)
(-0.0360328 -0.0365114 0)
(-0.0311304 -0.0341687 0)
(-0.0264795 -0.0315276 0)
(-0.0221222 -0.0286348 0)
(-0.0180962 -0.0255442 0)
(-0.0144338 -0.0223159 0)
(-0.0111612 -0.0190161 0)
(-0.00829845 -0.0157166 0)
(-0.00585883 -0.0124937 0)
(-0.00384885 -0.00942845 0)
(-0.0022673 -0.00660536 0)
(-0.00110447 -0.00411181 0)
(-0.000357355 -0.00203698 0)
(-4.43526e-05 -0.000474652 0)
(-0.000110427 0.00223041 0)
(-0.000735487 0.00667841 0)
(-0.00208395 0.0110205 0)
(-0.00401262 0.015187 0)
(-0.00643675 0.0191265 0)
(-0.00930389 0.0228003 0)
(-0.0125622 0.026181 0)
(-0.016162 0.0292504 0)
(-0.0200577 0.0319986 0)
(-0.0242071 0.0344218 0)
(-0.0285712 0.036521 0)
(-0.0331134 0.0383008 0)
(-0.0377997 0.0397681 0)
(-0.0425981 0.0409312 0)
(-0.047478 0.041799 0)
(-0.0524107 0.0423804 0)
(-0.0573684 0.0426837 0)
(-0.0623243 0.0427166 0)
(-0.0672524 0.0424855 0)
(-0.0721272 0.041996 0)
(-0.0769238 0.0412527 0)
(-0.0816176 0.0402593 0)
(-0.0861841 0.039019 0)
(-0.090599 0.0375347 0)
(-0.0948385 0.0358092 0)
(-0.0988785 0.0338459 0)