/*--------------------------------*- C++ -*----------------------------------*\
  =========                 |
  \\      /  F ield         | OpenFOAM: The Open Source CFD Toolbox
   \\    /   O peration     | Website:  https://openfoam.org
    \\  /    A nd           | Version:  dev
     \\/     M anipulation  |
\*---------------------------------------------------------------------------*/
FoamFile
{
    format      ascii;
    class       volScalarField;
    location    "15.75";
    object      Uy;
}
// * * * * * * * * * * * * * * * * * * * * * * * * * * * * * * * * * * * * * //

dimensions      [0 1 -1 0 0 0 0];

internalField   nonuniform List<scalar> 
5184
(
-1.25427e-05
-2.07497e-05
-1.7148e-05
-8.12295e-06
2.72224e-06
1.36505e-05
2.38628e-05
3.30464e-05
4.10867e-05
4.79905e-05
5.3819e-05
5.86565e-05
6.25954e-05
6.57265e-05
6.81346e-05
6.98949e-05
7.10716e-05
7.1717e-05
7.18719e-05
7.15657e-05
7.08177e-05
6.96386e-05
6.80313e-05
6.5993e-05
6.35164e-05
6.05918e-05
5.72087e-05
5.33576e-05
4.90314e-05
4.42273e-05
3.89476e-05
3.32017e-05
2.70066e-05
2.03883e-05
1.33823e-05
6.0342e-06
-1.59985e-06
-9.45349e-06
-1.74504e-05
-2.5505e-05
-3.35233e-05
-4.1404e-05
-4.90399e-05
-5.63204e-05
-6.3133e-05
-6.93661e-05
-7.49113e-05
-7.96657e-05
-8.35348e-05
-8.6435e-05
-8.82958e-05
-8.90619e-05
-8.86953e-05
-8.71759e-05
-8.45036e-05
-8.06974e-05
-7.57966e-05
-6.98597e-05
-6.2964e-05
-5.52052e-05
-4.66971e-05
-3.75724e-05
-2.79857e-05
-1.8119e-05
-8.19708e-06
1.48546e-06
1.05075e-05
1.82326e-05
2.36503e-05
2.5072e-05
1.98162e-05
6.24406e-06
-4.55682e-05
-6.53291e-05
-4.02122e-05
7.91499e-06
6.58738e-05
0.000126087
0.000184293
0.000238237
0.00028679
0.000329514
0.000366368
0.000397542
0.000423348
0.000444151
0.000460327
0.000472236
0.000480198
0.000484488
0.000485331
0.000482896
0.000477306
0.000468637
0.000456927
0.000442186
0.000424403
0.000403554
0.000379614
0.000352568
0.000322416
0.000289185
0.000252934
0.000213767
0.000171833
0.000127335
8.05317e-05
3.1741e-05
-1.86589e-05
-7.02305e-05
-0.00012248
-0.000174862
-0.000226783
-0.000277614
-0.000326693
-0.000373343
-0.000416882
-0.000456636
-0.000491953
-0.00052222
-0.000546876
-0.000565428
-0.000577463
-0.000582662
-0.000580809
-0.000571801
-0.000555652
-0.000532501
-0.000502611
-0.00046637
-0.00042429
-0.00037701
-0.000325297
-0.000270054
-0.000212338
-0.0001534
-9.47457e-05
-3.8252e-05
1.36325e-05
5.76064e-05
8.90855e-05
0.000101583
8.63394e-05
3.64434e-05
-8.09763e-05
-9.44362e-05
-1.85052e-05
0.000106449
0.000254974
0.000410666
0.000563242
0.00070658
0.000837244
0.000953536
0.00105486
0.00114132
0.00121342
0.00127189
0.00131755
0.00135122
0.00137367
0.00138557
0.00138748
0.00137985
0.00136301
0.00133717
0.00130247
0.00125898
0.00120669
0.00114561
0.00107571
0.000997027
0.000909613
0.000813608
0.000709244
0.000596866
0.000476945
0.000350096
0.000217083
7.88261e-05
-6.35967e-05
-0.000208953
-0.000355863
-0.000502812
-0.000648169
-0.000790205
-0.000927122
-0.00105708
-0.00117823
-0.00128876
-0.00138692
-0.00147107
-0.0015397
-0.0015915
-0.00162538
-0.0016405
-0.00163629
-0.00161249
-0.00156918
-0.00150676
-0.00142596
-0.00132788
-0.00121398
-0.00108604
-0.000946235
-0.000797132
-0.000641728
-0.000483547
-0.000326777
-0.000176497
-3.90101e-05
7.76842e-05
0.000163307
0.000204713
0.000185807
9.02256e-05
-9.73281e-05
-7.23467e-05
8.5623e-05
0.000319003
0.00059038
0.0008742
0.00115348
0.00141746
0.0016597
0.00187668
0.00206684
0.00222993
0.00236653
0.00247765
0.00256458
0.00262865
0.00267112
0.00269316
0.00269573
0.00267963
0.00264546
0.00259364
0.00252444
0.00243802
0.00233447
0.00221382
0.00207614
0.00192153
0.0017502
0.00156249
0.00135894
0.00114028
0.000907473
0.000661762
0.000404655
0.000137951
-0.000136268
-0.000415636
-0.000697525
-0.000979064
-0.00125717
-0.0015286
-0.00178998
-0.00203788
-0.00226885
-0.00247952
-0.00266665
-0.00282718
-0.00295835
-0.00305773
-0.00312331
-0.00315355
-0.00314741
-0.00310446
-0.00302484
-0.00290932
-0.00275934
-0.00257698
-0.002365
-0.00212684
-0.00186664
-0.00158929
-0.00130049
-0.00100689
-0.000716299
-0.00043796
-0.000183005
3.49882e-05
0.000199331
0.000289662
0.000281713
0.000146948
-8.39004e-05
2.18258e-05
0.000296353
0.000668579
0.00109081
0.00152922
0.00196044
0.00236904
0.00274533
0.0030837
0.00338138
0.00363756
0.0038527
0.00402804
0.00416525
0.00426613
0.00433248
0.00436593
0.00436792
0.00433961
0.00428191
0.00419549
0.00408079
0.00393812
0.00376768
0.00356961
0.0033441
0.00309143
0.00281204
0.0025066
0.00217605
0.00182165
0.00144506
0.00104831
0.000633896
0.000204716
-0.000235873
-0.000684092
-0.00113576
-0.00158634
-0.00203097
-0.00246454
-0.00288177
-0.00327729
-0.00364573
-0.00398183
-0.00428053
-0.0045371
-0.00474724
-0.0049072
-0.00501386
-0.00506481
-0.0050585
-0.00499424
-0.00487229
-0.00469389
-0.00446131
-0.00417786
-0.0038479
-0.0034769
-0.0030714
-0.00263913
-0.00218905
-0.00173156
-0.00127868
-0.00084443
-0.000445267
-0.000100715
0.000165932
0.000326986
0.00034975
0.000193622
-3.69667e-05
0.000198298
0.000627657
0.00117053
0.00177109
0.00238859
0.00299405
0.00356775
0.00409686
0.00457367
0.0049941
0.00535666
0.00566162
0.00591032
0.00610476
0.00624719
0.00633989
0.00638499
0.00638435
0.00633954
0.0062518
0.00612205
0.00595096
0.00573901
0.00548656
0.00519392
0.00486147
0.00448975
0.00407951
0.00363184
0.00314823
0.00263063
0.00208152
0.00150393
0.000901501
0.000278478
-0.000360286
-0.00100935
-0.00166273
-0.00231392
-0.00295602
-0.00358177
-0.00418369
-0.00475418
-0.00528565
-0.00577068
-0.00620215
-0.0065734
-0.00687837
-0.00711178
-0.00726922
-0.00734735
-0.00734395
-0.00725806
-0.00709006
-0.00684173
-0.00651629
-0.00611846
-0.00565445
-0.00513202
-0.00456049
-0.00395082
-0.00331567
-0.00266963
-0.00202937
-0.00141405
-0.000845766
-0.000350152
4.287e-05
0.000298416
0.000375732
0.000223828
4.46427e-05
0.000462032
0.0010874
0.00183418
0.00264067
0.00346074
0.00426087
0.00501767
0.00571558
0.00634496
0.00690049
0.00738003
0.0077836
0.00811262
0.00836936
0.00855648
0.00867671
0.00873265
0.00872661
0.00866052
0.00853597
0.00835416
0.008116
0.00782218
0.00747324
0.00706973
0.00661229
0.00610177
0.00553933
0.0049266
0.00426572
0.00355945
0.00281125
0.00202529
0.00120657
0.000360833
-0.000505356
-0.00138468
-0.00226912
-0.00315001
-0.00401813
-0.00486384
-0.00567721
-0.00644816
-0.00716665
-0.00782286
-0.00840737
-0.00891136
-0.00932684
-0.00964678
-0.00986538
-0.00997817
-0.00998221
-0.00987622
-0.00966067
-0.0093379
-0.00891218
-0.00838975
-0.00777885
-0.00708977
-0.00633487
-0.00552863
-0.00468775
-0.0038313
-0.00298091
-0.00216115
-0.00139987
-0.000728882
-0.000184598
0.000191242
0.000350591
0.000234149
0.000160911
0.000814868
0.00167933
0.00266451
0.00370489
0.00475057
0.00576462
0.00672084
0.00760148
0.00839531
0.00909603
0.00970091
0.0102098
0.0106242
0.0109466
0.0111802
0.011328
0.0113931
0.0113782
0.0112857
0.0111174
0.0108749
0.0105593
0.0101716
0.0097124
0.00918267
0.00858331
0.00791556
0.00718109
0.00638213
0.00552158
0.00460312
0.00363132
0.00261166
0.00155059
0.000455548
-0.000665031
-0.00180178
-0.00294446
-0.00408201
-0.00520274
-0.00629441
-0.00734441
-0.00833999
-0.00926844
-0.0101173
-0.0108747
-0.0115294
-0.0120712
-0.0124914
-0.0127824
-0.0129386
-0.0129562
-0.0128335
-0.012571
-0.0121716
-0.0116407
-0.0109861
-0.0102182
-0.00934995
-0.00839698
-0.00737752
-0.00631251
-0.00522574
-0.004144
-0.00309738
-0.00211961
-0.0012486
-0.000527054
-3.10797e-06
0.000268784
0.000222889
0.000311198
0.00125669
0.00240437
0.00366334
0.00496604
0.00626028
0.00750691
0.00867783
0.00975375
0.0107224
0.0115766
0.0123135
0.0129328
0.0134361
0.0138264
0.0141069
0.0142814
0.0143533
0.0143257
0.0142013
0.0139824
0.0136707
0.0132677
0.0127745
0.0121922
0.0115218
0.0107648
0.00992268
0.0089978
0.00799303
0.00691213
0.00575979
0.0045418
0.00326501
0.00193751
0.000568529
-0.000831485
-0.00225097
-0.0036773
-0.0050969
-0.00649539
-0.00785776
-0.00916857
-0.0104122
-0.011573
-0.0126358
-0.0135859
-0.0144096
-0.0150944
-0.0156294
-0.0160053
-0.0162151
-0.016254
-0.0161198
-0.0158129
-0.0153369
-0.0146981
-0.0139059
-0.0129731
-0.0119153
-0.0107516
-0.00950393
-0.00819783
-0.00686192
-0.00552829
-0.00423264
-0.00301461
-0.00191811
-0.000991926
-0.000290128
0.000127221
0.000189405
0.000494593
0.00178626
0.00326163
0.00483027
0.00642407
0.00798987
0.00948746
0.0108877
0.0121706
0.0133232
0.0143382
0.0152125
0.015946
0.0165407
0.0169997
0.017327
0.0175266
0.0176023
0.0175578
0.017396
0.0171196
0.0167306
0.0162306
0.0156212
0.0149036
0.0140793
0.0131499
0.0121177
0.0109855
0.00975692
0.00843663
0.00703044
0.00554538
0.00398984
0.00237356
0.00070771
-0.000995164
-0.00272118
-0.00445521
-0.00618102
-0.00788141
-0.00953845
-0.0111337
-0.0126484
-0.014064
-0.0153622
-0.0165254
-0.0175372
-0.0183826
-0.0190482
-0.0195229
-0.0197981
-0.0198679
-0.0197293
-0.0193827
-0.018832
-0.0180845
-0.0171513
-0.0160474
-0.0147913
-0.0134053
-0.0119157
-0.0103524
-0.00874897
-0.00714296
-0.00557578
-0.00409294
-0.00274432
-0.00158457
-0.000673342
-7.56985e-05
0.00013362
0.000710061
0.00240166
0.004249
0.00616331
0.00807715
0.00993758
0.0117044
0.0133483
0.0148492
0.0161943
0.0173763
0.0183926
0.0192433
0.0199308
0.020459
0.020832
0.0210546
0.021131
0.0210651
0.0208605
0.0205199
0.0200458
0.01944
0.0187043
0.0178403
0.0168497
0.0157347
0.014498
0.0131429
0.011674
0.0100969
0.00841853
0.00664721
0.00479289
0.00286708
0.000882932
-0.00114483
-0.00319992
-0.00526461
-0.0073199
-0.00934565
-0.0113209
-0.0132239
-0.015033
-0.016726
-0.0182817
-0.0196794
-0.0208995
-0.0219243
-0.0227379
-0.0233271
-0.0236814
-0.0237935
-0.0236596
-0.0232798
-0.0226582
-0.0218031
-0.0207272
-0.0194475
-0.0179854
-0.0163669
-0.0146222
-0.0127858
-0.0108965
-0.00899721
-0.0071352
-0.00536188
-0.00373307
-0.00230917
-0.00115518
-0.000340804
5.57049e-05
0.000956522
0.00310057
0.00536361
0.00765937
0.00992214
0.0121002
0.0141543
0.0160559
0.0177856
0.0193311
0.0206861
0.0218482
0.0228184
0.0235999
0.0241969
0.0246144
0.0248576
0.0249313
0.0248398
0.024587
0.024176
0.0236095
0.0228897
0.0220186
0.020998
0.01983
0.0185173
0.0170629
0.015471
0.0137469
0.0118971
0.00992978
0.00785457
0.005683
0.00342837
0.00110584
-0.00126762
-0.00367326
-0.00609072
-0.0084981
-0.0108723
-0.013189
-0.0154235
-0.0175504
-0.0195443
-0.0213806
-0.023035
-0.0244851
-0.0257098
-0.0266907
-0.027412
-0.027861
-0.028029
-0.0279109
-0.0275065
-0.0268198
-0.0258599
-0.024641
-0.0231821
-0.0215076
-0.0196468
-0.0176342
-0.0155088
-0.0133148
-0.0111006
-0.00891941
-0.00682854
-0.00488983
-0.00316943
-0.00173763
-0.000668655
-4.41221e-05
0.00123289
0.00388047
0.00660202
0.00931454
0.0119549
0.0144735
0.0168328
0.019006
0.020975
0.0227287
0.0242619
0.0255734
0.0266652
0.0275412
0.0282066
0.0286671
0.0289285
0.0289962
0.028875
0.028569
0.0280819
0.0274165
0.0265753
0.0255604
0.0243742
0.023019
0.0214977
0.0198141
0.0179729
0.0159801
0.0138434
0.0115719
0.00917669
0.00667086
0.00406949
0.00138976
-0.0013491
-0.00412588
-0.00691748
-0.00969913
-0.0124446
-0.0151263
-0.017716
-0.020185
-0.0225041
-0.0246451
-0.0265803
-0.0282836
-0.0297307
-0.0309001
-0.0317731
-0.0323349
-0.0325745
-0.0324857
-0.0320673
-0.0313232
-0.0302631
-0.0289024
-0.0272622
-0.0253695
-0.0232573
-0.020964
-0.0185336
-0.0160154
-0.0134637
-0.0109375
-0.00850037
-0.00622027
-0.00416918
-0.00242277
-0.00105989
-0.000165727
0.00153806
0.00473865
0.00796042
0.0111243
0.0141704
0.0170521
0.0197344
0.0221929
0.0244115
0.026381
0.0280977
0.029562
0.0307771
0.0317482
0.0324814
0.0329835
0.0332608
0.0333194
0.0331646
0.0328011
0.0322327
0.0314626
0.0304934
0.0293277
0.027968
0.0264168
0.0246776
0.0227546
0.0206531
0.0183799
0.0159435
0.0133543
0.0106245
0.00776884
0.00480415
0.0017496
-0.00137335
-0.00454101
-0.00772757
-0.0109053
-0.0140448
-0.0171151
-0.0200846
-0.0229205
-0.0255904
-0.0280617
-0.0303032
-0.0322849
-0.033979
-0.0353603
-0.0364072
-0.037102
-0.0374315
-0.0373878
-0.0369683
-0.0361767
-0.0350228
-0.033523
-0.0317005
-0.0295848
-0.0272123
-0.0246256
-0.0218737
-0.019011
-0.0160979
-0.0131994
-0.0103856
-0.0077307
-0.00531275
-0.00321309
-0.0015155
-0.000309148
0.00187094
0.00567228
0.00943472
0.0130836
0.016563
0.0198299
0.0228529
0.0256102
0.0280885
0.0302812
0.0321866
0.0338069
0.0351472
0.0362139
0.0370146
0.0375568
0.037848
0.0378948
0.0377032
0.0372783
0.0366242
0.0357444
0.0346419
0.0333193
0.0317793
0.030025
0.02806
0.025889
0.0235178
0.0209539
0.0182068
0.0152877
0.0122103
0.00899073
0.00564747
0.00220165
-0.00132308
-0.00490057
-0.00850234
-0.0120977
-0.0156539
-0.0191369
-0.022511
-0.02574
-0.0287871
-0.0316161
-0.0341912
-0.0364786
-0.0384464
-0.0400657
-0.0413112
-0.0421621
-0.0426024
-0.042622
-0.0422168
-0.0413897
-0.0401503
-0.038516
-0.0365114
-0.0341687
-0.0315276
-0.0286348
-0.0255442
-0.0223159
-0.0190161
-0.0157166
-0.0124937
-0.00942845
-0.00660536
-0.00411181
-0.00203698
-0.000474652
0.00223041
0.00667841
0.0110205
0.015187
0.0191265
0.0228003
0.026181
0.0292504
0.0319986
0.0344218
0.036521
0.0383008
0.0397681
0.0409312
0.041799
0.0423804
0.0426837
0.0427166
0.0424855
0.041996
0.0412527
0.0402593
0.039019
0.0375347
0.0358092
0.0338459
0.0316487
0.0292225
0.0265738
0.0237108
0.0206434
0.0173841
0.0139477
0.0103515
0.0066158
0.00276348
-0.00117969
-0.00518518
-0.00922183
-0.013256
-0.0172519
-0.0211717
-0.0249762
-0.028625
-0.0320775
-0.0352927
-0.0382309
-0.0408535
-0.0431243
-0.0450102
-0.0464818
-0.0475147
-0.0480895
-0.0481936
-0.0478208
-0.0469726
-0.0456584
-0.0438958
-0.0417109
-0.0391381
-0.0362205
-0.0330089
-0.0295621
-0.025946
-0.0222331
-0.0185017
-0.0148354
-0.0113221
-0.00805334
-0.00512305
-0.00262646
-0.000662776
0.00261532
0.00775394
0.0127132
0.0174286
0.0218541
0.0259559
0.0297109
0.0331056
0.0361336
0.0387946
0.0410928
0.0430354
0.0446318
0.0458922
0.0468272
0.0474471
0.0477615
0.0477787
0.0475061
0.0469497
0.0461146
0.0450046
0.0436233
0.0419737
0.0400589
0.0378822
0.0354478
0.0327612
0.0298289
0.0266598
0.0232645
0.0196562
0.0158509
0.0118671
0.00772643
0.00345365
-0.000923515
-0.00537427
-0.00986485
-0.0143588
-0.0188169
-0.0231981
-0.0274592
-0.0315559
-0.0354429
-0.039075
-0.0424075
-0.0453971
-0.0480028
-0.0501867
-0.0519149
-0.0531587
-0.053895
-0.0541078
-0.0537884
-0.0529364
-0.0515604
-0.0496778
-0.0473159
-0.0445113
-0.0413099
-0.0377669
-0.033946
-0.0299191
-0.025765
-0.0215694
-0.0174231
-0.0134218
-0.00966432
-0.006252
-0.00328684
-0.00087435
0.00302446
0.00889564
0.0145077
0.0198022
0.0247386
0.0292885
0.0334342
0.0371667
0.0404842
0.0433904
0.0458928
0.0480019
0.0497296
0.0510885
0.0520912
0.0527495
0.0530743
0.0530749
0.0527596
0.0521348
0.0512061
0.0499779
0.0484536
0.0466364
0.0445296
0.0421367
0.039462
0.0365111
0.0332909
0.0298106
0.0260814
0.0221172
0.0179348
0.0135539
0.0089974
0.00429157
-0.000533957
-0.00544624
-0.0104091
-0.0153831
-0.0203261
-0.0251934
-0.0299379
-0.0345111
-0.0388632
-0.0429442
-0.0467044
-0.0500952
-0.0530703
-0.0555865
-0.057605
-0.0590919
-0.06002
-0.0603691
-0.0601273
-0.0592918
-0.0578697
-0.055878
-0.0533444
-0.0503075
-0.0468161
-0.0429294
-0.0387162
-0.0342545
-0.0296301
-0.024936
-0.0202711
-0.0157392
-0.0114474
-0.00750502
-0.00402179
-0.00111052
0.00345659
0.0101001
0.016399
0.0223012
0.0277722
0.0327897
0.0373416
0.0414244
0.0450409
0.0481994
0.0509113
0.0531906
0.0550522
0.0565112
0.0575824
0.0582794
0.0586145
0.0585983
0.0582397
0.0575461
0.0565233
0.055176
0.0535079
0.0515223
0.0492226
0.0466122
0.0436955
0.0404782
0.0369675
0.0331727
0.0291055
0.0247803
0.0202145
0.0154287
0.0104471
0.00529715
1.02496e-05
-0.00537869
-0.0108311
-0.016305
-0.0217551
-0.0271331
-0.0323881
-0.0374673
-0.0423162
-0.0468798
-0.0511028
-0.0549312
-0.0583128
-0.0611988
-0.0635444
-0.0653103
-0.066464
-0.0669805
-0.0668442
-0.066049
-0.0645997
-0.0625123
-0.0598148
-0.056547
-0.0527605
-0.0485184
-0.0438948
-0.0389738
-0.0338485
-0.0286199
-0.0233955
-0.0182878
-0.0134131
-0.0088897
-0.00483581
-0.00137276
0.00391038
0.0113637
0.0183815
0.0249184
0.0309466
0.0364502
0.0414233
0.0458681
0.0497931
0.0532109
0.0561377
0.0585911
0.0605893
0.0621503
0.0632913
0.0640279
0.064374
0.0643414
0.06394
0.0631778
0.0620613
0.0605953
0.0587839
0.0566304
0.0541381
0.0513105
0.048152
0.044668
0.0408661
0.0367554
0.0323479
0.0276584
0.0227048
0.0175083
0.0120939
0.0064905
0.000730753
-0.0051486
-0.0111069
-0.0170995
-0.0230782
-0.0289913
-0.034784
-0.0403992
-0.0457774
-0.0508584
-0.0555813
-0.059886
-0.0637141
-0.0670102
-0.0697232
-0.0718074
-0.0732243
-0.0739435
-0.0739444
-0.073217
-0.071763
-0.0695968
-0.0667457
-0.0632506
-0.0591655
-0.0545573
-0.0495053
-0.0441
-0.0384422
-0.0326414
-0.0268142
-0.0210829
-0.0155738
-0.0104149
-0.00573431
-0.00166288
0.00438444
0.0126826
0.0204493
0.0276464
0.0342529
0.0402602
0.0456687
0.050487
0.0547293
0.0584136
0.0615606
0.064192
0.0663298
0.0679952
0.0692077
0.0699853
0.0703435
0.0702956
0.0698525
0.0690232
0.0678143
0.0662313
0.0642783
0.0619587
0.0592757
0.0562328
0.052834
0.049085
0.0449927
0.0405667
0.0358187
0.0307637
0.0254197
0.0198086
0.013956
0.00789154
0.00164924
-0.00473267
-0.0112116
-0.0177406
-0.0242686
-0.0307406
-0.037098
-0.0432792
-0.04922
-0.0548544
-0.0601158
-0.0649375
-0.0692544
-0.073004
-0.076128
-0.0785737
-0.0802956
-0.0812568
-0.0814309
-0.0808029
-0.0793708
-0.0771461
-0.0741553
-0.0704393
-0.0660541
-0.0610704
-0.0555726
-0.0496579
-0.0434351
-0.0370226
-0.0305472
-0.0241417
-0.0179432
-0.0120909
-0.00672355
-0.00198302
0.00487729
0.0140529
0.0225964
0.0304772
0.037682
0.0442092
0.0500666
0.0552693
0.0598375
0.0637951
0.0671675
0.0699812
0.0722618
0.074034
0.0753203
0.0761407
0.0765128
0.0764515
0.0759687
0.0750743
0.0737755
0.0720781
0.0699865
0.0675039
0.0646335
0.0613786
0.057743
0.0537321
0.0493525
0.0446135
0.0395268
0.034107
0.0283724
0.0223449
0.0160505
0.00951964
0.00278707
-0.00410767
-0.0111203
-0.0182018
-0.0252985
-0.0323523
-0.0393008
-0.0460779
-0.0526146
-0.0588393
-0.0646789
-0.0700602
-0.0749106
-0.0791599
-0.082742
-0.0855961
-0.0876688
-0.0889158
-0.0893038
-0.0888116
-0.0874323
-0.085174
-0.0820609
-0.0781336
-0.0734496
-0.0680829
-0.062123
-0.0556739
-0.0488528
-0.0417878
-0.0346165
-0.0274831
-0.0205369
-0.0139292
-0.0078107
-0.00233565
0.00538735
0.0154701
0.024816
0.0334024
0.0412238
0.0482864
0.0546052
0.0602025
0.0651049
0.0693422
0.0729454
0.0759454
0.0783723
0.0802542
0.0816166
0.0824822
0.0828706
0.0827982
0.0822785
0.0813219
0.0799365
0.0781285
0.0759021
0.073261
0.0702079
0.0667459
0.0628786
0.0586106
0.0539486
0.048901
0.0434792
0.0376977
0.0315743
0.0251309
0.0183936
0.0113931
0.00416478
-0.00325088
-0.0108083
-0.0184565
-0.0261397
-0.0337966
-0.0413614
-0.0487638
-0.0559295
-0.0627815
-0.06924
-0.0752248
-0.0806554
-0.0854534
-0.0895438
-0.0928571
-0.0953308
-0.0969122
-0.0975595
-0.0972446
-0.0959543
-0.0936919
-0.0904784
-0.0863533
-0.081375
-0.0756202
-0.0691834
-0.0621755
-0.0547225
-0.0469629
-0.0390457
-0.031128
-0.0233721
-0.0159426
-0.00900383
-0.00272361
0.00591297
0.01693
0.0271015
0.0364133
0.0448681
0.05248
0.0592719
0.0652733
0.0705177
0.0750411
0.0788801
0.0820707
0.0846473
0.0866419
0.0880832
0.0889966
0.0894041
0.0893237
0.0887702
0.0877551
0.0862873
0.0843732
0.0820174
0.0792232
0.0759935
0.0723307
0.0682381
0.0637198
0.0587818
0.0534319
0.047681
0.0415429
0.0350348
0.0281785
0.0209995
0.0135287
0.00580165
-0.00214054
-0.0102513
-0.0184783
-0.0267634
-0.035043
-0.0432478
-0.0513034
-0.0591307
-0.0666466
-0.0737651
-0.0803983
-0.0864575
-0.0918554
-0.0965075
-0.100334
-0.103264
-0.105233
-0.10619
-0.1061
-0.10494
-0.102708
-0.0994214
-0.0951168
-0.0898525
-0.0837076
-0.0767811
-0.0691912
-0.0610728
-0.0525754
-0.0438606
-0.0350989
-0.0264673
-0.0181453
-0.0103119
-0.00315007
0.00645239
0.0184276
0.0294455
0.0395006
0.0486039
0.0567779
0.0640536
0.070468
0.0760616
0.080877
0.0849566
0.0883418
0.0910717
0.093182
0.0947052
0.0956695
0.0960991
0.0960141
0.0954307
0.0943615
0.0928161
0.0908014
0.0883221
0.0853815
0.0819822
0.0781263
0.0738165
0.0690561
0.0638505
0.0582067
0.0521345
0.0456471
0.038761
0.0314969
0.0238802
0.0159411
0.00771515
-0.000756375
-0.00942627
-0.0182411
-0.0271413
-0.0360607
-0.044927
-0.053662
-0.0621818
-0.0703976
-0.0782168
-0.0855436
-0.0922809
-0.0983319
-0.103602
-0.108
-0.111444
-0.113859
-0.115183
-0.115369
-0.114387
-0.112228
-0.108901
-0.10444
-0.0989028
-0.0923696
-0.0849438
-0.0767503
-0.0679334
-0.0586544
-0.0490881
-0.0394201
-0.0298431
-0.0205528
-0.0117448
-0.00361853
0.00700378
0.0199581
0.0318407
0.0426547
0.05242
0.0611675
0.0689365
0.0757718
0.0817213
0.0868342
0.0911591
0.0947428
0.0976293
0.0998586
0.101467
0.102485
0.10294
0.102854
0.102245
0.101127
0.099509
0.0973998
0.0948038
0.0917244
0.0881638
0.0841236
0.0796059
0.0746133
0.06915
0.0632223
0.0568389
0.0500118
0.0427565
0.0350927
0.0270448
0.0186424
0.00992035
0.000919825
-0.00831184
-0.0177206
-0.0272456
-0.0368188
-0.0463654
-0.0558034
-0.0650447
-0.0739948
-0.0825543
-0.0906198
-0.0980853
-0.104844
-0.11079
-0.115821
-0.119842
-0.122765
-0.124518
-0.12504
-0.124291
-0.122251
-0.118923
-0.114336
-0.108544
-0.101629
-0.0936981
-0.0848819
-0.0753348
-0.06523
-0.054757
-0.0441175
-0.0335212
-0.023182
-0.0133133
-0.00413287
0.00756523
0.0215164
0.0342791
0.0458656
0.0563045
0.0656356
0.0739064
0.0811697
0.087481
0.0928964
0.0974708
0.101257
0.104303
0.106654
0.10835
0.109426
0.10991
0.109827
0.109196
0.108034
0.10635
0.104153
0.101448
0.0982378
0.0945249
0.0903104
0.0855953
0.0803816
0.0746723
0.0684726
0.0617899
0.0546348
0.0470217
0.0389688
0.0304992
0.0216414
0.0124294
0.0029036
-0.00688891
-0.016894
-0.02705
-0.0372875
-0.0475296
-0.0576912
-0.0676799
-0.0773961
-0.0867339
-0.095582
-0.103825
-0.111347
-0.118028
-0.123756
-0.128421
-0.131921
-0.13417
-0.135093
-0.134638
-0.132772
-0.12949
-0.124814
-0.118793
-0.111508
-0.10307
-0.0936151
-0.0833076
-0.0723334
-0.0608973
-0.0492182
-0.0375249
-0.0260507
-0.0150289
-0.00469726
0.00813475
0.0230972
0.0367527
0.0491229
0.0602453
0.0701684
0.0789483
0.0866459
0.0933242
0.0990464
0.103874
0.107865
0.111074
0.11355
0.115337
0.116472
0.116989
0.116913
0.116266
0.115064
0.11332
0.111042
0.108236
0.104904
0.101049
0.0966711
0.0917703
0.0863478
0.0804056
0.0739474
0.0669792
0.0595102
0.0515529
0.0431241
0.0342452
0.0249432
0.0152508
0.00520719
-0.00514135
-0.015741
-0.02653
-0.0374383
-0.0483869
-0.0592886
-0.070047
-0.0805579
-0.0907091
-0.100382
-0.109451
-0.11779
-0.125269
-0.131759
-0.137137
-0.141287
-0.144104
-0.145501
-0.145407
-0.143779
-0.140598
-0.135877
-0.12966
-0.122025
-0.113083
-0.102978
-0.0918826
-0.0799962
-0.0675396
-0.0547507
-0.0418787
-0.0291783
-0.0169042
-0.00531628
0.00871032
0.024695
0.0392533
0.0524163
0.0642301
0.0747522
0.0840472
0.0921841
0.0992338
0.105266
0.11035
0.11455
0.117924
0.120527
0.122407
0.123605
0.124157
0.124092
0.123433
0.122197
0.120399
0.118048
0.115148
0.111705
0.107717
0.103187
0.0981129
0.0924952
0.0863343
0.0796326
0.0723946
0.0646275
0.0563421
0.0475532
0.0382804
0.0285487
0.018389
0.00783893
-0.00305662
-0.0142448
-0.0256642
-0.0372446
-0.0489062
-0.0605596
-0.0721056
-0.0834356
-0.0944317
-0.104968
-0.11491
-0.12412
-0.132456
-0.139776
-0.14594
-0.150815
-0.15428
-0.156228
-0.156573
-0.155253
-0.152237
-0.147524
-0.141152
-0.133193
-0.123758
-0.112996
-0.101089
-0.0882499
-0.0747157
-0.0607448
-0.0466084
-0.0325849
-0.0189525
-0.00599478
0.00928989
0.0263043
0.0417727
0.0557349
0.0682462
0.0793727
0.0891874
0.0977678
0.105192
0.111538
0.116881
0.12129
0.124831
0.127563
0.129539
0.130802
0.131393
0.131341
0.130674
0.12941
0.127564
0.125146
0.122161
0.118615
0.114506
0.109835
0.104601
0.0988026
0.0924384
0.0855097
0.0780189
0.0699716
0.0613764
0.052246
0.0425976
0.0324539
0.0218438
0.0108026
-0.000626466
-0.0123922
-0.0244343
-0.036683
-0.0490584
-0.0614698
-0.0738158
-0.085984
-0.0978516
-0.109285
-0.120143
-0.130276
-0.13953
-0.147746
-0.15477
-0.16045
-0.164646
-0.16723
-0.168096
-0.167165
-0.164386
-0.159746
-0.153269
-0.145021
-0.135113
-0.123694
-0.110957
-0.0971259
-0.0824574
-0.0672306
-0.0517409
-0.036292
-0.0211879
-0.00673802
0.00987136
0.0279197
0.0443024
0.0590682
0.072281
0.0840155
0.0943534
0.10338
0.111181
0.117843
0.123445
0.128066
0.131775
0.134638
0.13671
0.13804
0.138671
0.138637
0.137965
0.136676
0.134788
0.13231
0.129249
0.125609
0.12139
0.116591
0.11121
0.105245
0.098694
0.0915556
0.0838308
0.0755228
0.0666382
0.057187
0.0471842
0.0366497
0.0256096
0.014097
0.00215246
-0.0101749
-0.0228266
-0.035734
-0.0488179
-0.0619872
-0.0751392
-0.0881588
-0.100919
-0.11328
-0.125092
-0.136195
-0.146422
-0.155602
-0.16356
-0.170127
-0.175141
-0.178451
-0.179931
-0.179477
-0.177019
-0.172524
-0.166004
-0.157514
-0.147159
-0.135092
-0.121511
-0.106654
-0.0907962
-0.074239
-0.0573038
-0.0403218
-0.0236251
-0.00755153
0.0104527
0.0295357
0.0468341
0.0624054
0.0763219
0.0886666
0.0995293
0.109004
0.117183
0.12416
0.130024
0.134856
0.138734
0.141727
0.143896
0.145294
0.145967
0.145951
0.145278
0.143969
0.142043
0.139512
0.136382
0.132657
0.128338
0.123423
0.117909
0.111794
0.105072
0.0977427
0.0898037
0.0812562
0.0721044
0.0623557
0.0520223
0.0411212
0.0296755
0.0177152
0.00527802
-0.00758971
-0.020832
-0.0343824
-0.048163
-0.0620834
-0.0760403
-0.0899171
-0.103583
-0.116894
-0.129692
-0.141808
-0.153063
-0.16327
-0.172237
-0.179773
-0.185695
-0.189828
-0.192019
-0.19214
-0.190096
-0.185833
-0.179342
-0.170667
-0.159905
-0.147206
-0.132775
-0.116863
-0.0997634
-0.081801
-0.0633252
-0.0446974
-0.0262799
-0.00844122
0.0110319
0.031147
0.0493599
0.0657362
0.0803564
0.0933116
0.1047
0.114622
0.12318
0.130472
0.136596
0.141639
0.145684
0.148807
0.151072
0.152538
0.153253
0.153257
0.152584
0.151258
0.149299
0.14672
0.143527
0.139727
0.135318
0.130299
0.124666
0.118415
0.111541
0.104039
0.0959064
0.0871419
0.0777468
0.0677259
0.0570883
0.0458479
0.0340244
0.0216444
0.00874213
-0.00463947
-0.0184476
-0.0326187
-0.047077
-0.061734
-0.0764871
-0.0912189
-0.105797
-0.120072
-0.133882
-0.147047
-0.159377
-0.17067
-0.180717
-0.189306
-0.196228
-0.201284
-0.204291
-0.205093
-0.203567
-0.199632
-0.193257
-0.184467
-0.173348
-0.160046
-0.144769
-0.127779
-0.109389
-0.0899473
-0.0698341
-0.0494425
-0.0291685
-0.00941329
0.011607
0.0327484
0.0518718
0.0690506
0.0843727
0.097937
0.109849
0.120218
0.129152
0.136759
0.14314
0.148392
0.152603
0.155853
0.158213
0.159744
0.1605
0.160525
0.159853
0.158512
0.156523
0.1539
0.150652
0.146783
0.142294
0.137182
0.131444
0.125073
0.118063
0.110408
0.102103
0.093145
0.083532
0.073266
0.062353
0.0508034
0.0386333
0.0258655
0.0125303
-0.00133333
-0.0156765
-0.0304392
-0.0455492
-0.0609206
-0.0764525
-0.0920285
-0.107515
-0.122761
-0.137598
-0.15184
-0.165286
-0.177719
-0.188914
-0.198635
-0.206651
-0.212732
-0.216666
-0.218264
-0.21737
-0.213873
-0.207712
-0.198892
-0.187481
-0.173617
-0.157507
-0.139425
-0.1197
-0.0987078
-0.0768589
-0.0545816
-0.0323076
-0.0104743
0.0121762
0.0343352
0.0543627
0.0723391
0.0883594
0.10253
0.114963
0.125775
0.135083
0.143
0.149636
0.155093
0.159466
0.162839
0.16529
0.166885
0.16768
0.167723
0.167051
0.165696
0.163679
0.161016
0.157717
0.153787
0.149226
0.144032
0.138201
0.131725
0.124597
0.116809
0.108354
0.0992261
0.0894215
0.0789392
0.0677814
0.0559553
0.043473
0.0303531
0.0166215
0.0023128
-0.0125287
-0.0278475
-0.0435755
-0.0596307
-0.0759153
-0.092315
-0.108697
-0.124909
-0.14078
-0.156118
-0.170711
-0.184331
-0.196734
-0.207665
-0.216865
-0.224076
-0.229052
-0.231567
-0.231429
-0.228491
-0.222659
-0.213908
-0.202284
-0.187912
-0.170998
-0.151819
-0.130723
-0.108111
-0.0844284
-0.0601392
-0.0357147
-0.011631
0.0127378
0.035903
0.0568258
0.075593
0.0923059
0.107077
0.120027
0.131278
0.140955
0.149178
0.156063
0.16172
0.166248
0.16974
0.172278
0.173931
0.174761
0.174819
0.174146
0.172775
0.17073
0.168029
0.164683
0.160697
0.156073
0.150807
0.144895
0.138328
0.131099
0.123197
0.114614
0.105341
0.0953723
0.0847034
0.0733334
0.0612656
0.0485082
0.0350752
0.020988
0.00627603
-0.00902141
-0.0248541
-0.0411591
-0.0578592
-0.0748613
-0.0920543
-0.109308
-0.126471
-0.143371
-0.159811
-0.175573
-0.190416
-0.204081
-0.216292
-0.226764
-0.235208
-0.241342
-0.244902
-0.245655
-0.24341
-0.238035
-0.229468
-0.217728
-0.202921
-0.185241
-0.164973
-0.142478
-0.118185
-0.0925702
-0.06614
-0.0394074
-0.0128905
0.0132904
0.0374479
0.0592553
0.0788046
0.0962027
0.111569
0.125028
0.136712
0.146751
0.155273
0.1624
0.168249
0.172927
0.17653
0.179146
0.180851
0.181711
0.181779
0.181101
0.179712
0.177638
0.1749
0.171509
0.167472
0.16279
0.157461
0.151479
0.144836
0.137521
0.129524
0.120835
0.111442
0.101337
0.090512
0.0789636
0.0666908
0.0536977
0.0399938
0.0255953
0.0105265
-0.00517919
-0.0214773
-0.038311
-0.0556091
-0.073284
-0.09123
-0.109321
-0.127408
-0.145319
-0.162856
-0.179795
-0.195886
-0.210856
-0.224409
-0.236234
-0.246011
-0.253422
-0.258159
-0.259943
-0.258537
-0.253762
-0.245512
-0.233771
-0.218617
-0.200231
-0.178896
-0.154985
-0.128953
-0.101311
-0.0726086
-0.0434038
-0.0142601
0.0138329
0.0389669
0.0616463
0.0819674
0.100042
0.115994
0.129956
0.142064
0.152457
0.161268
0.168628
0.17466
0.179477
0.183182
0.185868
0.187616
0.188496
0.188568
0.187879
0.186467
0.184363
0.181586
0.178151
0.174066
0.169332
0.163947
0.157905
0.151197
0.143813
0.13574
0.126966
0.117477
0.107264
0.0963144
0.0846222
0.0721825
0.0589951
0.0450648
0.0304027
0.0150273
-0.00103397
-0.0177433
-0.0350507
-0.0528917
-0.071186
-0.0898341
-0.108716
-0.127688
-0.14658
-0.165194
-0.183305
-0.200656
-0.216961
-0.231906
-0.245157
-0.256363
-0.265165
-0.271213
-0.274176
-0.273765
-0.269746
-0.261964
-0.250355
-0.234964
-0.21595
-0.193586
-0.168256
-0.140436
-0.110676
-0.0795691
-0.047722
-0.0157475
0.0143643
0.0404577
0.0639954
0.0850766
0.103817
0.120345
0.134799
0.147321
0.158056
0.167146
0.174728
0.18093
0.185874
0.189668
0.192413
0.194193
0.195085
0.195151
0.194443
0.193002
0.190861
0.188044
0.184564
0.180431
0.175649
0.170214
0.164121
0.157361
0.149922
0.14179
0.132952
0.123393
0.113098
0.102056
0.0902555
0.0776879
0.0643491
0.0502391
0.0353636
0.0197354
0.00337523
-0.013686
-0.0314056
-0.0497273
-0.0685786
-0.0878683
-0.107484
-0.127288
-0.147117
-0.166776