/*--------------------------------*- C++ -*----------------------------------*\
  =========                 |
  \\      /  F ield         | OpenFOAM: The Open Source CFD Toolbox
   \\    /   O peration     | Website:  https://openfoam.org
    \\  /    A nd           | Version:  dev
     \\/     M anipulation  |
\*---------------------------------------------------------------------------*/
FoamFile
{
    format      ascii;
    class       volScalarField;
    location    "25.65";
    object      p;
}
// * * * * * * * * * * * * * * * * * * * * * * * * * * * * * * * * * * * * * //

dimensions      [0 2 -2 0 0 0 0];

internalField   nonuniform List<scalar> 
5184
(
1.79225e-06
-9.50897e-06
-9.5282e-05
-0.000248085
-0.000447397
-0.00067594
-0.000919479
-0.00116607
-0.00140656
-0.0016338
-0.00184239
-0.00202829
-0.00218859
-0.00232117
-0.00242457
-0.00249778
-0.00254014
-0.00255119
-0.00253068
-0.00247843
-0.00239435
-0.00227843
-0.00213071
-0.00195135
-0.00174057
-0.00149875
-0.00122644
-0.000924392
-0.00059359
-0.000235309
0.000148866
0.00055701
0.000986833
0.00143566
0.00190044
0.00237771
0.00286367
0.00335414
0.00384467
0.0043305
0.00480671
0.00526821
0.00570989
0.00612666
0.00651357
0.00686593
0.00717935
0.00744992
0.00767426
0.00784963
0.00797404
0.00804627
0.00806598
0.00803373
0.00795102
0.00782029
0.00764493
0.00742926
0.00717847
0.00689863
0.0065966
0.00627998
0.00595708
0.00563685
0.00532884
0.00504314
0.00479025
0.00458078
0.00442469
0.00433043
0.00430349
0.00433074
1.5588e-05
3.16618e-06
-7.13777e-05
-0.000199078
-0.000364248
-0.000554413
-0.000758649
-0.000967358
-0.00117262
-0.00136804
-0.00154858
-0.00171033
-0.00185033
-0.00196634
-0.00205672
-0.00212028
-0.00215617
-0.00216377
-0.00214266
-0.00209256
-0.00201328
-0.00190474
-0.00176696
-0.00160003
-0.00140418
-0.00117978
-0.000927361
-0.000647648
-0.000341605
-1.04485e-05
0.000344317
0.000720874
0.00111707
0.00153042
0.00195809
0.00239687
0.00284328
0.00329348
0.00374338
0.00418866
0.00462482
0.00504727
0.00545137
0.00583253
0.0061863
0.00650845
0.00679509
0.00704272
0.00724837
0.00740966
0.00752486
0.00759298
0.00761382
0.00758801
0.00751702
0.00740317
0.00724965
0.00706046
0.00684041
0.00659504
0.00633059
0.00605395
0.00577254
0.0054943
0.00522752
0.00498077
0.00476273
0.00458177
0.00444518
0.00435891
0.00433035
0.00435791
0.000102315
7.75969e-05
2.29391e-06
-0.000115187
-0.000262817
-0.000430966
-0.000610926
-0.000794863
-0.000976081
-0.00114902
-0.00130919
-0.00145298
-0.0015776
-0.00168088
-0.00176117
-0.00181723
-0.00184813
-0.00185319
-0.00183191
-0.00178393
-0.00170901
-0.001607
-0.00147787
-0.00132169
-0.00113863
-0.000929033
-0.000693384
-0.000432365
-0.000146873
0.00016195
0.000492692
0.000843652
0.00121282
0.00159786
0.00199614
0.00240467
0.0028202
0.00323916
0.00365776
0.00407198
0.00447764
0.0048705
0.00524625
0.00560066
0.00592961
0.00622921
0.00649588
0.00672642
0.00691811
0.0070688
0.00717694
0.00724169
0.00726293
0.00724131
0.00717827
0.00707605
0.00693764
0.00676683
0.00656809
0.00634659
0.00610807
0.00585885
0.00560568
0.00535567
0.00511619
0.00489469
0.00469865
0.00453512
0.00441014
0.00432893
0.00430115
0.00433175
0.000257306
0.000205903
0.000118141
-7.47672e-07
-0.000143104
-0.000301156
-0.000467777
-0.000636597
-0.000802079
-0.000959539
-0.00110511
-0.00123564
-0.00134865
-0.00144216
-0.00151465
-0.00156494
-0.00159212
-0.0015955
-0.00157457
-0.00152892
-0.00145828
-0.00136245
-0.00124134
-0.00109499
-0.000923503
-0.000727163
-0.00050639
-0.000261789
5.82551e-06
0.000295409
0.000605658
0.000934996
0.00128155
0.00164315
0.00201731
0.00240126
0.00279192
0.00318596
0.00357978
0.00396962
0.00435155
0.00472152
0.00507551
0.00540949
0.00571959
0.00600213
0.00625373
0.00647137
0.0066525
0.0067951
0.00689773
0.00695961
0.00698068
0.00696158
0.0069037
0.00680919
0.00668092
0.00652248
0.00633808
0.00613259
0.00591137
0.00568027
0.0054455
0.00521355
0.00499106
0.00478471
0.00460111
0.00444653
0.0043264
0.00424577
0.00421473
0.00423995
0.000461966
0.00037339
0.000264847
0.000137219
-7.05221e-06
-0.000161804
-0.000321267
-0.000480439
-0.000634914
-0.000780892
-0.000915195
-0.00103521
-0.00113883
-0.00122437
-0.00129049
-0.00133616
-0.00136053
-0.00136297
-0.00134295
-0.00130007
-0.00123403
-0.00114459
-0.00103161
-0.000895059
-0.000734992
-0.000551601
-0.000345224
-0.000116373
0.000134244
0.000405694
0.0006968
0.00100612
0.00133193
0.00167221
0.00202465
0.00238664
0.0027553
0.00312747
0.00349976
0.00386858
0.0042302
0.00458077
0.00491642
0.00523332
0.00552775
0.00579618
0.00603536
0.0062424
0.00641484
0.00655074
0.00664872
0.00670804
0.00672864
0.00671113
0.00665686
0.00656789
0.00644697
0.00629749
0.00612349
0.00592953
0.00572066
0.00550233
0.00528029
0.00506049
0.00484898
0.00465178
0.0044748
0.00432366
0.00420332
0.00411855
0.00407815
0.00408795
0.000700158
0.000568185
0.000433086
0.000291125
0.00013929
-1.7649e-05
-0.000175089
-0.000329289
-0.000476916
-0.000615044
-0.0007412
-0.000853338
-0.000949788
-0.0010292
-0.00109049
-0.00113279
-0.00115539
-0.00115771
-0.00113928
-0.00109971
-0.00103866
-0.000955873
-0.000851159
-0.000724409
-0.000575605
-0.000404848
-0.000212375
1.4125e-06
0.000235926
0.000490361
0.000763679
0.00105458
0.00136149
0.00168255
0.00201561
0.00235823
0.00270767
0.00306096
0.00341485
0.00376591
0.00411056
0.00444507
0.00476572
0.00506878
0.00535064
0.00560785
0.00583723
0.00603596
0.00620161
0.00633227
0.00642658
0.0064838
0.00650381
0.00648722
0.00643529
0.00634999
0.00623396
0.00609045
0.0059233
0.00573685
0.00553587
0.00532548
0.00511104
0.00489806
0.0046921
0.00449862
0.00432297
0.00417019
0.00404485
0.00395134
0.00389615
0.00388305
0.000958091
0.00077941
0.000613956
0.000453505
0.00028969
0.000126116
-3.35989e-05
-0.000186856
-0.00033132
-0.000464904
-0.000585834
-0.000692641
-0.000784119
-0.000859286
-0.00091734
-0.000957621
-0.000979576
-0.000982728
-0.00096666
-0.000930996
-0.000875402
-0.000799584
-0.0007033
-0.000586367
-0.000448681
-0.000290239
-0.000111165
8.82646e-05
0.000307593
0.000546157
0.000803064
0.00107717
0.00136705
0.001671
0.00198703
0.00231283
0.00264584
0.0029832
0.00332181
0.00365834
0.00398932
0.00431112
0.00462008
0.00491255
0.00518494
0.00543385
0.0056561
0.00584888
0.00600976
0.00613678
0.00622856
0.00628431
0.00630386
0.00628775
0.00623717
0.00615399
0.00604074
0.00590053
0.00573705
0.00555446
0.0053573
0.00515041
0.00493887
0.00472781
0.00452238
0.00432764
0.00414843
0.00398933
0.00385458
0.00374821
0.0036739
0.00363286
0.00122365
0.000996932
0.000798867
0.000617075
0.000438077
0.000264511
9.91643e-05
-5.63917e-05
-0.000200747
-0.000332605
-0.000450869
-0.00055464
-0.000643183
-0.000715897
-0.000772282
-0.000811908
-0.000834392
-0.000839374
-0.000826506
-0.000795445
-0.000745855
-0.000677412
-0.000589817
-0.000482809
-0.000356188
-0.000209839
-4.37607e-05
0.000141906
0.000346849
0.000570556
0.000812289
0.00107106
0.0013456
0.00163437
0.00193551
0.00224687
0.00256601
0.00289018
0.0032164
0.00354142
0.00386182
0.00417405
0.00447447
0.00475943
0.00502535
0.00526879
0.00548655
0.00567575
0.00583391
0.005959
0.00604955
0.00610468
0.00612416
0.00610842
0.00605856
0.00597635
0.0058642
0.00572512
0.00556267
0.00538083
0.00518399
0.00497677
0.004764
0.00455055
0.00434127
0.00414086
0.0039538
0.00378425
0.00363624
0.00351349
0.00341673
0.00334454
0.00148659
0.00121161
0.000979767
0.000774801
0.000578398
0.00039239
0.000218858
5.84473e-05
-8.82843e-05
-0.00022078
-0.00033859
-0.000441366
-0.000528839
-0.000600787
-0.000657019
-0.000697342
-0.000721551
-0.00072941
-0.000720649
-0.000694961
-0.000652009
-0.000591437
-0.000512885
-0.000416009
-0.000300504
-0.000166135
-1.27634e-05
0.000159614
0.00035084
0.000560562
0.000788205
0.00103294
0.00129367
0.001569
0.00185721
0.00215629
0.00246392
0.00277744
0.00309396
0.00341028
0.00372304
0.00402868
0.00432356
0.00460399
0.00486635
0.00510713
0.00532303
0.00551108
0.00566867
0.00579368
0.00588449
0.00594012
0.00596021
0.00594506
0.00589567
0.00581369
0.00570143
0.00556179
0.0053982
0.00521454
0.00501504
0.00480419
0.00458663
0.00436705
0.00415005
0.0039401
0.00374141
0.00355783
0.00339324
0.00325117
0.00312944
0.00302411
0.00173792
0.00141518
0.00114916
0.000919958
0.000704686
0.000504503
0.000320885
0.000153633
2.52139e-06
-0.000132584
-0.000251841
-0.00035543
-0.00044353
-0.000516293
-0.000573828
-0.000616181
-0.000643324
-0.000655147
-0.000651456
-0.000631981
-0.000596381
-0.000544264
-0.000475206
-0.00038877
-0.00028454
-0.00016215
-2.13174e-05
0.000138117
0.000316159
0.000512626
0.000727112
0.000958961
0.00120723
0.00147068
0.00174775
0.00203654
0.00233484
0.00264008
0.00294942
0.00325973
0.00356763
0.00386955
0.0041618
0.00444064
0.00470234
0.00494327
0.00516002
0.00534944
0.00550879
0.00563575
0.00572857
0.00578608
0.00580777
0.00579379
0.005745
0.00566294
0.00554978
0.00540834
0.00524192
0.00505433
0.0048497
0.0046324
0.00440697
0.00417797
0.00394986
0.00372697
0.00351331
0.00331253
0.0031285
0.00296465
0.00281604
0.00267634
0.00196971
0.00160016
0.00130008
0.00104614
0.000811125
0.000595604
0.000400527
0.000224923
6.78384e-05
-7.15023e-05
-0.000193829
-0.000299823
-0.00039009
-0.00046514
-0.000525372
-0.000571062
-0.000602354
-0.000619257
-0.000621653
-0.000609299
-0.000581847
-0.000538863
-0.000479848
-0.00040427
-0.00031159
-0.000201304
-7.29749e-05
7.37217e-05
0.000238965
0.00042275
0.00062485
0.000844782
0.00108178
0.00133475
0.00160227
0.00188258
0.00217356
0.00247272
0.00277728
0.00308411
0.00338982
0.00369081
0.00398331
0.00426347
0.00452743
0.0047714
0.00499179
0.00518527
0.00534886
0.00548006
0.0055769
0.00563799
0.00566263
0.00565078
0.00560314
0.00552109
0.0054067
0.00526265
0.00509218
0.00489901
0.0046872
0.00446109
0.00422514
0.00398386
0.00374167
0.00350281
0.00327121
0.00305046
0.00284447
0.00265674
0.00247971
0.00230482
0.00217483
0.00175966
0.001426
0.00114726
0.00089207
0.000660497
0.000453014
0.000267936
0.000103632
-4.12732e-05
-0.000168048
-0.000277845
-0.000371673
-0.00045038
-0.000514641
-0.000564948
-0.000601606
-0.000624736
-0.000634282
-0.000630024
-0.000611599
-0.00057852
-0.000530209
-0.000466025
-0.0003853
-0.000287381
-0.000171669
-3.76623e-05
0.000115002
0.000286505
0.000476809
0.000685613
0.000912322
0.00115601
0.00141541
0.00168887
0.00197437
0.0022695
0.00257151
0.00287727
0.00318339
0.00348617
0.00378176
0.00406617
0.00433535
0.00458535
0.00481233
0.00501272
0.0051833
0.0053213
0.00542447
0.00549119
0.0055205
0.00551215
0.00546662
0.00538513
0.0052696
0.0051226
0.0049473
0.00474734
0.00452676
0.00428987
0.00404116
0.00378513
0.00352623
0.00326872
0.00301655
0.0027733
0.00254311
0.00232964
0.00212286
0.00191211
0.00234672
0.00188731
0.00152082
0.00121751
0.000942056
0.000694063
0.000473567
0.000278209
0.000105726
-4.58261e-05
-0.000178218
-0.000293047
-0.000391702
-0.000475346
-0.000544912
-0.000601092
-0.000644338
-0.000674868
-0.00069268
-0.000697565
-0.000689133
-0.000666835
-0.000630003
-0.00057788
-0.000509658
-0.000424525
-0.000321707
-0.000200517
-6.03964e-05
9.9034e-05
0.000277934
0.000476196
0.00069341
0.000928822
0.00118131
0.00144935
0.00173103
0.00202401
0.00232557
0.00263258
0.00294159
0.00324885
0.00355036
0.00384196
0.00411943
0.00437856
0.00461525
0.00482564
0.00500621
0.00515387
0.00526606
0.00534084
0.00537695
0.00537389
0.00533189
0.00525197
0.00513587
0.00498605
0.00480557
0.00459805
0.00436752
0.00411831
0.00385496
0.00358205
0.00330413
0.00302557
0.00275043
0.00248241
0.00222595
0.001985
0.00174718
0.00149985
0.00247931
0.00197715
0.00157875
0.00125134
0.000955798
0.000691287
0.000457435
0.000251245
6.98521e-05
-8.92227e-05
-0.000228228
-0.000349178
-0.000453816
-0.000543601
-0.000619702
-0.000682993
-0.000734057
-0.000773196
-0.000800445
-0.000815595
-0.000818215
-0.000807686
-0.000783238
-0.000743986
-0.000688972
-0.000617214
-0.000527752
-0.0004197
-0.000292293
-0.00014494
2.27283e-05
0.000210811
0.000419093
0.000647002
0.000893576
0.00115743
0.00143676
0.0017293
0.00203235
0.00234279
0.00265713
0.00297149
0.00328175
0.00358356
0.00387247
0.00414398
0.00439371
0.00461744
0.00481131
0.00497184
0.0050961
0.0051818
0.00522732
0.00523182
0.00519526
0.00511839
0.00500279
0.00485074
0.00466523
0.00444983
0.00420857
0.00394587
0.00366636
0.00337476
0.0030758
0.00277404
0.00247374
0.0021788
0.0018941
0.00162396
0.00135378
0.00106897
0.00256688
0.00202357
0.00159433
0.00124345
0.000928193
0.000647276
0.000399933
0.000182558
-8.29238e-06
-0.000175604
-0.00032208
-0.000450126
-0.000561817
-0.000658886
-0.000742719
-0.000814351
-0.000874481
-0.000923477
-0.000961398
-0.000988017
-0.00100285
-0.0010052
-0.000994185
-0.000968772
-0.000927846
-0.000870242
-0.000794801
-0.000700425
-0.000586129
-0.000451096
-0.000294732
-0.000116716
8.29474e-05
0.000303882
0.000545301
0.000805974
0.0010842
0.00137782
0.00168415
0.00200009
0.00232207
0.00264613
0.00296798
0.00328307
0.00358667
0.003874
0.00414031
0.00438101
0.00459181
0.00476881
0.00490865
0.00500858
0.00506659
0.00508145
0.00505276
0.00498099
0.00486746
0.0047143
0.00452438
0.00430122
0.00404892
0.00377195
0.0034751
0.0031633
0.00284152
0.00251461
0.00218709
0.00186321
0.00154832
0.00124728
0.000943267
0.000619776
0.00260403
0.00202125
0.00156233
0.00118878
0.000854326
0.000557273
0.000296464
6.77031e-05
-0.000133008
-0.000309145
-0.000463839
-0.000599868
-0.000719617
-0.000825072
-0.000917814
-0.000999024
-0.00106949
-0.00112964
-0.00117954
-0.00121893
-0.00124726
-0.00126373
-0.00126734
-0.00125691
-0.00123115
-0.00118868
-0.00112815
-0.00104823
-0.000947699
-0.000825493
-0.000680778
-0.000512994
-0.000321916
-0.000107706
0.000129046
0.000387278
0.000665428
0.000961418
0.00127264
0.00159599
0.00192784
0.00226413
0.0026004
0.00293188
0.00325356
0.00356032
0.003847
0.0041086
0.00434034
0.00453784
0.00469721
0.00481522
0.00488935
0.00491791
0.00490011
0.00483605
0.00472676
0.00457415
0.00438097
0.00415069
0.00388744
0.00359582
0.00328081
0.00294761
0.00260147
0.00224762
0.00189097
0.00153615
0.00118913
0.000855364
0.000515845
0.000152134
0.00258562
0.00196513
0.00147782
0.00108248
0.000729473
0.000416676
0.000142549
-9.7683e-05
-0.000308554
-0.000494008
-0.000657589
-0.000802425
-0.000931193
-0.00104611
-0.00114893
-0.00124097
-0.0013231
-0.00139576
-0.00145902
-0.00151257
-0.0015558
-0.00158779
-0.0016074
-0.00161328
-0.00160396
-0.00157785
-0.00153338
-0.00146895
-0.00138311
-0.00127453
-0.00114212
-0.000985038
-0.000802825
-0.000595398
-0.000363129
-0.000106887
0.000171927
0.000471351
0.000788855
0.00112134
0.00146515
0.00181613
0.00216964
0.00252069
0.00286394
0.00319391
0.00350502
0.00379177
0.00404885
0.00427131
0.00445469
0.00459516
0.00468964
0.0047359
0.00473264
0.00467953
0.00457726
0.00442748
0.00423275
0.00399651
0.0037229
0.00341668
0.00308305
0.00272751
0.00235572
0.00197332
0.0015857
0.00119797
0.000816814
0.000448379
7.14296e-05
-0.00033445
0.00250673
0.00185041
0.00133608
0.000919934
0.000549108
0.000221054
-6.61543e-05
-0.000317855
-0.000539105
-0.000734302
-0.000907384
-0.00106181
-0.00120053
-0.00132598
-0.00144007
-0.00154422
-0.00163936
-0.00172596
-0.00180406
-0.0018733
-0.00193296
-0.00198202
-0.00201918
-0.00204291
-0.00205154
-0.00204326
-0.00201624
-0.00196865
-0.00189874
-0.00180491
-0.00168578
-0.00154023
-0.00136751
-0.00116727
-0.000939642
-0.000685269
-0.000405363
-0.000101736
0.00022318
0.000566327
0.000924035
0.00129205
0.00166558
0.00203936
0.00240778
0.00276493
0.00310477
0.00342126
0.00370848
0.00396087
0.00417328
0.00434121
0.00446091
0.00452952
0.00454514
0.00450695
0.00441518
0.00427116
0.00407725
0.00383678
0.00355394
0.00323362
0.00288129
0.00250281
0.00210429
0.00169189
0.00127153
0.000848913
0.00043154
2.63254e-05
-0.000390261
-0.000840696
0.00236273
0.00167253
0.00113264
0.000696752
0.000308918
-3.38322e-05
-0.000333816
-0.000596923
-0.000828719
-0.00103404
-0.0012172
-0.00138198
-0.00153158
-0.00166863
-0.00179519
-0.00191277
-0.00202235
-0.00212439
-0.00221891
-0.00230548
-0.00238327
-0.00245113
-0.00250758
-0.00255092
-0.00257926
-0.00259054
-0.00258268
-0.00255357
-0.00250117
-0.00242356
-0.00231906
-0.00218623
-0.00202402
-0.00183177
-0.00160933
-0.00135709
-0.00107602
-0.000767754
-0.000434594
-7.95223e-05
0.000293798
0.000681042
0.00107727
0.00147698
0.00187422
0.00226268
0.00263579
0.00298692
0.00330953
0.00359729
0.00384434
0.00404537
0.00419587
0.00429223
0.00433185
0.0043133
0.00423628
0.0041017
0.00391167
0.00366937
0.00337899
0.00304559
0.00267491
0.00227323
0.00184716
0.00140346
0.000948683
0.000489196
3.34128e-05
-0.000410875
-0.000869613
-0.00136745
0.00214919
0.0014272
0.000863294
0.000408788
4.82222e-06
-0.000352009
-0.000664414
-0.000938823
-0.0011813
-0.00139709
-0.0015909
-0.00176678
-0.00192819
-0.00207794
-0.00221821
-0.0023506
-0.0024761
-0.00259519
-0.00270782
-0.00281348
-0.00291125
-0.0029998
-0.00307751
-0.00314245
-0.00319251
-0.00322538
-0.00323869
-0.00323005
-0.00319708
-0.00313755
-0.00304943
-0.00293095
-0.00278068
-0.00259766
-0.00238139
-0.00213195
-0.00185006
-0.00153711
-0.00119524
-0.000827299
-0.000436915
-2.84493e-05
0.000393025
0.000821784
0.00125154
0.00167553
0.00208668
0.00247771
0.00284133
0.00317045
0.00345833
0.00369879
0.00388642
0.00401673
0.00408632
0.00409299
0.00403582
0.00391522
0.00373291
0.00349189
0.00319634
0.00285144
0.00246325
0.00203848
0.00158433
0.00110821
0.000617408
0.000119044
-0.000377447
-0.000863301
-0.00136703
-0.0019156
0.00186197
0.00111038
0.000524087
5.21599e-05
-0.000367011
-0.000737263
-0.0010617
-0.00134728
-0.00160054
-0.00182716
-0.00203216
-0.00221992
-0.00239409
-0.00255765
-0.00271291
-0.00286152
-0.00300452
-0.00314234
-0.00327489
-0.00340157
-0.00352131
-0.00363266
-0.00373379
-0.00382257
-0.00389663
-0.00395341
-0.00399024
-0.0040044
-0.00399318
-0.003954
-0.00388445
-0.00378237
-0.00364596
-0.00347387
-0.00326522
-0.00301975
-0.00273785
-0.00242064
-0.00207
-0.00168863
-0.00128006
-0.00084866
-0.000399592
6.1212e-05
0.000527138
0.000990989
0.00144511
0.00188155
0.00229225
0.00266921
0.00300475
0.00329168
0.00352357
0.00369491
0.00380134
0.00383976
0.00380848
0.00370729
0.00353744
0.00330166
0.00300403
0.00264988
0.00224555
0.00179826
0.0013158
0.000806367
0.00027803
-0.000261226
-0.000800834
-0.00133095
-0.00188283
-0.00248595
0.0014972
0.000718331
0.000111358
-0.000376738
-0.000810141
-0.00119312
-0.00152918
-0.00182578
-0.00208993
-0.00232771
-0.00254448
-0.00274487
-0.00293277
-0.0031113
-0.00328288
-0.00344921
-0.00361134
-0.00376968
-0.00392407
-0.00407381
-0.00421772
-0.00435415
-0.00448109
-0.00459619
-0.00469682
-0.00478014
-0.00484316
-0.00488283
-0.00489608
-0.00487994
-0.00483159
-0.00474846
-0.00462833
-0.00446939
-0.00427035
-0.00403055
-0.00374998
-0.00342942
-0.00307045
-0.00267555
-0.0022481
-0.00179239
-0.00131367
-0.000818017
-0.000312361
0.000195664
0.000697825
0.00118545
0.00164964
0.00208142
0.00247206
0.00281324
0.00309735
0.00331771
0.00346883
0.00354656
0.00354827
0.00347295
0.00332129
0.00309562
0.00279988
0.00243946
0.00202101
0.00155225
0.00104167
0.00049826
-6.89911e-05
-0.000651147
-0.00123638
-0.00181365
-0.0024172
-0.00307916
0.00105132
0.000247607
-0.000378246
-0.000881206
-0.00132783
-0.00172282
-0.00207006
-0.00237753
-0.00265268
-0.00290196
-0.00313107
-0.00334488
-0.0035475
-0.00374219
-0.00393146
-0.00411706
-0.00430004
-0.00448078
-0.00465905
-0.00483405
-0.00500444
-0.00516843
-0.00532378
-0.00546793
-0.00559797
-0.00571077
-0.00580301
-0.00587128
-0.00591213
-0.00592217
-0.00589814
-0.00583702
-0.0057361
-0.00559309
-0.00540623
-0.00517437
-0.00489706
-0.00457464
-0.00420835
-0.00380036
-0.00335381
-0.00287288
-0.00236281
-0.0018298
-0.00128105
-0.000724611
-0.000169307
0.000375453
0.000899854
0.0013939
0.00184768
0.00225161
0.00259676
0.00287511
0.00307983
0.00320553
0.00324844
0.00320662
0.00307998
0.00287036
0.00258142
0.00221857
0.00178876
0.00130019
0.000762091
0.000184369
-0.000423007
-0.00105003
-0.00168348
-0.002311
-0.00297004
-0.00369564
0.000521098
-0.000304891
-0.00094775
-0.00146422
-0.00192302
-0.00232927
-0.00268726
-0.00300543
-0.00329167
-0.00355281
-0.00379483
-0.00402288
-0.00424123
-0.0044533
-0.00466167
-0.00486814
-0.00507376
-0.00527887
-0.00548317
-0.00568573
-0.0058851
-0.00607928
-0.00626587
-0.00644203
-0.00660459
-0.00675011
-0.00687494
-0.00697528
-0.00704727
-0.00708708
-0.00709098
-0.00705544
-0.00697723
-0.00685352
-0.00668201
-0.006461
-0.00618951
-0.0058674
-0.00549543
-0.00507539
-0.00461012
-0.00410359
-0.00356095
-0.00298847
-0.00239356
-0.00178466
-0.00117117
-0.000563246
2.8342e-05
0.000592488
0.001118
0.00159391
0.00200978
0.00235606
0.00262438
0.00280789
0.00290148
0.00290201
0.00280847
0.00262199
0.00234587
0.00198543
0.00154784
0.00104181
0.000477369
-0.000134633
-0.00078312
-0.00145691
-0.00214123
-0.00282225
-0.00354094
-0.00433548
-9.63074e-05
-0.0009419
-0.00159982
-0.0021284
-0.0025983
-0.00301505
-0.00338332
-0.00371202
-0.00400946
-0.0042828
-0.00453833
-0.00478143
-0.00501655
-0.00524724
-0.00547616
-0.00570515
-0.00593525
-0.00616676
-0.00639931
-0.00663187
-0.00686282
-0.00709002
-0.00731083
-0.00752218
-0.00772063
-0.00790241
-0.00806352
-0.00819976
-0.00830685
-0.00838047
-0.00841639
-0.00841054
-0.00835911
-0.00825868
-0.00810633
-0.00789975
-0.00763734
-0.00731838
-0.00694309
-0.00651275
-0.00602982
-0.00549795
-0.00492212
-0.00430857
-0.00366485
-0.00299976
-0.00232321
-0.00164613
-0.000980261
-0.000337879
0.000268448
0.000826212
0.00132332
0.00174847
0.00209154
0.00234395
0.002499
0.00255211
0.0025011
0.00234619
0.00209014
0.00173805
0.00129724
0.000776945
0.00018795
-0.000457829
-0.00114813
-0.00187045
-0.00260831
-0.00334626
-0.00412906
-0.0049983
-0.000803352
-0.00166577
-0.00233673
-0.00287597
-0.00335587
-0.00378235
-0.00416044
-0.0044995
-0.00480822
-0.00509412
-0.00536374
-0.0056227
-0.00587563
-0.00612618
-0.00637711
-0.00663028
-0.00688673
-0.00714674
-0.00740983
-0.00767489
-0.00794016
-0.00820331
-0.00846151
-0.00871143
-0.00894935
-0.00917119
-0.00937257
-0.00954889
-0.00969542
-0.00980733
-0.00987985
-0.00990831
-0.00988831
-0.00981575
-0.00968703
-0.00949915
-0.00924982
-0.00893762
-0.00856212
-0.00812403
-0.00762525
-0.00706906
-0.00646011
-0.00580454
-0.00510994
-0.00438537
-0.00364123
-0.00288918
-0.00214192
-0.00141299
-0.000716384
-6.62974e-05
0.000523343
0.00103928
0.00146938
0.00180308
0.00203176
0.00214914
0.00215155
0.0020381
0.00181074
0.00147423
0.00103591
0.000505459
-0.000105521
-0.00078401
-0.00151644
-0.00228888
-0.00308293
-0.00388135
-0.00473303
-0.00568321
-0.00160205
-0.00247841
-0.00316034
-0.00370879
-0.00419756
-0.00463296
-0.00502039
-0.00536962
-0.00568971
-0.00598849
-0.00627278
-0.00654841
-0.00682015
-0.00709181
-0.00736619
-0.00764521
-0.0079299
-0.0082205
-0.00851647
-0.00881658
-0.00911896
-0.0094211
-0.00971996
-0.010012
-0.0102932
-0.0105591
-0.010805
-0.0110259
-0.0112165
-0.0113716
-0.0114857
-0.0115537
-0.0115703
-0.0115308
-0.0114308
-0.0112666
-0.0110351
-0.0107341
-0.0103623
-0.00991986
-0.00940793
-0.00882927
-0.00818812
-0.00749035
-0.00674351
-0.00595679
-0.00514101
-0.00430851
-0.00347295
-0.00264911
-0.00185254
-0.0010992
-0.000405037
0.000214519
0.000745057
0.00117371
0.00148964
0.00168452
0.00175288
0.00169235
0.00150386
0.00119156
0.000762711
0.000227335
-0.000402168
-0.00111162
-0.00188604
-0.00270991
-0.00356273
-0.00442524
-0.00535082
-0.00638867
-0.00249395
-0.00338131
-0.0040721
-0.00462825
-0.00512474
-0.00556825
-0.00596454
-0.00632373
-0.00665525
-0.00696722
-0.00726671
-0.00755976
-0.00785131
-0.00814526
-0.00844451
-0.008751
-0.00906578
-0.00938904
-0.0097202
-0.0100579
-0.0104002
-0.0107445
-0.0110873
-0.0114251
-0.0117534
-0.0120676
-0.0123625
-0.0126327
-0.0128725
-0.013076
-0.0132371
-0.0133501
-0.0134091
-0.0134084
-0.013343
-0.0132082
-0.013
-0.0127153
-0.0123521
-0.0119096
-0.0113881
-0.0107898
-0.0101183
-0.00937906
-0.00857946
-0.00772871
-0.00683792
-0.00592003
-0.00498962
-0.0040627
-0.00315641
-0.00228859
-0.00147736
-0.000740542
-9.51101e-05
0.000443452
0.00086173
0.00114895
0.00129744
0.00130304
0.00116527
0.000887443
0.000476491
-5.73189e-05
-0.000700836
-0.00143868
-0.00225437
-0.00313064
-0.00404465
-0.00497493
-0.00597967
-0.00711234
-0.00348011
-0.00437549
-0.00507299
-0.00563532
-0.00613838
-0.00658917
-0.00699379
-0.00736271
-0.00770567
-0.00803109
-0.00834627
-0.00865743
-0.00896969
-0.00928705
-0.00961249
-0.00994801
-0.0102946
-0.0106526
-0.0110212
-0.0113991
-0.0117841
-0.0121735
-0.0125637
-0.0129509
-0.0133304
-0.0136971
-0.0140457
-0.0143701
-0.0146642
-0.0149216
-0.0151356
-0.0152996
-0.0154071
-0.0154516
-0.0154271
-0.015328
-0.0151493
-0.0148871
-0.0145382
-0.0141007
-0.0135743
-0.0129601
-0.0122612
-0.0114823
-0.0106304
-0.00971472
-0.00874643
-0.00773897
-0.00670773
-0.00566995
-0.00464434
-0.00365071
-0.0027095
-0.00184113
-0.00106541
-0.000400769
0.000136385
0.000532408
0.000777013
0.000863763
0.000790418
0.000559072
0.000176081
-0.000348228
-0.00100003
-0.00176274
-0.00261826
-0.00354744
-0.00452486
-0.00552655
-0.00661594
-0.00785101
-0.00456108
-0.00546145
-0.00616352
-0.00673051
-0.00723897
-0.00769621
-0.00810861
-0.00848698
-0.00884135
-0.0091804
-0.00951166
-0.00984153
-0.0101753
-0.0105171
-0.0108699
-0.0112359
-0.011616
-0.0120105
-0.0124187
-0.0128392
-0.0132696
-0.0137071
-0.0141481
-0.0145883
-0.0150229
-0.0154465
-0.0158534
-0.0162371
-0.0165909
-0.0169079
-0.0171808
-0.0174022
-0.0175647
-0.0176611
-0.0176844
-0.017628
-0.0174859
-0.0172528
-0.0169247
-0.0164985
-0.0159728
-0.0153477
-0.0146252
-0.0138096
-0.0129072
-0.0119267
-0.0108795
-0.00977924
-0.00864205
-0.00748627
-0.00633217
-0.00520158
-0.00411733
-0.00310266
-0.00218046
-0.00137251
-0.000698572
-0.000175651
0.000182841
0.000367703
0.000374438
0.000203511
-0.000139647
-0.000644892
-0.00129786
-0.00208077
-0.00297385
-0.00395588
-0.00499859
-0.00607527
-0.00725494
-0.00860041
-0.00573688
-0.00663925
-0.00734374
-0.00791389
-0.00842658
-0.0088894
-0.009309
-0.00969648
-0.0100622
-0.0104149
-0.0107625
-0.0111116
-0.0114675
-0.0118345
-0.0122157
-0.0126134
-0.0130285
-0.0134613
-0.013911
-0.0143762
-0.0148546
-0.0153431
-0.0158379
-0.0163347
-0.0168283
-0.0173131
-0.0177829
-0.0182309
-0.0186499
-0.0190323
-0.0193703
-0.0196556
-0.0198801
-0.0200355
-0.020114
-0.0201077
-0.0200096
-0.0198133
-0.0195133
-0.0191055
-0.0185871
-0.017957
-0.0172163
-0.0163681
-0.015418
-0.0143743
-0.013248
-0.0120529
-0.0108057
-0.00952567
-0.00823463
-0.00695635
-0.00571617
-0.00454027
-0.0034549
-0.00248547
-0.00165561
-0.000986151
-0.000494198
-0.00019229
-8.77444e-05
-0.000182243
-0.000471709
-0.000946508
-0.00159193
-0.00238907
-0.00331642
-0.00435055
-0.00546004
-0.00661512
-0.00789081
-0.00935506
-0.007007
-0.00790842
-0.00861323
-0.00918506
-0.00970082
-0.0101683
-0.0105945
-0.0109907
-0.0113674
-0.0117339
-0.0120979
-0.0124664
-0.0128449
-0.0132377
-0.0136482
-0.0140785
-0.0145298
-0.0150022
-0.0154952
-0.0160072
-0.0165358
-0.0170778
-0.0176295
-0.0181861
-0.0187425
-0.0192926
-0.0198298
-0.0203471
-0.0208366
-0.0212902
-0.0216994
-0.0220553
-0.0223487
-0.0225706
-0.0227118
-0.0227636
-0.0227176
-0.0225661
-0.0223024
-0.0219209
-0.0214173
-0.0207894
-0.0200368
-0.0191614
-0.018168
-0.0170639
-0.0158598
-0.0145692
-0.0132093
-0.0118001
-0.0103647
-0.00892878
-0.00752025
-0.00616832
-0.00490281
-0.00375312
-0.00274715
-0.0019101
-0.00126338
-0.000823507
-0.000601284
-0.000601147
-0.000820914
-0.00125188
-0.00187926
-0.00268316
-0.00364032
-0.00472492
-0.00590214
-0.0071388
-0.00851631
-0.010108
-0.00837036
-0.00926799
-0.00997112
-0.0105432
-0.0110608
-0.0115321
-0.0119642
-0.0123686
-0.0127561
-0.0131359
-0.0135164
-0.0139043
-0.0143056
-0.0147246
-0.0151647
-0.0156283
-0.0161166
-0.0166299
-0.0171674
-0.0177278
-0.0183085
-0.0189064
-0.0195175
-0.020137
-0.0207595
-0.0213786
-0.0219876
-0.0225788
-0.023144
-0.0236746
-0.0241611
-0.0245941
-0.0249635
-0.0252592
-0.0254711
-0.0255891
-0.0256036
-0.0255056
-0.0252868
-0.0249402
-0.02446
-0.0238423
-0.0230853
-0.0221896
-0.0211585
-0.0199985
-0.0187193
-0.0173343
-0.0158605
-0.0143185
-0.0127327
-0.0111304
-0.00954194
-0.0079997
-0.00653721
-0.00518815
-0.00398511
-0.00295821
-0.00213381
-0.00153315
-0.00117122
-0.00105596
-0.00118772
-0.00155927
-0.00215614
-0.00295762
-0.00393875
-0.00507122
-0.00631645
-0.00763753
-0.00912265
-0.0108509
-0.00982539
-0.0107166
-0.0114161
-0.011987
-0.0125054
-0.0129796
-0.0134168
-0.0138287
-0.0142264
-0.0146193
-0.0150158
-0.0154229
-0.0158467
-0.0162919
-0.0167618
-0.017259
-0.0177847
-0.0183394
-0.0189225
-0.0195324
-0.0201667
-0.0208223
-0.021495
-0.02218
-0.0228715
-0.0235632
-0.0242478
-0.0249173
-0.0255631
-0.0261758
-0.0267456
-0.0272621
-0.0277143
-0.0280912
-0.0283816
-0.0285741
-0.0286578
-0.0286222
-0.0284575
-0.028155
-0.0277073
-0.0271088
-0.026356
-0.0254479
-0.0243863
-0.0231763
-0.0218266
-0.0203499
-0.0187628
-0.0170864
-0.0153456
-0.0135697
-0.011791
-0.0100451
-0.00836932
-0.00680186
-0.00538037
-0.00414046
-0.0031141
-0.00232799
-0.00180221
-0.001549
-0.00157206
-0.00186626
-0.00241796
-0.00320595
-0.00420366
-0.00538018
-0.00669292
-0.0081008
-0.00969922
-0.0115732
-0.01137
-0.0122522
-0.0129463
-0.0135148
-0.0140329
-0.014509
-0.0149505
-0.0153692
-0.0157764
-0.0161816
-0.0165934
-0.0170192
-0.017465
-0.0179358
-0.0184351
-0.0189656
-0.0195288
-0.0201251
-0.020754
-0.0214141
-0.022103
-0.0228175
-0.0235535
-0.024306
-0.0250691
-0.0258362
-0.0265997
-0.0273514
-0.0280822
-0.0287821
-0.0294406
-0.0300465
-0.0305882
-0.0310534
-0.0314298
-0.031705
-0.0318665
-0.0319023
-0.0318011
-0.0315523
-0.031147
-0.0305774
-0.0298384
-0.028927
-0.0278432
-0.0265907
-0.0251767
-0.0236128
-0.0219151
-0.0201044
-0.0182064
-0.0162513
-0.0142737
-0.0123122
-0.0104078
-0.0086034
-0.00694211
-0.00546548
-0.00421177
-0.003214
-0.00249821
-0.00208193
-0.0019731
-0.00216953
-0.00265904
-0.00342035
-0.00442547
-0.00564088
-0.00701963
-0.00851614
-0.0102334
-0.0122625
-0.0130016
-0.0138727
-0.0145598
-0.0151246
-0.0156414
-0.0161184
-0.0165632
-0.0169878
-0.0174035
-0.01782
-0.0182461
-0.0186895
-0.0191563
-0.0196517
-0.0201795
-0.0207426
-0.0213425
-0.0219799
-0.0226545
-0.0233648
-0.0241086