/*--------------------------------*- C++ -*----------------------------------*\
  =========                 |
  \\      /  F ield         | OpenFOAM: The Open Source CFD Toolbox
   \\    /   O peration     | Website:  https://openfoam.org
    \\  /    A nd           | Version:  dev
     \\/     M anipulation  |
\*---------------------------------------------------------------------------*/
FoamFile
{
    format      ascii;
    class       surfaceScalarField;
    location    "25.65";
    object      phi;
}
// * * * * * * * * * * * * * * * * * * * * * * * * * * * * * * * * * * * * * //

dimensions      [0 3 -1 0 0 0 0];

internalField   nonuniform List<scalar> 
10224
(
3.37347e-08
-3.49163e-08
8.7786e-08
-5.40546e-08
1.24327e-07
-3.65371e-08
1.25273e-07
-9.42927e-10
8.36369e-08
4.16338e-08
-1.84461e-09
8.54799e-08
-1.29346e-07
1.27501e-07
-2.95564e-07
1.66217e-07
-4.96439e-07
2.00874e-07
-7.27669e-07
2.31231e-07
-9.84988e-07
2.57319e-07
-1.2643e-06
2.79316e-07
-1.56178e-06
2.97476e-07
-1.87386e-06
3.12081e-07
-2.19728e-06
3.23418e-07
-2.52903e-06
3.31752e-07
-2.86635e-06
3.37319e-07
-3.20667e-06
3.40321e-07
-3.54759e-06
3.40918e-07
-3.88682e-06
3.39233e-07
-4.22218e-06
3.35351e-07
-4.5515e-06
3.29325e-07
-4.87268e-06
3.2118e-07
-5.1836e-06
3.10919e-07
-5.48213e-06
2.98529e-07
-5.76612e-06
2.8399e-07
-6.0334e-06
2.67279e-07
-6.28178e-06
2.48381e-07
-6.50907e-06
2.27291e-07
-6.71309e-06
2.04022e-07
-6.8917e-06
1.78612e-07
-7.04283e-06
1.5113e-07
-7.16451e-06
1.21677e-07
-7.2549e-06
9.03929e-08
-7.31236e-06
5.74581e-08
-7.33546e-06
2.30945e-08
-7.32302e-06
-1.24323e-08
-7.27421e-06
-4.88138e-08
-7.18851e-06
-8.57008e-08
-7.0658e-06
-1.22706e-07
-6.90639e-06
-1.5941e-07
-6.71103e-06
-1.95363e-07
-6.48093e-06
-2.30095e-07
-6.21781e-06
-2.63124e-07
-5.92385e-06
-2.93962e-07
-5.60172e-06
-3.22127e-07
-5.25456e-06
-3.47153e-07
-4.88596e-06
-3.68603e-07
-4.49989e-06
-3.86074e-07
-4.10067e-06
-3.99212e-07
-3.69295e-06
-4.07722e-07
-3.28158e-06
-4.11374e-07
-2.87156e-06
-4.10012e-07
-2.468e-06
-4.03561e-07
-2.07597e-06
-3.9203e-07
-1.70046e-06
-3.75515e-07
-1.34625e-06
-3.54202e-07
-1.01789e-06
-3.28364e-07
-7.19527e-07
-2.98362e-07
-4.5488e-07
-2.64646e-07
-2.27127e-07
-2.27753e-07
-3.88124e-08
-1.88314e-07
1.08257e-07
-1.47068e-07
2.13142e-07
-1.04886e-07
2.75957e-07
-6.28153e-08
2.98131e-07
-2.21744e-08
2.82841e-07
1.52915e-08
2.35679e-07
4.71636e-08
1.65702e-07
6.99762e-08
8.71989e-08
7.84981e-08
2.25404e-08
6.46497e-08
2.25354e-08
5.3851e-08
-8.87702e-08
1.12324e-07
-1.12522e-07
1.18095e-07
-4.23041e-08
3.8775e-08
7.83754e-08
-1.42031e-07
2.22437e-07
-4.29639e-07
3.73087e-07
-8.22281e-07
5.20143e-07
-1.31381e-06
6.57751e-07
-1.89568e-06
7.82736e-07
-2.55806e-06
8.93613e-07
-3.29069e-06
9.89949e-07
-4.08333e-06
1.07195e-06
-4.92604e-06
1.14019e-06
-5.80941e-06
1.19545e-06
-6.72454e-06
1.23855e-06
-7.6631e-06
1.27032e-06
-8.6173e-06
1.29152e-06
-9.57979e-06
1.30281e-06
-1.05436e-05
1.30475e-06
-1.15021e-05
1.29776e-06
-1.24489e-05
1.28215e-06
-1.33777e-05
1.25812e-06
-1.42824e-05
1.22581e-06
-1.51567e-05
1.18525e-06
-1.59946e-05
1.13644e-06
-1.679e-05
1.07937e-06
-1.75367e-05
1.01401e-06
-1.82287e-05
9.40345e-07
-1.88598e-05
8.58434e-07
-1.94242e-05
7.68385e-07
-1.9916e-05
6.70403e-07
-2.03297e-05
5.64799e-07
-2.066e-05
4.52005e-07
-2.09022e-05
3.32592e-07
-2.1052e-05
2.0727e-07
-2.11058e-05
7.69049e-08
-2.10607e-05
-5.7489e-08
-2.09148e-05
-1.94747e-07
-2.0667e-05
-3.33563e-07
-2.03172e-05
-4.725e-07
-1.98666e-05
-6.10006e-07
-1.93175e-05
-7.44437e-07
-1.86735e-05
-8.74076e-07
-1.79395e-05
-9.9717e-07
-1.71215e-05
-1.11195e-06
-1.62269e-05
-1.21669e-06
-1.52643e-05
-1.30971e-06
-1.42435e-05
-1.38943e-06
-1.31752e-05
-1.45442e-06
-1.2071e-05
-1.50342e-06
-1.09433e-05
-1.53538e-06
-9.80519e-06
-1.54949e-06
-8.66999e-06
-1.54521e-06
-7.55127e-06
-1.52228e-06
-6.46252e-06
-1.48078e-06
-5.41697e-06
-1.42106e-06
-4.42733e-06
-1.34384e-06
-3.50554e-06
-1.25015e-06
-2.66254e-06
-1.14136e-06
-1.90802e-06
-1.01917e-06
-1.25015e-06
-8.85616e-07
-6.95344e-07
-7.43122e-07
-2.47897e-07
-5.94515e-07
9.03402e-08
-4.43123e-07
3.20444e-07
-2.92919e-07
4.4701e-07
-1.48742e-07
4.79025e-07
-1.67259e-08
4.30959e-07
9.52287e-08
3.24247e-07
1.76693e-07
1.88897e-07
2.13862e-07
6.43619e-08
1.89205e-07
8.68913e-08
3.7307e-08
-1.26074e-07
4.32394e-08
-1.18453e-07
-4.33811e-08
4.43154e-08
-2.5882e-07
2.93814e-07
-6.22681e-07
5.863e-07
-1.14208e-06
8.92484e-07
-1.81527e-06
1.19334e-06
-2.63461e-06
1.47709e-06
-3.58873e-06
1.73685e-06
-4.6641e-06
1.96899e-06
-5.84617e-06
2.17202e-06
-7.12005e-06
2.34583e-06
-8.47104e-06
2.49118e-06
-9.8849e-06
2.60931e-06
-1.1348e-05
2.70166e-06
-1.28474e-05
2.76975e-06
-1.43709e-05
2.81499e-06
-1.59068e-05
2.83866e-06
-1.74439e-05
2.84184e-06
-1.89715e-05
2.82537e-06
-2.04792e-05
2.78991e-06
-2.1957e-05
2.73591e-06
-2.33949e-05
2.66364e-06
-2.47829e-05
2.57325e-06
-2.61112e-05
2.46482e-06
-2.73702e-05
2.33836e-06
-2.85501e-05
2.1939e-06
-2.96413e-05
2.03153e-06
-3.06343e-05
1.85143e-06
-3.15198e-05
1.65395e-06
-3.22891e-05
1.43961e-06
-3.29334e-05
1.20916e-06
-3.3445e-05
9.6361e-07
-3.38167e-05
7.04239e-07
-3.4042e-05
4.32637e-07
-3.41158e-05
1.50694e-07
-3.40339e-05
-1.39386e-07
-3.37936e-05
-4.35098e-07
-3.33935e-05
-7.3365e-07
-3.2834e-05
-1.03199e-06
-3.21172e-05
-1.32683e-06
-3.12469e-05
-1.6147e-06
-3.0229e-05
-1.892e-06
-2.90711e-05
-2.15507e-06
-2.77828e-05
-2.40021e-06
-2.63757e-05
-2.62382e-06
-2.4863e-05
-2.8224e-06
-2.32597e-05
-2.99269e-06
-2.15824e-05
-3.13173e-06
-1.98489e-05
-3.23691e-06
-1.80783e-05
-3.30606e-06
-1.62902e-05
-3.33752e-06
-1.45052e-05
-3.3302e-06
-1.27439e-05
-3.2836e-06
-1.10268e-05
-3.19787e-06
-9.37405e-06
-3.07384e-06
-7.80488e-06
-2.91302e-06
-6.33741e-06
-2.71762e-06
-4.98818e-06
-2.49059e-06
-3.77179e-06
-2.23556e-06
-2.70047e-06
-1.95694e-06
-1.78369e-06
-1.65991e-06
-1.02768e-06
-1.35053e-06
-4.34914e-07
-1.03589e-06
-3.48593e-09
-7.24346e-07
2.73672e-07
-4.25898e-07
4.09623e-07
-1.52676e-07
4.24593e-07
8.02531e-08
3.472e-07
2.54076e-07
2.15636e-07
3.45419e-07
7.86131e-08
3.26237e-07
1.65502e-07
1.88661e-09
-1.27957e-07
-7.899e-08
-3.75803e-08
-2.97669e-07
2.62993e-07
-6.87862e-07
6.84007e-07
-1.26788e-06
1.16632e-06
-2.04398e-06
1.66859e-06
-3.01339e-06
2.16274e-06
-4.16684e-06
2.63054e-06
-5.49074e-06
3.06075e-06
-6.96876e-06
3.44701e-06
-8.58308e-06
3.78633e-06
-1.03152e-05
4.07797e-06
-1.21467e-05
4.32263e-06
-1.40593e-05
4.52191e-06
-1.60354e-05
4.67783e-06
-1.80583e-05
4.7926e-06
-2.01116e-05
4.86834e-06
-2.218e-05
4.90701e-06
-2.42484e-05
4.91026e-06
-2.63025e-05
4.87947e-06
-2.83283e-05
4.81567e-06
-3.0312e-05
4.71963e-06
-3.22402e-05
4.59185e-06
-3.40996e-05
4.43264e-06
-3.5877e-05
4.24219e-06
-3.75593e-05
4.02065e-06
-3.91336e-05
3.76818e-06
-4.05871e-05
3.48504e-06
-4.19073e-05
3.17169e-06
-4.30822e-05
2.82883e-06
-4.41001e-05
2.45749e-06
-4.495e-05
2.05904e-06
-4.56217e-05
1.63533e-06
-4.61061e-05
1.18861e-06
-4.63951e-05
7.21684e-07
-4.64822e-05
2.3781e-07
-4.63624e-05
-2.59226e-07
-4.60323e-05
-7.65149e-07
-4.54908e-05
-1.27522e-06
-4.47385e-05
-1.78429e-06
-4.37784e-05
-2.28683e-06
-4.26161e-05
-2.77703e-06
-4.12593e-05
-3.24887e-06
-3.97181e-05
-3.69622e-06
-3.80054e-05
-4.11295e-06
-3.61361e-05
-4.49306e-06
-3.41277e-05
-4.83078e-06
-3.19997e-05
-5.12069e-06
-2.97736e-05
-5.35789e-06
-2.74724e-05
-5.53807e-06
-2.51208e-05
-5.65767e-06
-2.27444e-05
-5.71395e-06
-2.03695e-05
-5.70511e-06
-1.80227e-05
-5.63036e-06
-1.57306e-05
-5.49e-06
-1.3519e-05
-5.28543e-06
-1.14128e-05
-5.01923e-06
-9.43524e-06
-4.69515e-06
-7.60767e-06
-4.31816e-06
-5.9488e-06
-3.89443e-06
-4.47432e-06
-3.43142e-06
-3.19634e-06
-2.93788e-06
-2.12283e-06
-2.42404e-06
-1.25699e-06
-1.90173e-06
-5.96567e-07
-1.38477e-06
-1.33133e-07
-8.89329e-07
1.48803e-07
-4.34606e-07
2.72691e-07
-4.36317e-08
2.70978e-07
2.55786e-07
1.8615e-07
4.30239e-07
7.21702e-08
4.40218e-07
2.37673e-07
-4.20585e-08
-8.59018e-08
-2.30015e-07
1.50373e-07
-6.06457e-07
6.39436e-07
-1.19796e-06
1.27551e-06
-2.01825e-06
1.98661e-06
-3.07051e-06
2.72085e-06
-4.34955e-06
3.44178e-06
-5.84393e-06
4.12492e-06
-7.53781e-06
4.75462e-06
-9.41237e-06
5.32158e-06
-1.14471e-05
5.82104e-06
-1.36205e-05
6.25141e-06
-1.59111e-05
6.61317e-06
-1.82973e-05
6.90815e-06
-2.07583e-05
7.13887e-06
-2.32739e-05
7.30816e-06
-2.58244e-05
7.41886e-06
-2.8391e-05
7.4736e-06
-3.09554e-05
7.47465e-06
-3.34999e-05
7.42392e-06
-3.60071e-05
7.3229e-06
-3.84602e-05
7.1727e-06
-4.08424e-05
6.97409e-06
-4.31374e-05
6.72762e-06
-4.53288e-05
6.43366e-06
-4.74007e-05
6.09253e-06
-4.93372e-05
5.70465e-06
-5.11227e-05
5.27055e-06
-5.27421e-05
4.79108e-06
-5.41807e-05
4.26747e-06
-5.54246e-05
3.70138e-06
-5.64607e-05
3.09508e-06
-5.72768e-05
2.45142e-06
-5.78621e-05
1.77394e-06
-5.82073e-05
1.06689e-06
-5.83047e-05
3.35251e-07
-5.81487e-05
-4.15266e-07
-5.77356e-05
-1.17825e-06
-5.70642e-05
-1.94662e-06
-5.61358e-05
-2.71272e-06
-5.49543e-05
-3.46833e-06
-5.35264e-05
-4.20488e-06
-5.18618e-05
-4.91347e-06
-4.99729e-05
-5.58509e-06
-4.78751e-05
-6.21073e-06
-4.55866e-05
-6.78156e-06
-4.31283e-05
-7.28912e-06
-4.05235e-05
-7.72548e-06
-3.7798e-05
-8.08346e-06
-3.49793e-05
-8.35675e-06
-3.20968e-05
-8.54014e-06
-2.91811e-05
-8.62964e-06
-2.62636e-05
-8.62262e-06
-2.3376e-05
-8.51793e-06
-2.055e-05
-8.31604e-06
-1.78164e-05
-8.01905e-06
-1.52048e-05
-7.63078e-06
-1.27432e-05
-7.15681e-06
-1.04568e-05
-6.60452e-06
-8.36813e-06
-5.9831e-06
-6.49597e-06
-5.30358e-06
-4.8549e-06
-4.57895e-06
-3.45465e-06
-3.82429e-06
-2.29944e-06
-3.05694e-06
-1.38733e-06
-2.29689e-06
-7.09464e-07
-1.56719e-06
-2.49392e-07
-8.94679e-07
1.77316e-08
-3.10753e-07
1.25943e-07
1.47577e-07
1.19364e-07
4.36814e-07
5.36147e-08
5.05966e-07
2.91288e-07
-8.94247e-08
3.52054e-09
-3.95261e-07
4.5621e-07
-9.4487e-07
1.18905e-06
-1.75483e-06
2.08547e-06
-2.83192e-06
3.06371e-06
-4.17439e-06
4.06332e-06
-5.7734e-06
5.04078e-06
-7.61455e-06
5.96607e-06
-9.67938e-06
6.81945e-06
-1.19466e-05
7.58881e-06
-1.43932e-05
8.26762e-06
-1.69951e-05
8.85335e-06
-1.97281e-05
9.34618e-06
-2.2568e-05
9.74806e-06
-2.54911e-05
1.00619e-05
-2.84742e-05
1.02912e-05
-3.14948e-05
1.04394e-05
-3.4531e-05
1.05098e-05
-3.75617e-05
1.05053e-05
-4.05661e-05
1.04284e-05
-4.35241e-05
1.02809e-05
-4.64158e-05
1.00644e-05
-4.92216e-05
9.77991e-06
-5.19223e-05
9.42833e-06
-5.44989e-05
9.01025e-06
-5.69326e-05
8.52627e-06
-5.92051e-05
7.9771e-06
-6.12982e-05
7.36368e-06
-6.31945e-05
6.68738e-06
-6.48771e-05
5.95006e-06
-6.63299e-05
5.15426e-06
-6.75381e-05
4.30324e-06
-6.84878e-05
3.40114e-06
-6.91669e-05
2.45299e-06
-6.95648e-05
1.46477e-06
-6.9673e-05
4.43451e-07
-6.94852e-05
-6.03038e-07
-6.89976e-05
-1.66582e-06
-6.82091e-05
-2.73514e-06
-6.71214e-05
-3.80047e-06
-6.57391e-05
-4.85056e-06
-6.40703e-05
-5.87369e-06
-6.21261e-05
-6.85773e-06
-5.99208e-05
-7.79038e-06
-5.74721e-05
-8.6594e-06
-5.48009e-05
-9.45278e-06
-5.1931e-05
-1.0159e-05
-4.88891e-05
-1.07674e-05
-4.57045e-05
-1.12681e-05
-4.24087e-05
-1.16525e-05
-3.90352e-05
-1.19137e-05
-3.56188e-05
-1.20461e-05
-3.21952e-05
-1.20461e-05
-2.88008e-05
-1.19123e-05
-2.54716e-05
-1.16453e-05
-2.22428e-05
-1.12478e-05
-1.91485e-05
-1.07251e-05
-1.62204e-05
-1.00849e-05
-1.34877e-05
-9.33718e-06
-1.09763e-05
-8.49451e-06
-8.70793e-06
-7.57197e-06
-6.69961e-06
-6.58727e-06
-4.96307e-06
-5.56083e-06
-3.50396e-06
-4.51605e-06
-2.32125e-06
-3.4796e-06
-1.40657e-06
-2.48186e-06
-7.43649e-07
-1.55761e-06
-3.0764e-07
-7.46762e-07
-6.4589e-08
-9.5472e-08
2.92347e-08
3.4299e-07
2.82718e-08
5.06929e-07
3.1956e-07
-1.37609e-07
1.41129e-07
-5.66155e-07
8.84757e-07
-1.29709e-06
1.91998e-06
-2.3355e-06
3.12387e-06
-3.67968e-06
4.40789e-06
-5.32157e-06
5.70521e-06
-7.24756e-06
6.96677e-06
-9.43954e-06
8.15806e-06
-1.1876e-05
9.25588e-06
-1.45329e-05
1.02457e-05
-1.73847e-05
1.11194e-05
-2.0405e-05
1.18737e-05
-2.35672e-05
1.25084e-05
-2.68446e-05
1.30255e-05
-3.02111e-05
1.34284e-05
-3.36409e-05
1.37211e-05
-3.71091e-05
1.39076e-05
-4.05912e-05
1.39919e-05
-4.40634e-05
1.39775e-05
-4.75024e-05
1.38674e-05
-5.08855e-05
1.36639e-05
-5.41902e-05
1.3369e-05
-5.73943e-05
1.29841e-05
-6.04763e-05
1.25102e-05
-6.34144e-05
1.19484e-05
-6.61877e-05
1.12996e-05
-6.87754e-05
1.05648e-05
-7.11573e-05
9.74551e-06
-7.33136e-05
8.84373e-06
-7.52257e-05
7.86211e-06
-7.68756e-05
6.80418e-06
-7.82468e-05
5.67441e-06
-7.9324e-05
4.47837e-06
-8.00938e-05
3.22279e-06
-8.05446e-05
1.91563e-06
-8.06673e-05
5.6608e-07
-8.04549e-05
-8.1545e-07
-7.99033e-05
-2.21735e-06
-7.90116e-05
-3.6269e-06
-7.77816e-05
-5.03041e-06
-7.62189e-05
-6.4133e-06
-7.43322e-05
-7.76037e-06
-7.2134e-05
-9.05595e-06
-6.96402e-05
-1.02841e-05
-6.68705e-05
-1.14291e-05
-6.38478e-05
-1.24754e-05
-6.05986e-05
-1.34082e-05
-5.71524e-05
-1.42136e-05
-5.35416e-05
-1.48789e-05
-4.9801e-05
-1.53931e-05
-4.59676e-05
-1.57471e-05
-4.208e-05
-1.59336e-05
-3.81779e-05
-1.59482e-05
-3.43016e-05
-1.57887e-05
-3.04911e-05
-1.54558e-05
-2.67856e-05
-1.49532e-05
-2.32232e-05
-1.42876e-05
-1.98393e-05
-1.34687e-05
-1.66669e-05
-1.25096e-05
-1.37349e-05
-1.14265e-05
-1.10682e-05
-1.02387e-05
-8.68652e-06
-8.96899e-06
-6.60371e-06
-7.64364e-06
-4.82734e-06
-6.29242e-06
-3.35792e-06
-4.94902e-06
-2.18835e-06
-3.65143e-06
-1.30345e-06
-2.44251e-06
-6.79481e-07
-1.37073e-06
-2.83836e-07
-4.91116e-07
-7.46765e-08
1.33831e-07
-6.1459e-10
4.32867e-07
3.18946e-07
-1.85366e-07
3.26495e-07
-7.37812e-07
1.4372e-06
-1.65334e-06
2.83551e-06
-2.92497e-06
4.39549e-06
-4.5416e-06
6.02452e-06
-6.48794e-06
7.65154e-06
-8.74475e-06
9.22358e-06
-1.12895e-05
1.07028e-05
-1.40972e-05
1.20635e-05
-1.71407e-05
1.32893e-05
-2.0392e-05
1.43707e-05
-2.38223e-05
1.5304e-05
-2.74026e-05
1.60886e-05
-3.11041e-05
1.6727e-05
-3.48984e-05
1.72227e-05
-3.87577e-05
1.75804e-05
-4.26547e-05
1.78047e-05
-4.65629e-05
1.79001e-05
-5.0456e-05
1.78707e-05
-5.43086e-05
1.772e-05
-5.80956e-05
1.74509e-05
-6.17922e-05
1.70657e-05
-6.53742e-05
1.65661e-05
-6.88176e-05
1.59536e-05
-7.20986e-05
1.52295e-05
-7.51941e-05
1.4395e-05
-7.80812e-05
1.34519e-05
-8.07377e-05
1.2402e-05
-8.31421e-05
1.12482e-05
-8.52739e-05
9.99391e-06
-8.71136e-05
8.64388e-06
-8.86431e-05
7.2039e-06
-8.98459e-05
5.68115e-06
-9.07074e-05
4.08425e-06
-9.1215e-05
2.42328e-06
-9.13588e-05
7.09865e-07
-9.11314e-05
-1.04288e-06
-9.05283e-05
-2.82038e-06
-8.95485e-05
-4.60674e-06
-8.81941e-05
-6.38482e-06
-8.64709e-05
-8.13649e-06
-8.43885e-05
-9.84279e-06
-8.19602e-05
-1.14842e-05
-7.92034e-05
-1.3041e-05
-7.6139e-05
-1.44935e-05
-7.2792e-05
-1.58225e-05
-6.91908e-05
-1.70094e-05
-6.53675e-05
-1.8037e-05
-6.13569e-05
-1.88895e-05
-5.71969e-05
-1.95531e-05
-5.29277e-05
-2.00163e-05
-4.85911e-05
-2.02702e-05
-4.42304e-05
-2.03089e-05
-3.98894e-05
-2.01297e-05
-3.5612e-05
-1.97332e-05
-3.14413e-05
-1.9124e-05
-2.74188e-05
-1.83101e-05
-2.3584e-05
-1.73036e-05
-1.9973e-05
-1.61206e-05
-1.66186e-05
-1.4781e-05
-1.35484e-05
-1.33088e-05
-1.07852e-05
-1.17322e-05
-8.34547e-06
-1.00834e-05
-6.23913e-06
-8.39876e-06
-4.46878e-06
-6.71936e-06
-3.02928e-06
-5.09093e-06
-1.90732e-06
-3.56447e-06
-1.08114e-06
-2.19691e-06
-5.20387e-07
-1.05186e-06
-1.86139e-07
-2.00416e-07
-3.10896e-08
2.77818e-07
2.87855e-07
-2.32056e-07
5.58551e-07
-9.07474e-07
2.11262e-06
-2.00764e-06
3.93568e-06
-3.5135e-06
5.90135e-06
-5.40419e-06
7.91521e-06
-7.65655e-06
9.90391e-06
-1.02452e-05
1.18122e-05
-1.31426e-05
1.36002e-05
-1.63197e-05
1.52406e-05
-1.97463e-05
1.67159e-05
-2.33914e-05
1.80159e-05
-2.7224e-05
1.91365e-05
-3.12127e-05
2.00773e-05
-3.53267e-05
2.0841e-05
-3.95358e-05
2.14318e-05
-4.381e-05
2.18546e-05
-4.81201e-05
2.21148e-05
-5.24377e-05
2.22176e-05
-5.67346e-05
2.21676e-05
-6.09833e-05
2.19688e-05
-6.51568e-05
2.16244e-05
-6.92284e-05
2.11373e-05
-7.31718e-05
2.05095e-05
-7.6961e-05
1.97428e-05
-8.05704e-05
1.88389e-05
-8.3975e-05
1.77996e-05
-8.71501e-05
1.66269e-05
-9.00717e-05
1.53236e-05
-9.27166e-05
1.38931e-05
-9.50628e-05
1.23401e-05
-9.70892e-05
1.06703e-05
-9.87764e-05
8.89111e-06
-0.000100107
7.01142e-06
-0.000101064
5.04185e-06
-0.000101636
2.99478e-06
-0.00010181
8.84418e-07
-0.00010158
-1.27324e-06
-0.00010094
-3.46051e-06
-9.98885e-05
-5.65807e-06
-9.84281e-05
-7.84518e-06
-9.65647e-05
-9.99989e-06
-9.43082e-05
-1.20993e-05
-9.16727e-05
-1.41198e-05
-8.86762e-05
-1.60375e-05
-8.5341e-05
-1.78287e-05
-8.16935e-05
-1.947e-05
-7.77639e-05
-2.0939e-05
-7.3586e-05
-2.22148e-05
-6.91973e-05
-2.32782e-05
-6.46379e-05
-2.41124e-05
-5.9951e-05
-2.47033e-05
-5.51813e-05
-2.50398e-05
-5.03756e-05
-2.51147e-05
-4.55809e-05
-2.49243e-05
-4.08449e-05
-2.44693e-05
-3.62142e-05
-2.37547e-05
-3.17342e-05
-2.27901e-05
-2.7448e-05
-2.15898e-05
-2.33954e-05
-2.01731e-05
-1.96127e-05
-1.85637e-05
-1.61311e-05
-1.67904e-05
-1.29764e-05
-1.48869e-05
-1.01682e-05
-1.28915e-05
-7.7193e-06
-1.08477e-05
-5.63489e-06
-8.80377e-06
-3.9124e-06
-6.81342e-06
-2.54104e-06
-4.93583e-06
-1.5017e-06
-3.23625e-06
-7.66946e-07
-1.78662e-06
-3.01339e-07
-6.66021e-07
-6.20514e-08
3.85299e-08
2.25804e-07
-2.774e-07
8.35951e-07
-1.07361e-06
2.90882e-06
-2.35635e-06
5.21842e-06
-4.09481e-06
7.63981e-06
-6.25827e-06
1.00787e-05
-8.81547e-06
1.24611e-05
-1.17344e-05
1.47311e-05
-1.49822e-05
1.68481e-05
-1.85256e-05
1.8784e-05
-2.23307e-05
2.0521e-05
-2.63638e-05
2.2049e-05
-3.05912e-05
2.33638e-05
-3.49794e-05
2.44656e-05
-3.94958e-05
2.53574e-05
-4.4108e-05
2.6044e-05
-4.87845e-05
2.65311e-05
-5.34944e-05
2.68247e-05
-5.82073e-05
2.69306e-05
-6.28937e-05
2.6854e-05
-6.75242e-05
2.65993e-05
-7.20701e-05
2.61703e-05
-7.65029e-05
2.55701e-05
-8.07947e-05
2.48013e-05
-8.49179e-05
2.38659e-05
-8.88451e-05
2.27661e-05
-9.25495e-05
2.15041e-05
-9.6005e-05
2.00824e-05
-9.91859e-05
1.85046e-05
-0.000102068
1.67749e-05
-0.000104627
1.48991e-05
-0.000106841
1.28842e-05
-0.000108689
1.07391e-05
-0.000110152
8.47461e-06
-0.000111213
6.10339e-06
-0.000111859
3.64025e-06
-0.000112076
1.10209e-06
-0.000111858
-1.4921e-06
-0.000111197
-4.12135e-06
-0.000110092
-6.76279e-06
-0.000108545
-9.39192e-06
-0.000106562
-1.19828e-05
-0.000104153
-1.45083e-05
-0.000101333
-1.69405e-05
-9.81189e-05
-1.92513e-05
-9.4535e-05
-2.14125e-05
-9.06085e-05
-2.33965e-05
-8.63709e-05
-2.51766e-05
-8.18578e-05
-2.67279e-05
-7.71084e-05
-2.80276e-05
-7.21653e-05
-2.90555e-05
-6.70741e-05
-2.97946e-05
-6.18824e-05
-3.02315e-05
-5.664e-05
-3.03571e-05
-5.13975e-05
-3.01668e-05
-4.62059e-05
-2.96609e-05
-4.11155e-05
-2.8845e-05
-3.61757e-05
-2.77299e-05
-3.14332e-05
-2.63323e-05
-2.6932e-05
-2.46743e-05
-2.2712e-05
-2.27837e-05
-1.88082e-05
-2.06942e-05
-1.52501e-05
-1.8445e-05
-1.20608e-05
-1.60809e-05
-9.25626e-06
-1.36522e-05
-6.84499e-06
-1.1215e-05
-4.8275e-06
-8.83091e-06
-3.19607e-06
-6.56726e-06
-1.93469e-06
-4.49763e-06
-1.01928e-06
-2.70202e-06
-4.18166e-07
-1.26713e-06
-9.29465e-08
-2.86689e-07
1.32857e-07
-3.21284e-07
1.15724e-06
-1.23536e-06
3.8229e-06
-2.69722e-06
6.68028e-06
-4.66477e-06
9.60736e-06
-7.09756e-06
1.25115e-05
-9.95616e-06
1.53197e-05
-1.32018e-05
1.79767e-05
-1.6796e-05
2.04423e-05
-2.07009e-05
2.2689e-05
-2.48791e-05
2.46992e-05
-2.92936e-05
2.64635e-05
-3.39083e-05
2.79784e-05
-3.86875e-05
2.92448e-05
-4.35965e-05
3.02664e-05
-4.86015e-05
3.10489e-05
-5.36691e-05
3.15988e-05
-5.87671e-05
3.19227e-05
-6.38635e-05
3.20271e-05
-6.89273e-05
3.19177e-05
-7.39277e-05
3.15996e-05
-7.88345e-05
3.10771e-05
-8.36177e-05
3.03534e-05
-8.82481e-05
2.94316e-05
-9.26963e-05
2.83142e-05
-9.69338e-05
2.70036e-05
-0.000100932
2.55025e-05
-0.000104664
2.38142e-05
-0.000108102
2.19427e-05
-0.00011122
1.98933e-05
-0.000113994
1.76728e-05
-0.0001164
1.52896e-05
-0.000118415
1.27543e-05
-0.00012002
1.00793e-05
-0.000121196
7.2797e-06
-0.000121928
4.37263e-06
-0.000122204
1.37781e-06
-0.000122013
-1.6827e-06
-0.00012135
-4.78453e-06
-0.000120212
-7.90119e-06
-0.000118599
-1.10042e-05
-0.000116519
-1.40636e-05
-0.000113979
-1.70477e-05
-0.000110995
-1.99244e-05
-0.000107586
-2.26608e-05
-0.000103774
-2.52241e-05
-9.95886e-05
-2.75821e-05
-9.50615e-05
-2.97037e-05
-9.02299e-05
-3.15596e-05
-8.51345e-05
-3.3123e-05
-7.982e-05
-3.437e-05
-7.43343e-05
-3.52803e-05
-6.87278e-05
-3.5838e-05
-6.30531e-05
-3.60317e-05
-5.73643e-05
-3.58557e-05
-5.17157e-05
-3.53094e-05
-4.61619e-05
-3.43989e-05
-4.07558e-05
-3.3136e-05
-3.55485e-05
-3.15396e-05
-3.05881e-05
-2.96347e-05
-2.59187e-05
-2.74531e-05
-2.15794e-05
-2.50334e-05
-1.7604e-05
-2.24205e-05
-1.40193e-05
-1.96656e-05
-1.08452e-05
-1.68263e-05
-8.09403e-06
-1.39662e-05
-5.76978e-06
-1.11552e-05
-3.86825e-06
-8.46879e-06
-2.37695e-06
-5.98892e-06
-1.2754e-06
-3.80358e-06
-5.35691e-07
-2.00684e-06
-1.23572e-07
-6.98808e-07
9.2842e-09
-3.63667e-07
1.5209e-06
-1.39225e-06
4.85148e-06
-3.02886e-06
8.31688e-06
-5.22063e-06
1.17991e-05
-7.91768e-06
1.52085e-05
-1.10725e-05
1.84745e-05
-1.46393e-05
2.15436e-05
-1.85743e-05
2.43773e-05
-2.28347e-05
2.69494e-05
-2.73792e-05
2.92438e-05
-3.21679e-05
3.12522e-05
-3.71619e-05
3.29724e-05
-4.23235e-05
3.44063e-05
-4.7616e-05
3.55589e-05
-5.30039e-05
3.64368e-05
-5.84526e-05
3.70474e-05
-6.39283e-05
3.73983e-05
-6.93978e-05
3.74966e-05
-7.48286e-05
3.73486e-05
-8.0189e-05
3.696e-05
-8.54474e-05
3.63354e-05
-9.05726e-05
3.54787e-05
-9.55341e-05
3.4393e-05
-0.000100301
3.30814e-05
-0.000104844
3.15466e-05
-0.000109134
2.97919e-05
-0.000113141
2.78209e-05
-0.000116836
2.56386e-05
-0.000120194
2.32511e-05
-0.000123188
2.06662e-05
-0.000125792
1.78938e-05
-0.000127983
1.49459e-05
-0.000129741
1.18371e-05
-0.000131046
8.58436e-06
-0.000131881
5.20748e-06
-0.000132232
1.72895e-06
-0.000132088
-1.82605e-06
-0.000131443
-5.42972e-06
-0.000130293
-9.05183e-06
-0.000128637
-1.26599e-05
-0.000126481
-1.62196e-05
-0.000123834
-1.9695e-05
-0.000120709
-2.30491e-05
-0.000117125
-2.62443e-05
-0.000113107
-2.92428e-05
-0.000108681
-3.20077e-05
-0.000103882
-3.4503e-05
-9.87466e-05
-3.66947e-05
-9.3318e-05
-3.85517e-05
-8.76421e-05
-4.00458e-05
-8.1769e-05
-4.11534e-05
-7.57518e-05
-4.18552e-05
-6.9646e-05
-4.21375e-05
-6.3509e-05
-4.19927e-05
-5.7399e-05
-4.14195e-05
-5.13742e-05
-4.04237e-05
-4.5492e-05
-3.90182e-05
-3.9808e-05
-3.72236e-05
-3.43747e-05
-3.50679e-05
-2.92409e-05
-3.25869e-05
-2.44505e-05
-2.98239e-05
-2.00415e-05
-2.68295e-05
-1.60456e-05
-2.36615e-05
-1.24869e-05
-2.0385e-05
-9.38183e-06
-1.70713e-05
-6.73858e-06
-1.37984e-05
-4.55683e-06
-1.06505e-05
-2.82787e-06
-7.71788e-06
-1.53493e-06
-5.09652e-06
-6.53809e-07
-2.88796e-06
-1.53955e-07
-1.19866e-06
-1.4467e-07
-4.04537e-07
1.92544e-06
-1.54399e-06
5.99094e-06
-3.35032e-06
1.01232e-05
-5.76044e-06
1.42093e-05
-8.71538e-06
1.81634e-05
-1.21597e-05
2.19188e-05
-1.60409e-05
2.54248e-05
-2.03094e-05
2.86458e-05
-2.49179e-05
3.15578e-05
-2.98211e-05
3.4147e-05
-3.49758e-05
3.64069e-05
-4.03406e-05
3.83372e-05
-4.58757e-05
3.99414e-05
-5.15425e-05
4.12258e-05
-5.73039e-05
4.21983e-05
-6.31241e-05
4.28676e-05
-6.89678e-05
4.32421e-05
-7.4801e-05
4.33297e-05
-8.05901e-05
4.31377e-05
-8.6302e-05
4.2672e-05
-9.19044e-05
4.19378e-05
-9.7365e-05
4.09393e-05
-0.000102652
3.96802e-05
-0.000107734
3.81636e-05
-0.000112581
3.63929e-05
-0.00011716
3.43715e-05
-0.000121443
3.21039e-05
-0.0001254
2.95956e-05
-0.000129003
2.68535e-05
-0.000132223
2.38868e-05
-0.000135036
2.07063e-05
-0.000137416
1.73259e-05
-0.000139341
1.37619e-05
-0.00014079
1.00334e-05
-0.000141745
6.1627e-06
-0.000142191
2.17512e-06
-0.000142116
-1.90107e-06
-0.000141511
-6.03461e-06
-0.000140371
-1.01915e-05
-0.000138696
-1.43352e-05
-0.000136489
-1.8427e-05
-0.000133757
-2.24264e-05
-0.000130515
-2.62914e-05
-0.00012678
-2.99796e-05
-0.000122575
-3.3448e-05
-0.000117928
-3.66543e-05
-0.000112873
-3.95577e-05
-0.000107449
-4.2119e-05
-0.000101699
-4.43021e-05
-9.567e-05
-4.60746e-05
-8.94149e-05
-4.74084e-05
-8.29892e-05
-4.8281e-05
-7.64512e-05
-4.86755e-05
-6.98617e-05
-4.85822e-05
-6.32827e-05
-4.79984e-05
-5.67769e-05
-4.69295e-05
-5.0406e-05
-4.5389e-05
-4.42305e-05
-4.33991e-05
-3.83079e-05
-4.09905e-05
-3.26921e-05
-3.82027e-05
-2.74322e-05
-3.50838e-05
-2.25714e-05
-3.16902e-05
-1.81464e-05
-2.80866e-05
-1.41862e-05
-2.43451e-05
-1.0712e-05
-2.05454e-05
-7.73654e-06
-1.67739e-05
-5.26365e-06
-1.31234e-05
-3.2887e-06
-9.69283e-06
-1.7987e-06
-6.58652e-06
-7.7299e-07
-3.91366e-06
-1.84271e-07
-1.78738e-06
-3.28941e-07
-4.43883e-07
2.36932e-06
-1.69036e-06
7.23741e-06
-3.66089e-06
1.20937e-05
-6.28272e-06
1.68311e-05
-9.48816e-06
2.13689e-05
-1.32141e-05
2.56447e-05
-1.74015e-05
2.96122e-05
-2.19951e-05
3.32394e-05
-2.6943e-05
3.65056e-05
-3.21959e-05
3.94e-05
-3.77077e-05
4.19187e-05
-4.34341e-05
4.40636e-05
-4.93332e-05
4.58405e-05
-5.53648e-05
4.72574e-05
-6.14904e-05
4.83239e-05
-6.76727e-05
4.90499e-05
-7.38755e-05
4.94449e-05
-8.00637e-05
4.9518e-05
-8.62029e-05
4.92768e-05
-9.22592e-05
4.87283e-05
-9.81992e-05
4.78778e-05
-0.00010399
4.67301e-05
-0.000109599
4.52891e-05
-0.000114994
4.35584e-05
-0.000120142
4.15416e-05
-0.000125014
3.92426e-05
-0.000129576
3.66663e-05
-0.000133799
3.38188e-05
-0.000137654
3.07081e-05
-0.000141111
2.73441e-05
-0.000144144
2.37391e-05
-0.000146726
1.99083e-05
-0.000148834
1.58698e-05
-0.000150446
1.16449e-05
-0.000151541
7.25834e-06
-0.000152104
2.73801e-06
-0.000152121
-1.88464e-06
-0.00015158
-6.57495e-06
-0.000150477
-1.12952e-05
-0.000148807
-1.60046e-05
-0.000146574
-2.06602e-05
-0.000143784
-2.52166e-05
-0.000140448
-2.9627e-05
-0.000136585
-3.38435e-05
-0.000132215
-3.78179e-05
-0.000127366
-4.15025e-05
-0.000122073
-4.48507e-05
-0.000116374
-4.7818e-05
-0.000110313
-5.0363e-05
-0.00010394
-5.24482e-05
-9.73073e-05
-5.40409e-05
-9.04739e-05
-5.51143e-05
-8.35011e-05
-5.56483e-05
-7.64531e-05
-5.56302e-05
-6.9396e-05
-5.50555e-05
-6.23968e-05
-5.39287e-05
-5.55223e-05
-5.22636e-05
-4.8838e-05
-5.00833e-05
-4.24073e-05
-4.74213e-05
-3.62894e-05
-4.43205e-05
-3.05394e-05
-4.08338e-05
-2.52062e-05
-3.70235e-05
-2.0332e-05
-3.29607e-05
-1.59516e-05
-2.87255e-05
-1.20914e-05
-2.44057e-05
-8.76877e-06
-2.00965e-05
-5.99248e-06
-1.58997e-05
-3.76207e-06
-1.19232e-05
-2.06837e-06
-8.28021e-06
-8.94106e-07
-5.08792e-06
-2.14799e-07
-2.46669e-06
-5.43739e-07
-4.81681e-07
2.851e-06
-1.83115e-06
8.58688e-06
-3.95997e-06
1.42226e-05
-6.78621e-06
1.96573e-05
-1.02339e-05
2.48165e-05
-1.42325e-05
2.96433e-05
-1.87167e-05
3.40965e-05
-2.36258e-05
3.81485e-05
-2.89032e-05
4.1783e-05
-3.4496e-05
4.49928e-05
-4.03547e-05
4.77774e-05
-4.64326e-05
5.01416e-05
-5.26859e-05
5.20937e-05
-5.90725e-05
5.3644e-05
-6.55525e-05
5.48039e-05
-7.20875e-05
5.55849e-05
-7.86405e-05
5.59979e-05
-8.51755e-05
5.60529e-05
-9.16572e-05
5.57585e-05
-9.80511e-05
5.51222e-05
-0.000104323
5.41499e-05
-0.00011044
5.28468e-05
-0.000116368
5.12171e-05
-0.000122074
4.92647e-05
-0.000127526
4.69934e-05
-0.000132691
4.44076e-05
-0.000137538
4.15126e-05
-0.000142034
3.83152e-05
-0.00014615
3.48239e-05
-0.000149855
3.10495e-05
-0.000153122
2.70057e-05
-0.000155922
2.27089e-05
-0.000158231
1.81789e-05
-0.000160025
1.3439e-05
-0.000161283
8.51625e-06
-0.000161986
3.44118e-06
-0.000162119
-1.75181e-06
-0.00016167
-7.02469e-06
-0.000160629
-1.2336e-05
-0.000158992
-1.76409e-05
-0.000156761
-2.28919e-05
-0.000153939
-2.80388e-05
-0.000150536
-3.30297e-05
-0.000146568
-3.78114e-05
-0.000142056
-4.23298e-05
-0.000137027
-4.65315e-05
-0.000131514
-5.0364e-05
-0.000125555
-5.37768e-05
-0.000119195
-5.67227e-05
-0.000112485
-5.91585e-05
-0.000105479
-6.10464e-05
-9.82389e-05
-6.23547e-05
-9.0828e-05
-6.30592e-05
-8.33145e-05
-6.31437e-05
-7.57686e-05
-6.26014e-05
-6.82622e-05
-6.14352e-05
-6.08673e-05
-5.96585e-05
-5.36552e-05
-5.72954e-05
-4.66952e-05
-5.43813e-05
-4.0053e-05
-5.09627e-05
-3.37899e-05
-4.70969e-05
-2.79613e-05
-4.2852e-05
-2.26158e-05
-3.83062e-05
-1.77942e-05
-3.35471e-05
-1.35287e-05
-2.86712e-05
-9.84227e-06
-2.37829e-05
-6.74856e-06
-1.89934e-05
-4.25163e-06
-1.44202e-05
-2.34622e-06
-1.01856e-05
-1.01831e-06
-6.41584e-06
-2.45885e-07
-3.23911e-06
-7.89625e-07
-5.17897e-07
3.3689e-06
-1.96615e-06
1.00351e-05
-4.24696e-06
1.65034e-05
-7.26971e-06
2.26801e-05
-1.09505e-05
2.84974e-05
-1.5212e-05
3.39048e-05
-1.99826e-05
3.88671e-05
-2.51964e-05
4.33623e-05
-3.07924e-05
4.73789e-05
-3.67139e-05
5.09143e-05
-4.29086e-05
5.3972e-05
-4.93272e-05
5.65602e-05
-5.59237e-05
5.86902e-05
-6.26548e-05
6.0375e-05
-6.94791e-05
6.16282e-05
-7.63573e-05
6.24631e-05
-8.32514e-05
6.28921e-05
-9.01248e-05
6.29263e-05
-9.69417e-05
6.25754e-05
-0.000103667
6.18475e-05
-0.000110266
6.07491e-05
-0.000116705
5.92858e-05
-0.00012295
5.7462e-05
-0.000128967
5.5282e-05
-0.000134724
5.27498e-05
-0.000140186
4.98701e-05
-0.000145322
4.66486e-05
-0.000150099
4.30925e-05
-0.000154486
3.92109e-05
-0.000158452
3.50155e-05
-0.000161968
3.05208e-05
-0.000165003
2.57447e-05
-0.000167533
2.07085e-05
-0.000169531
1.54371e-05
-0.000170975
9.95984e-06
-0.000171843
4.30972e-06
-0.000172119
-1.476e-06
-0.000171788
-7.35606e-06
-0.000170838
-1.32853e-05
-0.000169264
-1.9215e-05
-0.000167063
-2.5093e-05
-0.000164238
-3.08644e-05
-0.000160795
-3.64719e-05
-0.00015675
-4.18567e-05
-0.000152121
-4.69591e-05
-0.000146933
-5.17191e-05
-0.000141219
-5.60779e-05
-0.000135017
-5.99789e-05
-0.000128372
-6.33681e-05
-0.000121334
-6.61964e-05
-0.000113961
-6.84197e-05
-0.000106314
-7.00011e-05
-9.84623e-05
-7.09112e-05
-9.0476e-05
-7.113e-05
-8.24303e-05
-7.06472e-05
-7.44018e-05
-6.94636e-05
-6.64686e-05
-6.75917e-05
-5.8708e-05
-6.5056e-05
-5.11959e-05
-6.18934e-05
-4.4005e-05
-5.81536e-05
-3.72037e-05
-5.38982e-05
-3.08546e-05
-4.92012e-05
-2.50131e-05
-4.41476e-05
-1.9727e-05
-3.88333e-05
-1.50347e-05
-3.33635e-05
-1.09655e-05
-2.78522e-05
-7.53822e-06
-2.24207e-05
-4.76179e-06
-1.71966e-05
-2.63498e-06
-1.23124e-05
-1.14695e-06
-7.90388e-06
-2.77923e-07
-4.10813e-06
-1.06755e-06
-5.52476e-07
3.92138e-06
-2.0951e-06
1.15778e-05
-4.52122e-06
1.89295e-05
-7.73204e-06
2.58909e-05
-1.16363e-05
3.24016e-05
-1.61498e-05
3.84183e-05
-2.11954e-05
4.39127e-05
-2.67021e-05
4.88689e-05
-3.26045e-05
5.32814e-05
-3.88428e-05
5.71525e-05
-4.53613e-05
6.04905e-05
-5.21086e-05
6.33076e-05
-5.90369e-05
6.56185e-05
-6.61012e-05
6.74393e-05
-7.3259e-05
6.87861e-05
-8.04702e-05
6.96742e-05
-8.7696e-05
7.01179e-05
-9.48992e-05
7.01295e-05
-0.000102044
6.97198e-05
-0.000109094
6.88976e-05