/*--------------------------------*- C++ -*----------------------------------*\
  =========                 |
  \\      /  F ield         | OpenFOAM: The Open Source CFD Toolbox
   \\    /   O peration     | Website:  https://openfoam.org
    \\  /    A nd           | Version:  dev
     \\/     M anipulation  |
\*---------------------------------------------------------------------------*/
FoamFile
{
    format      ascii;
    class       volVectorField;
    location    "25.65";
    object      U;
}
// * * * * * * * * * * * * * * * * * * * * * * * * * * * * * * * * * * * * * //

dimensions      [0 1 -1 0 0 0 0];

internalField   nonuniform List<vector> 
5184
(
(1.22986e-05 -1.27269e-05 0)
(4.51109e-05 -2.08909e-05 0)
(8.02682e-05 -1.72405e-05 0)
(9.59163e-05 -8.18796e-06 0)
(8.20793e-05 2.67415e-06 0)
(3.63835e-05 1.36182e-05 0)
(-4.06187e-05 2.38426e-05 0)
(-0.000146909 3.30408e-05 0)
(-0.000279697 4.10947e-05 0)
(-0.000435926 4.80099e-05 0)
(-0.000612476 5.38479e-05 0)
(-0.000806314 5.86934e-05 0)
(-0.00101457 6.26389e-05 0)
(-0.00123459 6.57756e-05 0)
(-0.00146391 6.81886e-05 0)
(-0.00170027 6.99532e-05 0)
(-0.0019416 7.11335e-05 0)
(-0.00218599 7.17819e-05 0)
(-0.00243165 7.19391e-05 0)
(-0.0026769 7.16348e-05 0)
(-0.00292013 7.08882e-05 0)
(-0.00315979 6.971e-05 0)
(-0.00339435 6.81031e-05 0)
(-0.00362228 6.60646e-05 0)
(-0.00384205 6.35871e-05 0)
(-0.00405214 6.06607e-05 0)
(-0.00425097 5.72753e-05 0)
(-0.00443699 5.34212e-05 0)
(-0.0046086 4.90915e-05 0)
(-0.00476424 4.42828e-05 0)
(-0.00490234 3.89977e-05 0)
(-0.00502139 3.32454e-05 0)
(-0.00511992 2.70433e-05 0)
(-0.00519655 2.04173e-05 0)
(-0.00525003 1.34031e-05 0)
(-0.00527924 6.04624e-06 0)
(-0.00528324 -1.59725e-06 0)
(-0.00526129 -9.46084e-06 0)
(-0.00521291 -1.7468e-05 0)
(-0.00513786 -2.5533e-05 0)
(-0.00503619 -3.35616e-05 0)
(-0.0049083 -4.14521e-05 0)
(-0.00475488 -4.90975e-05 0)
(-0.00457698 -5.63867e-05 0)
(-0.00437601 -6.32072e-05 0)
(-0.00415372 -6.94473e-05 0)
(-0.00391221 -7.49982e-05 0)
(-0.0036539 -7.97571e-05 0)
(-0.00338151 -8.36292e-05 0)
(-0.00309805 -8.65309e-05 0)
(-0.00280675 -8.83916e-05 0)
(-0.00251105 -8.91561e-05 0)
(-0.0022145 -8.87862e-05 0)
(-0.00192076 -8.72621e-05 0)
(-0.0016335 -8.45834e-05 0)
(-0.00135637 -8.07695e-05 0)
(-0.00109289 -7.58596e-05 0)
(-0.00084644 -6.99125e-05 0)
(-0.000620163 -6.30057e-05 0)
(-0.000416909 -5.52351e-05 0)
(-0.000239175 -4.67147e-05 0)
(-8.90402e-05 -3.75774e-05 0)
(3.19084e-05 -2.79782e-05 0)
(0.000122656 -1.80994e-05 0)
(0.000182869 -8.16608e-06 0)
(0.00021305 1.52703e-06 0)
(0.000214785 1.05568e-05 0)
(0.000191121 1.82857e-05 0)
(0.000147085 2.37016e-05 0)
(9.0765e-05 2.51135e-05 0)
(3.66213e-05 1.98383e-05 0)
(6.22777e-06 6.2424e-06 0)
(2.08232e-05 -4.58993e-05 0)
(6.55621e-05 -6.56926e-05 0)
(9.46294e-05 -4.05275e-05 0)
(7.27085e-05 7.65741e-06 0)
(-1.90293e-05 6.56836e-05 0)
(-0.000187391 0.000125973 0)
(-0.000432955 0.000184253 0)
(-0.000752505 0.000238275 0)
(-0.0011405 0.000286902 0)
(-0.00159015 0.000329691 0)
(-0.00209413 0.000366603 0)
(-0.00264498 0.000397828 0)
(-0.0032354 0.000423677 0)
(-0.00385839 0.000444517 0)
(-0.00450736 0.000460725 0)
(-0.00517612 0.000472661 0)
(-0.00585885 0.000480645 0)
(-0.00655013 0.000484953 0)
(-0.00724482 0.000485809 0)
(-0.00793803 0.000483385 0)
(-0.00862508 0.0004778 0)
(-0.0093014 0.000469132 0)
(-0.00996253 0.000457421 0)
(-0.010604 0.000442674 0)
(-0.0112215 0.00042488 0)
(-0.0118106 0.000404015 0)
(-0.0123669 0.000380056 0)
(-0.0128859 0.000352986 0)
(-0.0133632 0.000322804 0)
(-0.0137947 0.000289538 0)
(-0.0141759 0.000253248 0)
(-0.0145028 0.000214036 0)
(-0.0147715 0.000172054 0)
(-0.0149784 0.000127503 0)
(-0.0151202 8.06422e-05 0)
(-0.0151941 3.17912e-05 0)
(-0.0151976 -1.86717e-05 0)
(-0.0151291 -7.03084e-05 0)
(-0.0149874 -0.000122624 0)
(-0.0147722 -0.000175072 0)
(-0.0144837 -0.000227059 0)
(-0.0141233 -0.000277952 0)
(-0.0136931 -0.00032709 0)
(-0.013196 -0.000373796 0)
(-0.0126361 -0.000417385 0)
(-0.0120182 -0.000457182 0)
(-0.011348 -0.000492535 0)
(-0.0106322 -0.000522829 0)
(-0.00987809 -0.000547504 0)
(-0.00909386 -0.000566065 0)
(-0.00828816 -0.0005781 0)
(-0.00747017 -0.000583289 0)
(-0.00664941 -0.000581416 0)
(-0.00583563 -0.000572378 0)
(-0.0050386 -0.00055619 0)
(-0.00426798 -0.000532992 0)
(-0.00353315 -0.000503047 0)
(-0.00284304 -0.000466744 0)
(-0.0022059 -0.000424597 0)
(-0.00162923 -0.000377245 0)
(-0.0011195 -0.000325458 0)
(-0.000682008 -0.000270138 0)
(-0.000320662 -0.000212348 0)
(-3.77513e-05 -0.000153337 0)
(0.000166356 -9.4617e-05 0)
(0.000293579 -3.80642e-05 0)
(0.000348661 1.38642e-05 0)
(0.000339867 5.7863e-05 0)
(0.000279682 8.93405e-05 0)
(0.000185951 0.000101801 0)
(8.6335e-05 8.64787e-05 0)
(1.96763e-05 3.64762e-05 0)
(1.76207e-05 -8.12817e-05 0)
(4.12827e-05 -9.49718e-05 0)
(1.95263e-05 -1.90754e-05 0)
(-8.40757e-05 0.000105956 0)
(-0.000290296 0.000254625 0)
(-0.000607876 0.0004105 0)
(-0.00103808 0.000563271 0)
(-0.00157708 0.000706806 0)
(-0.00221773 0.000837659 0)
(-0.00295082 0.000954125 0)
(-0.00376611 0.00105561 0)
(-0.00465287 0.0011422 0)
(-0.00560039 0.00121442 0)
(-0.0065982 0.001273 0)
(-0.00763627 0.00131874 0)
(-0.00870503 0.00135249 0)
(-0.00979541 0.001375 0)
(-0.0108988 0.00138694 0)
(-0.012007 0.00138889 0)
(-0.0131122 0.00138128 0)
(-0.0142068 0.00136445 0)
(-0.0152834 0.00133861 0)
(-0.0163347 0.0013039 0)
(-0.0173538 0.00126038 0)
(-0.0183334 0.00120806 0)
(-0.0192666 0.00114692 0)
(-0.0201464 0.00107697 0)
(-0.0209656 0.000998204 0)
(-0.0217176 0.000910699 0)
(-0.0223955 0.000814589 0)
(-0.0229928 0.000710107 0)
(-0.0235031 0.000597598 0)
(-0.0239206 0.000477535 0)
(-0.0242398 0.000350532 0)
(-0.0244557 0.000217354 0)
(-0.0245642 7.89244e-05 0)
(-0.0245619 -6.36777e-05 0)
(-0.0244463 -0.000209217 0)
(-0.0242158 -0.000356313 0)
(-0.0238701 -0.000503447 0)
(-0.0234101 -0.000648985 0)
(-0.0228379 -0.000791196 0)
(-0.0221569 -0.000928277 0)
(-0.0213721 -0.00105839 0)
(-0.0204896 -0.00117968 0)
(-0.0195171 -0.00129033 0)
(-0.0184634 -0.00138859 0)
(-0.0173389 -0.00147281 0)
(-0.0161548 -0.00154149 0)
(-0.0149236 -0.00159332 0)
(-0.0136587 -0.0016272 0)
(-0.012374 -0.00164228 0)
(-0.0110841 -0.00163802 0)
(-0.00980373 -0.00161415 0)
(-0.0085479 -0.00157073 0)
(-0.00733125 -0.00150818 0)
(-0.00616803 -0.00142723 0)
(-0.00507177 -0.00132899 0)
(-0.004055 -0.0012149 0)
(-0.00312899 -0.00108676 0)
(-0.00230348 -0.000946762 0)
(-0.00158637 -0.000797454 0)
(-0.00098338 -0.000641848 0)
(-0.000497757 -0.000483473 0)
(-0.000129811 -0.000326526 0)
(0.000123525 -0.000176092 0)
(0.00026934 -3.84867e-05 0)
(0.000319469 7.82789e-05 0)
(0.000291036 0.000163911 0)
(0.000207259 0.000205248 0)
(0.000102394 0.00018618 0)
(2.49667e-05 9.03558e-05 0)
(8.82906e-06 -9.76848e-05 0)
(-7.04031e-06 -7.30538e-05 0)
(-0.000107613 8.48476e-05 0)
(-0.000322359 0.000318354 0)
(-0.000669511 0.000589984 0)
(-0.00115747 0.000874125 0)
(-0.00178697 0.00115376 0)
(-0.00255327 0.0014181 0)
(-0.00344779 0.00166068 0)
(-0.00445954 0.00187798 0)
(-0.00557602 0.00206843 0)
(-0.00678405 0.00223178 0)
(-0.00807021 0.0023686 0)
(-0.00942126 0.00247992 0)
(-0.0108243 0.00256702 0)
(-0.0122669 0.00263122 0)
(-0.0137372 0.0026738 0)
(-0.0152237 0.00269591 0)
(-0.0167156 0.00269855 0)
(-0.0182022 0.00268248 0)
(-0.0196734 0.00264832 0)
(-0.0211193 0.00259649 0)
(-0.02253 0.00252726 0)
(-0.0238959 0.00244078 0)
(-0.0252075 0.00233715 0)
(-0.0264553 0.00221639 0)
(-0.02763 0.00207857 0)
(-0.0287222 0.0019238 0)
(-0.029723 0.00175228 0)
(-0.0306234 0.00156436 0)
(-0.0314148 0.00136058 0)
(-0.032089 0.00114165 0)
(-0.0326385 0.00090856 0)
(-0.0330563 0.000662544 0)
(-0.033336 0.000405116 0)
(-0.0334724 0.000138075 0)
(-0.0334614 -0.000136492 0)
(-0.0332998 -0.000416215 0)
(-0.0329861 -0.00069846 0)
(-0.0325199 -0.000980354 0)
(-0.0319027 -0.00125881 0)
(-0.0311375 -0.00153057 0)
(-0.030229 -0.00179227 0)
(-0.0291837 -0.00204045 0)
(-0.0280098 -0.00227168 0)
(-0.0267174 -0.00248258 0)
(-0.0253181 -0.00266989 0)
(-0.0238254 -0.00283056 0)
(-0.0222539 -0.00296183 0)
(-0.0206198 -0.00306126 0)
(-0.0189403 -0.00312684 0)
(-0.0172336 -0.00315703 0)
(-0.0155184 -0.0031508 0)
(-0.0138139 -0.0031077 0)
(-0.0121392 -0.00302788 0)
(-0.0105133 -0.00291212 0)
(-0.00895463 -0.00276186 0)
(-0.0074805 -0.0025792 0)
(-0.00610709 -0.00236688 0)
(-0.00484889 -0.00212836 0)
(-0.00371839 -0.00186779 0)
(-0.0027257 -0.00159005 0)
(-0.00187815 -0.00130088 0)
(-0.00117988 -0.00100692 0)
(-0.000631345 -0.000715989 0)
(-0.000228857 -0.000437364 0)
(3.60559e-05 -0.000182182 0)
(0.000177277 3.59539e-05 0)
(0.000214521 0.000200333 0)
(0.000173938 0.00029057 0)
(9.29608e-05 0.000282375 0)
(2.40139e-05 0.00014721 0)
(-2.13132e-06 -8.43344e-05 0)
(-6.72976e-05 2.09916e-05 0)
(-0.000264078 0.000295481 0)
(-0.000609645 0.000667933 0)
(-0.00111648 0.00109056 0)
(-0.0017908 0.00152947 0)
(-0.0026316 0.00196123 0)
(-0.00363251 0.00237038 0)
(-0.00478341 0.0027472 0)
(-0.00607158 0.00308606 0)
(-0.00748268 0.0033842 0)
(-0.00900147 0.00364078 0)
(-0.0106124 0.00385627 0)
(-0.0122998 0.00403192 0)
(-0.0140485 0.00416937 0)
(-0.0158436 0.00427046 0)
(-0.0176709 0.00433697 0)
(-0.0195164 0.00437055 0)
(-0.0213668 0.00437262 0)
(-0.0232091 0.00434435 0)
(-0.0250308 0.00428666 0)
(-0.0268195 0.0042002 0)
(-0.0285632 0.00408543 0)
(-0.0302499 0.00394265 0)
(-0.0318679 0.00377205 0)
(-0.0334056 0.00357378 0)
(-0.0348514 0.00334804 0)
(-0.0361941 0.00309509 0)
(-0.0374225 0.00281538 0)
(-0.0385259 0.00250958 0)
(-0.0394941 0.00217863 0)
(-0.0403171 0.0018238 0)
(-0.0409859 0.00144673 0)
(-0.0414922 0.00104949 0)
(-0.0418287 0.000634547 0)
(-0.0419893 0.000204819 0)
(-0.041969 -0.000236333 0)
(-0.0417645 -0.000685126 0)
(-0.0413741 -0.00113737 0)
(-0.0407977 -0.00158852 0)
(-0.0400371 -0.0020337 0)
(-0.0390963 -0.0024678 0)
(-0.037981 -0.00288554 0)
(-0.0366993 -0.00328152 0)
(-0.0352611 -0.00365037 0)
(-0.0336785 -0.00398682 0)
(-0.0319657 -0.00428582 0)
(-0.0301386 -0.00454262 0)
(-0.0282149 -0.00475292 0)
(-0.0262139 -0.00491296 0)
(-0.0241561 -0.00501962 0)
(-0.0220632 -0.0050705 0)
(-0.0199577 -0.00506404 0)
(-0.0178622 -0.00499955 0)
(-0.0157997 -0.00487729 0)
(-0.0137928 -0.00469852 0)
(-0.0118634 -0.00446551 0)
(-0.0100323 -0.00418158 0)
(-0.00831868 -0.0038511 0)
(-0.00673998 -0.00347953 0)
(-0.00531108 -0.00307344 0)
(-0.00404412 -0.00264057 0)
(-0.00294797 -0.00218991 0)
(-0.00202777 -0.00173185 0)
(-0.00128447 -0.00127845 0)
(-0.000714306 -0.000843743 0)
(-0.000308298 -0.000444215 0)
(-5.16862e-05 -9.94188e-05 0)
(7.63954e-05 0.000167316 0)
(0.000103435 0.00032827 0)
(6.74369e-05 0.000350715 0)
(1.96511e-05 0.000194027 0)
(-1.36964e-05 -3.74518e-05 0)
(-0.000132811 0.000197432 0)
(-0.000435716 0.000626851 0)
(-0.000924373 0.0011701 0)
(-0.0016034 0.00177124 0)
(-0.00247536 0.00238945 0)
(-0.00353641 0.00299568 0)
(-0.00477786 0.00357015 0)
(-0.0061876 0.00410001 0)
(-0.00775114 0.00457751 0)
(-0.00945234 0.00499857 0)
(-0.0112741 0.0053617 0)
(-0.0131991 0.00566715 0)
(-0.0152096 0.00591628 0)
(-0.0172885 0.00611107 0)
(-0.0194188 0.00625378 0)
(-0.0215841 0.0063467 0)
(-0.0237684 0.00639195 0)
(-0.0259563 0.00639141 0)
(-0.0281326 0.00634664 0)
(-0.0302827 0.00625888 0)
(-0.0323921 0.00612906 0)
(-0.0344466 0.00595784 0)
(-0.0364324 0.0057457 0)
(-0.0383356 0.005493 0)
(-0.0401427 0.00520005 0)
(-0.0418402 0.00486723 0)
(-0.043415 0.00449507 0)
(-0.0448543 0.00408435 0)
(-0.0461456 0.00363613 0)
(-0.0472772 0.00315192 0)
(-0.0482377 0.00263367 0)
(-0.0490169 0.00208386 0)
(-0.0496053 0.00150553 0)
(-0.0499946 0.000902325 0)
(-0.0501782 0.000278497 0)
(-0.0501504 -0.000361092 0)
(-0.0499077 -0.00101099 0)
(-0.0494483 -0.0016652 0)
(-0.0487722 -0.00231722 0)
(-0.0478819 -0.00296012 0)
(-0.0467818 -0.00358664 0)
(-0.0454788 -0.00418929 0)
(-0.0439821 -0.00476044 0)
(-0.0423032 -0.0052925 0)
(-0.0404561 -0.00577805 0)
(-0.0384567 -0.00620995 0)
(-0.0363235 -0.00658152 0)
(-0.0340765 -0.00688673 0)
(-0.0317377 -0.00712025 0)
(-0.0293307 -0.00727771 0)
(-0.02688 -0.00735574 0)
(-0.0244112 -0.00735212 0)
(-0.0219502 -0.00726592 0)
(-0.0195233 -0.0070975 0)
(-0.0171562 -0.00684865 0)
(-0.014874 -0.00652261 0)
(-0.0127005 -0.00612409 0)
(-0.0106577 -0.00565934 0)
(-0.00876551 -0.00513611 0)
(-0.00704128 -0.00456376 0)
(-0.00549906 -0.00395324 0)
(-0.00414933 -0.00331726 0)
(-0.00299845 -0.00267041 0)
(-0.0020482 -0.00202941 0)
(-0.00129532 -0.00141343 0)
(-0.000731028 -0.000844612 0)
(-0.000340619 -0.000348624 0)
(-0.000103145 4.45689e-05 0)
(9.01211e-06 0.000300036 0)
(3.24334e-05 0.000376979 0)
(1.36074e-05 0.000224368 0)
(-2.51816e-05 4.41586e-05 0)
(-0.000199955 0.000461269 0)
(-0.000613881 0.00108687 0)
(-0.00125248 0.00183424 0)
(-0.00211127 0.00264155 0)
(-0.0031881 0.00346259 0)
(-0.00447541 0.00426374 0)
(-0.00596148 0.00502156 0)
(-0.00763182 0.00572045 0)
(-0.00946989 0.00635074 0)
(-0.0114577 0.0069071 0)
(-0.0135765 0.00738738 0)
(-0.015807 0.00779159 0)
(-0.01813 0.00812115 0)
(-0.0205264 0.00837834 0)
(-0.0229776 0.00856582 0)
(-0.0254654 0.00868633 0)
(-0.0279718 0.00874245 0)
(-0.0304796 0.00873651 0)
(-0.0329718 0.00867046 0)
(-0.0354318 0.00854585 0)
(-0.0378434 0.00836391 0)
(-0.0401905 0.00812554 0)
(-0.0424574 0.00783142 0)
(-0.0446284 0.00748211 0)
(-0.0466883 0.00707814 0)
(-0.048622 0.00662017 0)
(-0.0504146 0.00610902 0)
(-0.0520518 0.00554589 0)
(-0.0535197 0.00493239 0)
(-0.0548051 0.00427067 0)
(-0.0558955 0.00356349 0)
(-0.0567795 0.00281431 0)
(-0.0574467 0.00202733 0)
(-0.057888 0.00120753 0)
(-0.0580959 0.000360693 0)
(-0.0580645 -0.000506625 0)
(-0.0577899 -0.00138709 0)
(-0.0572703 -0.00227267 0)
(-0.0565058 -0.00315467 0)
(-0.0554991 -0.00402388 0)
(-0.0542554 -0.00487063 0)
(-0.0527823 -0.00568497 0)
(-0.05109 -0.00645682 0)
(-0.0491913 -0.00717611 0)
(-0.0471016 -0.00783302 0)
(-0.0448388 -0.00841811 0)
(-0.0424229 -0.00892255 0)
(-0.0398763 -0.00933834 0)
(-0.0372233 -0.00965846 0)
(-0.0344899 -0.00987708 0)
(-0.0317034 -0.00998975 0)
(-0.0288919 -0.00999352 0)
(-0.0260845 -0.00988711 0)
(-0.0233101 -0.00967101 0)
(-0.0205974 -0.00934757 0)
(-0.0179744 -0.00892105 0)
(-0.0154676 -0.00839772 0)
(-0.0131018 -0.00778584 0)
(-0.0108993 -0.00709571 0)
(-0.00887981 -0.00633972 0)
(-0.00705934 -0.00553236 0)
(-0.00545014 -0.00469037 0)
(-0.00406009 -0.00383285 0)
(-0.00289216 -0.00298146 0)
(-0.00194409 -0.00216081 0)
(-0.00120793 -0.00139879 0)
(-0.000669766 -0.000727266 0)
(-0.000309387 -0.000182697 0)
(-9.99766e-05 0.000193116 0)
(-7.76831e-06 0.000352071 0)
(6.84873e-06 0.000234807 0)
(-3.63292e-05 0.000160491 0)
(-0.000266847 0.000814368 0)
(-0.000793453 0.0016793 0)
(-0.00158502 0.00266536 0)
(-0.00262739 0.00370686 0)
(-0.003913 0.0047538 0)
(-0.0054299 0.00576916 0)
(-0.00716279 0.00672668 0)
(-0.00909437 0.00760856 0)
(-0.0112058 0.00840354 0)
(-0.013477 0.00910529 0)
(-0.0158876 0.00971109 0)
(-0.0184166 0.0102208 0)
(-0.0210432 0.0106358 0)
(-0.0237467 0.0109588 0)
(-0.026507 0.0111928 0)
(-0.0293041 0.0113409 0)
(-0.0321187 0.0114062 0)
(-0.0349318 0.0113915 0)
(-0.0377249 0.0112989 0)
(-0.0404796 0.0111306 0)
(-0.0431781 0.0108878 0)
(-0.0458028 0.0105719 0)
(-0.0483362 0.0101837 0)
(-0.0507612 0.00972404 0)
(-0.0530609 0.00919368 0)
(-0.0552186 0.00859358 0)
(-0.0572182 0.00792499 0)
(-0.059044 0.00718957 0)
(-0.0606806 0.00638957 0)
(-0.0621137 0.0055279 0)
(-0.0633297 0.00460823 0)
(-0.0643161 0.00363515 0)
(-0.0650617 0.00261413 0)
(-0.0655566 0.00155165 0)
(-0.0657926 0.000455168 0)
(-0.0657636 -0.000666883 0)
(-0.0654651 -0.00180512 0)
(-0.0648952 -0.00294926 0)
(-0.0640541 -0.00408827 0)
(-0.0629448 -0.0052104 0)
(-0.0615727 -0.00630341 0)
(-0.0599461 -0.00735467 0)
(-0.058076 -0.00835141 0)
(-0.0559762 -0.00928089 0)
(-0.0536634 -0.0101307 0)
(-0.0511566 -0.0108888 0)
(-0.0484778 -0.0115441 0)
(-0.045651 -0.0120863 0)
(-0.0427027 -0.0125067 0)
(-0.0396608 -0.0127978 0)
(-0.036555 -0.0129539 0)
(-0.0334162 -0.0129711 0)
(-0.0302757 -0.0128479 0)
(-0.0271653 -0.0125847 0)
(-0.0241164 -0.0121845 0)
(-0.0211596 -0.0116526 0)
(-0.0183241 -0.0109968 0)
(-0.0156375 -0.0102277 0)
(-0.0131245 -0.00935815 0)
(-0.010807 -0.00840381 0)
(-0.00870349 -0.00738293 0)
(-0.00682803 -0.00631651 0)
(-0.00519029 -0.00522836 0)
(-0.00379488 -0.00414534 0)
(-0.00264095 -0.00309757 0)
(-0.00172194 -0.00211883 0)
(-0.00102529 -0.00124708 0)
(-0.000532191 -0.000525099 0)
(-0.000217293 -1.08953e-06 0)
(-5.05015e-05 0.000270425 0)
(-9.40696e-08 0.000223638 0)
(-4.70433e-05 0.000310908 0)
(-0.000332505 0.00125664 0)
(-0.000971435 0.00240513 0)
(-0.00191639 0.00366532 0)
(-0.00314337 0.00496949 0)
(-0.00463902 0.00626533 0)
(-0.00638653 0.0075136 0)
(-0.00836662 0.00868611 0)
(-0.0105588 0.00976354 0)
(-0.0129416 0.0107335 0)
(-0.0154931 0.0115891 0)
(-0.0181907 0.0123271 0)
(-0.0210119 0.0129473 0)
(-0.0239344 0.0134514 0)
(-0.0269361 0.0138423 0)
(-0.0299954 0.0141233 0)
(-0.033091 0.0142982 0)
(-0.0362021 0.0143703 0)
(-0.0393083 0.0143427 0)
(-0.0423896 0.0142183 0)
(-0.0454265 0.0139992 0)
(-0.0483995 0.0136872 0)
(-0.0512895 0.0132837 0)
(-0.0540779 0.0127899 0)
(-0.056746 0.0122069 0)
(-0.0592755 0.0115357 0)
(-0.0616485 0.0107777 0)
(-0.0638476 0.0099345 0)
(-0.0658556 0.00900839 0)
(-0.0676562 0.00800228 0)
(-0.069234 0.00691993 0)
(-0.0705742 0.00576605 0)
(-0.0716635 0.00454641 0)
(-0.0724898 0.00326791 0)
(-0.0730424 0.00193863 0)
(-0.0733127 0.000567828 0)
(-0.0732937 -0.000834039 0)
(-0.0729809 -0.00225538 0)
(-0.0723719 -0.00368356 0)
(-0.0714669 -0.00510497 0)
(-0.070269 -0.00650522 0)
(-0.0687836 -0.00786926 0)
(-0.0670196 -0.00918164 0)
(-0.0649884 -0.0104267 0)
(-0.0627047 -0.0115888 0)
(-0.0601858 -0.0126527 0)
(-0.0574523 -0.0136038 0)
(-0.0545272 -0.0144282 0)
(-0.0514363 -0.0151136 0)
(-0.0482075 -0.0156488 0)
(-0.0448709 -0.0160248 0)
(-0.0414584 -0.0162345 0)
(-0.0380028 -0.016273 0)
(-0.0345382 -0.0161382 0)
(-0.0310987 -0.0158305 0)
(-0.0277184 -0.0153535 0)
(-0.0244306 -0.0147135 0)
(-0.0212673 -0.01392 0)
(-0.0182585 -0.0129856 0)
(-0.0154317 -0.0119262 0)
(-0.0128114 -0.0107608 0)
(-0.0104182 -0.0095114 0)
(-0.00826863 -0.00820357 0)
(-0.00637443 -0.00686597 0)
(-0.00474214 -0.00553074 0)
(-0.00337282 -0.00423364 0)
(-0.0022617 -0.00301437 0)
(-0.00139807 -0.0019169 0)
(-0.000764988 -0.000990095 0)
(-0.000339036 -0.000288101 0)
(-9.42077e-05 0.000128937 0)
(-6.95093e-06 0.000190211 0)
(-5.73117e-05 0.000494507 0)
(-0.000396446 0.00178684 0)
(-0.00114609 0.00326346 0)
(-0.00224307 0.00483374 0)
(-0.00365365 0.00642942 0)
(-0.00535851 0.00799721 0)
(-0.00733573 0.00949679 0)
(-0.00956174 0.010899 0)
(-0.0120126 0.0121837 0)
(-0.0146642 0.0133379 0)
(-0.017492 0.0143544 0)
(-0.0204718 0.01523 0)
(-0.0235794 0.0159646 0)
(-0.0267909 0.0165601 0)
(-0.0300829 0.0170199 0)
(-0.0334325 0.0173477 0)
(-0.0368171 0.0175477 0)
(-0.0402148 0.0176236 0)
(-0.0436039 0.0175791 0)
(-0.0469631 0.0174172 0)
(-0.0502718 0.0171405 0)
(-0.0535092 0.016751 0)
(-0.0566551 0.0162504 0)
(-0.0596894 0.0156402 0)
(-0.0625924 0.0149217 0)
(-0.0653445 0.0140963 0)
(-0.0679268 0.0131657 0)
(-0.0703204 0.0121321 0)
(-0.0725073 0.0109984 0)
(-0.0744701 0.00976811 0)
(-0.0761922 0.00844602 0)
(-0.0776581 0.0070379 0)
(-0.0788533 0.00555082 0)
(-0.079765 0.00399316 0)
(-0.0803819 0.0023747 0)
(-0.0806944 0.000706609 0)
(-0.0806952 -0.000998529 0)
(-0.0803792 -0.00272682 0)
(-0.0797436 -0.0044631 0)
(-0.0787884 -0.00619111 0)
(-0.0775163 -0.00789363 0)
(-0.075933 -0.00955269 0)
(-0.0740473 -0.0111498 0)
(-0.0718711 -0.0126663 0)
(-0.0694194 -0.0140835 0)
(-0.0667104 -0.015383 0)
(-0.0637653 -0.0165474 0)
(-0.0606083 -0.0175601 0)
(-0.0572665 -0.0184062 0)
(-0.0537693 -0.0190722 0)
(-0.0501486 -0.019547 0)
(-0.046438 -0.0198221 0)
(-0.0426727 -0.0198914 0)
(-0.0388891 -0.0197521 0)
(-0.0351237 -0.0194046 0)
(-0.0314132 -0.0188527 0)
(-0.0277937 -0.0181038 0)
(-0.0242999 -0.0171691 0)
(-0.0209646 -0.0160633 0)
(-0.0178182 -0.0148053 0)
(-0.0148878 -0.0134173 0)
(-0.0121968 -0.0119257 0)
(-0.00976419 -0.0103603 0)
(-0.00760415 -0.0087548 0)
(-0.00572561 -0.00714686 0)
(-0.00413187 -0.00557791 0)
(-0.00282037 -0.00409352 0)
(-0.00178263 -0.00274366 0)
(-0.00100391 -0.00158306 0)
(-0.00046299 -0.000671457 0)
(-0.00013807 -7.40066e-05 0)
(-1.36061e-05 0.000134447 0)
(-6.71524e-05 0.000710255 0)
(-0.000458444 0.00240306 0)
(-0.00131642 0.0042522 0)
(-0.00256285 0.00616865 0)
(-0.00415452 0.00808484 0)
(-0.00606614 0.00994768 0)
(-0.00827056 0.0117168 0)
(-0.0107398 0.013363 0)
(-0.0134463 0.014866 0)
(-0.0163629 0.016213 0)
(-0.0194629 0.0173968 0)
(-0.0227198 0.0184145 0)
(-0.026108 0.0192664 0)
(-0.0296019 0.019955 0)
(-0.033177 0.0204839 0)
(-0.0368091 0.0208576 0)
(-0.0404745 0.0210805 0)
(-0.0441501 0.021157 0)
(-0.0478134 0.0210911 0)
(-0.051442 0.0208863 0)
(-0.055014 0.0205453 0)
(-0.0585077 0.0200705 0)
(-0.0619019 0.019464 0)
(-0.0651754 0.0187273 0)
(-0.0683074 0.0178621 0)
(-0.0712774 0.0168702 0)
(-0.0740651 0.0157536 0)
(-0.076651 0.0145152 0)
(-0.079016 0.0131582 0)
(-0.0811415 0.0116873 0)
(-0.0830101 0.010108 0)
(-0.0846053 0.00842726 0)
(-0.0859119 0.00665349 0)
(-0.0869161 0.00479662 0)
(-0.0876057 0.00286819 0)
(-0.0879706 0.000881361 0)
(-0.0880027 -0.00114911 0)
(-0.0876961 -0.0032069 0)
(-0.0870476 -0.00527428 0)
(-0.0860568 -0.00733219 0)
(-0.0847259 -0.00936047 0)
(-0.0830604 -0.0113381 0)
(-0.081069 -0.0132434 0)
(-0.0787636 -0.0150545 0)
(-0.0761594 -0.0167495 0)
(-0.0732749 -0.0183068 0)
(-0.0701321 -0.0197058 0)
(-0.066756 -0.0209271 0)
(-0.0631746 -0.0219527 0)
(-0.0594188 -0.0227668 0)
(-0.0555219 -0.0233562 0)
(-0.0515194 -0.0237104 0)
(-0.0474486 -0.023822 0)
(-0.043348 -0.0236874 0)
(-0.0392568 -0.0233065 0)
(-0.0352143 -0.0226836 0)
(-0.0312593 -0.0218269 0)
(-0.0274296 -0.0207491 0)
(-0.0237609 -0.0194673 0)
(-0.0202867 -0.018003 0)
(-0.017037 -0.0163822 0)
(-0.0140382 -0.0146351 0)
(-0.0113123 -0.0127962 0)
(-0.00887622 -0.0109045 0)
(-0.00674164 -0.00900293 0)
(-0.00491445 -0.00713879 0)
(-0.00339465 -0.00536358 0)
(-0.00217631 -0.00373322 0)
(-0.00124711 -0.00230819 0)
(-0.000588147 -0.0011536 0)
(-0.000181763 -0.000339243 0)
(-2.00333e-05 5.65129e-05 0)
(-7.65894e-05 0.000957073 0)
(-0.000518397 0.00310302 0)
(-0.00148183 0.00536847 0)
(-0.00287428 0.00766696 0)
(-0.00464343 0.00993261 0)
(-0.0067581 0.0121136 0)
(-0.00918594 0.0141704 0)
(-0.0118944 0.0160747 0)
(-0.0148523 0.0178068 0)
(-0.0180294 0.0193545 0)
(-0.0213965 0.0207113 0)
(-0.0249252 0.0218751 0)
(-0.0285879 0.0228467 0)
(-0.0323578 0.0236292 0)
(-0.0362091 0.0242271 0)
(-0.0401165 0.0246452 0)
(-0.0440553 0.0248888 0)
(-0.0480014 0.0249625 0)
(-0.0519314 0.024871 0)
(-0.0558219 0.0246178 0)
(-0.0596503 0.0242063 0)
(-0.063394 0.023639 0)
(-0.0670307 0.0229182 0)
(-0.0705385 0.0220458 0)
(-0.0738955 0.0210237 0)
(-0.0770805 0.0198541 0)
(-0.0800722 0.0185395 0)
(-0.0828502 0.0170831 0)
(-0.0853943 0.0154889 0)
(-0.0876853 0.0137624 0)
(-0.0897048 0.01191 0)
(-0.0914353 0.00993983 0)
(-0.0928607 0.00786172 0)
(-0.0939664 0.00568714 0)
(-0.0947393 0.00342942 0)
(-0.0951685 0.00110374 0)
(-0.0952449 -0.00127289 0)
(-0.094962 -0.00368171 0)
(-0.0943158 -0.0061023 0)
(-0.093305 -0.00851275 0)
(-0.0919315 -0.0108899 0)
(-0.0902003 -0.0132095 0)
(-0.0881194 -0.0154466 0)
(-0.0857007 -0.0175759 0)
(-0.0829592 -0.0195721 0)
(-0.0799137 -0.0214102 0)
(-0.0765864 -0.0230663 0)
(-0.0730028 -0.0245177 0)
(-0.0691919 -0.0257434 0)
(-0.0651856 -0.026725 0)
(-0.0610187 -0.0274465 0)
(-0.0567285 -0.0278954 0)
(-0.0523541 -0.0280629 0)
(-0.0479363 -0.0279441 0)
(-0.0435169 -0.0275385 0)
(-0.039138 -0.0268503 0)
(-0.0348413 -0.0258886 0)
(-0.0306678 -0.0246675 0)
(-0.0266564 -0.0232063 0)
(-0.0228439 -0.0215293 0)
(-0.0192638 -0.0196658 0)
(-0.0159457 -0.0176504 0)
(-0.0129149 -0.0155222 0)
(-0.0101915 -0.0133254 0)
(-0.00779032 -0.0111085 0)
(-0.00572019 -0.00892479 0)
(-0.00398399 -0.00683167 0)
(-0.00257857 -0.00489106 0)
(-0.00149421 -0.00316922 0)
(-0.000714349 -0.00173653 0)
(-0.000225287 -0.000667336 0)
(-2.62588e-05 -4.33734e-05 0)
(-8.56445e-05 0.00123387 0)
(-0.000576254 0.00388415 0)
(-0.00164193 0.00660885 0)
(-0.0031764 0.00932476 0)
(-0.00511857 0.0119686 0)
(-0.00743159 0.0144905 0)
(-0.0100779 0.0168531 0)
(-0.0130206 0.0190293 0)
(-0.0162246 0.021001 0)
(-0.0196568 0.0227572 0)
(-0.0232853 0.0242925 0)
(-0.0270797 0.0256058 0)
(-0.0310107 0.0266991 0)
(-0.0350501 0.0275763 0)
(-0.0391709 0.0282426 0)
(-0.0433467 0.0287037 0)
(-0.0475519 0.0289654 0)
(-0.0517617 0.0290331 0)
(-0.0559517 0.0289117 0)
(-0.060098 0.0286053 0)
(-0.064177 0.0281174 0)
(-0.0681654 0.027451 0)
(-0.0720403 0.0266085 0)
(-0.0757789 0.0255922 0)
(-0.0793587 0.0244042 0)
(-0.0827575 0.0230469 0)
(-0.0859534 0.0215234 0)
(-0.088925 0.0198374 0)
(-0.0916514 0.0179935 0)
(-0.0941125 0.0159979 0)
(-0.096289 0.0138581 0)
(-0.0981625 0.0115833 0)
(-0.0997161 0.00918474 0)
(-0.100934 0.00667541 0)
(-0.101803 0.00407046 0)
(-0.10231 0.00138709 0)
(-0.102445 -0.00135544 0)
(-0.102201 -0.00413588 0)
(-0.101574 -0.0069311 0)
(-0.10056 -0.00971628 0)
(-0.0991615 -0.0124651 0)
(-0.0973816 -0.0151501 0)
(-0.0952283 -0.0177429 0)
(-0.0927127 -0.0202146 0)
(-0.0898495 -0.0225364 0)
(-0.0866573 -0.0246796 0)
(-0.0831584 -0.0266167 0)
(-0.0793786 -0.0283216 0)
(-0.0753476 -0.0297699 0)
(-0.0710981 -0.03094 0)
(-0.0666663 -0.0318134 0)
(-0.062091 -0.0323751 0)
(-0.0574133 -0.0326143 0)
(-0.0526764 -0.0325246 0)
(-0.0479246 -0.0321049 0)
(-0.0432029 -0.0313592 0)
(-0.0385563 -0.0302971 0)
(-0.034029 -0.0289341 0)
(-0.0296636 -0.0272912 0)
(-0.0255005 -0.0253957 0)
(-0.0215769 -0.0232804 0)
(-0.0179262 -0.020984 0)
(-0.0145774 -0.0185504 0)
(-0.0115542 -0.016029 0)
(-0.00887473 -0.0134741 0)
(-0.00655132 -0.010945 0)
(-0.00458995 -0.00850525 0)
(-0.00299048 -0.00622286 0)
(-0.00174593 -0.00416996 0)
(-0.000842046 -0.00242232 0)
(-0.000268864 -0.00105893 0)
(-3.23414e-05 -0.000165079 0)
(-9.43327e-05 0.00153956 0)
(-0.000631978 0.00474377 0)
(-0.00179645 0.00796952 0)
(-0.00346844 0.0111375 0)
(-0.00557853 0.0141877 0)
(-0.00808435 0.0170733 0)
(-0.0109434 0.0197594 0)
(-0.0141143 0.0222213 0)
(-0.0175583 0.024443 0)
(-0.0212392 0.0264151 0)
(-0.0251226 0.0281342 0)
(-0.0291761 0.0296004 0)
(-0.0333687 0.0308171 0)
(-0.0376709 0.0317895 0)
(-0.0420543 0.0325236 0)
(-0.0464918 0.0330263 0)
(-0.0509568 0.0333038 0)
(-0.0554239 0.0333624 0)
(-0.0598679 0.0332072 0)
(-0.0642643 0.0328431 0)
(-0.068589 0.0322737 0)
(-0.072818 0.0315023 0)
(-0.0769277 0.0305317 0)
(-0.0808949 0.0293642 0)
(-0.0846963 0.0280023 0)
(-0.088309 0.0264489 0)
(-0.0917106 0.0247071 0)
(-0.0948788 0.0227812 0)
(-0.0977921 0.0206766 0)
(-0.100429 0.0184 0)
(-0.102771 0.0159601 0)
(-0.104797 0.0133671 0)
(-0.106489 0.0106335 0)
(-0.107832 0.00777381 0)
(-0.10881 0.00480503 0)
(-0.10941 0.00174632 0)
(-0.10962 -0.00138082 0)
(-0.109433 -0.00455264 0)
(-0.108842 -0.00774331 0)
(-0.107844 -0.0109251 0)
(-0.106438 -0.0140684 0)
(-0.104628 -0.0171425 0)
(-0.10242 -0.0201154 0)
(-0.0998249 -0.0229546 0)
(-0.0968562 -0.0256273 0)
(-0.0935321 -0.0281013 0)
(-0.0898748 -0.030345 0)
(-0.0859102 -0.0323285 0)
(-0.0816683 -0.034024 0)
(-0.0771826 -0.0354063 0)
(-0.0724904 -0.0364537 0)
(-0.0676319 -0.0371485 0)
(-0.0626504 -0.0374776 0)
(-0.0575912 -0.0374329 0)
(-0.0525014 -0.0370121 0)
(-0.0474291 -0.0362187 0)
(-0.0424227 -0.0350626 0)
(-0.0375299 -0.0335603 0)
(-0.0327975 -0.0317348 0)
(-0.0282697 -0.029616 0)
(-0.0239879 -0.0272401 0)
(-0.0199897 -0.0246499 0)
(-0.0163081 -0.0218943 0)
(-0.0129709 -0.019028 0)
(-0.0100003 -0.0161113 0)
(-0.00741202 -0.0132095 0)
(-0.00521568 -0.0103926 0)
(-0.00341433 -0.00773494 0)
(-0.0020038 -0.00531476 0)
(-0.000972115 -0.00321348 0)
(-0.000312865 -0.001515 0)
(-3.83589e-05 -0.00030864 0)
(-0.000102661 0.00187302 0)
(-0.000685524 0.00567903 0)
(-0.00194514 0.00944637 0)
(-0.0037498 0.0131002 0)
(-0.00602212 0.0165844 0)
(-0.00871452 0.0198558 0)
(-0.0117796 0.022883 0)
(-0.0151718 0.0256441 0)
(-0.0188488 0.0281259 0)
(-0.0227713 0.0303215 0)
(-0.0269025 0.0322294 0)
(-0.0312079 0.0338519 0)
(-0.0356548 0.0351938 0)
(-0.0402126 0.0362619 0)
(-0.0448516 0.0370634 0)
(-0.0495438 0.0376062 0)
(-0.0542621 0.0378975 0)
(-0.0589802 0.0379442 0)
(-0.0636725 0.0377521 0)
(-0.0683139 0.0373263 0)
(-0.0728798 0.036671 0)
(-0.0773459 0.0357898 0)
(-0.0816879 0.0346854 0)
(-0.0858822 0.0333607 0)
(-0.089905 0.0318184 0)
(-0.0937328 0.0300613 0)
(-0.0973427 0.0280933 0)
(-0.100712 0.0259189 0)
(-0.103817 0.0235442 0)
(-0.106638 0.0209765 0)
(-0.109153 0.0182253 0)
(-0.111342 0.015302 0)
(-0.113186 0.0122203 0)
(-0.114667 0.00899615 0)
(-0.115769 0.00564826 0)
(-0.116478 0.00219776 0)
(-0.116782 -0.00133168 0)
(-0.11667 -0.00491387 0)
(-0.116134 -0.00852026 0)
(-0.115171 -0.0121201 0)
(-0.113778 -0.0156808 0)
(-0.111957 -0.0191679 0)
(-0.109714 -0.0225459 0)
(-0.107057 -0.0257785 0)
(-0.104 -0.028829 0)
(-0.10056 -0.0316609 0)
(-0.0967581 -0.0342386 0)
(-0.0926207 -0.0365281 0)
(-0.0881775 -0.0384975 0)
(-0.0834628 -0.040118 0)
(-0.0785148 -0.0413641 0)
(-0.073375 -0.0422151 0)
(-0.0680887 -0.0426551 0)
(-0.0627035 -0.0426737 0)
(-0.0572694 -0.0422671 0)
(-0.0518376 -0.0414381 0)
(-0.0464602 -0.0401964 0)
(-0.0411891 -0.0385593 0)
(-0.036075 -0.0365515 0)
(-0.0311667 -0.0342053 0)
(-0.0265103 -0.0315605 0)
(-0.0221479 -0.0286638 0)
(-0.0181172 -0.0255691 0)
(-0.0144505 -0.0223367 0)
(-0.0111741 -0.0190329 0)
(-0.00830802 -0.0157295 0)
(-0.00586558 -0.0125031 0)
(-0.00385328 -0.00943462 0)
(-0.00226991 -0.00660883 0)
(-0.00110574 -0.00411321 0)
(-0.000357761 -0.00203706 0)
(-4.44016e-05 -0.000474324 0)
(-0.000110631 0.00223314 0)
(-0.000736832 0.00668696 0)
(-0.00208774 0.011035 0)
(-0.00401985 0.0152072 0)
(-0.00644824 0.0191523 0)
(-0.00932035 0.0228313 0)
(-0.0125842 0.0262167 0)
(-0.0161901 0.0292904 0)
(-0.0200922 0.0320424 0)
(-0.0242483 0.0344688 0)
(-0.0286193 0.0365707 0)
(-0.0331686 0.0383527 0)
(-0.0378622 0.0398218 0)
(-0.0426677 0.0409862 0)
(-0.047555 0.0418549 0)
(-0.0524948 0.0424367 0)
(-0.0574596 0.0427402 0)
(-0.0624225 0.0427727 0)
(-0.0673573 0.0425409 0)
(-0.0722388 0.0420504 0)
(-0.0770418 0.0413056 0)
(-0.0817416 0.0403105 0)
(-0.0863138 0.039068 0)
(-0.0907343 0.0375813 0)
(-0.0949788 0.035853 0)