/*--------------------------------*- C++ -*----------------------------------*\
  =========                 |
  \\      /  F ield         | OpenFOAM: The Open Source CFD Toolbox
   \\    /   O peration     | Website:  https://openfoam.org
    \\  /    A nd           | Version:  dev
     \\/     M anipulation  |
\*---------------------------------------------------------------------------*/
FoamFile
{
    format      ascii;
    class       volScalarField;
    location    "25.65";
    object      Ux;
}
// * * * * * * * * * * * * * * * * * * * * * * * * * * * * * * * * * * * * * //

dimensions      [0 1 -1 0 0 0 0];

internalField   nonuniform List<scalar> 
5184
(
1.22986e-05
4.51109e-05
8.02682e-05
9.59163e-05
8.20793e-05
3.63835e-05
-4.06187e-05
-0.000146909
-0.000279697
-0.000435926
-0.000612476
-0.000806314
-0.00101457
-0.00123459
-0.00146391
-0.00170027
-0.0019416
-0.00218599
-0.00243165
-0.0026769
-0.00292013
-0.00315979
-0.00339435
-0.00362228
-0.00384205
-0.00405214
-0.00425097
-0.00443699
-0.0046086
-0.00476424
-0.00490234
-0.00502139
-0.00511992
-0.00519655
-0.00525003
-0.00527924
-0.00528324
-0.00526129
-0.00521291
-0.00513786
-0.00503619
-0.0049083
-0.00475488
-0.00457698
-0.00437601
-0.00415372
-0.00391221
-0.0036539
-0.00338151
-0.00309805
-0.00280675
-0.00251105
-0.0022145
-0.00192076
-0.0016335
-0.00135637
-0.00109289
-0.00084644
-0.000620163
-0.000416909
-0.000239175
-8.90402e-05
3.19084e-05
0.000122656
0.000182869
0.00021305
0.000214785
0.000191121
0.000147085
9.0765e-05
3.66213e-05
6.22777e-06
2.08232e-05
6.55621e-05
9.46294e-05
7.27085e-05
-1.90293e-05
-0.000187391
-0.000432955
-0.000752505
-0.0011405
-0.00159015
-0.00209413
-0.00264498
-0.0032354
-0.00385839
-0.00450736
-0.00517612
-0.00585885
-0.00655013
-0.00724482
-0.00793803
-0.00862508
-0.0093014
-0.00996253
-0.010604
-0.0112215
-0.0118106
-0.0123669
-0.0128859
-0.0133632
-0.0137947
-0.0141759
-0.0145028
-0.0147715
-0.0149784
-0.0151202
-0.0151941
-0.0151976
-0.0151291
-0.0149874
-0.0147722
-0.0144837
-0.0141233
-0.0136931
-0.013196
-0.0126361
-0.0120182
-0.011348
-0.0106322
-0.00987809
-0.00909386
-0.00828816
-0.00747017
-0.00664941
-0.00583563
-0.0050386
-0.00426798
-0.00353315
-0.00284304
-0.0022059
-0.00162923
-0.0011195
-0.000682008
-0.000320662
-3.77513e-05
0.000166356
0.000293579
0.000348661
0.000339867
0.000279682
0.000185951
8.6335e-05
1.96763e-05
1.76207e-05
4.12827e-05
1.95263e-05
-8.40757e-05
-0.000290296
-0.000607876
-0.00103808
-0.00157708
-0.00221773
-0.00295082
-0.00376611
-0.00465287
-0.00560039
-0.0065982
-0.00763627
-0.00870503
-0.00979541
-0.0108988
-0.012007
-0.0131122
-0.0142068
-0.0152834
-0.0163347
-0.0173538
-0.0183334
-0.0192666
-0.0201464
-0.0209656
-0.0217176
-0.0223955
-0.0229928
-0.0235031
-0.0239206
-0.0242398
-0.0244557
-0.0245642
-0.0245619
-0.0244463
-0.0242158
-0.0238701
-0.0234101
-0.0228379
-0.0221569
-0.0213721
-0.0204896
-0.0195171
-0.0184634
-0.0173389
-0.0161548
-0.0149236
-0.0136587
-0.012374
-0.0110841
-0.00980373
-0.0085479
-0.00733125
-0.00616803
-0.00507177
-0.004055
-0.00312899
-0.00230348
-0.00158637
-0.00098338
-0.000497757
-0.000129811
0.000123525
0.00026934
0.000319469
0.000291036
0.000207259
0.000102394
2.49667e-05
8.82906e-06
-7.04031e-06
-0.000107613
-0.000322359
-0.000669511
-0.00115747
-0.00178697
-0.00255327
-0.00344779
-0.00445954
-0.00557602
-0.00678405
-0.00807021
-0.00942126
-0.0108243
-0.0122669
-0.0137372
-0.0152237
-0.0167156
-0.0182022
-0.0196734
-0.0211193
-0.02253
-0.0238959
-0.0252075
-0.0264553
-0.02763
-0.0287222
-0.029723
-0.0306234
-0.0314148
-0.032089
-0.0326385
-0.0330563
-0.033336
-0.0334724
-0.0334614
-0.0332998
-0.0329861
-0.0325199
-0.0319027
-0.0311375
-0.030229
-0.0291837
-0.0280098
-0.0267174
-0.0253181
-0.0238254
-0.0222539
-0.0206198
-0.0189403
-0.0172336
-0.0155184
-0.0138139
-0.0121392
-0.0105133
-0.00895463
-0.0074805
-0.00610709
-0.00484889
-0.00371839
-0.0027257
-0.00187815
-0.00117988
-0.000631345
-0.000228857
3.60559e-05
0.000177277
0.000214521
0.000173938
9.29608e-05
2.40139e-05
-2.13132e-06
-6.72976e-05
-0.000264078
-0.000609645
-0.00111648
-0.0017908
-0.0026316
-0.00363251
-0.00478341
-0.00607158
-0.00748268
-0.00900147
-0.0106124
-0.0122998
-0.0140485
-0.0158436
-0.0176709
-0.0195164
-0.0213668
-0.0232091
-0.0250308
-0.0268195
-0.0285632
-0.0302499
-0.0318679
-0.0334056
-0.0348514
-0.0361941
-0.0374225
-0.0385259
-0.0394941
-0.0403171
-0.0409859
-0.0414922
-0.0418287
-0.0419893
-0.041969
-0.0417645
-0.0413741
-0.0407977
-0.0400371
-0.0390963
-0.037981
-0.0366993
-0.0352611
-0.0336785
-0.0319657
-0.0301386
-0.0282149
-0.0262139
-0.0241561
-0.0220632
-0.0199577
-0.0178622
-0.0157997
-0.0137928
-0.0118634
-0.0100323
-0.00831868
-0.00673998
-0.00531108
-0.00404412
-0.00294797
-0.00202777
-0.00128447
-0.000714306
-0.000308298
-5.16862e-05
7.63954e-05
0.000103435
6.74369e-05
1.96511e-05
-1.36964e-05
-0.000132811
-0.000435716
-0.000924373
-0.0016034
-0.00247536
-0.00353641
-0.00477786
-0.0061876
-0.00775114
-0.00945234
-0.0112741
-0.0131991
-0.0152096
-0.0172885
-0.0194188
-0.0215841
-0.0237684
-0.0259563
-0.0281326
-0.0302827
-0.0323921
-0.0344466
-0.0364324
-0.0383356
-0.0401427
-0.0418402
-0.043415
-0.0448543
-0.0461456
-0.0472772
-0.0482377
-0.0490169
-0.0496053
-0.0499946
-0.0501782
-0.0501504
-0.0499077
-0.0494483
-0.0487722
-0.0478819
-0.0467818
-0.0454788
-0.0439821
-0.0423032
-0.0404561
-0.0384567
-0.0363235
-0.0340765
-0.0317377
-0.0293307
-0.02688
-0.0244112
-0.0219502
-0.0195233
-0.0171562
-0.014874
-0.0127005
-0.0106577
-0.00876551
-0.00704128
-0.00549906
-0.00414933
-0.00299845
-0.0020482
-0.00129532
-0.000731028
-0.000340619
-0.000103145
9.01211e-06
3.24334e-05
1.36074e-05
-2.51816e-05
-0.000199955
-0.000613881
-0.00125248
-0.00211127
-0.0031881
-0.00447541
-0.00596148
-0.00763182
-0.00946989
-0.0114577
-0.0135765
-0.015807
-0.01813
-0.0205264
-0.0229776
-0.0254654
-0.0279718
-0.0304796
-0.0329718
-0.0354318
-0.0378434
-0.0401905
-0.0424574
-0.0446284
-0.0466883
-0.048622
-0.0504146
-0.0520518
-0.0535197
-0.0548051
-0.0558955
-0.0567795
-0.0574467
-0.057888
-0.0580959
-0.0580645
-0.0577899
-0.0572703
-0.0565058
-0.0554991
-0.0542554
-0.0527823
-0.05109
-0.0491913
-0.0471016
-0.0448388
-0.0424229
-0.0398763
-0.0372233
-0.0344899
-0.0317034
-0.0288919
-0.0260845
-0.0233101
-0.0205974
-0.0179744
-0.0154676
-0.0131018
-0.0108993
-0.00887981
-0.00705934
-0.00545014
-0.00406009
-0.00289216
-0.00194409
-0.00120793
-0.000669766
-0.000309387
-9.99766e-05
-7.76831e-06
6.84873e-06
-3.63292e-05
-0.000266847
-0.000793453
-0.00158502
-0.00262739
-0.003913
-0.0054299
-0.00716279
-0.00909437
-0.0112058
-0.013477
-0.0158876
-0.0184166
-0.0210432
-0.0237467
-0.026507
-0.0293041
-0.0321187
-0.0349318
-0.0377249
-0.0404796
-0.0431781
-0.0458028
-0.0483362
-0.0507612
-0.0530609
-0.0552186
-0.0572182
-0.059044
-0.0606806
-0.0621137
-0.0633297
-0.0643161
-0.0650617
-0.0655566
-0.0657926
-0.0657636
-0.0654651
-0.0648952
-0.0640541
-0.0629448
-0.0615727
-0.0599461
-0.058076
-0.0559762
-0.0536634
-0.0511566
-0.0484778
-0.045651
-0.0427027
-0.0396608
-0.036555
-0.0334162
-0.0302757
-0.0271653
-0.0241164
-0.0211596
-0.0183241
-0.0156375
-0.0131245
-0.010807
-0.00870349
-0.00682803
-0.00519029
-0.00379488
-0.00264095
-0.00172194
-0.00102529
-0.000532191
-0.000217293
-5.05015e-05
-9.40696e-08
-4.70433e-05
-0.000332505
-0.000971435
-0.00191639
-0.00314337
-0.00463902
-0.00638653
-0.00836662
-0.0105588
-0.0129416
-0.0154931
-0.0181907
-0.0210119
-0.0239344
-0.0269361
-0.0299954
-0.033091
-0.0362021
-0.0393083
-0.0423896
-0.0454265
-0.0483995
-0.0512895
-0.0540779
-0.056746
-0.0592755
-0.0616485
-0.0638476
-0.0658556
-0.0676562
-0.069234
-0.0705742
-0.0716635
-0.0724898
-0.0730424
-0.0733127
-0.0732937
-0.0729809
-0.0723719
-0.0714669
-0.070269
-0.0687836
-0.0670196
-0.0649884
-0.0627047
-0.0601858
-0.0574523
-0.0545272
-0.0514363
-0.0482075
-0.0448709
-0.0414584
-0.0380028
-0.0345382
-0.0310987
-0.0277184
-0.0244306
-0.0212673
-0.0182585
-0.0154317
-0.0128114
-0.0104182
-0.00826863
-0.00637443
-0.00474214
-0.00337282
-0.0022617
-0.00139807
-0.000764988
-0.000339036
-9.42077e-05
-6.95093e-06
-5.73117e-05
-0.000396446
-0.00114609
-0.00224307
-0.00365365
-0.00535851
-0.00733573
-0.00956174
-0.0120126
-0.0146642
-0.017492
-0.0204718
-0.0235794
-0.0267909
-0.0300829
-0.0334325
-0.0368171
-0.0402148
-0.0436039
-0.0469631
-0.0502718
-0.0535092
-0.0566551
-0.0596894
-0.0625924
-0.0653445
-0.0679268
-0.0703204
-0.0725073
-0.0744701
-0.0761922
-0.0776581
-0.0788533
-0.079765
-0.0803819
-0.0806944
-0.0806952
-0.0803792
-0.0797436
-0.0787884
-0.0775163
-0.075933
-0.0740473
-0.0718711
-0.0694194
-0.0667104
-0.0637653
-0.0606083
-0.0572665
-0.0537693
-0.0501486
-0.046438
-0.0426727
-0.0388891
-0.0351237
-0.0314132
-0.0277937
-0.0242999
-0.0209646
-0.0178182
-0.0148878
-0.0121968
-0.00976419
-0.00760415
-0.00572561
-0.00413187
-0.00282037
-0.00178263
-0.00100391
-0.00046299
-0.00013807
-1.36061e-05
-6.71524e-05
-0.000458444
-0.00131642
-0.00256285
-0.00415452
-0.00606614
-0.00827056
-0.0107398
-0.0134463
-0.0163629
-0.0194629
-0.0227198
-0.026108
-0.0296019
-0.033177
-0.0368091
-0.0404745
-0.0441501
-0.0478134
-0.051442
-0.055014
-0.0585077
-0.0619019
-0.0651754
-0.0683074
-0.0712774
-0.0740651
-0.076651
-0.079016
-0.0811415
-0.0830101
-0.0846053
-0.0859119
-0.0869161
-0.0876057
-0.0879706
-0.0880027
-0.0876961
-0.0870476
-0.0860568
-0.0847259
-0.0830604
-0.081069
-0.0787636
-0.0761594
-0.0732749
-0.0701321
-0.066756
-0.0631746
-0.0594188
-0.0555219
-0.0515194
-0.0474486
-0.043348
-0.0392568
-0.0352143
-0.0312593
-0.0274296
-0.0237609
-0.0202867
-0.017037
-0.0140382
-0.0113123
-0.00887622
-0.00674164
-0.00491445
-0.00339465
-0.00217631
-0.00124711
-0.000588147
-0.000181763
-2.00333e-05
-7.65894e-05
-0.000518397
-0.00148183
-0.00287428
-0.00464343
-0.0067581
-0.00918594
-0.0118944
-0.0148523
-0.0180294
-0.0213965
-0.0249252
-0.0285879
-0.0323578
-0.0362091
-0.0401165
-0.0440553
-0.0480014
-0.0519314
-0.0558219
-0.0596503
-0.063394
-0.0670307
-0.0705385
-0.0738955
-0.0770805
-0.0800722
-0.0828502
-0.0853943
-0.0876853
-0.0897048
-0.0914353
-0.0928607
-0.0939664
-0.0947393
-0.0951685
-0.0952449
-0.094962
-0.0943158
-0.093305
-0.0919315
-0.0902003
-0.0881194
-0.0857007
-0.0829592
-0.0799137
-0.0765864
-0.0730028
-0.0691919
-0.0651856
-0.0610187
-0.0567285
-0.0523541
-0.0479363
-0.0435169
-0.039138
-0.0348413
-0.0306678
-0.0266564
-0.0228439
-0.0192638
-0.0159457
-0.0129149
-0.0101915
-0.00779032
-0.00572019
-0.00398399
-0.00257857
-0.00149421
-0.000714349
-0.000225287
-2.62588e-05
-8.56445e-05
-0.000576254
-0.00164193
-0.0031764
-0.00511857
-0.00743159
-0.0100779
-0.0130206
-0.0162246
-0.0196568
-0.0232853
-0.0270797
-0.0310107
-0.0350501
-0.0391709
-0.0433467
-0.0475519
-0.0517617
-0.0559517
-0.060098
-0.064177
-0.0681654
-0.0720403
-0.0757789
-0.0793587
-0.0827575
-0.0859534
-0.088925
-0.0916514
-0.0941125
-0.096289
-0.0981625
-0.0997161
-0.100934
-0.101803
-0.10231
-0.102445
-0.102201
-0.101574
-0.10056
-0.0991615
-0.0973816
-0.0952283
-0.0927127
-0.0898495
-0.0866573
-0.0831584
-0.0793786
-0.0753476
-0.0710981
-0.0666663
-0.062091
-0.0574133
-0.0526764
-0.0479246
-0.0432029
-0.0385563
-0.034029
-0.0296636
-0.0255005
-0.0215769
-0.0179262
-0.0145774
-0.0115542
-0.00887473
-0.00655132
-0.00458995
-0.00299048
-0.00174593
-0.000842046
-0.000268864
-3.23414e-05
-9.43327e-05
-0.000631978
-0.00179645
-0.00346844
-0.00557853
-0.00808435
-0.0109434
-0.0141143
-0.0175583
-0.0212392
-0.0251226
-0.0291761
-0.0333687
-0.0376709
-0.0420543
-0.0464918
-0.0509568
-0.0554239
-0.0598679
-0.0642643
-0.068589
-0.072818
-0.0769277
-0.0808949
-0.0846963
-0.088309
-0.0917106
-0.0948788
-0.0977921
-0.100429
-0.102771
-0.104797
-0.106489
-0.107832
-0.10881
-0.10941
-0.10962
-0.109433
-0.108842
-0.107844
-0.106438
-0.104628
-0.10242
-0.0998249
-0.0968562
-0.0935321
-0.0898748
-0.0859102
-0.0816683
-0.0771826
-0.0724904
-0.0676319
-0.0626504
-0.0575912
-0.0525014
-0.0474291
-0.0424227
-0.0375299
-0.0327975
-0.0282697
-0.0239879
-0.0199897
-0.0163081
-0.0129709
-0.0100003
-0.00741202
-0.00521568
-0.00341433
-0.0020038
-0.000972115
-0.000312865
-3.83589e-05
-0.000102661
-0.000685524
-0.00194514
-0.0037498
-0.00602212
-0.00871452
-0.0117796
-0.0151718
-0.0188488
-0.0227713
-0.0269025
-0.0312079
-0.0356548
-0.0402126
-0.0448516
-0.0495438
-0.0542621
-0.0589802
-0.0636725
-0.0683139
-0.0728798
-0.0773459
-0.0816879
-0.0858822
-0.089905
-0.0937328
-0.0973427
-0.100712
-0.103817
-0.106638
-0.109153
-0.111342
-0.113186
-0.114667
-0.115769
-0.116478
-0.116782
-0.11667
-0.116134
-0.115171
-0.113778
-0.111957
-0.109714
-0.107057
-0.104
-0.10056
-0.0967581
-0.0926207
-0.0881775
-0.0834628
-0.0785148
-0.073375
-0.0680887
-0.0627035
-0.0572694
-0.0518376
-0.0464602
-0.0411891
-0.036075
-0.0311667
-0.0265103
-0.0221479
-0.0181172
-0.0144505
-0.0111741
-0.00830802
-0.00586558
-0.00385328
-0.00226991
-0.00110574
-0.000357761
-4.44016e-05
-0.000110631
-0.000736832
-0.00208774
-0.00401985
-0.00644824
-0.00932035
-0.0125842
-0.0161901
-0.0200922
-0.0242483
-0.0286193
-0.0331686
-0.0378622
-0.0426677
-0.047555
-0.0524948
-0.0574596
-0.0624225
-0.0673573
-0.0722388
-0.0770418
-0.0817416
-0.0863138
-0.0907343
-0.0949788
-0.0990235
-0.102845
-0.106419
-0.109724
-0.112737
-0.115435
-0.117798
-0.119807
-0.121441
-0.122684
-0.12352
-0.123934
-0.123917
-0.123457
-0.122549
-0.12119
-0.11938
-0.117121
-0.114423
-0.111296
-0.107757
-0.103826
-0.0995288
-0.0948952
-0.0899595
-0.0847608
-0.0793421
-0.0737502
-0.0680353
-0.0622502
-0.0564496
-0.0506894
-0.0450258
-0.0395143
-0.0342085
-0.0291595
-0.0244147
-0.0200168
-0.016003
-0.0124047
-0.00924618
-0.00654492
-0.00431116
-0.00254677
-0.00124431
-0.000404096
-5.05671e-05
-0.000118235
-0.000785822
-0.00222396
-0.00427797
-0.0068558
-0.00990016
-0.0133547
-0.0171659
-0.0212844
-0.0256655
-0.0302675
-0.0350522
-0.0399838
-0.045029
-0.0501564
-0.0553364
-0.0605405
-0.0657416
-0.0709132
-0.0760296
-0.0810655
-0.085996
-0.0907964
-0.0954421
-0.0999089
-0.104173
-0.108209
-0.111994
-0.115505
-0.118718
-0.12161
-0.12416
-0.126346
-0.128149
-0.129549
-0.13053
-0.131076
-0.131174
-0.130812
-0.129982
-0.128679
-0.126901
-0.124649
-0.12193
-0.118754
-0.115134
-0.111091
-0.106649
-0.101837
-0.0966894
-0.0912465
-0.085552
-0.0796547
-0.0736069
-0.0674644
-0.0612856
-0.0551305
-0.0490599
-0.0431343
-0.0374127
-0.0319519
-0.0268048
-0.0220198
-0.01764
-0.0137016
-0.0102342
-0.00725964
-0.00479226
-0.0028372
-0.00138937
-0.000452457
-5.69579e-05
-0.000125462
-0.000832387
-0.00235349
-0.0045235
-0.00724366
-0.0104523
-0.0140889
-0.0180961
-0.0224218
-0.0270183
-0.0318419
-0.0368525
-0.0420129
-0.0472888
-0.0526478
-0.0580597
-0.0634957
-0.068928
-0.0743301
-0.079676
-0.0849403
-0.090098
-0.0951242
-0.0999944
-0.104684
-0.109168
-0.113423
-0.117424
-0.121148
-0.12457
-0.127666
-0.130415
-0.132794
-0.134781
-0.136356
-0.137501
-0.138199
-0.138433
-0.138191
-0.137462
-0.136239
-0.134517
-0.132296
-0.129579
-0.126375
-0.122696
-0.118559
-0.113988
-0.109012
-0.103665
-0.0979857
-0.0920205
-0.0858191
-0.0794364
-0.072931
-0.0663651
-0.0598031
-0.0533106
-0.0469537
-0.0407973
-0.0349041
-0.0293336
-0.0241403
-0.0193733
-0.015075
-0.0112803
-0.00801616
-0.00530122
-0.00314422
-0.00154258
-0.000503467
-6.36788e-05
-0.000132293
-0.000876404
-0.00247594
-0.00475571
-0.00761063
-0.0109749
-0.0147842
-0.0189778
-0.0235004
-0.028302
-0.0333368
-0.0385631
-0.0439424
-0.0494393
-0.0550206
-0.0606556
-0.0663151
-0.071971
-0.0775967
-0.0831661
-0.0886539
-0.0940348
-0.0992842
-0.104377
-0.109289
-0.113996
-0.118473
-0.122695
-0.126637
-0.130276
-0.133588
-0.136547
-0.139132
-0.14132
-0.143088
-0.144416
-0.145286
-0.145679
-0.14558
-0.144976
-0.143858
-0.142218
-0.140053
-0.137363
-0.134155
-0.130438
-0.126229
-0.121549
-0.116426
-0.110892
-0.104987
-0.0987586
-0.0922567
-0.0855387
-0.0786664
-0.0717056
-0.0647254
-0.0577966
-0.0509911
-0.0443802
-0.0380334
-0.0320168
-0.0263923
-0.0212156
-0.0165355
-0.0123933
-0.00882121
-0.0058429
-0.00347101
-0.00170566
-0.000557766
-7.08364e-05
-0.000138707
-0.000917727
-0.00259092
-0.00497381
-0.00795546
-0.0114662
-0.0154383
-0.0198076
-0.0245163
-0.0295119
-0.0347469
-0.0401778
-0.0457652
-0.0514724
-0.057266
-0.0631144
-0.0689882
-0.0748593
-0.080701
-0.0864871
-0.0921924
-0.0977918
-0.103261
-0.108575
-0.113709
-0.118638
-0.123339
-0.127785
-0.131953
-0.135817
-0.139353
-0.142535
-0.14534
-0.147743
-0.149721
-0.151252
-0.152314
-0.152889
-0.152957
-0.152504
-0.151516
-0.149984
-0.147901
-0.145266
-0.14208
-0.138352
-0.134094
-0.129326
-0.124075
-0.118371
-0.112255
-0.105773
-0.0989762
-0.091925
-0.0846838
-0.077322
-0.0699135
-0.0625346
-0.0552636
-0.0481784
-0.041356
-0.0348702
-0.0287901
-0.0231794
-0.018094
-0.0135819
-0.00968169
-0.00642232
-0.00382081
-0.00188036
-0.000616009
-7.85385e-05
-0.000144677
-0.000956199
-0.002698
-0.00517698
-0.00827685
-0.0119244
-0.0160486
-0.0205824
-0.0254655
-0.0306433
-0.0360664
-0.0416901
-0.0474737
-0.05338
-0.0593746
-0.0654258
-0.0715039
-0.0775808
-0.0836297
-0.0896248
-0.0955407
-0.101353
-0.107037
-0.112568
-0.117922
-0.123074
-0.127999
-0.132673
-0.137071
-0.141167
-0.144935
-0.14835
-0.151387
-0.15402
-0.156225
-0.157977
-0.159253
-0.160032
-0.160291
-0.160014
-0.159184
-0.157788
-0.155816
-0.153263
-0.150128
-0.146416
-0.142136
-0.137306
-0.131949
-0.126096
-0.119785
-0.113062
-0.105981
-0.0986016
-0.0909921
-0.0832256
-0.0753807
-0.0675395
-0.0597868
-0.0522081
-0.044888
-0.0379086
-0.0313478
-0.0252773
-0.0197613
-0.0148552
-0.0106046
-0.00704455
-0.00419693
-0.00206849
-0.000678861
-8.68933e-05
-0.000150176
-0.000991651
-0.0027967
-0.00536437
-0.00857344
-0.0123475
-0.0166126
-0.021299
-0.0263441
-0.0316913
-0.0372897
-0.0430934
-0.0490607
-0.0551534
-0.061337
-0.0675794
-0.0738506
-0.0801227
-0.086369
-0.0925639
-0.0986823
-0.1047
-0.110593
-0.116336
-0.121906
-0.127279
-0.132429
-0.137332
-0.141963
-0.146295
-0.150303
-0.15396
-0.15724
-0.160117
-0.162564
-0.164555
-0.166065
-0.167069
-0.167544
-0.167469
-0.166823
-0.165592
-0.163761
-0.161321
-0.158267
-0.154601
-0.150329
-0.145465
-0.14003
-0.134051
-0.127566
-0.12062
-0.113267
-0.105569
-0.0975954
-0.0894236
-0.0811367
-0.072823
-0.0645741
-0.0564832
-0.0486437
-0.0411465
-0.0340788
-0.0275216
-0.021548
-0.0162221
-0.011597
-0.00771468
-0.00460272
-0.00227184
-0.00074699
-9.60098e-05
-0.000155174
-0.00102391
-0.00288658
-0.00553511
-0.00884388
-0.0127337
-0.0171278
-0.0219541
-0.027148
-0.0326511
-0.0384112
-0.0443812
-0.0505183
-0.0567842
-0.0631435
-0.0695642
-0.0760162
-0.0824717
-0.0889042
-0.0952883
-0.1016
-0.107814
-0.113908
-0.119857
-0.125638
-0.131227
-0.1366
-0.141731
-0.146595
-0.151167
-0.15542
-0.159326
-0.162859
-0.165991
-0.168694
-0.170941
-0.172703
-0.173954
-0.174668
-0.17482
-0.174387
-0.173349
-0.17169
-0.169395
-0.166456
-0.162869
-0.158638
-0.153772
-0.148288
-0.142212
-0.135579
-0.128432
-0.120825
-0.112821
-0.104492
-0.0959179
-0.087187
-0.0783933
-0.0696357
-0.0610158
-0.0526358
-0.0445967
-0.0369956
-0.0299238
-0.0234646
-0.0176912
-0.0126657
-0.0084378
-0.00504149
-0.00249223
-0.000821067
-0.000105998
-0.000159642
-0.00105279
-0.00296715
-0.00568835
-0.00908685
-0.013081
-0.0175916
-0.0225446
-0.0278733
-0.0335181
-0.0394253
-0.0455468
-0.0518393
-0.0582636
-0.0647844
-0.0713693
-0.0779884
-0.0846139
-0.0912198
-0.0977812
-0.104274
-0.110674
-0.11696
-0.123106
-0.129091
-0.134891
-0.140481
-0.145837
-0.150934
-0.155746
-0.160246
-0.164406
-0.168199
-0.171595
-0.174566
-0.177083
-0.179114
-0.180632
-0.181607
-0.182011
-0.181818
-0.181004
-0.179548
-0.177431
-0.174642
-0.17117
-0.167016
-0.162183
-0.156685
-0.150545
-0.143793
-0.136473
-0.128635
-0.120344
-0.111673
-0.102705
-0.0935316
-0.0842542
-0.0749786
-0.0658148
-0.056875
-0.0482705
-0.0401097
-0.032495
-0.0255207
-0.0192709
-0.0138175
-0.00921889
-0.00551654
-0.00273146
-0.000901765
-0.000116968
-0.00016355
-0.00107814
-0.00303798
-0.00582326
-0.00930108
-0.0133876
-0.0180017
-0.0230673
-0.0285163
-0.0342876
-0.0403265
-0.046584
-0.0530161
-0.0595833
-0.0662499
-0.0729836
-0.0797546
-0.0865355
-0.0933005
-0.100025
-0.106686
-0.11326
-0.119725
-0.126058
-0.132237
-0.138239
-0.144039
-0.149615
-0.15494
-0.159989
-0.164736
-0.169152
-0.173209
-0.176876
-0.180125
-0.182922
-0.185238
-0.18704
-0.188297
-0.188977
-0.189051
-0.18849
-0.187269
-0.185366
-0.182762
-0.179444
-0.175405
-0.170645
-0.165172
-0.159005
-0.152171
-0.144709
-0.13667
-0.128116
-0.119122
-0.109773
-0.100165
-0.0904045
-0.0806051
-0.0708858
-0.061369
-0.0521772
-0.0434309
-0.0352448
-0.0277256
-0.0209693
-0.0150588
-0.0100628
-0.00603112
-0.00299133
-0.000989755
-0.000129031
-0.000166871
-0.00109979
-0.00309866
-0.0059391
-0.0094854
-0.013652
-0.0183559
-0.0235196
-0.0290735
-0.0349555
-0.0411098
-0.0474867
-0.0540417
-0.0607349
-0.0675306
-0.0743963
-0.0813027
-0.0882224
-0.0951303
-0.102003
-0.108816
-0.115549
-0.12218
-0.128686
-0.135047
-0.141239
-0.147239
-0.153025
-0.158572
-0.163853
-0.168843
-0.173513
-0.177834
-0.181776
-0.185308
-0.188396
-0.191008
-0.19311
-0.194667
-0.195645
-0.19601
-0.195732
-0.194779
-0.193123
-0.190743
-0.187618
-0.183736
-0.179091
-0.173687
-0.167536
-0.160661
-0.153097
-0.144892
-0.136106
-0.126814
-0.117103
-0.107074
-0.0968367
-0.0865128
-0.0762303
-0.0661223
-0.0563235
-0.0469671
-0.0381817
-0.0300875
-0.0227937
-0.0163959
-0.0109743
-0.0065884
-0.00327359
-0.00108571
-0.000142302
-0.000169581
-0.00111761
-0.00314883
-0.0060352
-0.0096388
-0.0138726
-0.0186522
-0.0238989
-0.0295418
-0.0355178
-0.0417705
-0.0482493
-0.0549095
-0.0617108
-0.0686175
-0.0755971
-0.0826206
-0.0896611
-0.0966939
-0.103696
-0.110645
-0.11752
-0.124299
-0.130963
-0.137489
-0.143857
-0.150045
-0.156029
-0.161786
-0.167291
-0.172517
-0.177435
-0.182018
-0.186234
-0.190051
-0.193436
-0.196352
-0.198765
-0.200638
-0.201934
-0.202615
-0.202646
-0.201991
-0.200619
-0.1985
-0.19561
-0.191929
-0.187447
-0.182158
-0.17607
-0.169201
-0.161579
-0.15325
-0.144271
-0.134714
-0.124669
-0.114238
-0.103537
-0.0926933
-0.0818449
-0.0711356
-0.060713
-0.0507243
-0.0413126
-0.0326134
-0.0247508
-0.0178345
-0.0119578
-0.00719148
-0.00358
-0.0011903
-0.000156895
-0.000171659
-0.00113149
-0.00318819
-0.00611103
-0.00976044
-0.0140483
-0.0188892
-0.0242032
-0.0299186
-0.0359714
-0.0423046
-0.0488671
-0.0556136
-0.062504
-0.0695022
-0.0765762
-0.083697
-0.0908384
-0.0979763
-0.105088
-0.112153
-0.11915
-0.126059
-0.132861
-0.139535
-0.146062
-0.152419
-0.158586
-0.164539
-0.170254
-0.175704
-0.180862
-0.1857
-0.190185
-0.194286
-0.197967
-0.201193
-0.203926
-0.206127
-0.207756
-0.208774
-0.209139
-0.208813
-0.207758
-0.205939
-0.203326
-0.199893
-0.195621
-0.1905
-0.184528
-0.177716
-0.170089
-0.161685
-0.152558
-0.142778
-0.132434
-0.121629
-0.110483
-0.0991319
-0.0877208
-0.0764053
-0.065346
-0.0547053
-0.0446424
-0.0353092
-0.0268465
-0.0193799
-0.0130175
-0.0078433
-0.00391224
-0.00130418
-0.000172927
-0.000173091
-0.00114134
-0.00321655
-0.00616623
-0.00984975
-0.0141782
-0.0190655
-0.0244308
-0.0302017
-0.0363136
-0.0427087
-0.0493357
-0.056149
-0.0631082
-0.0701774
-0.0773247
-0.0845216
-0.0917422
-0.0989632
-0.106163
-0.113321
-0.120418
-0.127435
-0.134353
-0.141154
-0.147818
-0.154325
-0.160655
-0.166786
-0.172693
-0.178352
-0.183736
-0.188816
-0.193562
-0.197939
-0.201915
-0.20545
-0.208507
-0.211045
-0.21302
-0.214391
-0.215113
-0.215143
-0.214438
-0.212957
-0.210664
-0.207526
-0.203516
-0.198615
-0.192816
-0.186121
-0.178546
-0.170124
-0.160902
-0.150949
-0.140349
-0.129207
-0.117646
-0.105806
-0.093843
-0.0819223
-0.0702188
-0.0589104
-0.0481738
-0.0381792
-0.0290856
-0.0210367
-0.0141574
-0.00854666
-0.00427197
-0.00142802
-0.000190518
-0.000173868
-0.00114713
-0.00323381
-0.00620063
-0.00990645
-0.014262
-0.0191807
-0.024581
-0.0303901
-0.0365427
-0.0429806
-0.0496522
-0.0565116
-0.0635184
-0.0706368
-0.077835
-0.085085
-0.0923615
-0.0996418
-0.106905
-0.114132
-0.121304
-0.128404
-0.135413
-0.142316
-0.149093
-0.155726
-0.162196
-0.168481
-0.17456
-0.180408
-0.185999
-0.191305
-0.196297
-0.20094
-0.205201
-0.209041
-0.212421
-0.215298
-0.217628
-0.219366
-0.220464
-0.220874
-0.220549
-0.219443
-0.217511
-0.214715
-0.211019
-0.206397
-0.200831
-0.194316
-0.186858
-0.178481
-0.169228
-0.159159
-0.148357
-0.136924
-0.124986
-0.112687
-0.10019
-0.0876722
-0.0753227
-0.0633359
-0.0519069
-0.0412257
-0.0314717
-0.0228087
-0.0153808
-0.0093042
-0.00466077
-0.00156247
-0.00020979
-0.00017399
-0.00114886
-0.00324
-0.00621427
-0.00993062
-0.0142997
-0.0192346
-0.0246535
-0.0304831
-0.0366578
-0.043119
-0.0498147
-0.0566989
-0.0637311
-0.0708756
-0.078101
-0.0853797
-0.0926869
-0.100001
-0.107301
-0.11457
-0.12179
-0.128945
-0.136018
-0.142994
-0.149856
-0.156587
-0.163169
-0.169583
-0.175807
-0.181819
-0.187594
-0.193105
-0.198323
-0.203216
-0.207748
-0.211883
-0.215579
-0.218794
-0.221482
-0.223595
-0.225082
-0.225893
-0.225975
-0.225277
-0.223748
-0.22134
-0.218012
-0.213728
-0.208459
-0.20219
-0.194919
-0.18666
-0.177445
-0.167329
-0.156387
-0.14472
-0.132453
-0.119734
-0.106731
-0.0936338
-0.0806444
-0.0679743
-0.0558387
-0.0444489
-0.0340069
-0.0246989
-0.0166908
-0.0101183
-0.00508015
-0.00170815
-0.000230866
-0.000173465
-0.0011466
-0.0032353
-0.00620751
-0.00992276
-0.0142919
-0.019228
-0.0246491
-0.0304816
-0.0366594
-0.0431239
-0.0498226
-0.0567095
-0.0637441
-0.0708907
-0.0781184
-0.0853998
-0.0927109
-0.100031
-0.10734
-0.114622
-0.12186
-0.129039
-0.136145
-0.143164
-0.150079
-0.156877
-0.163539
-0.17005
-0.176389
-0.182536
-0.188467
-0.194156
-0.199576
-0.204695
-0.20948
-0.213893
-0.217894
-0.221439
-0.224482
-0.226973
-0.228859
-0.230087
-0.230598
-0.230338
-0.229248
-0.227275
-0.224367
-0.22048
-0.215574
-0.209623
-0.202615
-0.19455
-0.185452
-0.175365
-0.164358
-0.152525
-0.139988
-0.126898
-0.113429
-0.0997792
-0.0861642
-0.0728135
-0.0599627
-0.0478467
-0.0366919
-0.0267095
-0.0180898
-0.0109911
-0.0055315
-0.00186569
-0.000253873
-0.000172314
-0.00114048
-0.00322007
-0.00618097
-0.00988381
-0.0142399
-0.0191624
-0.0245695
-0.0303872
-0.0365493
-0.0429968
-0.0496772
-0.0565442
-0.0635573
-0.070681
-0.0778847
-0.0851416
-0.0924283
-0.0997244
-0.107012
-0.114275
-0.121499
-0.12867
-0.135775
-0.142801
-0.149735
-0.156564
-0.163273
-0.169846
-0.176265
-0.182512
-0.188566
-0.194402
-0.199993
-0.205312
-0.210323
-0.214993
-0.21928
-0.223142
-0.226531
-0.229397
-0.231685
-0.233339
-0.234298
-0.2345
-0.233884
-0.232387
-0.229951
-0.226519
-0.222043
-0.216485
-0.209818
-0.202032
-0.193137
-0.183165
-0.172175
-0.160255
-0.147521
-0.134122
-0.120238
-0.106073
-0.0918564
-0.0778361
-0.0642688
-0.051414
-0.0395251
-0.028841
-0.0195795
-0.0119243
-0.00601611
-0.00203568
-0.000278939
-0.000170566
-0.00113069
-0.00319483
-0.00613565
-0.00981527
-0.0141456
-0.0190403
-0.0244175
-0.0302031
-0.0363307
-0.042741
-0.0493814
-0.0562054
-0.0631726
-0.0702477
-0.0774002
-0.084604
-0.0918363
-0.0990778
-0.106311
-0.113522
-0.120697
-0.127824
-0.134891
-0.141888
-0.148803
-0.155625
-0.16234
-0.168936
-0.175397
-0.181707
-0.187845
-0.19379
-0.199519
-0.205003
-0.210211
-0.215109
-0.219658
-0.223816
-0.227536
-0.230767
-0.233454
-0.235537
-0.236955
-0.23764
-0.237526
-0.236543
-0.234625
-0.231706
-0.227726
-0.222635
-0.216392
-0.208973
-0.200373
-0.190611
-0.179733
-0.167815
-0.154968
-0.141336
-0.127099
-0.11247
-0.0976882
-0.0830193
-0.0687422
-0.0551428
-0.0425032
-0.0310931
-0.0211608
-0.0129193
-0.00653509
-0.00221869
-0.000306195
-0.000168265
-0.00111751
-0.00316035
-0.00607293
-0.00971924
-0.014012
-0.0188653
-0.0241973
-0.0299339
-0.0360086
-0.0423617
-0.0489403
-0.055698
-0.0625944
-0.0695942
-0.0766675
-0.0837885
-0.0909353
-0.0980894
-0.105235
-0.112358
-0.119447
-0.126492
-0.133483
-0.14041
-0.147265
-0.154037
-0.160717
-0.167294
-0.173754
-0.180082
-0.186263
-0.192278
-0.198103
-0.203713
-0.209081
-0.214174
-0.218954
-0.223382
-0.22741
-0.23099
-0.234064
-0.236574
-0.238454
-0.239635
-0.240045
-0.23961
-0.238253
-0.2359
-0.232481
-0.227931
-0.222195
-0.215235
-0.207029
-0.197579
-0.186915
-0.175102
-0.162237
-0.14846
-0.133948
-0.118918
-0.103619
-0.0883341
-0.0733637
-0.0590212
-0.04562
-0.0334634
-0.0228338
-0.0139772
-0.00708941
-0.00241524
-0.00033577
-0.00016547
-0.00110131
-0.00311762
-0.00599463
-0.00959845
-0.0138427
-0.0186419
-0.0239144
-0.0295859
-0.0355897
-0.0418658
-0.0483612
-0.0550293
-0.0618295
-0.0687271
-0.0756922
-0.0826998
-0.0897287
-0.0967613
-0.103783
-0.110781
-0.117746
-0.124669
-0.131541
-0.138356
-0.145107
-0.151786
-0.158385
-0.164896
-0.171309
-0.177611
-0.183788
-0.189825
-0.195701
-0.201396
-0.206881
-0.212129
-0.217104
-0.221767
-0.226076
-0.22998
-0.233424
-0.236349
-0.238688
-0.240371
-0.24132
-0.241457
-0.240698
-0.23896
-0.236162
-0.232225
-0.22708
-0.220672
-0.212961
-0.203931
-0.193594
-0.181996
-0.169223
-0.155403
-0.140708
-0.125354
-0.109601
-0.0937449
-0.0781086
-0.0630337
-0.0488669
-0.035948
-0.0245976
-0.0150982
-0.00767981
-0.0026258
-0.000367795
-0.000162255
-0.00108255
-0.00306788
-0.00590303
-0.00945641
-0.0136425
-0.0183762
-0.0235758
-0.0291671
-0.0350829
-0.0412629
-0.0476538
-0.0542089
-0.0608877
-0.0676555
-0.074483
-0.0813457
-0.0882232
-0.0950991
-0.10196
-0.108794
-0.115595
-0.122353
-0.129064
-0.135722
-0.142323
-0.148861
-0.155332
-0.161729
-0.168044
-0.174269
-0.180394
-0.186403
-0.192282
-0.198011
-0.203568
-0.208925
-0.214052
-0.218913
-0.223465
-0.227662
-0.231451
-0.234772
-0.23756
-0.23974
-0.241236
-0.241963
-0.241831
-0.240749
-0.238626
-0.23537
-0.230897
-0.225134
-0.218022
-0.209524
-0.199632
-0.188372
-0.175812
-0.162064
-0.147291
-0.131708
-0.115578
-0.0992091
-0.0829466
-0.0671604
-0.0522322
-0.0385412
-0.0264499
-0.0162823
-0.00830679
-0.00285081
-0.0004024
-0.000158711
-0.00106179
-0.00301268
-0.00580097
-0.00929741
-0.0134172
-0.0180754
-0.0231905
-0.0286876
-0.0344993
-0.0405648
-0.0468306
-0.0532497
-0.0597816
-0.066392
-0.0730519
-0.0797375
-0.0864295
-0.0931122
-0.0997737
-0.106405
-0.112998
-0.119549
-0.126053
-0.132507
-0.13891
-0.145259
-0.15155
-0.157782
-0.163949
-0.170045
-0.176063
-0.181992
-0.187821
-0.193533
-0.199109
-0.204526
-0.209757
-0.214769