#           y            Uy
         0.05             0
         0.05     0.0154241
         0.05     0.0308483
         0.05     0.0462724
         0.05     0.0616965
         0.05     0.0769035
         0.05     0.0879844
         0.05     0.0990653
         0.05      0.110146
         0.05      0.121227
         0.05      0.131858
         0.05      0.138444
         0.05       0.14503
         0.05      0.151616
         0.05      0.158201
         0.05      0.164174
         0.05      0.166674
         0.05      0.169174
         0.05      0.171675
         0.05      0.174175
         0.05      0.175992
         0.05      0.175076
         0.05      0.174161
         0.05      0.173246
         0.05      0.172331
         0.05       0.17074
         0.05      0.167125
         0.05      0.163509
         0.05      0.159894
         0.05      0.156278
         0.05       0.15205
         0.05      0.146392
         0.05      0.140734
         0.05      0.135076
         0.05      0.129418
         0.05      0.123242
         0.05      0.116105
         0.05      0.108967
         0.05       0.10183
         0.05     0.0946922
         0.05      0.087151
         0.05     0.0790043
         0.05     0.0708576
         0.05     0.0627109
         0.05     0.0545642
         0.05     0.0461468
         0.05     0.0373985
         0.05     0.0286501
         0.05     0.0199018
         0.05     0.0111535
         0.05    0.00229871
         0.05   -0.00666254
         0.05    -0.0156238
         0.05    -0.0245851
         0.05    -0.0335463
         0.05    -0.0423933
         0.05    -0.0511468
         0.05    -0.0599003
         0.05    -0.0686537
         0.05    -0.0774072
         0.05    -0.0857337
         0.05    -0.0937756
         0.05     -0.101817
         0.05     -0.109859
         0.05     -0.117901
         0.05     -0.125071
         0.05     -0.131773
         0.05     -0.138474
         0.05     -0.145175
         0.05     -0.151876
         0.05     -0.157097
         0.05     -0.161685
         0.05     -0.166272
         0.05      -0.17086
         0.05     -0.175447
         0.05     -0.177783
         0.05     -0.179368
         0.05     -0.180954
         0.05     -0.182539
         0.05     -0.184124
         0.05     -0.182583
         0.05     -0.180261
         0.05     -0.177938
         0.05     -0.175615
         0.05     -0.173292
         0.05     -0.167026
         0.05     -0.160063
         0.05       -0.1531
         0.05     -0.146138
         0.05     -0.139175
         0.05      -0.12782
         0.05     -0.115976
         0.05     -0.104133
         0.05    -0.0922898
         0.05    -0.0804465
         0.05    -0.0645287
         0.05    -0.0483966
         0.05    -0.0322644
         0.05    -0.0161322
         0.05             0