/*--------------------------------*- C++ -*----------------------------------*\
  =========                 |
  \\      /  F ield         | OpenFOAM: The Open Source CFD Toolbox
   \\    /   O peration     | Website:  https://openfoam.org
    \\  /    A nd           | Version:  dev
     \\/     M anipulation  |
\*---------------------------------------------------------------------------*/
FoamFile
{
    format      ascii;
    class       volTensorField;
    location    "0.2";
    object      grad(U);
}
// * * * * * * * * * * * * * * * * * * * * * * * * * * * * * * * * * * * * * //

dimensions      [0 0 -1 0 0 0 0];

internalField   nonuniform List<tensor> 
400
(
(0.0394684 -0.013853 0 0.0176064 -0.0419013 0 0 0 0)
(-0.143005 0.0814591 0 -0.146954 0.175611 0 0 0 0)
(-0.362126 0.0773137 0 -0.686723 0.418061 0 0 0 0)
(-0.519869 0.048086 0 -1.51942 0.591773 0 0 0 0)
(-0.598616 0.0176662 0 -2.52602 0.678646 0 0 0 0)
(-0.602318 -0.0087837 0 -3.58567 0.681944 0 0 0 0)
(-0.541344 -0.0301197 0 -4.58547 0.612727 0 0 0 0)
(-0.4285 -0.046304 0 -5.42912 0.485119 0 0 0 0)
(-0.27724 -0.0575671 0 -6.04106 0.314117 0 0 0 0)
(-0.10124 -0.0639681 0 -6.36815 0.115113 0 0 0 0)
(0.08528 -0.0652698 0 -6.38079 -0.0958052 0 0 0 0)
(0.2671 -0.0609943 0 -6.0744 -0.301426 0 0 0 0)
(0.42783 -0.0505737 0 -5.47113 -0.483223 0 0 0 0)
(0.550161 -0.0335679 0 -4.62112 -0.621709 0 0 0 0)
(0.616788 -0.0099727 0 -3.60271 -0.697526 0 0 0 0)
(0.612358 0.0192978 0 -2.52008 -0.693645 0 0 0 0)
(0.526675 0.0517403 0 -1.49623 -0.599087 0 0 0 0)
(0.359593 0.0807441 0 -0.65977 -0.414454 0 0 0 0)
(0.135399 0.0818488 0 -0.129642 -0.164916 0 0 0 0)
(-0.0463943 -0.017182 0 0.0225124 0.0489465 0 0 0 0)
(-0.168816 0.147563 0 -0.078173 0.134152 0 0 0 0)
(-0.561324 0.378503 0 -0.385092 0.56227 0 0 0 0)
(-1.01034 0.338848 0 -0.940767 0.965611 0 0 0 0)
(-1.31943 0.212499 0 -1.65033 1.25178 0 0 0 0)
(-1.46763 0.072505 0 -2.43769 1.38951 0 0 0 0)
(-1.45713 -0.057135 0 -3.2339 1.37717 0 0 0 0)
(-1.30211 -0.166705 0 -3.97004 1.22931 0 0 0 0)
(-1.02709 -0.252306 0 -4.58404 0.969213 0 0 0 0)
(-0.66179 -0.312439 0 -5.02594 0.624508 0 0 0 0)
(-0.23849 -0.345954 0 -5.26031 0.225364 0 0 0 0)
(0.20847 -0.351269 0 -5.26773 -0.196028 0 0 0 0)
(0.64256 -0.326424 0 -5.04592 -0.605452 0 0 0 0)
(1.02545 -0.26971 0 -4.61041 -0.966985 0 0 0 0)
(1.31826 -0.180735 0 -3.99477 -1.2442 0 0 0 0)
(1.48425 -0.061963 0 -3.24979 -1.4027 0 0 0 0)
(1.49412 0.079141 0 -2.44094 -1.41463 0 0 0 0)
(1.33364 0.227451 0 -1.64219 -1.26532 0 0 0 0)
(1.007 0.353427 0 -0.927333 -0.961904 0 0 0 0)
(0.546883 0.381551 0 -0.374336 -0.54588 0 0 0 0)
(0.153524 0.133152 0 -0.0744366 -0.121085 0 0 0 0)
(-0.423797 0.682569 0 -0.0850365 0.364736 0 0 0 0)
(-1.0056 0.912918 0 -0.407808 1.05713 0 0 0 0)
(-1.62736 0.766823 0 -0.96046 1.62977 0 0 0 0)
(-2.01679 0.47199 0 -1.61911 2.01549 0 0 0 0)
(-2.18219 0.14306 0 -2.30836 2.18451 0 0 0 0)
(-2.13467 -0.16899 0 -2.97662 2.13688 0 0 0 0)
(-1.89148 -0.43808 0 -3.57687 1.89298 0 0 0 0)
(-1.4844 -0.651105 0 -4.06829 1.48557 0 0 0 0)
(-0.95351 -0.801416 0 -4.41872 0.95444 0 0 0 0)
(-0.34303 -0.884504 0 -4.60541 0.343717 0 0 0 0)
(0.29967 -0.896086 0 -4.61565 -0.299314 0 0 0 0)
(0.92442 -0.831951 0 -4.44722 -0.924544 0 0 0 0)
(1.47898 -0.689318 0 -4.10885 -1.47973 0 0 0 0)
(1.91078 -0.46928 0 -3.62069 -1.91235 0 0 0 0)
(2.17062 -0.18041 0 -3.01446 -2.17326 0 0 0 0)
(2.21996 0.15667 0 -2.33315 -2.22284 0 0 0 0)
(2.04028 0.50447 0 -1.62837 -2.03952 0 0 0 0)
(1.62745 0.800189 0 -0.957647 -1.62961 0 0 0 0)
(0.988295 0.922668 0 -0.401021 -1.03645 0 0 0 0)
(0.402378 0.649783 0 -0.0818613 -0.345093 0 0 0 0)
(-0.661661 1.56943 0 -0.0749994 0.57834 0 0 0 0)
(-1.43675 1.64354 0 -0.382318 1.52108 0 0 0 0)
(-2.22164 1.29721 0 -0.92127 2.22768 0 0 0 0)
(-2.66733 0.76724 0 -1.55381 2.66849 0 0 0 0)
(-2.82514 0.1939 0 -2.19717 2.83329 0 0 0 0)
(-2.72564 -0.34866 0 -2.80279 2.73434 0 0 0 0)
(-2.39378 -0.81802 0 -3.33338 2.40127 0 0 0 0)
(-1.86894 -1.19085 0 -3.76056 1.87498 0 0 0 0)
(-1.19891 -1.45429 0 -4.06391 1.2031 0 0 0 0)
(-0.43542 -1.59971 0 -4.22939 0.437373 0 0 0 0)
(0.36666 -1.61953 0 -4.24848 -0.367179 0 0 0 0)
(1.14936 -1.50684 0 -4.11786 -1.15242 0 0 0 0)
(1.85198 -1.25752 0 -3.83995 -1.85746 0 0 0 0)
(2.41265 -0.87426 0 -3.42415 -2.4202 0 0 0 0)
(2.77179 -0.37245 0 -2.88908 -2.78108 0 0 0 0)
(2.88021 0.21288 0 -2.265 -2.88923 0 0 0 0)
(2.70914 0.82068 0 -1.59509 -2.71126 0 0 0 0)
(2.23435 1.35649 0 -0.93687 -2.24052 0 0 0 0)
(1.42267 1.66607 0 -0.382073 -1.50337 0 0 0 0)
(0.636406 1.5147 0 -0.0726515 -0.5547 0 0 0 0)
(-0.881114 2.78199 0 -0.0679115 0.773235 0 0 0 0)
(-1.85187 2.56226 0 -0.362574 1.96459 0 0 0 0)
(-2.79886 1.91423 0 -0.89058 2.80194 0 0 0 0)
(-3.29269 1.0776 0 -1.50832 3.28618 0 0 0 0)
(-3.43117 0.20891 0 -2.12682 3.43274 0 0 0 0)
(-3.27088 -0.60101 0 -2.697 3.27317 0 0 0 0)
(-2.84925 -1.29744 0 -3.18681 2.85091 0 0 0 0)
(-2.21493 -1.84927 0 -3.57615 2.21642 0 0 0 0)
(-1.42234 -2.23902 0 -3.85347 1.42369 0 0 0 0)
(-0.5276 -2.45479 0 -4.01134 0.528661 0 0 0 0)
(0.4112 -2.48588 0 -4.04415 -0.410604 0 0 0 0)
(1.33295 -2.32223 0 -3.9468 -1.33299 0 0 0 0)
(2.17269 -1.9571 0 -3.71571 -2.17343 0 0 0 0)
(2.86165 -1.3929 0 -3.35068 -2.86322 0 0 0 0)
(3.32977 -0.64944 0 -2.85958 -3.33265 0 0 0 0)
(3.51395 0.22649 0 -2.26375 -3.51658 0 0 0 0)
(3.36841 1.15318 0 -1.60263 -3.36325 0 0 0 0)
(2.84046 2.00808 0 -0.93824 -2.84426 0 0 0 0)
(1.85251 2.60849 0 -0.37485 -1.96228 0 0 0 0)
(0.857103 2.70785 0 -0.067597 -0.75007 0 0 0 0)
(-1.09215 4.30725 0 -0.06611 0.959548 0 0 0 0)
(-2.25942 3.67224 0 -0.358516 2.40119 0 0 0 0)
(-3.36739 2.6188 0 -0.88455 3.37115 0 0 0 0)
(-3.90357 1.39804 0 -1.49451 3.89432 0 0 0 0)
(-4.01382 0.18089 0 -2.09419 4.01428 0 0 0 0)
(-3.78563 -0.93049 0 -2.6346 3.7869 0 0 0 0)
(-3.27293 -1.87477 0 -3.08893 3.27363 0 0 0 0)
(-2.5356 -2.61807 0 -3.44554 2.53638 0 0 0 0)
(-1.6341 -3.14205 0 -3.7013 1.63497 0 0 0 0)
(-0.6261 -3.434 0 -3.8555 0.626973 0 0 0 0)
(0.4312 -3.48118 0 -3.9054 -0.430372 0 0 0 0)
(1.4778 -3.26967 0 -3.8443 -1.47721 0 0 0 0)
(2.4481 -2.78775 0 -3.66205 -2.44795 0 0 0 0)
(3.26878 -2.03348 0 -3.34849 -3.26931 0 0 0 0)
(3.85872 -1.02581 0 -2.89972 -3.86077 0 0 0 0)
(4.13716 0.18228 0 -2.32711 -4.13909 0 0 0 0)
(4.03465 1.493 0 -1.66553 -4.02726 0 0 0 0)
(3.46213 2.75746 0 -0.98094 -3.46739 0 0 0 0)
(2.29331 3.76026 0 -0.391283 -2.43412 0 0 0 0)
(1.07885 4.22705 0 -0.069636 -0.945018 0 0 0 0)
(-1.30574 6.14273 0 -0.069265 1.14756 0 0 0 0)
(-2.67031 4.97386 0 -0.370778 2.84181 0 0 0 0)
(-3.93485 3.40736 0 -0.90433 3.94007 0 0 0 0)
(-4.50233 1.72073 0 -1.50802 4.49123 0 0 0 0)
(-4.57126 0.10149 0 -2.08221 4.57154 0 0 0 0)
(-4.26562 -1.34166 0 -2.58063 4.26684 0 0 0 0)
(-3.66019 -2.54796 0 -2.985 3.6606 0 0 0 0)
(-2.8273 -3.48793 0 -3.2951 2.82776 0 0 0 0)
(-1.8323 -4.14843 0 -3.5187 1.83301 0 0 0 0)
(-0.7317 -4.52013 0 -3.664 0.732579 0 0 0 0)
(0.4224 -4.59006 0 -3.7322 -0.421508 0 0 0 0)
(1.5763 -4.33981 0 -3.7157 -1.57558 0 0 0 0)
(2.6685 -3.7492 0 -3.5971 -2.66814 0 0 0 0)
(3.62398 -2.80572 0 -3.3542 -3.62437 0 0 0 0)
(4.35115 -1.51922 0 -2.96788 -4.35345 0 0 0 0)
(4.74814 0.06 0 -2.43439 -4.7504 0 0 0 0)
(4.71458 1.82488 0 -1.77876 -4.70593 0 0 0 0)
(4.11471 3.60122 0 -1.06719 -4.1225 0 0 0 0)
(2.76382 5.13086 0 -0.433205 -2.93844 0 0 0 0)
(1.31802 6.08699 0 -0.078868 -1.15459 0 0 0 0)
(-1.53219 8.29662 0 -0.077189 1.34668 0 0 0 0)
(-3.09448 6.46475 0 -0.39882 3.29754 0 0 0 0)
(-4.50463 4.26822 0 -0.9468 4.51131 0 0 0 0)
(-5.08145 2.02951 0 -1.53745 5.06804 0 0 0 0)
(-5.08643 -0.0435 0 -2.06505 5.08608 0 0 0 0)
(-4.68842 -1.84143 0 -2.49059 4.68895 0 0 0 0)
(-3.9874 -3.31385 0 -2.8105 3.98694 0 0 0 0)
(-3.0693 -4.44566 0 -3.0413 3.06907 0 0 0 0)
(-2.003 -5.23723 0 -3.2072 2.00316 0 0 0 0)
(-0.8396 -5.68852 0 -3.3281 0.84012 0 0 0 0)
(0.3795 -5.78934 0 -3.4124 -0.37866 0 0 0 0)
(1.6129 -5.5163 0 -3.4521 -1.61198 0 0 0 0)
(2.8096 -4.83654 0 -3.4227 -2.80872 0 0 0 0)
(3.898 -3.71879 0 -3.2869 -3.8978 0 0 0 0)
(4.77853 -2.15184 0 -3.00478 -4.78057 0 0 0 0)
(5.32628 -0.1702 0 -2.54915 -5.32858 0 0 0 0)
(5.40185 2.1209 0 -1.92541 -5.39137 0 0 0 0)
(4.80768 4.52495 0 -1.19248 -4.81836 0 0 0 0)
(3.28163 6.72817 0 -0.50055 -3.49494 0 0 0 0)
(1.59093 8.32008 0 -0.095482 -1.39353 0 0 0 0)
(-1.78175 10.7869 0 -0.090806 1.56626 0 0 0 0)
(-3.53992 8.13849 0 -0.44432 3.77836 0 0 0 0)
(-5.07348 5.17786 0 -1.00954 5.08191 0 0 0 0)
(-5.62058 2.2955 0 -1.56855 5.6042 0 0 0 0)
(-5.5244 -0.2776 0 -2.00972 5.5229 0 0 0 0)
(-5.01107 -2.4408 0 -2.3094 5.0105 0 0 0 0)
(-4.2109 -4.16784 0 -2.4877 4.20913 0 0 0 0)
(-3.224 -5.47171 0 -2.5865 3.22245 0 0 0 0)
(-2.1191 -6.37738 0 -2.6524 2.11832 0 0 0 0)
(-0.9369 -6.90195 0 -2.7223 0.93687 0 0 0 0)
(0.2984 -7.04216 0 -2.8146 -0.29782 0 0 0 0)
(1.566 -6.76987 0 -2.9233 -1.56495 0 0 0 0)
(2.8337 -6.03502 0 -3.0171 -2.83233 0 0 0 0)
(4.0419 -4.77757 0 -3.0413 -4.04104 0 0 0 0)
(5.0889 -2.95 0 -2.9286 -5.0905 0 0 0 0)
(5.82751 -0.5508 0 -2.61733 -5.8294 0 0 0 0)
(6.07125 2.3351 0 -2.0782 -6.0583 0 0 0 0)
(5.53957 5.49765 0 -1.34917 -5.5538 0 0 0 0)
(3.86082 8.55569 0 -0.59444 -4.12055 0 0 0 0)
(1.91405 10.9755 0 -0.120751 -1.67676 0 0 0 0)
(-2.06731 13.6412 0 -0.113284 1.81809 0 0 0 0)
(-4.01321 9.9804 0 -0.51408 4.29346 0 0 0 0)
(-5.62886 6.09406 0 -1.09379 5.6394 0 0 0 0)
(-6.08163 2.4705 0 -1.58484 6.0613 0 0 0 0)
(-5.82728 -0.6372 0 -1.87407 5.8237 0 0 0 0)
(-5.1664 -3.1552 0 -1.9666 5.1639 0 0 0 0)
(-4.2645 -5.1019 0 -1.92 4.2608 0 0 0 0)
(-3.234 -6.53647 0 -1.8121 3.23094 0 0 0 0)
(-2.1388 -7.52281 0 -1.7186 2.13664 0 0 0 0)
(-1.0018 -8.10466 0 -1.6982 1.00066 0 0 0 0)
(0.1785 -8.29116 0 -1.7827 -0.17841 0 0 0 0)
(1.4104 -8.05081 0 -1.9714 -1.40931 0 0 0 0)
(2.6916 -7.31263 0 -2.2277 -2.68967 0 0 0 0)
(3.9865 -5.97696 0 -2.4796 -3.9845 0 0 0 0)
(5.2025 -3.9402 0 -2.6269 -5.2032 0 0 0 0)
(6.17668 -1.138 0 -2.5606 -6.1775 0 0 0 0)
(6.67001 2.3965 0 -2.19631 -6.6534 0 0 0 0)
(6.29144 6.4627 0 -1.52708 -6.3101 0 0 0 0)
(4.51005 10.6052 0 -0.71937 -4.82745 0 0 0 0)
(2.30612 14.1174 0 -0.158119 -2.02137 0 0 0 0)
(-2.40911 16.8985 0 -0.151825 2.12123 0 0 0 0)
(-4.52043 11.9598 0 -0.62311 4.85296 0 0 0 0)
(-6.14424 6.9457 0 -1.20481 6.1569 0 0 0 0)
(-6.40086 2.4798 0 -1.56303 6.3747 0 0 0 0)
(-5.90616 -1.175 0 -1.5977 5.8992 0 0 0 0)
(-5.057 -4.0037 0 -1.3663 5.0516 0 0 0 0)
(-4.0564 -6.1008 0 -0.9827 4.05 0 0 0 0)
(-3.0226 -7.59587 0 -0.5718 3.0171 0 0 0 0)
(-2.0052 -8.60766 0 -0.2441 2.00124 0 0 0 0)
(-1.001 -9.217 0 -0.0823 0.99865 0 0 0 0)
(0.0252 -9.45213 0 -0.1343 -0.02588 0 0 0 0)
(1.121 -9.28113 0 -0.4079 -1.11989 0 0 0 0)
(2.3255 -8.61021 0 -0.866 -2.32266 0 0 0 0)
(3.6427 -7.2911 0 -1.4229 -3.6391 0 0 0 0)
(5.0079 -5.143 0 -1.9447 -5.0066 0 0 0 0)
(6.2581 -2.001 0 -2.2641 -6.2565 0 0 0 0)
(7.10477 2.2025 0 -2.21588 -7.0823 0 0 0 0)
(7.01651 7.3236 0 -1.71024 -7.0402 0 0 0 0)
(5.22978 12.8444 0 -0.88509 -5.6208 0 0 0 0)
(2.79154 17.8243 0 -0.214888 -2.45049 0 0 0 0)
(-2.84225 20.6154 0 -0.220809 2.51018 0 0 0 0)
(-5.0662 14.0161 0 -0.79819 5.4675 0 0 0 0)
(-6.56878 7.6158 0 -1.34676 6.5824 0 0 0 0)
(-6.47452 2.2128 0 -1.45798 6.4387 0 0 0 0)
(-5.63055 -1.9603 0 -1.0817 5.618 0 0 0 0)
(-4.5514 -5.0044 0 -0.3668 4.5416 0 0 0 0)
(-3.47 -7.1364 0 0.4931 3.4599 0 0 0 0)
(-2.4954 -8.58523 0 1.3179 2.4872 0 0 0 0)
(-1.6493 -9.54126 0 1.9621 1.64354 0 0 0 0)
(-0.892 -10.1318 0 2.3217 0.88847 0 0 0 0)
(-0.1471 -10.4097 0 2.3347 0.14587 0 0 0 0)
(0.6787 -10.3476 0 1.982 -0.67738 0 0 0 0)
(1.6766 -9.83184 0 1.2931 -1.6723 0 0 0 0)
(2.9078 -8.6609 0 0.3567 -2.9015 0 0 0 0)
(4.3613 -6.5576 0 -0.6687 -4.3563 0 0 0 0)
(5.9055 -3.2137 0 -1.5549 -5.8987 0 0 0 0)
(7.22387 1.6128 0 -2.0301 -7.1909 0 0 0 0)
(7.62223 7.9242 0 -1.86648 -7.6497 0 0 0 0)
(6.00541 15.1949 0 -1.10783 -6.4921 0 0 0 0)
(3.40609 22.1887 0 -0.30511 -3.00008 0 0 0 0)
(-3.42811 24.8762 0 -0.346702 3.04784 0 0 0 0)
(-5.64638 16.032 0 -1.07897 6.141 0 0 0 0)
(-6.80403 7.9169 0 -1.50332 6.8136 0 0 0 0)
(-6.1358 1.5154 0 -1.16535 6.0825 0 0 0 0)
(-4.81498 -3.0721 0 -0.1462 4.7929 0 0 0 0)
(-3.4822 -6.1618 0 1.2556 3.4662 0 0 0 0)
(-2.3717 -8.1552 0 2.7453 2.3571 0 0 0 0)
(-1.5536 -9.41223 0 4.0892 1.5428 0 0 0 0)
(-1.0014 -10.2064 0 5.1196 0.9942 0 0 0 0)
(-0.6284 -10.7147 0 5.7249 0.62434 0 0 0 0)
(-0.3145 -11.018 0 5.8373 0.31354 0 0 0 0)
(0.0794 -11.0993 0 5.4262 -0.07686 0 0 0 0)
(0.7002 -10.8343 0 4.5032 -0.6934 0 0 0 0)
(1.6809 -9.9751 0 3.1389 -1.6699 0 0 0 0)
(3.0963 -8.1402 0 1.4912 -3.0845 0 0 0 0)
(4.8967 -4.8356 0 -0.1686 -4.8795 0 0 0 0)
(6.79319 0.4515 0 -1.4506 -6.7409 0 0 0 0)
(7.93878 8.0224 0 -1.92064 -7.964 0 0 0 0)
(6.79115 17.494 0 -1.40644 -7.4014 0 0 0 0)
(4.20448 27.3165 0 -0.453425 -3.72862 0 0 0 0)
(-4.26792 29.8043 0 -0.571608 3.84112 0 0 0 0)
(-6.22282 17.7818 0 -1.50346 6.8407 0 0 0 0)
(-6.65516 7.5573 0 -1.57904 6.6475 0 0 0 0)
(-5.1174 0.1921 0 -0.43738 5.0358 0 0 0 0)
(-3.2096 -4.5766 0 1.5501 3.1741 0 0 0 0)
(-1.6599 -7.4402 0 3.866 1.6367 0 0 0 0)
(-0.6364 -9.0598 0 6.11332 0.6183 0 0 0 0)
(-0.1211 -9.94813 0 8.03273 0.1093 0 0 0 0)
(-0.0136 -10.4597 0 9.46901 0.00708 0 0 0 0)
(-0.1743 -10.8124 0 10.3322 0.17166 0 0 0 0)
(-0.4458 -11.1109 0 10.5671 0.446727 0 0 0 0)
(-0.6554 -11.3545 0 10.1364 0.66046 0 0 0 0)
(-0.6107 -11.4249 0 9.02221 0.6212 0 0 0 0)
(-0.1042 -11.052 0 7.2472 0.1213 0 0 0 0)
(1.0538 -9.7672 0 4.92 -1.0324 0 0 0 0)
(2.9637 -6.8701 0 2.3005 -2.9306 0 0 0 0)
(5.47183 -1.4717 0 -0.1331 -5.3878 0 0 0 0)
(7.66639 7.2637 0 -1.6876 -7.6737 0 0 0 0)
(7.47262 19.4303 0 -1.77605 -8.2319 0 0 0 0)
(5.26596 33.3187 0 -0.694427 -4.72454 0 0 0 0)
(-5.50318 35.558 0 -0.935718 5.06173 0 0 0 0)
(-6.65381 18.8384 0 -2.02815 7.4134 0 0 0 0)
(-5.73795 6.112 0 -1.23734 5.6847 0 0 0 0)
(-3.00666 -1.958 0 1.29435 2.8881 0 0 0 0)
(-0.5116 -6.4712 0 4.64661 0.4658 0 0 0 0)
(1.08102 -8.7176 0 8.05164 -1.1058 0 0 0 0)
(1.79503 -9.6826 0 11.0703 -1.8106 0 0 0 0)
(1.80209 -10.0234 0 13.4946 -1.809 0 0 0 0)
(1.29808 -10.144 0 15.2463 -1.29917 0 0 0 0)
(0.46966 -10.275 0 16.3032 -0.46713 0 0 0 0)
(-0.51033 -10.5292 0 16.6504 0.515722 0 0 0 0)
(-1.46546 -10.9248 0 16.2559 1.47428 0 0 0 0)
(-2.18898 -11.3735 0 15.0645 2.2034 0 0 0 0)
(-2.42131 -11.6287 0 13.017 2.4438 0 0 0 0)
(-1.8504 -11.1921 0 10.1032 1.8809 0 0 0 0)
(-0.1564 -9.191 0 6.4656 0.2073 0 0 0 0)
(2.80509 -4.2916 0 2.55465 -2.6778 0 0 0 0)
(6.29583 5.1783 0 -0.71289 -6.2535 0 0 0 0)
(7.78432 20.4432 0 -2.08405 -8.6925 0 0 0 0)
(6.67496 40.2729 0 -1.04177 -6.1141 0 0 0 0)
(-7.23179 42.2794 0 -1.36819 7.0079 0 0 0 0)
(-6.52444 18.4048 0 -2.25135 7.3818 0 0 0 0)
(-3.33266 3.032 0 0.49671 3.1339 0 0 0 0)
(0.76655 -5.0268 0 5.25547 -0.9679 0 0 0 0)
(3.54769 -8.5705 0 10.2778 -3.6236 0 0 0 0)
(4.76381 -9.7166 0 14.6955 -4.7989 0 0 0 0)
(4.8066 -9.763 0 18.2188 -4.8223 0 0 0 0)
(4.05492 -9.4367 0 20.8313 -4.0568 0 0 0 0)
(2.79494 -9.11785 0 22.6208 -2.78926 0 0 0 0)
(1.22979 -8.99755 0 23.6838 -1.22017 0 0 0 0)
(-0.49309 -9.16949 0 24.0748 0.505539 0 0 0 0)
(-2.24136 -9.66685 0 23.783 2.25772 0 0 0 0)
(-3.84962 -10.4554 0 22.7198 3.8735 0 0 0 0)
(-5.06552 -11.3745 0 20.7232 5.1028 0 0 0 0)
(-5.49757 -12.0037 0 17.5951 5.5546 0 0 0 0)
(-4.5848 -11.4288 0 13.2112 4.6848 0 0 0 0)
(-1.70666 -7.9325 0 7.74344 1.9305 0 0 0 0)
(3.02769 1.249 0 2.05875 -2.836 0 0 0 0)
(7.14374 19.5697 0 -1.77397 -8.1214 0 0 0 0)
(8.39178 48.1253 0 -1.34819 -8.1032 0 0 0 0)
(-9.12272 49.9477 0 -1.20991 9.8519 0 0 0 0)
(-4.78891 14.9644 0 -0.60746 5.3629 0 0 0 0)
(1.76887 -2.2377 0 6.08482 -2.4206 0 0 0 0)
(6.77442 -8.7155 0 13.8629 -7.2335 0 0 0 0)
(8.92842 -10.3022 0 20.2689 -9.1495 0 0 0 0)
(9.02202 -9.9163 0 24.9609 -9.137 0 0 0 0)
(7.93081 -8.9405 0 28.1806 -7.98783 0 0 0 0)
(6.20409 -7.99041 0 30.2777 -6.22759 0 0 0 0)
(4.1506 -7.3074 0 31.5738 -4.15519 0 0 0 0)
(1.9237 -6.98022 0 32.3039 -1.91662 0 0 0 0)
(-0.4111 -7.05129 0 32.599 0.427802 0 0 0 0)
(-2.8205 -7.55687 0 32.4806 2.84888 0 0 0 0)
(-5.2488 -8.52841 0 31.8499 5.29563 0 0 0 0)
(-7.54601 -9.9476 0 30.4648 7.62621 0 0 0 0)
(-9.36238 -11.6101 0 27.9265 9.5045 0 0 0 0)
(-10.0081 -12.8151 0 23.7171 10.2679 0 0 0 0)
(-8.34738 -11.8124 0 17.3451 8.8348 0 0 0 0)
(-3.22158 -4.8736 0 8.88761 3.8536 0 0 0 0)
(4.37738 15.176 0 0.86119 -4.9326 0 0 0 0)
(9.79712 56.4975 0 -0.78256 -10.5647 0 0 0 0)
(-9.04916 57.4942 0 3.35334 10.0152 0 0 0 0)
(0.77029 6.1323 0 8.55599 -2.2795 0 0 0 0)
(11.1377 -9.5644 0 21.2404 -12.0382 0 0 0 0)
(14.9506 -11.7557 0 31.2544 -15.1915 0 0 0 0)
(14.6457 -10.474 0 36.9956 -14.7016 0 0 0 0)
(12.6755 -8.55493 0 39.9158 -12.6593 0 0 0 0)
(10.1234 -6.85359 0 41.2105 -10.0801 0 0 0 0)
(7.4481 -5.60406 0 41.6354 -7.40789 0 0 0 0)
(4.8212 -4.80688 0 41.6762 -4.79342 0 0 0 0)
(2.255 -4.41456 0 41.6276 -2.24046 0 0 0 0)
(-0.3164 -4.40399 0 41.6458 0.317658 0 0 0 0)
(-2.9904 -4.79902 0 41.7778 2.97797 0 0 0 0)
(-5.8654 -5.67803 0 41.9593 5.83935 0 0 0 0)
(-8.9889 -7.16563 0 41.9709 8.9575 0 0 0 0)
(-12.2453 -9.36201 0 41.3527 12.2458 0 0 0 0)
(-15.1662 -12.0985 0 39.2741 15.2627 0 0 0 0)
(-16.5361 -14.3468 0 34.3013 16.8127 0 0 0 0)
(-13.4562 -12.5184 0 24.5101 14.3749 0 0 0 0)
(-2.52643 5.1514 0 11.1229 4.4948 0 0 0 0)
(8.31315 63.6226 0 4.63429 -9.1622 0 0 0 0)
(2.78661 57.6834 0 32.9253 -9.3085 0 0 0 0)
(13.0982 -7.089 0 45.7114 -20.8263 0 0 0 0)
(24.4673 -15.1497 0 57.9366 -22.441 0 0 0 0)
(22.5296 -11.3789 0 62.3953 -19.6399 0 0 0 0)
(17.5898 -7.77002 0 61.6327 -15.737 0 0 0 0)
(13.2369 -5.29484 0 59.0159 -12.014 0 0 0 0)
(9.6504 -3.68907 0 56.1166 -8.81808 0 0 0 0)
(6.6698 -2.70374 0 53.5724 -6.1337 0 0 0 0)
(4.1428 -2.13997 0 51.6583 -3.83251 0 0 0 0)
(1.8933 -1.86915 0 50.4928 -1.7628 0 0 0 0)
(-0.2609 -1.83286 0 50.1313 0.229418 0 0 0 0)
(-2.507 -2.03517 0 50.6103 2.30478 0 0 0 0)
(-5.0557 -2.54888 0 51.9552 4.64454 0 0 0 0)
(-8.1526 -3.54119 0 54.1517 7.46192 0 0 0 0)
(-12.0592 -5.30489 0 57.0521 10.9908 0 0 0 0)
(-17.0595 -8.24816 0 60.1452 15.3891 0 0 0 0)
(-23.1114 -12.7002 0 61.9215 20.4142 0 0 0 0)
(-26.3999 -17.1915 0 58.7148 24.6471 0 0 0 0)
(-15.4984 -8.3611 0 47.0499 24.0741 0 0 0 0)
(-5.9601 61.1649 0 33.728 11.8149 0 0 0 0)
(69.5876 27.3594 0 169.231 -42.7953 0 0 0 0)
(25.7816 -7.00016 0 158.395 -42.2475 0 0 0 0)
(27.8215 -8.378 0 130.351 -28.7061 0 0 0 0)
(18.6467 -5.05177 0 106.106 -18.7198 0 0 0 0)
(11.2663 -2.84813 0 89.1752 -12.2755 0 0 0 0)
(7.1594 -1.63598 0 77.2496 -8.10165 0 0 0 0)
(4.6799 -0.973259 0 68.7789 -5.3447 0 0 0 0)
(2.9898 -0.618492 0 62.9193 -3.43932 0 0 0 0)
(1.7416 -0.435979 0 59.1193 -2.02247 0 0 0 0)
(0.728 -0.352629 0 57.0349 -0.86337 0 0 0 0)
(-0.1989 -0.336417 0 56.498 0.199304 0 0 0 0)
(-1.1665 -0.383898 0 57.4947 1.3059 0 0 0 0)
(-2.324 -0.520889 0 60.1715 2.61838 0 0 0 0)
(-3.892 -0.819364 0 64.8744 4.37567 0 0 0 0)
(-6.2518 -1.43488 0 72.2161 6.97893 0 0 0 0)
(-10.2968 -2.67507 0 83.1854 11.1154 0 0 0 0)
(-17.9666 -5.08874 0 99.5724 17.9022 0 0 0 0)
(-28.3279 -8.85854 0 124.263 28.9044 0 0 0 0)
(-27.5132 -7.68081 0 154.3 43.9522 0 0 0 0)
(-72.4647 27.7336 0 167.275 44.9463 0 0 0 0)
)
;

boundaryField
{
    movingWall
    {
        type            extrapolatedCalculated;
        value           nonuniform List<tensor> 
20
(
(69.5876 27.3594 0 280.158 -58.4364 0 0 0 0)
(25.7816 -7.00016 0 241.491 -51.0012 0 0 0 0)
(27.8215 -8.378 0 177.032 -30.4358 0 0 0 0)
(18.6467 -5.05177 0 130.205 -17.4892 0 0 0 0)
(11.2663 -2.84813 0 102.445 -10.2287 0 0 0 0)
(7.1594 -1.63598 0 85.14 -6.09668 0 0 0 0)
(4.6799 -0.973259 0 73.8076 -3.68477 0 0 0 0)
(2.9898 -0.618492 0 66.4204 -2.20364 0 0 0 0)
(1.7416 -0.435979 0 61.8484 -1.2108 0 0 0 0)
(0.728 -0.352629 0 59.454 -0.459728 0 0 0 0)
(-0.1989 -0.336417 0 58.9364 0.19971 0 0 0 0)
(-1.1665 -0.383898 0 60.2496 0.88594 0 0 0 0)
(-2.324 -0.520889 0 63.6024 1.7353 0 0 0 0)
(-3.892 -0.819364 0 69.5456 2.9695 0 0 0 0)
(-6.2518 -1.43488 0 79.1704 5.01276 0 0 0 0)
(-10.2968 -2.67507 0 94.5528 8.709 0 0 0 0)
(-17.9666 -5.08874 0 120.358 15.713 0 0 0 0)
(-28.3279 -8.85854 0 166.419 29.064 0 0 0 0)
(-27.5132 -7.68081 0 233.669 51.1472 0 0 0 0)
(-72.4647 27.7336 0 276.472 59.7872 0 0 0 0)
)
;
    }
    fixedWalls
    {
        type            extrapolatedCalculated;
        value           nonuniform List<tensor> 
60
(
(0.10137 -0.10004 0 0.0176064 -0.0419013 0 0 0 0)
(-0.030944 -0.0675648 0 -0.078173 0.134152 0 0 0 0)
(-0.211322 0.436568 0 -0.0850365 0.364736 0 0 0 0)
(-0.37109 1.39138 0 -0.0749994 0.57834 0 0 0 0)
(-0.51132 2.74993 0 -0.0679115 0.773235 0 0 0 0)
(-0.642736 4.48432 0 -0.06611 0.959548 0 0 0 0)
(-0.77576 6.58812 0 -0.069265 1.14756 0 0 0 0)
(-0.919796 9.07456 0 -0.077189 1.34668 0 0 0 0)
(-1.08452 11.9748 0 -0.090806 1.56626 0 0 0 0)
(-1.28302 15.3396 0 -0.113284 1.81809 0 0 0 0)
(-1.53765 19.2472 0 -0.151825 2.12123 0 0 0 0)
(-1.89032 23.8245 0 -0.220809 2.51018 0 0 0 0)
(-2.42089 29.2879 0 -0.346702 3.04784 0 0 0 0)
(-3.27713 36.0159 0 -0.571608 3.84112 0 0 0 0)
(-4.70732 44.6524 0 -0.935718 5.06173 0 0 0 0)
(-7.02 56.2628 0 -1.36819 7.0079 0 0 0 0)
(-10.1801 72.684 0 -1.20991 9.8519 0 0 0 0)
(-11.8596 95.6704 0 3.35334 10.0152 0 0 0 0)
(3.2333 112.745 0 32.9253 -9.3085 0 0 0 0)
(119.842 58.4364 0 169.231 -42.7953 0 0 0 0)
(-0.107088 -0.104892 0 0.0225124 0.0489465 0 0 0 0)
(0.017039 -0.0908936 0 -0.0744366 -0.121085 0 0 0 0)
(0.190658 0.379448 0 -0.0818613 -0.345093 0 0 0 0)
(0.344484 1.28948 0 -0.0726515 -0.5547 0 0 0 0)
(0.481264 2.59825 0 -0.067597 -0.75007 0 0 0 0)
(0.614872 4.28976 0 -0.069636 -0.945018 0 0 0 0)
(0.759808 6.37832 0 -0.078868 -1.15459 0 0 0 0)
(0.930344 8.90812 0 -0.095482 -1.39353 0 0 0 0)
(1.14174 11.9524 0 -0.120751 -1.67676 0 0 0 0)
(1.41335 15.6152 0 -0.158119 -2.02137 0 0 0 0)
(1.77421 20.0379 0 -0.214888 -2.45049 0 0 0 0)
(2.2729 25.4171 0 -0.30511 -3.00008 0 0 0 0)
(2.99465 32.0382 0 -0.453425 -3.72862 0 0 0 0)
(4.0866 40.3316 0 -0.694427 -4.72454 0 0 0 0)
(5.77236 50.9364 0 -1.04177 -6.1141 0 0 0 0)
(8.25368 64.788 0 -1.34819 -8.1032 0 0 0 0)
(11.1651 83.3492 0 -0.78256 -10.5647 0 0 0 0)
(11.3839 107.047 0 4.63429 -9.1622 0 0 0 0)
(-7.37204 119.998 0 33.728 11.8149 0 0 0 0)
(-123.528 59.7872 0 167.275 44.9463 0 0 0 0)
(0.0394684 -0.013853 0 0.10137 -0.10004 0 0 0 0)
(-0.143005 0.0814591 0 0.056504 0.0446284 0 0 0 0)
(-0.362126 0.0773137 0 -0.470652 0.225796 0 0 0 0)
(-0.519869 0.048086 0 -1.392 0.353883 0 0 0 0)
(-0.598616 0.0176662 0 -2.55013 0.41814 0 0 0 0)
(-0.602318 -0.0087837 0 -3.78646 0.424548 0 0 0 0)
(-0.541344 -0.0301197 0 -4.9594 0.383005 0 0 0 0)
(-0.4285 -0.046304 0 -5.95184 0.304069 0 0 0 0)
(-0.27724 -0.0575671 0 -6.6734 0.197789 0 0 0 0)
(-0.10124 -0.0639681 0 -7.0608 0.0738008 0 0 0 0)
(0.08528 -0.0652698 0 -7.07836 -0.0580832 0 0 0 0)
(0.2671 -0.0609943 0 -6.71968 -0.187278 0 0 0 0)
(0.42783 -0.0505737 0 -6.00996 -0.30206 0 0 0 0)
(0.550161 -0.0335679 0 -5.00836 -0.389573 0 0 0 0)
(0.616788 -0.0099727 0 -3.80932 -0.436332 0 0 0 0)
(0.612358 0.0192978 0 -2.54121 -0.429464 0 0 0 0)
(0.526675 0.0517403 0 -1.35988 -0.359141 0 0 0 0)
(0.359593 0.0807441 0 -0.434508 -0.222503 0 0 0 0)
(0.135399 0.0818488 0 0.0784888 -0.0361643 0 0 0 0)
(-0.0463943 -0.017182 0 0.107088 0.104892 0 0 0 0)
)
;
    }
    frontAndBack
    {
        type            empty;
    }
}


// ************************************************************************* //
