/*--------------------------------*- C++ -*----------------------------------*\
  =========                 |
  \\      /  F ield         | OpenFOAM: The Open Source CFD Toolbox
   \\    /   O peration     | Website:  https://openfoam.org
    \\  /    A nd           | Version:  dev
     \\/     M anipulation  |
\*---------------------------------------------------------------------------*/
FoamFile
{
    format      ascii;
    class       volScalarField;
    location    "49.95";
    object      Ux;
}
// * * * * * * * * * * * * * * * * * * * * * * * * * * * * * * * * * * * * * //

dimensions      [0 1 -1 0 0 0 0];

internalField   nonuniform List<scalar> 
5184
(
1.24632e-05
4.5392e-05
8.04776e-05
9.61044e-05
8.22662e-05
3.65593e-05
-4.04772e-05
-0.000146826
-0.000279693
-0.00043602
-0.000612687
-0.000806658
-0.00101507
-0.00123524
-0.00146473
-0.00170127
-0.00194278
-0.00218735
-0.0024332
-0.00267864
-0.00292207
-0.00316192
-0.00339666
-0.00362477
-0.00384472
-0.00405498
-0.00425397
-0.00444014
-0.00461189
-0.00476765
-0.00490586
-0.005025
-0.0051236
-0.00520028
-0.00525379
-0.00528301
-0.00528699
-0.00526501
-0.00521656
-0.00514142
-0.00503965
-0.00491162
-0.00475804
-0.00457997
-0.00437881
-0.00415632
-0.00391459
-0.00365604
-0.00338342
-0.00309972
-0.00280819
-0.00251225
-0.00221547
-0.00192151
-0.00163404
-0.00135672
-0.00109306
-0.000846461
-0.000620053
-0.000416693
-0.000238878
-8.86862e-05
3.22937e-05
0.000123048
0.000183246
0.00021339
0.00021507
0.000191339
0.000147229
9.08363e-05
3.66364e-05
6.22477e-06
2.09378e-05
6.58178e-05
9.49211e-05
7.30106e-05
-1.87496e-05
-0.000187184
-0.000432881
-0.000752623
-0.00114087
-0.00159082
-0.00209515
-0.0026464
-0.00323725
-0.00386071
-0.00451017
-0.00517944
-0.0058627
-0.00655452
-0.00724976
-0.00794352
-0.00863111
-0.00930797
-0.00996963
-0.0106117
-0.0112297
-0.0118192
-0.0123759
-0.0128953
-0.0133731
-0.0138048
-0.0141863
-0.0145135
-0.0147824
-0.0149894
-0.0151313
-0.0152052
-0.0152087
-0.0151401
-0.0149982
-0.0147827
-0.0144939
-0.0141331
-0.0137024
-0.0132049
-0.0126444
-0.0120259
-0.0113551
-0.0106387
-0.00988393
-0.00909903
-0.00829266
-0.00747401
-0.00665262
-0.00583822
-0.0050406
-0.00426944
-0.00353412
-0.00284356
-0.00220605
-0.00162906
-0.00111908
-0.000681396
-0.00031993
-3.69613e-05
0.000167144
0.000294311
0.000349293
0.000340368
0.000280036
0.000186156
8.64039e-05
1.96818e-05
1.76837e-05
4.14566e-05
1.97659e-05
-8.38363e-05
-0.000290136
-0.000607883
-0.00103834
-0.00157769
-0.00221877
-0.00295239
-0.00376826
-0.00465568
-0.00560391
-0.00660249
-0.00764137
-0.00871097
-0.0098022
-0.0109065
-0.0120156
-0.0131216
-0.0142171
-0.0152945
-0.0163468
-0.0173667
-0.0183471
-0.0192811
-0.0201615
-0.0209814
-0.021734
-0.0224124
-0.0230101
-0.0235208
-0.0239386
-0.024258
-0.024474
-0.0245825
-0.0245801
-0.0244642
-0.0242334
-0.0238873
-0.0234268
-0.022854
-0.0221723
-0.0213867
-0.0205034
-0.0195299
-0.0184753
-0.0173497
-0.0161646
-0.0149324
-0.0136664
-0.0123807
-0.0110897
-0.00980845
-0.00855168
-0.00733417
-0.00617016
-0.00507318
-0.00405578
-0.00312924
-0.0023033
-0.00158586
-0.000982637
-0.000496875
-0.000128878
0.000124425
0.000270135
0.000320112
0.000291502
0.000207544
0.000102511
2.49862e-05
8.86518e-06
-6.93649e-06
-0.000107484
-0.000322295
-0.00066962
-0.00115787
-0.00178778
-0.0025546
-0.00344976
-0.00446225
-0.00557957
-0.00678852
-0.00807567
-0.00942778
-0.0108319
-0.0122757
-0.0137471
-0.0152349
-0.0167279
-0.0182158
-0.0196882
-0.0211352
-0.0225471
-0.0239141
-0.0252268
-0.0264756
-0.0276512
-0.0287443
-0.0297458
-0.0306469
-0.0314389
-0.0321136
-0.0326635
-0.0330814
-0.0333613
-0.0334977
-0.0334865
-0.0333246
-0.0330104
-0.0325437
-0.0319258
-0.0311598
-0.0302503
-0.0292039
-0.0280289
-0.0267353
-0.0253347
-0.0238407
-0.0222678
-0.0206323
-0.0189514
-0.0172433
-0.0155268
-0.0138209
-0.012145
-0.010518
-0.00895819
-0.00748309
-0.00610882
-0.00484988
-0.00371876
-0.00272558
-0.00187767
-0.00117915
-0.000630486
-0.000227972
3.68731e-05
0.000177957
0.000215021
0.000174249
9.30968e-05
2.40412e-05
-2.11181e-06
-6.72605e-05
-0.000264094
-0.000609828
-0.00111697
-0.00179173
-0.00263311
-0.00363474
-0.00478649
-0.00607564
-0.00748784
-0.00900782
-0.01062
-0.0123088
-0.0140589
-0.0158555
-0.0176842
-0.0195312
-0.0213831
-0.0232269
-0.0250501
-0.0268403
-0.0285854
-0.0302735
-0.0318928
-0.0334317
-0.0348787
-0.0362224
-0.0374518
-0.038556
-0.0395249
-0.0403485
-0.0410177
-0.0415242
-0.0418608
-0.0420213
-0.0420008
-0.0417959
-0.0414049
-0.0408278
-0.0400664
-0.0391246
-0.0380081
-0.0367251
-0.0352855
-0.0337015
-0.0319871
-0.0301583
-0.0282329
-0.0262302
-0.0241707
-0.0220761
-0.0199689
-0.0178718
-0.0158077
-0.0137994
-0.0118686
-0.0100363
-0.00832161
-0.00674195
-0.00531224
-0.00404462
-0.00294796
-0.0020274
-0.00128386
-0.000713589
-0.00030758
-5.10561e-05
7.68738e-05
0.000103736
6.75709e-05
1.96797e-05
-1.36908e-05
-0.000132843
-0.0004359
-0.000924849
-0.00160433
-0.0024769
-0.00353873
-0.00478111
-0.00619195
-0.00775671
-0.00945926
-0.0112825
-0.013209
-0.0152212
-0.0173018
-0.0194338
-0.0216009
-0.023787
-0.0259767
-0.0281548
-0.0303066
-0.0324178
-0.034474
-0.0364614
-0.0383662
-0.0401747
-0.0418735
-0.0434495
-0.0448899
-0.0461822
-0.0473145
-0.0482757
-0.0490553
-0.0496439
-0.0500334
-0.0502168
-0.0501888
-0.0499456
-0.0494855
-0.0488086
-0.0479172
-0.0468159
-0.0455116
-0.0440133
-0.0423328
-0.0404839
-0.0384827
-0.0363476
-0.0340986
-0.0317579
-0.0293488
-0.0268961
-0.0244253
-0.0219625
-0.0195338
-0.017165
-0.0148812
-0.0127061
-0.010662
-0.00876867
-0.00704343
-0.00550038
-0.00414997
-0.00299858
-0.00204798
-0.00129489
-0.000730507
-0.000340115
-0.000102738
9.27685e-06
3.25536e-05
1.36337e-05
-2.51888e-05
-0.000200057
-0.000614244
-0.00125327
-0.00211268
-0.00319032
-0.00447862
-0.00596586
-0.00763753
-0.00947708
-0.0114665
-0.013587
-0.0158193
-0.0181443
-0.0205427
-0.0229959
-0.0254857
-0.0279942
-0.0305041
-0.0329984
-0.0354604
-0.037874
-0.040223
-0.0424917
-0.0446645
-0.0467261
-0.0486612
-0.0504552
-0.0520936
-0.0535625
-0.0548488
-0.0559399
-0.0568244
-0.0574918
-0.0579332
-0.058141
-0.0581092
-0.0578341
-0.0573136
-0.0565482
-0.0555403
-0.0542952
-0.0528206
-0.0511266
-0.049226
-0.0471344
-0.0448694
-0.0424513
-0.0399025
-0.0372473
-0.0345116
-0.0317228
-0.0289092
-0.0260996
-0.0233231
-0.0206085
-0.0179836
-0.015475
-0.0131077
-0.0109038
-0.00888311
-0.0070616
-0.00545157
-0.00406085
-0.00289243
-0.00194403
-0.00120768
-0.000669445
-0.00030909
-9.97683e-05
-7.66914e-06
6.8713e-06
-3.63492e-05
-0.000267021
-0.000794001
-0.00158615
-0.00262932
-0.00391595
-0.00543406
-0.00716836
-0.00910152
-0.0112147
-0.0134878
-0.0159004
-0.0184315
-0.0210603
-0.0237661
-0.0265287
-0.0293281
-0.0321451
-0.0349605
-0.0377559
-0.0405129
-0.0432136
-0.0458404
-0.0483758
-0.0508028
-0.0531042
-0.0552637
-0.0572648
-0.0590918
-0.0607296
-0.0621636
-0.0633804
-0.0643673
-0.0651131
-0.065608
-0.0658439
-0.0658144
-0.0655153
-0.0649445
-0.0641023
-0.0629917
-0.0616181
-0.0599897
-0.0581178
-0.0560159
-0.0537009
-0.0511918
-0.0485106
-0.0456814
-0.0427305
-0.0396861
-0.0365779
-0.0334366
-0.0302937
-0.0271809
-0.0241298
-0.0211709
-0.0183335
-0.015645
-0.0131305
-0.0108116
-0.00870683
-0.00683035
-0.00519178
-0.00379572
-0.00264133
-0.00172202
-0.0010252
-0.000532034
-0.000217158
-5.04289e-05
-7.60411e-08
-4.70755e-05
-0.00033275
-0.000972172
-0.00191788
-0.00314584
-0.00464272
-0.00639167
-0.00837341
-0.0105674
-0.0129523
-0.0155059
-0.0182057
-0.0210293
-0.0239543
-0.0269586
-0.0300204
-0.0331186
-0.0362323
-0.0393411
-0.042425
-0.0454643
-0.0484397
-0.0513322
-0.0541227
-0.0567929
-0.0593244
-0.0616992
-0.0638998
-0.0659093
-0.0677112
-0.0692899
-0.0706309
-0.0717207
-0.0725472
-0.0730999
-0.0733699
-0.0733505
-0.073037
-0.072427
-0.0715208
-0.0703214
-0.0688344
-0.0670685
-0.0650352
-0.0627493
-0.0602281
-0.057492
-0.0545644
-0.0514707
-0.0482392
-0.0448999
-0.0414846
-0.0380263
-0.0345591
-0.031117
-0.0277342
-0.0244441
-0.0212786
-0.0182678
-0.0154392
-0.0128173
-0.0104227
-0.00827193
-0.00637671
-0.00474363
-0.0033737
-0.00226214
-0.00139823
-0.000764989
-0.000338983
-9.41658e-05
-6.93803e-06
-5.73558e-05
-0.000396761
-0.00114702
-0.00224491
-0.00365667
-0.00536297
-0.00734186
-0.00956977
-0.0120228
-0.0146766
-0.0175069
-0.0204892
-0.0235994
-0.0268137
-0.0301085
-0.0334609
-0.0368483
-0.0402488
-0.0436407
-0.0470028
-0.0503141
-0.0535542
-0.0567026
-0.0597393
-0.0626445
-0.0653987
-0.0679829
-0.0703782
-0.0725666
-0.0745307
-0.0762539
-0.0777205
-0.0789163
-0.0798282
-0.0804451
-0.0807574
-0.0807577
-0.0804409
-0.0798042
-0.0788476
-0.077574
-0.0759889
-0.0741013
-0.0719229
-0.0694688
-0.0667572
-0.0638094
-0.0606497
-0.057305
-0.0538049
-0.0501812
-0.0464676
-0.0426995
-0.0389129
-0.0351447
-0.0314316
-0.0278095
-0.0243133
-0.0209758
-0.0178274
-0.0148952
-0.0122025
-0.00976852
-0.00760729
-0.00572778
-0.00413328
-0.0028212
-0.00178306
-0.00100408
-0.000463028
-0.000138061
-1.35986e-05
-6.72079e-05
-0.000458829
-0.00131754
-0.00256504
-0.00415808
-0.00607135
-0.00827769
-0.0107491
-0.0134579
-0.0163771
-0.0194797
-0.0227395
-0.0261305
-0.0296274
-0.0332056
-0.0368407
-0.0405092
-0.0441879
-0.0478542
-0.0514858
-0.0550607
-0.0585572
-0.0619541
-0.0652301
-0.0683645
-0.0713367
-0.0741264
-0.0767141
-0.0790806
-0.0812075
-0.0830772
-0.0846732
-0.0859803
-0.0869848
-0.0876744
-0.0880391
-0.0880705
-0.0877631
-0.0871135
-0.0861212
-0.0847887
-0.0831213
-0.0811278
-0.0788201
-0.0762133
-0.0733262
-0.0701806
-0.0668015
-0.0632171
-0.0594581
-0.0555581
-0.0515525
-0.0474786
-0.0433749
-0.0392806
-0.0352352
-0.0312775
-0.0274451
-0.023774
-0.0202975
-0.0170458
-0.0140452
-0.0113177
-0.00888025
-0.00674453
-0.00491641
-0.00339589
-0.00217702
-0.00124746
-0.000588278
-0.000181788
-2.0031e-05
-7.66558e-05
-0.00051885
-0.00148313
-0.00287681
-0.00464752
-0.00676406
-0.00919404
-0.0119049
-0.0148654
-0.0180453
-0.0214153
-0.024947
-0.0286128
-0.032386
-0.0362406
-0.0401513
-0.0440934
-0.0480428
-0.051976
-0.0558697
-0.0597012
-0.0634478
-0.0670873
-0.0705978
-0.0739573
-0.0771446
-0.0801384
-0.0829183
-0.0854641
-0.0877565
-0.089777
-0.0915084
-0.0929344
-0.0940403
-0.0948132
-0.0952421
-0.0953179
-0.0950341
-0.0943867
-0.0933745
-0.0919992
-0.090266
-0.0881829
-0.0857618
-0.0830177
-0.0799694
-0.0766391
-0.0730524
-0.0692383
-0.0652287
-0.0610585
-0.0567649
-0.0523872
-0.0479662
-0.0435435
-0.0391615
-0.0348619
-0.0306855
-0.0266715
-0.0228565
-0.0192741
-0.015954
-0.0129214
-0.0101965
-0.00779395
-0.00572273
-0.00398566
-0.00257957
-0.00149474
-0.000714576
-0.000225346
-2.62615e-05
-8.57212e-05
-0.000576772
-0.00164341
-0.00317926
-0.00512317
-0.00743826
-0.010087
-0.0130323
-0.0162391
-0.0196743
-0.023306
-0.0271036
-0.031038
-0.0350809
-0.0392052
-0.0433845
-0.0475932
-0.0518065
-0.0559999
-0.0601495
-0.0642318
-0.0682233
-0.0721012
-0.0758425
-0.0794249
-0.0828261
-0.0860242
-0.0889977
-0.0917259
-0.0941884
-0.096366
-0.0982404
-0.0997946
-0.101013
-0.101881
-0.102388
-0.102523
-0.102278
-0.10165
-0.100634
-0.0992338
-0.0974519
-0.0952963
-0.0927782
-0.0899123
-0.0867172
-0.0832152
-0.0794322
-0.0753978
-0.0711449
-0.0667096
-0.0621308
-0.0574496
-0.0527093
-0.047954
-0.043229
-0.0385792
-0.0340489
-0.0296806
-0.0255149
-0.0215888
-0.0179359
-0.014585
-0.0115601
-0.00887912
-0.00655444
-0.00459205
-0.00299179
-0.00174665
-0.00084237
-0.000268957
-3.2349e-05
-9.44192e-05
-0.000632558
-0.0017981
-0.00347162
-0.00558363
-0.00809172
-0.0109533
-0.014127
-0.0175741
-0.0212582
-0.0251451
-0.0292021
-0.0333983
-0.0377041
-0.0420913
-0.0465324
-0.0510012
-0.0554719
-0.0599195
-0.0643194
-0.0686474
-0.0728796
-0.0769925
-0.0809625
-0.0847666
-0.0883818
-0.0917857
-0.0949559
-0.0978709
-0.10051
-0.102852
-0.104879
-0.106572
-0.107915
-0.108893
-0.109492
-0.109702
-0.109514
-0.108922
-0.107922
-0.106515
-0.104703
-0.102492
-0.0998945
-0.096923
-0.093596
-0.0899355
-0.0859676
-0.0817222
-0.077233
-0.0725371
-0.067675
-0.0626899
-0.057627
-0.0525337
-0.0474578
-0.042448
-0.037552
-0.0328165
-0.0282858
-0.0240013
-0.0200007
-0.0163169
-0.0129777
-0.0100054
-0.00741574
-0.00521823
-0.00341594
-0.00200471
-0.000972536
-0.000312991
-3.83715e-05
-0.000102758
-0.000686164
-0.00194695
-0.00375327
-0.00602768
-0.00872253
-0.0117904
-0.0151857
-0.0188659
-0.0227918
-0.0269266
-0.0312357
-0.0356865
-0.0402481
-0.044891
-0.0495871
-0.0543093
-0.0590311
-0.0637271
-0.0683722
-0.0729416
-0.0774109
-0.0817562
-0.0859534
-0.089979
-0.0938094
-0.0974216
-0.100793
-0.1039
-0.106722
-0.109239
-0.111428
-0.113273
-0.114754
-0.115857
-0.116565
-0.116868
-0.116755
-0.116218
-0.115253
-0.113858
-0.112036
-0.10979
-0.10713
-0.104071
-0.100627
-0.0968225
-0.0926817
-0.088235
-0.0835167
-0.0785649
-0.0734214
-0.0681312
-0.0627423
-0.0573044
-0.0518689
-0.046488
-0.0412134
-0.036096
-0.0311846
-0.0265253
-0.0221603
-0.0181271
-0.0144583
-0.01118
-0.00831234
-0.00586856
-0.0038552
-0.00227101
-0.00110626
-0.000357922
-4.44193e-05
-0.000110736
-0.000737528
-0.0020897
-0.0040236
-0.00645423
-0.00932895
-0.0125958
-0.0162048
-0.0201104
-0.0242702
-0.028645
-0.0331982
-0.0378957
-0.0427053
-0.0475966
-0.0525405
-0.0575093
-0.062476
-0.0674148
-0.0722999
-0.0771065
-0.0818098
-0.0863853
-0.0908088
-0.0950561
-0.0991035
-0.102927
-0.106504
-0.10981
-0.112824
-0.115524
-0.117888
-0.119897
-0.121532
-0.122775
-0.12361
-0.124024
-0.124006
-0.123545
-0.122636
-0.121275
-0.119462
-0.117201
-0.1145
-0.11137
-0.107828
-0.103894
-0.0995933
-0.094956
-0.0900166
-0.0848141
-0.0793915
-0.0737957
-0.0680769
-0.0622878
-0.0564834
-0.0507195
-0.0450523
-0.0395373
-0.0342282
-0.0291761
-0.0244284
-0.0200279
-0.0160118
-0.0124114
-0.0092511
-0.00654835
-0.00431338
-0.00254806
-0.00124492
-0.00040429
-5.059e-05
-0.000118349
-0.000786567
-0.00222606
-0.00428198
-0.00686217
-0.00990931
-0.013367
-0.0171815
-0.0213037
-0.0256886
-0.0302946
-0.0350833
-0.0400191
-0.0450684
-0.0502001
-0.0553842
-0.0605924
-0.0657976
-0.0709731
-0.0760933
-0.0811329
-0.0860669
-0.0908706
-0.0955194
-0.0999891
-0.104255
-0.108294
-0.112082
-0.115594
-0.118808
-0.121702
-0.124253
-0.12644
-0.128243
-0.129643
-0.130624
-0.131169
-0.131266
-0.130902
-0.130071
-0.128766
-0.126986
-0.124732
-0.122011
-0.118831
-0.115209
-0.111162
-0.106716
-0.101901
-0.0967496
-0.0913028
-0.0856044
-0.079703
-0.0736512
-0.0675047
-0.0613219
-0.0551628
-0.0490884
-0.0431591
-0.0374341
-0.03197
-0.0268198
-0.0220321
-0.0176497
-0.0137091
-0.0102397
-0.00726351
-0.00479479
-0.00283868
-0.00139009
-0.000452686
-5.69857e-05
-0.000125583
-0.000833177
-0.0023557
-0.00452772
-0.00725037
-0.0104619
-0.0141017
-0.0181125
-0.022442
-0.0270424
-0.0318701
-0.0368849
-0.0420496
-0.0473298
-0.0526932
-0.0581093
-0.0635495
-0.0689859
-0.074392
-0.0797418
-0.0850099
-0.0901711
-0.0952008
-0.100074
-0.104767
-0.109254
-0.113511
-0.117514
-0.12124
-0.124663
-0.127761
-0.130511
-0.13289
-0.134877
-0.136453
-0.137598
-0.138294
-0.138528
-0.138284
-0.137554
-0.136329
-0.134605
-0.132382
-0.129663
-0.126456
-0.122773
-0.118633
-0.114059
-0.109079
-0.103728
-0.0980449
-0.0920757
-0.0858702
-0.0794833
-0.0729738
-0.0664037
-0.0598376
-0.0533412
-0.0469805
-0.0408204
-0.0349238
-0.0293499
-0.0241537
-0.019384
-0.0150833
-0.0112864
-0.00802048
-0.00530405
-0.00314589
-0.00154339
-0.000503729
-6.37113e-05
-0.000132421
-0.000877232
-0.00247826
-0.00476012
-0.00761764
-0.0109849
-0.0147976
-0.0189948
-0.0235213
-0.028327
-0.0333661
-0.0385967
-0.0439804
-0.0494816
-0.0550674
-0.0607067
-0.0663704
-0.0720306
-0.0776604
-0.0832337
-0.0887252
-0.0941098
-0.0993625
-0.104459
-0.109374
-0.114083
-0.118562
-0.122786
-0.126731
-0.130372
-0.133684
-0.136645
-0.139231
-0.141418
-0.143186
-0.144515
-0.145383
-0.145776
-0.145676
-0.145071
-0.143951
-0.142309
-0.140141
-0.137449
-0.134238
-0.130518
-0.126306
-0.121623
-0.116495
-0.110958
-0.105049
-0.0988164
-0.0923103
-0.0855881
-0.0787115
-0.0717465
-0.0647621
-0.0578292
-0.0510197
-0.0444049
-0.0380545
-0.0320345
-0.0264068
-0.0212272
-0.0165445
-0.0124
-0.00882596
-0.00584604
-0.00347286
-0.00170657
-0.000558061
-7.08737e-05
-0.000138839
-0.000918586
-0.00259332
-0.00497837
-0.0079627
-0.0114766
-0.0154521
-0.0198252
-0.0245378
-0.0295377
-0.034777
-0.0402123
-0.0458041
-0.0515158
-0.0573138
-0.0631667
-0.0690448
-0.0749202
-0.0807659
-0.086556
-0.0922651
-0.0978682
-0.10334
-0.108657
-0.113794
-0.118727
-0.12343
-0.127879
-0.132048
-0.135914
-0.139451
-0.142634
-0.145439
-0.147843
-0.149821
-0.151352
-0.152414
-0.152987
-0.153055
-0.1526
-0.151611
-0.150077
-0.147992
-0.145354
-0.142165
-0.138434
-0.134173
-0.129402
-0.124147
-0.118439
-0.112319
-0.105833
-0.0990321
-0.0919767
-0.0847311
-0.077365
-0.0699522
-0.0625691
-0.0552939
-0.0482048
-0.0413786
-0.0348891
-0.0288057
-0.0231919
-0.0181038
-0.0135892
-0.00968688
-0.00642576
-0.00382285
-0.00188137
-0.000616338
-7.85805e-05
-0.000144813
-0.000957082
-0.00270046
-0.00518166
-0.00828426
-0.011935
-0.0160628
-0.0206004
-0.0254875
-0.0306696
-0.0360971
-0.0417253
-0.0475134
-0.0534241
-0.0594232
-0.0654789
-0.0715613
-0.0776425
-0.0836955
-0.0896945
-0.0956142
-0.10143
-0.107117
-0.112651
-0.118008
-0.123163
-0.128091
-0.132767
-0.137167
-0.141264
-0.145034
-0.14845
-0.151487
-0.154121
-0.156326
-0.158078
-0.159354
-0.160131
-0.16039
-0.160111
-0.15928
-0.157882
-0.155908
-0.153352
-0.150215
-0.146499
-0.142217
-0.137383
-0.132023
-0.126166
-0.119851
-0.113124
-0.106039
-0.0986553
-0.0910415
-0.0832706
-0.0754213
-0.0675758
-0.0598188
-0.052236
-0.0449119
-0.0379288
-0.0313645
-0.0252907
-0.0197718
-0.0148631
-0.0106102
-0.00704828
-0.00419916
-0.00206959
-0.000679224
-8.69401e-05
-0.000150315
-0.000992549
-0.00279921
-0.00536913
-0.00858097
-0.0123583
-0.016627
-0.0213173
-0.0263664
-0.0317179
-0.0373208
-0.043129
-0.0491007
-0.055198
-0.0613861
-0.0676329
-0.0739085
-0.0801848
-0.0864352
-0.092634
-0.0987562
-0.104777
-0.110673
-0.11642
-0.121993
-0.127368
-0.132521
-0.137426
-0.142058
-0.146392
-0.150401
-0.15406
-0.157341
-0.160218
-0.162665
-0.164656
-0.166166
-0.167169
-0.167643
-0.167566
-0.16692
-0.165686
-0.163853
-0.161411
-0.158355
-0.154686
-0.150411
-0.145544
-0.140105
-0.134123
-0.127634
-0.120684
-0.113327
-0.105625
-0.0976466
-0.0894704
-0.0811791
-0.072861
-0.0646077
-0.0565126
-0.0486689
-0.0411679
-0.0340965
-0.0275359
-0.0215592
-0.0162305
-0.011603
-0.00771872
-0.00460513
-0.00227304
-0.000747386
-9.60616e-05
-0.000155315
-0.00102481
-0.0028891
-0.00553991
-0.00885147
-0.0127445
-0.0171422
-0.0219724
-0.0271704
-0.0326778
-0.0384424
-0.0444168
-0.0505585
-0.0568288
-0.0631927
-0.0696177
-0.0760741
-0.0825338
-0.0889703
-0.0953583
-0.101673
-0.107891
-0.113988
-0.119941
-0.125725
-0.131317
-0.136691
-0.141825
-0.146691
-0.151264
-0.155518
-0.159425
-0.162959
-0.166091
-0.168795
-0.171041
-0.172803
-0.174053
-0.174766
-0.174917
-0.174483
-0.173444
-0.171782
-0.169485
-0.166544
-0.162955
-0.158721
-0.153851
-0.148364
-0.142285
-0.135648
-0.128497
-0.120886
-0.112878
-0.104545
-0.0959662
-0.0872308
-0.0784328
-0.0696708
-0.0610465
-0.0526623
-0.0446192
-0.0370143
-0.029939
-0.0234765
-0.0177002
-0.0126721
-0.00844213
-0.00504409
-0.00249352
-0.000821497
-0.000106055
-0.000159783
-0.0010537
-0.00296967
-0.00569313
-0.00909442
-0.0130918
-0.017606
-0.0225628
-0.0278957
-0.0335447
-0.0394563
-0.0455823
-0.0518792
-0.058308
-0.0648332
-0.0714225
-0.0780458
-0.0846755
-0.0912854
-0.0978505
-0.104347
-0.110751
-0.117039
-0.123189
-0.129177
-0.134979
-0.140571
-0.14593
-0.151028
-0.155841
-0.160342
-0.164503
-0.168297
-0.171694
-0.174665
-0.177182
-0.179213
-0.18073
-0.181704
-0.182107
-0.181913
-0.181098
-0.17964
-0.177521
-0.174729
-0.171256
-0.167098
-0.162263
-0.156762
-0.150618
-0.143863
-0.136539
-0.128698
-0.120402
-0.111727
-0.102754
-0.0935768
-0.084295
-0.0750148
-0.0658467
-0.0569026
-0.048294
-0.0401293
-0.0325109
-0.0255333
-0.0192804
-0.0138243
-0.0092235
-0.00551932
-0.00273285
-0.000902229
-0.00011703
-0.000163689
-0.00107904
-0.00304048
-0.005828
-0.00930857
-0.0133983
-0.0180159
-0.0230854
-0.0285384
-0.0343139
-0.0403571
-0.046619
-0.0530555
-0.0596271
-0.0662981
-0.073036
-0.0798112
-0.0865961
-0.093365
-0.100093
-0.106758
-0.113335
-0.119803
-0.126139
-0.132321
-0.138325
-0.144128
-0.149705
-0.155032
-0.160083
-0.164831
-0.169247
-0.173305
-0.176973
-0.180221
-0.183019
-0.185335
-0.187136
-0.188392
-0.189071
-0.189144
-0.188582
-0.18736
-0.185455
-0.182849
-0.179528
-0.175487
-0.170724
-0.165249
-0.159078
-0.152241
-0.144776
-0.136733
-0.128175
-0.119177
-0.109823
-0.100211
-0.0904462
-0.0806424
-0.0709188
-0.0613976
-0.0522017
-0.0434513
-0.0352614
-0.0277388
-0.0209793
-0.0150661
-0.0100677
-0.00603407
-0.00299281
-0.000990253
-0.000129099
-0.000167008
-0.00110067
-0.00310111
-0.00594374
-0.00949275
-0.0136624
-0.0183698
-0.0235373
-0.0290952
-0.0349813
-0.0411398
-0.047521
-0.0540803
-0.0607778
-0.0675777
-0.0744476
-0.081358
-0.0882817
-0.0951933
-0.102069
-0.108886
-0.115622
-0.122256
-0.128765
-0.135128
-0.141322
-0.147325
-0.153113
-0.158661
-0.163944
-0.168935
-0.173606
-0.177928
-0.18187
-0.185402
-0.18849
-0.191102
-0.193203
-0.194759
-0.195737
-0.196101
-0.195822
-0.194867
-0.19321
-0.190828
-0.187701
-0.183817
-0.17917
-0.173763
-0.167609
-0.160731
-0.153163
-0.144954
-0.136165
-0.126869
-0.117154
-0.107121
-0.0968792
-0.0865509
-0.0762641
-0.0661518
-0.0563487
-0.0469883
-0.038199
-0.0301012
-0.0228042
-0.0164036
-0.0109794
-0.00659153
-0.00327517
-0.00108624
-0.000142375
-0.000169714
-0.00111847
-0.0031512
-0.0060397
-0.00964593
-0.0138827
-0.0186658
-0.0239161
-0.0295629
-0.0355429
-0.0417996
-0.0482827
-0.054947
-0.0617524
-0.0686632
-0.0756468
-0.0826742
-0.0897185
-0.0967549
-0.10376
-0.110713
-0.11759
-0.124373
-0.131039
-0.137568
-0.143938
-0.150128
-0.156114
-0.161872
-0.167378
-0.172605
-0.177524
-0.182108
-0.186324
-0.190141
-0.193526
-0.196442
-0.198855
-0.200727
-0.202022
-0.202702
-0.202732
-0.202076
-0.200703
-0.198582
-0.19569
-0.192008
-0.187523
-0.182232
-0.176142
-0.16927
-0.161645
-0.153312
-0.144329
-0.134769
-0.124721
-0.114285
-0.10358
-0.0927321
-0.0818793
-0.0711658
-0.0607389
-0.0507461
-0.0413305
-0.0326277
-0.0247617
-0.0178425
-0.0119632
-0.00719476
-0.00358166
-0.00119086
-0.000156973
-0.000171786
-0.00113231
-0.00319047
-0.00611535
-0.00976728
-0.014058
-0.0189022
-0.0242197
-0.0299388
-0.0359955
-0.0423326
-0.0488991
-0.0556496
-0.062544
-0.0695461
-0.0766239
-0.0837485
-0.0908935
-0.0980348
-0.10515
-0.112217
-0.119217
-0.126129
-0.132933
-0.13961
-0.146139
-0.152498
-0.158667
-0.164621
-0.170337
-0.175788
-0.180947
-0.185785
-0.19027
-0.194371
-0.198053
-0.201278
-0.204011
-0.206212
-0.20784
-0.208857
-0.209221
-0.208894
-0.207838
-0.206018
-0.203404
-0.199969
-0.195695
-0.190571
-0.184597
-0.177783
-0.170153
-0.161746
-0.152616
-0.142833
-0.132485
-0.121676
-0.110526
-0.0991709
-0.0877556
-0.0764358
-0.0653725
-0.0547277
-0.0446608
-0.035324
-0.0268578
-0.0193882
-0.0130231
-0.00784673
-0.00391398
-0.00130478
-0.000173011
-0.000173211
-0.00114211
-0.00321871
-0.00617033
-0.00985624
-0.0141875
-0.0190779
-0.0244465
-0.030221
-0.0363365
-0.0427354
-0.0493662
-0.0561833
-0.0631462
-0.0702191
-0.0773701
-0.0845705
-0.0917945
-0.0990187
-0.106221
-0.113382
-0.120482
-0.127501
-0.134422
-0.141224
-0.14789
-0.1544
-0.160731
-0.166863
-0.172771
-0.178431
-0.183815
-0.188896
-0.193642
-0.19802
-0.201995
-0.20553
-0.208587
-0.211124
-0.213099
-0.214469
-0.215191
-0.21522
-0.214514
-0.213032
-0.210738
-0.207598
-0.203586
-0.198684
-0.192883
-0.186185
-0.178608
-0.170183
-0.160959
-0.151002
-0.140399
-0.129253
-0.117689
-0.105845
-0.0938779
-0.0819531
-0.0702455
-0.0589331
-0.0481926
-0.0381943
-0.0290972
-0.0210452
-0.0141632
-0.00855024
-0.00427379
-0.00142865
-0.000190607
-0.000173979
-0.00114785
-0.00323582
-0.00620446
-0.00991253
-0.0142707
-0.0191922
-0.0245957
-0.0304081
-0.0365642
-0.0430057
-0.0496808
-0.0565439
-0.0635542
-0.070676
-0.0778777
-0.0851309
-0.0924106
-0.0996939
-0.10696
-0.114189
-0.121364
-0.128466
-0.135478
-0.142382
-0.149161
-0.155795
-0.162266
-0.168553
-0.174632
-0.180481
-0.186072
-0.191379
-0.196371
-0.201014
-0.205275
-0.209115
-0.212494
-0.215371
-0.217701
-0.219438
-0.220535
-0.220945
-0.220619
-0.219512
-0.217579
-0.214782
-0.211085
-0.206462
-0.200894
-0.194377
-0.186917
-0.178538
-0.169282
-0.159211
-0.148405
-0.136969
-0.125028
-0.112725
-0.100224
-0.0877029
-0.0753496
-0.0633588
-0.0519259
-0.041241
-0.0314836
-0.0228174
-0.0153868
-0.0093079
-0.00466267
-0.00156312
-0.000209884
-0.000174092
-0.00114952
-0.00324185
-0.0062178
-0.00993623
-0.0143077
-0.0192453
-0.0246671
-0.0304998
-0.0366777
-0.0431422
-0.0498412
-0.0567287
-0.0637642
-0.070912
-0.0781406
-0.0854223
-0.0927324
-0.100049
-0.107352
-0.114623
-0.121846
-0.129002
-0.136077
-0.143055
-0.149919
-0.156651
-0.163234
-0.169648
-0.175873
-0.181885
-0.187661
-0.193172
-0.19839
-0.203283
-0.207815
-0.211949
-0.215645
-0.21886
-0.221548
-0.22366
-0.225147
-0.225958
-0.226039
-0.22534
-0.22381
-0.221402
-0.218073
-0.213787
-0.208517
-0.202247
-0.194975
-0.186714
-0.177497
-0.167378
-0.156434
-0.144764
-0.132494
-0.119771
-0.106765
-0.0936642
-0.080671
-0.0679972
-0.0558578
-0.0444644
-0.034019
-0.0247079
-0.0166969
-0.0101221
-0.00508211
-0.00170883
-0.000230965
-0.000173556
-0.0011472
-0.00323697
-0.0062107
-0.00992783
-0.0142992
-0.0192377
-0.0246615
-0.0304968
-0.0366776
-0.043145
-0.0498468
-0.0567368
-0.0637743
-0.0709239
-0.0781545
-0.0854386
-0.0927524
-0.100075
-0.107386
-0.11467
-0.12191
-0.129091
-0.136199
-0.143218
-0.150135
-0.156934
-0.163597
-0.170109
-0.176448
-0.182595
-0.188526
-0.194216
-0.199635
-0.204754
-0.209539
-0.213952
-0.217952
-0.221497
-0.22454
-0.227031
-0.228917
-0.230143
-0.230655
-0.230394
-0.229304
-0.22733
-0.224422
-0.220533
-0.215627
-0.209676
-0.202666
-0.1946
-0.185501
-0.175412
-0.164402
-0.152566
-0.140028
-0.126935
-0.113462
-0.0998089
-0.0861904
-0.0728361
-0.0599817
-0.0478622
-0.036704
-0.0267185
-0.018096
-0.010995
-0.00553351
-0.00186639
-0.000253976
-0.000172393
-0.001141
-0.00322153
-0.00618378
-0.00988829
-0.0142463
-0.019171
-0.0245805
-0.0304007
-0.0365655
-0.0430157
-0.0496988
-0.0565686
-0.0635843
-0.0707108
-0.077917
-0.0851763
-0.0924653
-0.0997636
-0.107053
-0.114318
-0.121544
-0.128716
-0.135822
-0.14285
-0.149785
-0.156614
-0.163324
-0.169897
-0.176317
-0.182564
-0.188617
-0.194453
-0.200045
-0.205363
-0.210374
-0.215043
-0.21933
-0.223192
-0.226581
-0.229446
-0.231734
-0.233387
-0.234346
-0.234548
-0.233932
-0.232435
-0.229998
-0.226566
-0.22209
-0.216531
-0.209863
-0.202077
-0.19318
-0.183207
-0.172216
-0.160294
-0.147558
-0.134157
-0.120269
-0.106101
-0.0918819
-0.0778582
-0.0642875
-0.0514294
-0.0395372
-0.0288501
-0.0195858
-0.0119282
-0.00601816
-0.0020364
-0.000279047
-0.000170632
-0.00113113
-0.00319608
-0.00613805
-0.00981911
-0.0141512
-0.0190478
-0.024427
-0.0302148
-0.0363448
-0.0427575
-0.0494003
-0.0562267
-0.0631962
-0.0702736
-0.0774284
-0.0846343
-0.0918686
-0.0991119
-0.106347
-0.11356
-0.120736
-0.127864
-0.134932
-0.14193
-0.148846
-0.155668
-0.162383
-0.16898
-0.175441
-0.18175
-0.187888
-0.193833
-0.199562
-0.205045
-0.210253
-0.21515
-0.219699
-0.223857
-0.227577
-0.230807
-0.233494
-0.235577
-0.236994
-0.237679
-0.237565
-0.236583
-0.234665
-0.231746
-0.227766
-0.222675
-0.216432
-0.209012
-0.200412
-0.19065
-0.17977
-0.167851
-0.155002
-0.141368
-0.127129
-0.112497
-0.0977127
-0.0830407
-0.0687605
-0.0551578
-0.0425151
-0.0311021
-0.0211671
-0.0129233
-0.00653717
-0.00221943
-0.000306306
-0.000168318
-0.00111787
-0.00316137
-0.00607489
-0.00972239
-0.0140166
-0.0188715
-0.0242052
-0.0299437
-0.0360204
-0.0423755
-0.0489562
-0.055716
-0.0626143
-0.0696162
-0.0766913
-0.0838141
-0.0909626
-0.0981181
-0.105265
-0.112389
-0.11948
-0.126525
-0.133517
-0.140445
-0.1473
-0.154072
-0.160753
-0.167329
-0.173789
-0.180117
-0.186298
-0.192311
-0.198136
-0.203746
-0.209114
-0.214206
-0.218986
-0.223413
-0.227441
-0.23102
-0.234095
-0.236604
-0.238484
-0.239666
-0.240076
-0.239641
-0.238284
-0.235932
-0.232513
-0.227963
-0.222228
-0.215268
-0.207062
-0.197612
-0.186948
-0.175133
-0.162268
-0.14849
-0.133976
-0.118943
-0.103642
-0.0883545
-0.0733813
-0.0590358
-0.0456317
-0.0334722
-0.0228401
-0.0139811
-0.0070915
-0.00241598
-0.000335884
-0.000165509
-0.00110158
-0.00311839
-0.00599612
-0.00960088
-0.0138463
-0.0186467
-0.0239206
-0.0295937
-0.035599
-0.0418768
-0.0483739
-0.0550437
-0.0618456
-0.0687447
-0.0757114
-0.0827204
-0.0897506
-0.0967844
-0.103807
-0.110806
-0.117772
-0.124695
-0.131568
-0.138383
-0.145134
-0.151813
-0.158412
-0.164923
-0.171335
-0.177637
-0.183813
-0.189849
-0.195725
-0.201419
-0.206904
-0.212151
-0.217125
-0.221788
-0.226096
-0.23
-0.233444
-0.236369
-0.238709
-0.240392
-0.241342
-0.241479
-0.240721
-0.238984
-0.236186
-0.23225
-0.227106
-0.220698
-0.212988
-0.203958
-0.193621
-0.182023
-0.16925
-0.155429
-0.140733
-0.125377
-0.109623
-0.093764
-0.0781252
-0.0630476
-0.0488782
-0.0359567
-0.0246037
-0.0151021
-0.00768188
-0.00262655
-0.000367911
-0.000162279
-0.00108272
-0.00306839
-0.00590404
-0.00945808
-0.013645
-0.0183796
-0.0235803
-0.0291727
-0.0350897
-0.041271
-0.0476632
-0.0542196
-0.0608996
-0.0676687
-0.0744973
-0.0813611
-0.0882396
-0.0951163
-0.101978
-0.108813
-0.115613
-0.122372
-0.129083
-0.135741
-0.142342
-0.14888
-0.15535
-0.161746
-0.168061
-0.174286
-0.180409
-0.186418
-0.192296
-0.198025
-0.203581
-0.208937
-0.214063
-0.218923
-0.223475
-0.227672
-0.231461
-0.234782
-0.23757
-0.239751
-0.241247
-0.241974
-0.241844
-0.240763
-0.238641
-0.235386
-0.230915
-0.225153
-0.218042
-0.209545
-0.199654
-0.188394
-0.175834
-0.162086
-0.147313
-0.131728
-0.115597
-0.0992265
-0.082962
-0.0671735
-0.0522429
-0.0385495
-0.0264558
-0.0162861
-0.00830883
-0.00285155
-0.000402518
-0.00015872
-0.00106186
-0.00301292
-0.00580148
-0.00929828
-0.0134186
-0.0180774
-0.0231931
-0.028691
-0.0345035
-0.0405699
-0.0468365
-0.0532565
-0.0597893
-0.0664005
-0.0730612
-0.0797475
-0.08644
-0.0931233
-0.0997851
-0.106416
-0.11301
-0.11956
-0.126064
-0.132519
-0.138921
-0.145269
-0.15156
-0.157791
-0.163956
-0.170052
-0.176069
-0.181997
-0.187825
-0.193536