/*--------------------------------*- C++ -*----------------------------------*\
  =========                 |
  \\      /  F ield         | OpenFOAM: The Open Source CFD Toolbox
   \\    /   O peration     | Website:  https://openfoam.org
    \\  /    A nd           | Version:  dev
     \\/     M anipulation  |
\*---------------------------------------------------------------------------*/
FoamFile
{
    format      ascii;
    class       volScalarField;
    location    "1.8";
    object      p;
}
// * * * * * * * * * * * * * * * * * * * * * * * * * * * * * * * * * * * * * //

dimensions      [0 2 -2 0 0 0 0];

internalField   nonuniform List<scalar> 
400
(
-7.16349e-09
-0.000406887
-0.0007479
-0.000893948
-0.00077513
-0.000372709
0.000304494
0.00123439
0.00238499
0.0037116
0.00515242
0.00662599
0.00803061
0.00925321
0.0101837
0.0107374
0.0108825
0.0106667
0.0102298
0.00978708
0.000390735
-2.7206e-05
-0.000282668
-0.000340147
-0.000183271
0.000203
0.000817348
0.00164615
0.00266525
0.00383738
0.00510895
0.00640906
0.00764948
0.00873355
0.00956898
0.0100872
0.0102659
0.0101449
0.00980659
0.00935894
0.000736336
0.000190744
-8.16939e-05
-0.00011959
4.35785e-05
0.000413027
0.000988188
0.00175996
0.00271077
0.00381058
0.00501286
0.0062521
0.0074449
0.00849655
0.00931392
0.00982481
0.0100019
0.00987516
0.00948673
0.00888522
0.000897449
0.00018509
-0.000151338
-0.000206467
-5.54423e-05
0.000296922
0.000848937
0.00159483
0.00252338
0.00361165
0.00481893
0.00608365
0.00731968
0.00842451
0.009291
0.00982922
0.0099962
0.00981166
0.00929608
0.00847686
0.00076367
-0.000111086
-0.000521085
-0.000605157
-0.00047251
-0.000135602
0.000403826
0.00114423
0.00208168
0.00320121
0.0044679
0.0058255
0.00717988
0.00841468
0.00939874
0.0100122
0.0101859
0.00992664
0.00924459
0.00816994
0.000254947
-0.000776408
-0.00126257
-0.00138024
-0.00126816
-0.000944428
-0.000409326
0.000341397
0.00131294
0.00250115
0.00388151
0.0053948
0.00694782
0.00840331
0.00959497
0.0103573
0.0105788
0.0102435
0.00935248
0.00795407
-0.000692831
-0.00188331
-0.00244868
-0.00260294
-0.00251393
-0.00220468
-0.00167279
-0.000906328
0.000111906
0.00139212
0.00292355
0.00465729
0.00649694
0.00828446
0.00980827
0.0108361
0.0111863
0.0107967
0.00964321
0.00779848
-0.00214314
-0.0035045
-0.00415446
-0.00434923
-0.00428963
-0.00400459
-0.00348851
-0.0027198
-0.00166559
-0.000295315
0.00140296
0.00340171
0.00561353
0.00786574
0.00989441
0.0113731
0.0120058
0.0116338
0.0101618
0.00767755
-0.00416794
-0.00572067
-0.00646308
-0.00670409
-0.00668611
-0.0064472
-0.00597912
-0.00524946
-0.00420612
-0.00279087
-0.00095631
0.00131009
0.00395543
0.00681471
0.00957776
0.0117962
0.012992
0.0128173
0.011
0.0076014
-0.00685347
-0.00862597
-0.00946835
-0.00975999
-0.00979979
-0.00964102
-0.00927542
-0.00866038
-0.00772289
-0.00637094
-0.00450709
-0.00205148
0.00101935
0.00459883
0.0083688
0.0117487
0.0139927
0.0144051
0.0123252
0.0076665
-0.0103071
-0.0123345
-0.0132759
-0.013611
-0.0137193
-0.0136791
-0.0134872
-0.0130944
-0.0124094
-0.0113052
-0.00962294
-0.00718401
-0.00383365
0.00047238
0.00550289
0.0105918
0.0146521
0.0164047
0.0144134
0.00815206
-0.0146708
-0.0169915
-0.0180044
-0.0183413
-0.018502
-0.0186033
-0.018653
-0.0186025
-0.0183508
-0.0177434
-0.0165596
-0.0145002
-0.0112093
-0.00637744
2.37573e-05
0.00740215
0.0143479
0.0187219
0.017692
0.00971221
-0.020152
-0.0227952
-0.0237862
-0.0240062
-0.0241381
-0.0243515
-0.0246694
-0.0250509
-0.0253977
-0.0255443
-0.0252218
-0.0240054
-0.0212874
-0.0163941
-0.00879698
0.0012887
0.0123546
0.0212209
0.0228505
0.0137575
-0.0270988
-0.0300393
-0.030766
-0.0305988
-0.0304987
-0.0306933
-0.0312132
-0.0320252
-0.0330432
-0.0341073
-0.034922
-0.0349537
-0.0333334
-0.0289815
-0.0206484
-0.00779058
0.00847726
0.0241024
0.0311528
0.0230993
-0.0361757
-0.0391886
-0.0390808
-0.0379873
-0.0372635
-0.0371606
-0.037682
-0.038784
-0.0403858
-0.0423342
-0.0443164
-0.045725
-0.0455059
-0.0420032
-0.0333591
-0.0179546
0.00412906
0.0287047
0.0450098
0.0425877
-0.048773
-0.0509972
-0.0487739
-0.0457911
-0.0438177
-0.0429843
-0.0431829
-0.0443103
-0.0462526
-0.0488321
-0.0516931
-0.0541318
-0.0548956
-0.0519988
-0.0428873
-0.0249146
0.00327757
0.0385259
0.0686224
0.0790866
-0.0679918
-0.0666649
-0.0596572
-0.0532651
-0.0491958
-0.0471093
-0.0466339
-0.0475103
-0.0495118
-0.0523616
-0.0555922
-0.0583453
-0.0591449
-0.0556914
-0.0448685
-0.0232026
0.0120743
0.0597792
0.108863
0.142569
-0.101864
-0.0876723
-0.0709607
-0.0591182
-0.0519908
-0.048214
-0.046907
-0.0474689
-0.0494278
-0.0523121
-0.0554653
-0.05781
-0.0575987
-0.0521423
-0.0377765
-0.0101424
0.0349861
0.0989858
0.176131
0.255163
-0.175571
-0.112852
-0.0764418
-0.0577388
-0.0478854
-0.0431255
-0.0417983
-0.0427694
-0.0452075
-0.0484249
-0.0515996
-0.0534809
-0.0521063
-0.0443501
-0.0261961
0.00806379
0.0654052
0.153153
0.279037
0.45402
-0.343085
-0.13409
-0.057228
-0.0368576
-0.0296033
-0.0272673
-0.0284115
-0.0316719
-0.0359685
-0.0405548
-0.0446264
-0.0469614
-0.0456701
-0.0379827
-0.0191574
0.0172793
0.0818054
0.194125
0.390091
0.720804
)
;

boundaryField
{
    movingWall
    {
        type            zeroGradient;
    }
    fixedWalls
    {
        type            zeroGradient;
    }
    frontAndBack
    {
        type            empty;
    }
}


// ************************************************************************* //
