/*--------------------------------*- C++ -*----------------------------------*\
  =========                 |
  \\      /  F ield         | OpenFOAM: The Open Source CFD Toolbox
   \\    /   O peration     | Website:  https://openfoam.org
    \\  /    A nd           | Version:  dev
     \\/     M anipulation  |
\*---------------------------------------------------------------------------*/
FoamFile
{
    format      ascii;
    class       surfaceScalarField;
    location    "1.8";
    object      phi;
}
// * * * * * * * * * * * * * * * * * * * * * * * * * * * * * * * * * * * * * //

dimensions      [0 3 -1 0 0 0 0];

internalField   nonuniform List<scalar> 
760
(
6.71589e-08
-6.71147e-08
-3.51861e-06
3.58577e-06
-1.03616e-05
6.84301e-06
-1.90219e-05
8.66031e-06
-2.83048e-05
9.2829e-06
-3.73361e-05
9.03122e-06
-4.54739e-05
8.13783e-06
-5.22096e-05
6.73572e-06
-5.70933e-05
4.88366e-06
-5.97051e-05
2.61184e-06
-5.96801e-05
-2.49768e-08
-5.67611e-05
-2.9189e-06
-5.09175e-05
-5.84364e-06
-4.24451e-05
-8.47235e-06
-3.20663e-05
-1.03788e-05
-2.09641e-05
-1.11022e-05
-1.07085e-05
-1.02556e-05
-3.05041e-06
-7.65815e-06
4.97876e-07
-3.54829e-06
4.97896e-07
-3.62562e-06
3.5585e-06
-1.50537e-05
1.50138e-05
-3.24134e-05
2.42027e-05
-5.32578e-05
2.95047e-05
-7.52798e-05
3.13049e-05
-9.65793e-05
3.03307e-05
-0.000115645
2.72039e-05
-0.000131244
2.23348e-05
-0.000142318
1.5957e-05
-0.000147944
8.23779e-06
-0.000147386
-5.82463e-07
-0.000140207
-1.00977e-05
-0.00012647
-1.95809e-05
-0.000106931
-2.80118e-05
-8.3199e-05
-3.41103e-05
-5.7766e-05
-3.65352e-05
-3.38024e-05
-3.42192e-05
-1.46671e-05
-2.67934e-05
-3.09329e-06
-1.51221e-05
-2.59539e-06
-7.40354e-06
1.0962e-05
-2.59564e-05
3.35667e-05
-5.21406e-05
5.03868e-05
-8.25598e-05
5.99239e-05
-0.000114193
6.2938e-05
-0.000144532
6.067e-05
-0.000171543
5.42147e-05
-0.00019354
4.43322e-05
-0.000209079
3.14957e-05
-0.000216914
1.60734e-05
-0.00021606
-1.43738e-06
-0.000205941
-2.0216e-05
-0.000186637
-3.88849e-05
-0.000159142
-5.55074e-05
-0.000125579
-6.76733e-05
-8.92503e-05
-7.28635e-05
-5.43894e-05
-6.90801e-05
-2.55383e-05
-5.56444e-05
-6.61202e-06
-3.40484e-05
-9.20743e-06
-1.04297e-05
2.13917e-05
-3.5189e-05
5.8326e-05
-6.9033e-05
8.42308e-05
-0.000107564
9.84547e-05
-0.000147152
0.000102526
-0.000184883
9.84014e-05
-0.000218415
8.77466e-05
-0.0002458
7.17163e-05
-0.000265339
5.10354e-05
-0.000275535
2.62688e-05
-0.000275144
-1.8276e-06
-0.000263344
-3.20167e-05
-0.000240045
-6.21837e-05
-0.00020623
-8.9322e-05
-0.000164285
-0.000109619
-0.000118144
-0.000119004
-7.30806e-05
-0.000114143
-3.50007e-05
-9.37243e-05
-9.33539e-06
-5.97137e-05
-1.85428e-05
-1.29292e-05
3.43209e-05
-4.31761e-05
8.85729e-05
-8.39236e-05
0.000124978
-0.000129778
0.000144309
-0.000176552
0.0001493
-0.000221032
0.000142881
-0.000260699
0.000127414
-0.000293462
0.000104479
-0.000317445
7.50185e-05
-0.000330892
3.9716e-05
-0.000332234
-4.86194e-07
-0.000320189
-4.40611e-05
-0.00029425
-8.81231e-05
-0.00025508
-0.000128491
-0.000205082
-0.000159618
-0.00014876
-0.000175326
-9.26445e-05
-0.000170258
-4.44895e-05
-0.000141879
-1.17747e-05
-9.24285e-05
-3.03176e-05
-1.51964e-05
4.95172e-05
-5.06e-05
0.000123977
-9.79465e-05
0.000172325
-0.000150877
0.00019724
-0.000204691
0.000203114
-0.000255956
0.000194146
-0.000302084
0.000173542
-0.00034093
0.000143325
-0.000370495
0.000104584
-0.000388755
5.79757e-05
-0.000393635
4.39364e-06
-0.000383245
-5.44508e-05
-0.000356245
-0.000115124
-0.000312571
-0.000172165
-0.000254281
-0.000217908
-0.000186332
-0.000243276
-0.000116813
-0.000239777
-5.60904e-05
-0.000202602
-1.46281e-05
-0.000133891
-4.49457e-05
-1.74781e-05
6.69953e-05
-5.81034e-05
0.000164602
-0.00011216
0.000226381
-0.000172327
0.000257408
-0.000233436
0.000264222
-0.000291928
0.000252638
-0.000345255
0.000226869
-0.00039133
0.000189401
-0.000428102
0.000141355
-0.000453272
8.31461e-05
-0.000464189
1.53102e-05
-0.000458027
-6.06124e-05
-0.000432207
-0.000140943
-0.000385343
-0.000219029
-0.000318538
-0.000284713
-0.000236836
-0.000324978
-0.000150115
-0.000326498
-7.23914e-05
-0.000280326
-1.871e-05
-0.000187572
-6.36556e-05
-1.99691e-05
8.69644e-05
-6.62116e-05
0.000210844
-0.0001274
0.000287569
-0.0001952
0.000325208
-0.000264019
0.000333041
-0.000330284
0.000318904
-0.000391635
0.000288219
-0.000446194
0.00024396
-0.000491989
0.00018715
-0.000526524
0.00011768
-0.000546528
3.53148e-05
-0.00054801
-5.91308e-05
-0.000526667
-0.000162286
-0.000479023
-0.000266673
-0.000404272
-0.000359464
-0.000306714
-0.000422536
-0.000197883
-0.000435329
-9.66231e-05
-0.000381585
-2.50522e-05
-0.000259143
-8.87078e-05
-2.28276e-05
0.000109792
-7.53389e-05
0.000263356
-0.000144259
0.000356489
-0.000220112
0.00040106
-0.000296925
0.000409854
-0.000371253
0.000393232
-0.000441112
0.000358078
-0.000505045
0.000307894
-0.000561375
0.00024348
-0.000607594
0.000163899
-0.000639917
6.76374e-05
-0.000653107
-4.59405e-05
-0.00064074
-0.000174653
-0.000596412
-0.000311
-0.000516105
-0.000439771
-0.000401864
-0.000536777
-0.000265916
-0.000571277
-0.000132771
-0.00051473
-3.50453e-05
-0.000356869
-0.000123753
-2.62173e-05
0.000136009
-8.58618e-05
0.000323
-0.000163147
0.000433775
-0.000247241
0.000485155
-0.000331839
0.000494452
-0.000413795
0.000475188
-0.000491726
0.000436009
-0.000564858
0.000381026
-0.000632104
0.000310726
-0.000691281
0.000223076
-0.000738413
0.000114769
-0.000767239
-1.71137e-05
-0.000769141
-0.000172751
-0.000734173
-0.000345969
-0.000653671
-0.000520273
-0.000525169
-0.000665279
-0.000359207
-0.000737239
-0.000185392
-0.000688545
-5.06038e-05
-0.000491657
-0.000174357
-3.03828e-05
0.000166392
-9.82551e-05
0.000390872
-0.000184422
0.000519941
-0.000276392
0.000577125
-0.000367602
0.000585663
-0.000455421
0.000563007
-0.000539311
0.000519899
-0.000619451
0.000461166
-0.000695696
0.000386971
-0.000766659
0.000294039
-0.000828781
0.000176892
-0.000875432
2.95368e-05
-0.000896404
-0.000151779
-0.000878266
-0.000364107
-0.000806717
-0.000591821
-0.000672117
-0.00079988
-0.000479089
-0.000930268
-0.000258739
-0.000908895
-7.4335e-05
-0.000676061
-0.000248692
-3.57832e-05
0.000202175
-0.000113311
0.0004684
-0.000208563
0.000615193
-0.000307042
0.000675605
-0.000402119
0.00068074
-0.000491963
0.000652851
-0.000577131
0.000605066
-0.000659
0.000543035
-0.000738701
0.000466672
-0.00081618
0.000371519
-0.000889151
0.000249862
-0.000951846
9.2232e-05
-0.000993891
-0.000109734
-0.000999741
-0.000358258
-0.000949736
-0.000641825
-0.000824955
-0.000924661
-0.000618414
-0.00113681
-0.000354532
-0.00117278
-0.000109566
-0.000921027
-0.000358258
-4.33435e-05
0.000245519
-0.000132478
0.000557535
-0.000236359
0.000719074
-0.000338284
0.000777529
-0.000432067
0.000774523
-0.000517159
0.000737943
-0.000595499
0.000683407
-0.000669849
0.000617385
-0.000742854
0.000539677
-0.000816275
0.00044494
-0.000890033
0.00032362
-0.000960845
0.000163044
-0.00102035
-5.02324e-05
-0.001054
-0.000324604
-0.00103911
-0.000656718
-0.000947514
-0.00101626
-0.000755298
-0.00132902
-0.000467525
-0.00146055
-0.000159633
-0.00122892
-0.000517891
-5.49413e-05
0.00030046
-0.000158356
0.00066095
-0.000268931
0.000829648
-0.00036827
0.000876868
-0.000451939
0.000858192
-0.000521573
0.000807576
-0.00058093
0.000742764
-0.000634318
0.000670773
-0.000685983
0.000591342
-0.00073973
0.000498686
-0.000798344
0.000382234
-0.000862595
0.000227295
-0.000928489
1.56621e-05
-0.000986912
-0.000266181
-0.00101674
-0.000626892
-0.00098455
-0.00104844
-0.000847864
-0.00146571
-0.000578672
-0.00172974
-0.000225112
-0.00158248
-0.000743003
-7.43251e-05
0.000374785
-0.000195212
0.000781837
-0.000306909
0.000941345
-0.000392104
0.000962063
-0.000451098
0.000917186
-0.000489385
0.000845863
-0.000513295
0.000766675
-0.000528885
0.000686363
-0.000541889
0.000604346
-0.000557936
0.000514733
-0.000582614
0.000406912
-0.000620976
0.000265657
-0.000676896
7.15825e-05
-0.000747758
-0.000195319
-0.000822142
-0.000552508
-0.000869471
-0.00100111
-0.00083441
-0.00150077
-0.000648151
-0.001916
-0.000297654
-0.00193298
-0.00104066
-0.00010852
0.000483305
-0.000248368
0.000921686
-0.00034619
0.00103917
-0.000394802
0.00101068
-0.00040522
0.000927604
-0.000389452
0.000830096
-0.000357382
0.000734604
-0.000316915
0.000645896
-0.000274829
0.00056226
-0.000237752
0.000477655
-0.000213033
0.000382194
-0.00020929
0.000261913
-0.000236339
9.86319e-05
-0.000302264
-0.000129395
-0.000408981
-0.00044579
-0.000540229
-0.000869867
-0.000642761
-0.00139824
-0.000613681
-0.00194508
-0.000351745
-0.00219491
-0.0013924
-0.000168474
0.000651779
-0.000315748
0.00106896
-0.000360432
0.00108385
-0.000329062
0.000979305
-0.000253002
0.000851545
-0.000153159
0.000730252
-4.28133e-05
0.000624259
6.93149e-05
0.000533768
0.000176797
0.000454778
0.000273631
0.000380821
0.000352635
0.00030319
0.000404048
0.0002105
0.000414539
8.81417e-05
0.000367615
-8.24713e-05
0.000246982
-0.000325157
4.62594e-05
-0.000669144
-0.000204959
-0.00114702
-0.000397961
-0.00175208
-0.000342017
-0.00225085
-0.00173442
-0.000260952
0.00091273
-0.000339828
0.00114784
-0.000235762
0.000979784
-5.04276e-05
0.000793971
0.000159892
0.000641225
0.00037085
0.000519295
0.000571573
0.000423535
0.000756935
0.000348406
0.00092412
0.000287593
0.00107031
0.000234627
0.00119082
0.000182689
0.00127733
0.000123987
0.00131626
4.92056e-05
0.00128797
-5.41719e-05
0.0011659
-0.00020309
0.000920168
-0.000423414
0.000538844
-0.000765697
9.28622e-05
-0.0013061
-0.00018078
-0.00197721
-0.0019152
-0.000252412
0.00116514
6.87418e-06
0.00088855
0.000428174
0.000558484
0.000825676
0.000396469
0.00117312
0.000293778
0.00147228
0.000220134
0.00172813
0.000167689
0.00194623
0.000130309
0.00213131
0.000102507
0.00228597
7.99704e-05
0.00240957
5.90907e-05
0.00249707
3.64827e-05
0.00253694
9.34095e-06
0.00251324
-3.04771e-05
0.00239568
-8.55231e-05
0.00214173
-0.000169466
0.00169482
-0.000318786
0.00102521
-0.000636494
0.000292298
-0.0012443
-0.0016229
0.00116514
0.00205369
0.00261218
0.00300864
0.00330242
0.00352256
0.00369024
0.00382055
0.00392306
0.00400303
0.00406212
0.0040986
0.00410795
0.00407747
0.00399195
0.00382248
0.00350369
0.0028672
0.0016229
)
;

boundaryField
{
    movingWall
    {
        type            calculated;
        value           uniform 0;
    }
    fixedWalls
    {
        type            calculated;
        value           uniform 0;
    }
    frontAndBack
    {
        type            empty;
    }
}


// ************************************************************************* //
