/*--------------------------------*- C++ -*----------------------------------*\
  =========                 |
  \\      /  F ield         | OpenFOAM: The Open Source CFD Toolbox
   \\    /   O peration     | Website:  https://openfoam.org
    \\  /    A nd           | Version:  dev
     \\/     M anipulation  |
\*---------------------------------------------------------------------------*/
FoamFile
{
    format      ascii;
    class       volVectorField;
    location    "1.8";
    object      U;
}
// * * * * * * * * * * * * * * * * * * * * * * * * * * * * * * * * * * * * * //

dimensions      [0 1 -1 0 0 0 0];

internalField   nonuniform List<vector> 
400
(
(0.000104065 -0.00010608 0)
(-0.000180828 0.000177002 0)
(-0.00128777 0.000447458 0)
(-0.00289097 0.000596595 0)
(-0.00472671 0.000648658 0)
(-0.00659047 0.000635088 0)
(-0.00833267 0.000576598 0)
(-0.00984077 0.000483508 0)
(-0.0110208 0.00035892 0)
(-0.0117859 0.000203077 0)
(-0.012056 1.78061e-05 0)
(-0.011766 -0.000189613 0)
(-0.0108829 -0.000403755 0)
(-0.00942973 -0.000599324 0)
(-0.00750603 -0.000742329 0)
(-0.00530376 -0.00079469 0)
(-0.00310415 -0.00072256 0)
(-0.0012463 -0.000506962 0)
(-7.11568e-05 -0.000166199 0)
(0.000152533 0.000140067 0)
(-0.000179592 0.000174461 0)
(-0.00153049 0.00150231 0)
(-0.00451256 0.00263664 0)
(-0.00846255 0.00329102 0)
(-0.0128496 0.00352046 0)
(-0.0172612 0.003425 0)
(-0.0213617 0.0030845 0)
(-0.0248811 0.00254789 0)
(-0.0275934 0.00183969 0)
(-0.0293005 0.00097501 0)
(-0.0298332 -2.32172e-05 0)
(-0.0290671 -0.00110822 0)
(-0.0269563 -0.00219852 0)
(-0.0235747 -0.00317257 0)
(-0.0191546 -0.00387616 0)
(-0.0141101 -0.00414533 0)
(-0.00901929 -0.00384624 0)
(-0.00455027 -0.00292645 0)
(-0.00138051 -0.00149185 0)
(-0.000102066 -4.47942e-05 0)
(-0.000482764 0.00131466 0)
(-0.002865 0.00454075 0)
(-0.00749348 0.00704788 0)
(-0.0133419 0.00849447 0)
(-0.0196852 0.008977 0)
(-0.0259914 0.00868263 0)
(-0.0318155 0.00777717 0)
(-0.0367904 0.00637405 0)
(-0.0406068 0.00454162 0)
(-0.0429957 0.00233156 0)
(-0.0437295 -0.000185866 0)
(-0.042643 -0.00288839 0)
(-0.0396752 -0.0055756 0)
(-0.0349222 -0.00796125 0)
(-0.0286894 -0.00969068 0)
(-0.0215241 -0.0103949 0)
(-0.014193 -0.00978336 0)
(-0.00758665 -0.00776229 0)
(-0.00265682 -0.00457204 0)
(-0.000367308 -0.00104526 0)
(-0.000715527 0.00312373 0)
(-0.00397292 0.00892649 0)
(-0.0100444 0.0131244 0)
(-0.0175224 0.0154772 0)
(-0.0255002 0.0161928 0)
(-0.0333595 0.0155788 0)
(-0.04059 0.0139055 0)
(-0.0467688 0.0113622 0)
(-0.0515364 0.00806904 0)
(-0.0545738 0.00412096 0)
(-0.0556018 -0.000356133 0)
(-0.054403 -0.00515156 0)
(-0.0508714 -0.00992223 0)
(-0.0450806 -0.01418 0)
(-0.0373558 -0.0173174 0)
(-0.0283305 -0.018697 0)
(-0.0189374 -0.0178102 0)
(-0.010305 -0.0144784 0)
(-0.00371009 -0.00905356 0)
(-0.000546993 -0.00265607 0)
(-0.000897882 0.00547185 0)
(-0.00490928 0.0144518 0)
(-0.0122762 0.0206116 0)
(-0.0212262 0.023944 0)
(-0.0306776 0.0248545 0)
(-0.0399421 0.023818 0)
(-0.0484692 0.0212307 0)
(-0.0558074 0.0173645 0)
(-0.0615674 0.0123887 0)
(-0.0653885 0.00643305 0)
(-0.0669328 -0.000330903 0)
(-0.065903 -0.0076062 0)
(-0.0621011 -0.0149056 0)
(-0.0555183 -0.0215116 0)
(-0.0464399 -0.0265061 0)
(-0.0355493 -0.0288961 0)
(-0.0239571 -0.0278528 0)
(-0.0131042 -0.0230265 0)
(-0.00470774 -0.0148451 0)
(-0.000679966 -0.00475658 0)
(-0.00105809 0.00828764 0)
(-0.00576757 0.0210216 0)
(-0.0143647 0.0294243 0)
(-0.0247289 0.0338232 0)
(-0.0356111 0.0349092 0)
(-0.0462649 0.03338 0)
(-0.0561196 0.0297849 0)
(-0.0647163 0.024483 0)
(-0.0716522 0.0176818 0)
(-0.0765298 0.0095242 0)
(-0.0789357 0.000198863 0)
(-0.0784599 -0.00993936 0)
(-0.074754 -0.0202693 0)
(-0.0676421 -0.0298232 0)
(-0.057285 -0.0373002 0)
(-0.0443585 -0.0412191 0)
(-0.0301627 -0.040259 0)
(-0.0165601 -0.0337474 0)
(-0.00590303 -0.0221416 0)
(-0.000820638 -0.00735588 0)
(-0.00121839 0.0115503 0)
(-0.00663285 0.0286137 0)
(-0.0164782 0.0395518 0)
(-0.0282829 0.0451195 0)
(-0.0406341 0.0463852 0)
(-0.0527417 0.0443324 0)
(-0.0640363 0.039694 0)
(-0.0740753 0.0329203 0)
(-0.0824619 0.0242384 0)
(-0.0887708 0.0137674 0)
(-0.0925067 0.00166407 0)
(-0.0931087 -0.0117162 0)
(-0.090005 -0.0256543 0)
(-0.0827486 -0.0389301 0)
(-0.0712469 -0.0497795 0)
(-0.0560572 -0.0560492 0)
(-0.0386376 -0.0556529 0)
(-0.0213906 -0.0473243 0)
(-0.00760722 -0.0314433 0)
(-0.00102876 -0.0106102 0)
(-0.00139569 0.0152834 0)
(-0.00757424 0.0372771 0)
(-0.0187544 0.0510523 0)
(-0.0320826 0.0578962 0)
(-0.0459799 0.0593599 0)
(-0.059631 0.0567865 0)
(-0.0724953 0.0511288 0)
(-0.0841776 0.0429316 0)
(-0.0943173 0.0324166 0)
(-0.102484 0.0196289 0)
(-0.108107 0.00461966 0)
(-0.110449 -0.0123409 0)
(-0.108648 -0.0305209 0)
(-0.101858 -0.048486 0)
(-0.0895531 -0.0639448 0)
(-0.0719758 -0.0738434 0)
(-0.0506127 -0.0749236 0)
(-0.0284793 -0.0648471 0)
(-0.0102201 -0.043643 0)
(-0.00138124 -0.014857 0)
(-0.00160404 0.0195455 0)
(-0.00864845 0.0471197 0)
(-0.0212988 0.0640345 0)
(-0.036256 0.072245 0)
(-0.0517656 0.0739171 0)
(-0.0670095 0.070843 0)
(-0.0815112 0.0642404 0)
(-0.0949643 0.0547545 0)
(-0.107088 0.0425743 0)
(-0.117489 0.027611 0)
(-0.125553 0.00971557 0)
(-0.130378 -0.0110537 0)
(-0.130762 -0.034094 0)
(-0.125344 -0.0578675 0)
(-0.112949 -0.0795522 0)
(-0.0932043 -0.0949632 0)
(-0.0673308 -0.0991234 0)
(-0.038868 -0.0878281 0)
(-0.0142739 -0.060119 0)
(-0.00199188 -0.020673 0)
(-0.00185968 0.0244255 0)
(-0.0099128 0.058295 0)
(-0.0242002 0.0786287 0)
(-0.0408749 0.0882396 0)
(-0.0579893 0.0900819 0)
(-0.0747517 0.0865101 0)
(-0.0907923 0.0790616 0)
(-0.105942 0.0684937 0)
(-0.120056 0.0549398 0)
(-0.132842 0.0381164 0)
(-0.143714 0.0175674 0)
(-0.15166 -0.00702148 0)
(-0.155166 -0.0353812 0)
(-0.152294 -0.0660838 0)
(-0.141023 -0.0958981 0)
(-0.119996 -0.119368 0)
(-0.089653 -0.12918 0)
(-0.0536283 -0.118077 0)
(-0.0204717 -0.0828013 0)
(-0.00304353 -0.0289642 0)
(-0.00218989 0.0300504 0)
(-0.0114488 0.070998 0)
(-0.0275594 0.094958 0)
(-0.0459752 0.105878 0)
(-0.0645339 0.107739 0)
(-0.0825099 0.103597 0)
(-0.0996892 0.0953727 0)
(-0.116091 0.083956 0)
(-0.131766 0.0694119 0)
(-0.146606 0.0512158 0)
(-0.16016 0.028507 0)
(-0.171439 0.000428933 0)
(-0.178751 -0.0333397 0)
(-0.179663 -0.0717989 0)
(-0.171238 -0.111622 0)
(-0.150795 -0.146179 0)
(-0.117284 -0.165339 0)
(-0.0734842 -0.157291 0)
(-0.0296878 -0.114128 0)
(-0.00483994 -0.0410972 0)
(-0.0026498 0.0366124 0)
(-0.0134025 0.0854782 0)
(-0.0315337 0.113106 0)
(-0.0515829 0.125012 0)
(-0.0711634 0.126527 0)
(-0.0896811 0.121577 0)
(-0.107135 0.112534 0)
(-0.123779 0.100441 0)
(-0.139914 0.0853005 0)
(-0.155697 0.0663322 0)
(-0.17095 0.0422148 0)
(-0.184916 0.0114156 0)
(-0.195998 -0.027229 0)
(-0.201565 -0.073535 0)
(-0.197968 -0.124623 0)
(-0.181076 -0.173195 0)
(-0.14762 -0.206303 0)
(-0.0980389 -0.206178 0)
(-0.0428338 -0.156719 0)
(-0.00787247 -0.0590667 0)
(-0.00335577 0.0444345 0)
(-0.0160539 0.10207 0)
(-0.0363952 0.133068 0)
(-0.0577269 0.145234 0)
(-0.0774845 0.145699 0)
(-0.0953312 0.139433 0)
(-0.11156 0.129307 0)
(-0.126701 0.116534 0)
(-0.141339 0.101076 0)
(-0.155962 0.0819312 0)
(-0.170798 0.0573402 0)
(-0.185571 0.0250639 0)
(-0.199159 -0.0170634 0)
(-0.209288 -0.0700677 0)
(-0.212176 -0.132221 0)
(-0.202556 -0.196565 0)
(-0.174532 -0.248236 0)
(-0.12455 -0.263018 0)
(-0.0603488 -0.212453 0)
(-0.0128347 -0.085608 0)
(-0.00455357 0.0541081 0)
(-0.0199378 0.12124 0)
(-0.042594 0.154654 0)
(-0.0643859 0.165705 0)
(-0.0827861 0.163922 0)
(-0.0979757 0.155466 0)
(-0.110678 0.143696 0)
(-0.121749 0.129976 0)
(-0.132075 0.114255 0)
(-0.142493 0.0953892 0)
(-0.153713 0.071311 0)
(-0.166139 0.0392099 0)
(-0.179524 -0.00404552 0)
(-0.192633 -0.0610083 0)
(-0.202463 -0.131714 0)
(-0.203564 -0.210996 0)
(-0.187804 -0.284147 0)
(-0.146554 -0.321952 0)
(-0.0809705 -0.28056 0)
(-0.0203827 -0.123922 0)
(-0.00675082 0.0667703 0)
(-0.0260344 0.143616 0)
(-0.0507459 0.177239 0)
(-0.0711851 0.184811 0)
(-0.0855091 0.178978 0)
(-0.0949354 0.167091 0)
(-0.100851 0.152859 0)
(-0.10452 0.137704 0)
(-0.107126 0.121557 0)
(-0.109812 0.103227 0)
(-0.113716 0.0805332 0)
(-0.119948 0.0503814 0)
(-0.12944 0.00897933 0)
(-0.142434 -0.0475416 0)
(-0.157678 -0.121487 0)
(-0.171163 -0.21097 0)
(-0.17409 -0.304517 0)
(-0.153183 -0.372033 0)
(-0.0997835 -0.354979 0)
(-0.0302857 -0.176659 0)
(-0.0109243 0.084678 0)
(-0.0359442 0.169867 0)
(-0.0611695 0.199181 0)
(-0.076225 0.199545 0)
(-0.0816281 0.187286 0)
(-0.0805365 0.170584 0)
(-0.0753141 0.153121 0)
(-0.0677099 0.13614 0)
(-0.0591601 0.119456 0)
(-0.0509762 0.101873 0)
(-0.0445317 0.0813012 0)
(-0.041415 0.0547291 0)
(-0.0434815 0.0182604 0)
(-0.0525925 -0.0326022 0)
(-0.0699516 -0.10225 0)
(-0.0945384 -0.192902 0)
(-0.119655 -0.299635 0)
(-0.130138 -0.398223 0)
(-0.106692 -0.42247 0)
(-0.0397436 -0.244537 0)
(-0.0186118 0.112564 0)
(-0.051296 0.199716 0)
(-0.071231 0.215985 0)
(-0.0719063 0.203894 0)
(-0.0599486 0.182846 0)
(-0.0414941 0.160594 0)
(-0.0199347 0.139978 0)
(0.00267137 0.121607 0)
(0.0248944 0.104949 0)
(0.0455564 0.088766 0)
(0.0633991 0.0711881 0)
(0.0767873 0.0496359 0)
(0.0834583 0.0207224 0)
(0.080467 -0.0198199 0)
(0.0644375 -0.0771384 0)
(0.0325959 -0.156874 0)
(-0.0135028 -0.262593 0)
(-0.0622206 -0.384008 0)
(-0.0872235 -0.462046 0)
(-0.0413875 -0.323297 0)
(-0.0304118 0.160111 0)
(-0.0682951 0.227109 0)
(-0.0632281 0.213663 0)
(-0.0312065 0.184325 0)
(0.0102093 0.155063 0)
(0.0531951 0.129504 0)
(0.0947689 0.108322 0)
(0.133572 0.0909876 0)
(0.168923 0.0764391 0)
(0.200342 0.0633709 0)
(0.227151 0.0502332 0)
(0.248135 0.0351139 0)
(0.26117 0.0155927 0)
(0.263079 -0.0114831 0)
(0.249377 -0.0502393 0)
(0.214275 -0.107114 0)
(0.15283 -0.19234 0)
(0.0661226 -0.31519 0)
(-0.0232532 -0.443759 0)
(-0.0201296 -0.388624 0)
(-0.0272218 0.230046 0)
(-0.0394777 0.227009 0)
(0.0397552 0.166914 0)
(0.126159 0.12583 0)
(0.201769 0.0969815 0)
(0.266438 0.0754067 0)
(0.321767 0.0593124 0)
(0.368974 0.0473066 0)
(0.409105 0.0380577 0)
(0.442935 0.0303933 0)
(0.470711 0.0232309 0)
(0.491938 0.0154461 0)
(0.504988 0.0057577 0)
(0.507301 -0.00723443 0)
(0.494424 -0.0258331 0)
(0.459438 -0.0539924 0)
(0.392602 -0.101228 0)
(0.280469 -0.190438 0)
(0.12295 -0.330569 0)
(0.0637339 -0.368393 0)
(0.261773 0.138824 0)
(0.326108 0.119755 0)
(0.459296 0.0784883 0)
(0.56434 0.0523069 0)
(0.635021 0.0360238 0)
(0.685224 0.0251701 0)
(0.723116 0.0178353 0)
(0.752447 0.0128869 0)
(0.775412 0.00947214 0)
(0.793428 0.00695631 0)
(0.807197 0.00485386 0)
(0.816733 0.00275754 0)
(0.821347 0.000252457 0)
(0.819482 -0.00286504 0)
(0.808261 -0.0072916 0)
(0.783255 -0.0140531 0)
(0.735894 -0.0256337 0)
(0.647862 -0.0508472 0)
(0.474082 -0.111115 0)
(0.340654 -0.15628 0)
)
;

boundaryField
{
    movingWall
    {
        type            fixedValue;
        value           uniform (1 0 0);
    }
    fixedWalls
    {
        type            noSlip;
    }
    frontAndBack
    {
        type            empty;
    }
}


// ************************************************************************* //
