/*--------------------------------*- C++ -*----------------------------------*\
  =========                 |
  \\      /  F ield         | OpenFOAM: The Open Source CFD Toolbox
   \\    /   O peration     | Website:  https://openfoam.org
    \\  /    A nd           | Version:  dev
     \\/     M anipulation  |
\*---------------------------------------------------------------------------*/
FoamFile
{
    format      ascii;
    class       volScalarField;
    location    "1.8";
    object      Ux;
}
// * * * * * * * * * * * * * * * * * * * * * * * * * * * * * * * * * * * * * //

dimensions      [0 1 -1 0 0 0 0];

internalField   nonuniform List<scalar> 
400
(
0.000104065
-0.000180828
-0.00128777
-0.00289097
-0.00472671
-0.00659047
-0.00833267
-0.00984077
-0.0110208
-0.0117859
-0.012056
-0.011766
-0.0108829
-0.00942973
-0.00750603
-0.00530376
-0.00310415
-0.0012463
-7.11568e-05
0.000152533
-0.000179592
-0.00153049
-0.00451256
-0.00846255
-0.0128496
-0.0172612
-0.0213617
-0.0248811
-0.0275934
-0.0293005
-0.0298332
-0.0290671
-0.0269563
-0.0235747
-0.0191546
-0.0141101
-0.00901929
-0.00455027
-0.00138051
-0.000102066
-0.000482764
-0.002865
-0.00749348
-0.0133419
-0.0196852
-0.0259914
-0.0318155
-0.0367904
-0.0406068
-0.0429957
-0.0437295
-0.042643
-0.0396752
-0.0349222
-0.0286894
-0.0215241
-0.014193
-0.00758665
-0.00265682
-0.000367308
-0.000715527
-0.00397292
-0.0100444
-0.0175224
-0.0255002
-0.0333595
-0.04059
-0.0467688
-0.0515364
-0.0545738
-0.0556018
-0.054403
-0.0508714
-0.0450806
-0.0373558
-0.0283305
-0.0189374
-0.010305
-0.00371009
-0.000546993
-0.000897882
-0.00490928
-0.0122762
-0.0212262
-0.0306776
-0.0399421
-0.0484692
-0.0558074
-0.0615674
-0.0653885
-0.0669328
-0.065903
-0.0621011
-0.0555183
-0.0464399
-0.0355493
-0.0239571
-0.0131042
-0.00470774
-0.000679966
-0.00105809
-0.00576757
-0.0143647
-0.0247289
-0.0356111
-0.0462649
-0.0561196
-0.0647163
-0.0716522
-0.0765298
-0.0789357
-0.0784599
-0.074754
-0.0676421
-0.057285
-0.0443585
-0.0301627
-0.0165601
-0.00590303
-0.000820638
-0.00121839
-0.00663285
-0.0164782
-0.0282829
-0.0406341
-0.0527417
-0.0640363
-0.0740753
-0.0824619
-0.0887708
-0.0925067
-0.0931087
-0.090005
-0.0827486
-0.0712469
-0.0560572
-0.0386376
-0.0213906
-0.00760722
-0.00102876
-0.00139569
-0.00757424
-0.0187544
-0.0320826
-0.0459799
-0.059631
-0.0724953
-0.0841776
-0.0943173
-0.102484
-0.108107
-0.110449
-0.108648
-0.101858
-0.0895531
-0.0719758
-0.0506127
-0.0284793
-0.0102201
-0.00138124
-0.00160404
-0.00864845
-0.0212988
-0.036256
-0.0517656
-0.0670095
-0.0815112
-0.0949643
-0.107088
-0.117489
-0.125553
-0.130378
-0.130762
-0.125344
-0.112949
-0.0932043
-0.0673308
-0.038868
-0.0142739
-0.00199188
-0.00185968
-0.0099128
-0.0242002
-0.0408749
-0.0579893
-0.0747517
-0.0907923
-0.105942
-0.120056
-0.132842
-0.143714
-0.15166
-0.155166
-0.152294
-0.141023
-0.119996
-0.089653
-0.0536283
-0.0204717
-0.00304353
-0.00218989
-0.0114488
-0.0275594
-0.0459752
-0.0645339
-0.0825099
-0.0996892
-0.116091
-0.131766
-0.146606
-0.16016
-0.171439
-0.178751
-0.179663
-0.171238
-0.150795
-0.117284
-0.0734842
-0.0296878
-0.00483994
-0.0026498
-0.0134025
-0.0315337
-0.0515829
-0.0711634
-0.0896811
-0.107135
-0.123779
-0.139914
-0.155697
-0.17095
-0.184916
-0.195998
-0.201565
-0.197968
-0.181076
-0.14762
-0.0980389
-0.0428338
-0.00787247
-0.00335577
-0.0160539
-0.0363952
-0.0577269
-0.0774845
-0.0953312
-0.11156
-0.126701
-0.141339
-0.155962
-0.170798
-0.185571
-0.199159
-0.209288
-0.212176
-0.202556
-0.174532
-0.12455
-0.0603488
-0.0128347
-0.00455357
-0.0199378
-0.042594
-0.0643859
-0.0827861
-0.0979757
-0.110678
-0.121749
-0.132075
-0.142493
-0.153713
-0.166139
-0.179524
-0.192633
-0.202463
-0.203564
-0.187804
-0.146554
-0.0809705
-0.0203827
-0.00675082
-0.0260344
-0.0507459
-0.0711851
-0.0855091
-0.0949354
-0.100851
-0.10452
-0.107126
-0.109812
-0.113716
-0.119948
-0.12944
-0.142434
-0.157678
-0.171163
-0.17409
-0.153183
-0.0997835
-0.0302857
-0.0109243
-0.0359442
-0.0611695
-0.076225
-0.0816281
-0.0805365
-0.0753141
-0.0677099
-0.0591601
-0.0509762
-0.0445317
-0.041415
-0.0434815
-0.0525925
-0.0699516
-0.0945384
-0.119655
-0.130138
-0.106692
-0.0397436
-0.0186118
-0.051296
-0.071231
-0.0719063
-0.0599486
-0.0414941
-0.0199347
0.00267137
0.0248944
0.0455564
0.0633991
0.0767873
0.0834583
0.080467
0.0644375
0.0325959
-0.0135028
-0.0622206
-0.0872235
-0.0413875
-0.0304118
-0.0682951
-0.0632281
-0.0312065
0.0102093
0.0531951
0.0947689
0.133572
0.168923
0.200342
0.227151
0.248135
0.26117
0.263079
0.249377
0.214275
0.15283
0.0661226
-0.0232532
-0.0201296
-0.0272218
-0.0394777
0.0397552
0.126159
0.201769
0.266438
0.321767
0.368974
0.409105
0.442935
0.470711
0.491938
0.504988
0.507301
0.494424
0.459438
0.392602
0.280469
0.12295
0.0637339
0.261773
0.326108
0.459296
0.56434
0.635021
0.685224
0.723116
0.752447
0.775412
0.793428
0.807197
0.816733
0.821347
0.819482
0.808261
0.783255
0.735894
0.647862
0.474082
0.340654
)
;

boundaryField
{
    movingWall
    {
        type            calculated;
        value           uniform 1;
    }
    fixedWalls
    {
        type            calculated;
        value           uniform 0;
    }
    frontAndBack
    {
        type            empty;
    }
}


// ************************************************************************* //
