/*--------------------------------*- C++ -*----------------------------------*\
  =========                 |
  \\      /  F ield         | OpenFOAM: The Open Source CFD Toolbox
   \\    /   O peration     | Website:  https://openfoam.org
    \\  /    A nd           | Version:  dev
     \\/     M anipulation  |
\*---------------------------------------------------------------------------*/
FoamFile
{
    format      ascii;
    class       volScalarField;
    location    "1.8";
    object      Uy;
}
// * * * * * * * * * * * * * * * * * * * * * * * * * * * * * * * * * * * * * //

dimensions      [0 1 -1 0 0 0 0];

internalField   nonuniform List<scalar> 
400
(
-0.00010608
0.000177002
0.000447458
0.000596595
0.000648658
0.000635088
0.000576598
0.000483508
0.00035892
0.000203077
1.78061e-05
-0.000189613
-0.000403755
-0.000599324
-0.000742329
-0.00079469
-0.00072256
-0.000506962
-0.000166199
0.000140067
0.000174461
0.00150231
0.00263664
0.00329102
0.00352046
0.003425
0.0030845
0.00254789
0.00183969
0.00097501
-2.32172e-05
-0.00110822
-0.00219852
-0.00317257
-0.00387616
-0.00414533
-0.00384624
-0.00292645
-0.00149185
-4.47942e-05
0.00131466
0.00454075
0.00704788
0.00849447
0.008977
0.00868263
0.00777717
0.00637405
0.00454162
0.00233156
-0.000185866
-0.00288839
-0.0055756
-0.00796125
-0.00969068
-0.0103949
-0.00978336
-0.00776229
-0.00457204
-0.00104526
0.00312373
0.00892649
0.0131244
0.0154772
0.0161928
0.0155788
0.0139055
0.0113622
0.00806904
0.00412096
-0.000356133
-0.00515156
-0.00992223
-0.01418
-0.0173174
-0.018697
-0.0178102
-0.0144784
-0.00905356
-0.00265607
0.00547185
0.0144518
0.0206116
0.023944
0.0248545
0.023818
0.0212307
0.0173645
0.0123887
0.00643305
-0.000330903
-0.0076062
-0.0149056
-0.0215116
-0.0265061
-0.0288961
-0.0278528
-0.0230265
-0.0148451
-0.00475658
0.00828764
0.0210216
0.0294243
0.0338232
0.0349092
0.03338
0.0297849
0.024483
0.0176818
0.0095242
0.000198863
-0.00993936
-0.0202693
-0.0298232
-0.0373002
-0.0412191
-0.040259
-0.0337474
-0.0221416
-0.00735588
0.0115503
0.0286137
0.0395518
0.0451195
0.0463852
0.0443324
0.039694
0.0329203
0.0242384
0.0137674
0.00166407
-0.0117162
-0.0256543
-0.0389301
-0.0497795
-0.0560492
-0.0556529
-0.0473243
-0.0314433
-0.0106102
0.0152834
0.0372771
0.0510523
0.0578962
0.0593599
0.0567865
0.0511288
0.0429316
0.0324166
0.0196289
0.00461966
-0.0123409
-0.0305209
-0.048486
-0.0639448
-0.0738434
-0.0749236
-0.0648471
-0.043643
-0.014857
0.0195455
0.0471197
0.0640345
0.072245
0.0739171
0.070843
0.0642404
0.0547545
0.0425743
0.027611
0.00971557
-0.0110537
-0.034094
-0.0578675
-0.0795522
-0.0949632
-0.0991234
-0.0878281
-0.060119
-0.020673
0.0244255
0.058295
0.0786287
0.0882396
0.0900819
0.0865101
0.0790616
0.0684937
0.0549398
0.0381164
0.0175674
-0.00702148
-0.0353812
-0.0660838
-0.0958981
-0.119368
-0.12918
-0.118077
-0.0828013
-0.0289642
0.0300504
0.070998
0.094958
0.105878
0.107739
0.103597
0.0953727
0.083956
0.0694119
0.0512158
0.028507
0.000428933
-0.0333397
-0.0717989
-0.111622
-0.146179
-0.165339
-0.157291
-0.114128
-0.0410972
0.0366124
0.0854782
0.113106
0.125012
0.126527
0.121577
0.112534
0.100441
0.0853005
0.0663322
0.0422148
0.0114156
-0.027229
-0.073535
-0.124623
-0.173195
-0.206303
-0.206178
-0.156719
-0.0590667
0.0444345
0.10207
0.133068
0.145234
0.145699
0.139433
0.129307
0.116534
0.101076
0.0819312
0.0573402
0.0250639
-0.0170634
-0.0700677
-0.132221
-0.196565
-0.248236
-0.263018
-0.212453
-0.085608
0.0541081
0.12124
0.154654
0.165705
0.163922
0.155466
0.143696
0.129976
0.114255
0.0953892
0.071311
0.0392099
-0.00404552
-0.0610083
-0.131714
-0.210996
-0.284147
-0.321952
-0.28056
-0.123922
0.0667703
0.143616
0.177239
0.184811
0.178978
0.167091
0.152859
0.137704
0.121557
0.103227
0.0805332
0.0503814
0.00897933
-0.0475416
-0.121487
-0.21097
-0.304517
-0.372033
-0.354979
-0.176659
0.084678
0.169867
0.199181
0.199545
0.187286
0.170584
0.153121
0.13614
0.119456
0.101873
0.0813012
0.0547291
0.0182604
-0.0326022
-0.10225
-0.192902
-0.299635
-0.398223
-0.42247
-0.244537
0.112564
0.199716
0.215985
0.203894
0.182846
0.160594
0.139978
0.121607
0.104949
0.088766
0.0711881
0.0496359
0.0207224
-0.0198199
-0.0771384
-0.156874
-0.262593
-0.384008
-0.462046
-0.323297
0.160111
0.227109
0.213663
0.184325
0.155063
0.129504
0.108322
0.0909876
0.0764391
0.0633709
0.0502332
0.0351139
0.0155927
-0.0114831
-0.0502393
-0.107114
-0.19234
-0.31519
-0.443759
-0.388624
0.230046
0.227009
0.166914
0.12583
0.0969815
0.0754067
0.0593124
0.0473066
0.0380577
0.0303933
0.0232309
0.0154461
0.0057577
-0.00723443
-0.0258331
-0.0539924
-0.101228
-0.190438
-0.330569
-0.368393
0.138824
0.119755
0.0784883
0.0523069
0.0360238
0.0251701
0.0178353
0.0128869
0.00947214
0.00695631
0.00485386
0.00275754
0.000252457
-0.00286504
-0.0072916
-0.0140531
-0.0256337
-0.0508472
-0.111115
-0.15628
)
;

boundaryField
{
    movingWall
    {
        type            calculated;
        value           uniform 0;
    }
    fixedWalls
    {
        type            calculated;
        value           uniform 0;
    }
    frontAndBack
    {
        type            empty;
    }
}


// ************************************************************************* //
