/*--------------------------------*- C++ -*----------------------------------*\
  =========                 |
  \\      /  F ield         | OpenFOAM: The Open Source CFD Toolbox
   \\    /   O peration     | Website:  https://openfoam.org
    \\  /    A nd           | Version:  dev
     \\/     M anipulation  |
\*---------------------------------------------------------------------------*/
FoamFile
{
    format      ascii;
    class       volScalarField;
    location    "2.25";
    object      p;
}
// * * * * * * * * * * * * * * * * * * * * * * * * * * * * * * * * * * * * * //

dimensions      [0 2 -2 0 0 0 0];

internalField   nonuniform List<scalar> 
400
(
-1.48049e-08
-0.000423751
-0.000800951
-0.000992888
-0.000921543
-0.000561937
8.2049e-05
0.000992151
0.00213846
0.00347543
0.00493625
0.00642887
0.00783842
0.0090374
0.0099061
0.0103609
0.0103852
0.0100541
0.00953741
0.00908984
0.000408621
-2.74458e-05
-0.000311487
-0.000403528
-0.000283491
6.6767e-05
0.000648798
0.00145169
0.00245324
0.00361618
0.00488378
0.00617922
0.00740407
0.00845173
0.00922339
0.0096518
0.00972657
0.00950834
0.00910637
0.00865416
0.000795011
0.000219348
-8.28981e-05
-0.000151634
-2.16922e-05
0.000312689
0.00085241
0.0015907
0.00251259
0.00358954
0.0047738
0.00599546
0.00716295
0.00817215
0.00892277
0.00934238
0.00941335
0.00918462
0.00872413
0.0081021
0.00100621
0.000245711
-0.000126932
-0.000214273
-9.82027e-05
0.000214918
0.00072403
0.00142595
0.00231332
0.00336656
0.00454568
0.00578664
0.00699487
0.00805699
0.00885551
0.0092965
0.00934416
0.00903733
0.0084236
0.00755355
0.000915776
-2.71119e-05
-0.000481899
-0.000602731
-0.000511086
-0.000222693
0.000260995
0.000941785
0.00182141
0.0028907
0.00411779
0.00544826
0.00677732
0.00797561
0.00889646
0.00940944
0.00944762
0.00903641
0.00821503
0.00704023
0.000427365
-0.000690392
-0.00123055
-0.00139253
-0.00133249
-0.0010731
-0.000614256
5.28546e-05
0.0009415
0.00205734
0.00338472
0.00486311
0.00639655
0.0078307
0.00897602
0.00964572
0.00972062
0.00919964
0.00811394
0.0065437
-0.000538189
-0.00182835
-0.0024565
-0.00266601
-0.0026464
-0.00242626
-0.0020025
-0.00135714
-0.000461927
0.000707748
0.00215565
0.00384163
0.00566828
0.00746062
0.00897542
0.00994256
0.0101545
0.00955215
0.00813848
0.00602469
-0.00205624
-0.00352266
-0.00424303
-0.00450806
-0.00454324
-0.00438406
-0.00402421
-0.00343486
-0.00256895
-0.00137546
0.000181502
0.0020959
0.00429111
0.00658329
0.00866968
0.010163
0.0107091
0.0101256
0.00832937
0.00545379
-0.00420516
-0.00585779
-0.0066765
-0.00700735
-0.00711892
-0.00705732
-0.00681481
-0.00635184
-0.00559976
-0.00447308
-0.00288722
-0.000788036
0.00180636
0.00473798
0.00765847
0.0100316
0.0112711
0.010952
0.00877497
0.00484797
-0.00706943
-0.00892388
-0.00984569
-0.0102505
-0.0104633
-0.0105483
-0.0105011
-0.0102749
-0.00978
-0.00889099
-0.00745706
-0.00532803
-0.00240498
0.00124931
0.00529723
0.00904865
0.0115829
0.0120366
0.00963909
0.00432908
-0.0107433
-0.0128204
-0.0138395
-0.014311
-0.0146392
-0.0149186
-0.0151567
-0.0153069
-0.0152651
-0.014867
-0.0138826
-0.0120255
-0.00901649
-0.00470137
0.000712844
0.00644813
0.011175
0.0133213
0.0111979
0.00423497
-0.015341
-0.0176651
-0.0187448
-0.0192324
-0.0196508
-0.0201421
-0.0207365
-0.0213987
-0.0220225
-0.0224149
-0.0222673
-0.0211336
-0.0184678
-0.0137809
-0.00695016
0.00134704
0.00941559
0.014694
0.0139079
0.00533894
-0.0210263
-0.0236149
-0.0246458
-0.0250064
-0.0254044
-0.0260497
-0.0270033
-0.0282516
-0.0297
-0.0311433
-0.0322068
-0.0322792
-0.0305006
-0.0259507
-0.0179414
-0.00673758
0.00586279
0.0161809
0.0185795
0.00925935
-0.0280879
-0.0309104
-0.0316247
-0.0315435
-0.0316648
-0.0322793
-0.0334748
-0.0352586
-0.0375538
-0.0401538
-0.042633
-0.0442328
-0.0437871
-0.0398886
-0.0311371
-0.0170372
0.00100719
0.0184545
0.0267718
0.0190862
-0.0371232
-0.0399583
-0.0397504
-0.0386273
-0.0380117
-0.0382506
-0.0394252
-0.0415406
-0.0445211
-0.0481482
-0.0519439
-0.0550254
-0.0559893
-0.0528646
-0.0436374
-0.0268281
-0.00288352
0.0235641
0.0413605
0.0399009
-0.0494656
-0.0514661
-0.0490175
-0.045829
-0.0437928
-0.0431747
-0.0439616
-0.0460987
-0.0494608
-0.0537729
-0.058469
-0.0625202
-0.0642854
-0.0614493
-0.051355
-0.0316294
-0.00146231
0.0355144
0.0669306
0.0785855
-0.0682143
-0.0666417
-0.059265
-0.0524666
-0.0481516
-0.0461521
-0.0461989
-0.0480708
-0.0515027
-0.0560845
-0.0610958
-0.0653114
-0.0668369
-0.0630333
-0.0507231
-0.0268012
0.0107448
0.0601749
0.110153
0.144847
-0.101537
-0.0871176
-0.0699197
-0.0575048
-0.0499927
-0.0462138
-0.0453856
-0.0469262
-0.0502996
-0.0548704
-0.0597033
-0.0633398
-0.0636138
-0.0575021
-0.0413084
-0.0110335
0.03676
0.102607
0.180316
0.260111
-0.174928
-0.112036
-0.0750716
-0.0556779
-0.0453486
-0.0405207
-0.03962
-0.0415171
-0.0453011
-0.0501079
-0.0548381
-0.0578793
-0.0568899
-0.0484166
-0.0284332
0.00845922
0.0685408
0.158305
0.285038
0.460074
-0.342549
-0.133354
-0.0558974
-0.0347722
-0.0269562
-0.0244589
-0.0259285
-0.0300045
-0.03553
-0.0415907
-0.0471225
-0.05057
-0.0497009
-0.0415148
-0.0211072
0.0176863
0.0847492
0.199026
0.395908
0.726749
)
;

boundaryField
{
    movingWall
    {
        type            zeroGradient;
    }
    fixedWalls
    {
        type            zeroGradient;
    }
    frontAndBack
    {
        type            empty;
    }
}


// ************************************************************************* //
