/*--------------------------------*- C++ -*----------------------------------*\
  =========                 |
  \\      /  F ield         | OpenFOAM: The Open Source CFD Toolbox
   \\    /   O peration     | Website:  https://openfoam.org
    \\  /    A nd           | Version:  dev
     \\/     M anipulation  |
\*---------------------------------------------------------------------------*/
FoamFile
{
    format      ascii;
    class       surfaceScalarField;
    location    "2.25";
    object      phi;
}
// * * * * * * * * * * * * * * * * * * * * * * * * * * * * * * * * * * * * * //

dimensions      [0 3 -1 0 0 0 0];

internalField   nonuniform List<scalar> 
760
(
2.12051e-07
-2.11959e-07
-3.31172e-06
3.52376e-06
-1.02893e-05
6.97755e-06
-1.93e-05
9.01067e-06
-2.91204e-05
9.82042e-06
-3.88205e-05
9.7001e-06
-4.76824e-05
8.86183e-06
-5.5103e-05
7.42072e-06
-6.05245e-05
5.42149e-06
-6.34158e-05
2.89131e-06
-6.3313e-05
-1.0275e-07
-5.99171e-05
-3.39593e-06
-5.32249e-05
-6.69208e-06
-4.36655e-05
-9.55942e-06
-3.21862e-05
-1.14793e-05
-2.02389e-05
-1.19473e-05
-9.61604e-06
-1.06229e-05
-2.12725e-06
-7.48883e-06
9.30597e-07
-3.05786e-06
9.3062e-07
-3.56857e-06
3.35658e-06
-1.52398e-05
1.5195e-05
-3.33014e-05
2.50391e-05
-5.53183e-05
3.10275e-05
-7.89136e-05
3.34157e-05
-0.00010205
3.28366e-05
-0.000123026
2.9838e-05
-0.000140377
2.47716e-05
-0.00015279
1.7834e-05
-0.000159094
9.19538e-06
-0.000158363
-8.33667e-07
-0.000150064
-1.1695e-05
-0.000134347
-2.24087e-05
-0.000112252
-3.16548e-05
-8.58512e-05
-3.78799e-05
-5.81843e-05
-3.96143e-05
-3.28861e-05
-3.59211e-05
-1.3498e-05
-2.68769e-05
-2.51468e-06
-1.40411e-05
-1.58404e-06
-7.61347e-06
1.097e-05
-2.70017e-05
3.45832e-05
-5.4705e-05
5.27423e-05
-8.72908e-05
6.36134e-05
-0.000121618
6.77427e-05
-0.000154975
6.61941e-05
-0.000185053
5.9916e-05
-0.000209837
4.95553e-05
-0.000227521
3.55185e-05
-0.000236514
1.81877e-05
-0.000235548
-1.79881e-06
-0.000223913
-2.33306e-05
-0.000201769
-4.45524e-05
-0.000170462
-6.29616e-05
-0.000132722
-7.56203e-05
-9.26054e-05
-7.97308e-05
-5.50453e-05
-7.34812e-05
-2.49637e-05
-5.69585e-05
-6.10177e-06
-3.2903e-05
-7.68582e-06
-1.09979e-05
2.19679e-05
-3.73402e-05
6.09254e-05
-7.36802e-05
8.90823e-05
-0.000115502
0.000105435
-0.000159001
0.000111242
-0.000201009
0.000108203
-0.000238852
9.77593e-05
-0.000270183
8.08854e-05
-0.00029286
5.81963e-05
-0.000304941
3.02684e-05
-0.000304808
-1.93231e-06
-0.000291384
-3.6754e-05
-0.000264599
-7.13372e-05
-0.000225772
-0.000101789
-0.000177975
-0.000123417
-0.000126106
-0.0001316
-7.64446e-05
-0.000123142
-3.5606e-05
-9.77971e-05
-9.0834e-06
-5.94256e-05
-1.67692e-05
-1.38797e-05
3.58477e-05
-4.65005e-05
9.35462e-05
-9.07638e-05
0.000133346
-0.000141072
0.000155743
-0.000193018
0.000163188
-0.000243109
0.000158293
-0.000288465
0.000143115
-0.000326552
0.000118972
-0.000354984
8.66283e-05
-0.000371449
4.67337e-05
-0.000373885
5.03806e-07
-0.000360545
-5.00938e-05
-0.00033079
-0.000101093
-0.000285497
-0.000147082
-0.000227772
-0.000181142
-0.000163293
-0.000196079
-0.00010001
-0.000186425
-4.69012e-05
-0.000150906
-1.19389e-05
-9.43879e-05
-2.87081e-05
-1.64946e-05
5.23423e-05
-5.49905e-05
0.000132042
-0.000106787
0.000185142
-0.000165257
0.000214213
-0.000225465
0.000223396
-0.000283702
0.00021653
-0.000337024
0.000196438
-0.000382832
0.00016478
-0.000418561
0.000122357
-0.000441529
6.97016e-05
-0.000448903
7.8775e-06
-0.00043819
-6.08064e-05
-0.00040755
-0.000131733
-0.000356896
-0.000197735
-0.000288898
-0.00024914
-0.000209871
-0.000275107
-0.000129839
-0.000266458
-6.11365e-05
-0.000219608
-1.54229e-05
-0.000140102
-4.4131e-05
-1.90346e-05
7.13768e-05
-6.32851e-05
0.000176293
-0.000122505
0.000244361
-0.00018909
0.000280798
-0.000257655
0.000291961
-0.000324406
0.000283282
-0.000386481
0.000258513
-0.000441356
0.000219656
-0.000486381
0.000167382
-0.000518474
0.000101794
-0.000534035
2.34386e-05
-0.000529248
-6.55932e-05
-0.000500661
-0.00016032
-0.00044646
-0.000251936
-0.000368117
-0.000327482
-0.000272113
-0.000371111
-0.000170804
-0.000367767
-8.11462e-05
-0.000309266
-2.04415e-05
-0.000200806
-6.45725e-05
-2.16402e-05
9.3017e-05
-7.17434e-05
0.000226396
-0.00013845
0.000311068
-0.000213183
0.000355531
-0.000290195
0.000368973
-0.000365754
0.00035884
-0.000437259
0.000330018
-0.000502449
0.000284846
-0.000558747
0.00022368
-0.000602774
0.000145821
-0.000630094
5.07587e-05
-0.000635356
-6.03311e-05
-0.00061292
-0.000182756
-0.000558375
-0.000306481
-0.000470865
-0.000414992
-0.000356001
-0.000485975
-0.000228189
-0.000495579
-0.000110276
-0.000427178
-2.81002e-05
-0.000282982
-9.26727e-05
-2.44136e-05
0.000117431
-8.06109e-05
0.000282593
-0.000154898
0.000385355
-0.000237655
0.000438288
-0.000322851
0.000454168
-0.000406974
0.000442963
-0.000487899
0.000410943
-0.000563867
0.000360814
-0.000632625
0.000292438
-0.000690733
0.000203929
-0.000733077
9.31029e-05
-0.000752778
-4.06305e-05
-0.000741661
-0.000193874
-0.000691892
-0.00035625
-0.000598868
-0.000508016
-0.000465507
-0.000619335
-0.000306878
-0.000654209
-0.000152286
-0.00058177
-3.98001e-05
-0.000395468
-0.000132473
-2.74629e-05
0.000144893
-9.01008e-05
0.000345231
-0.000171947
0.000467202
-0.000262175
0.000528516
-0.000354521
0.000546514
-0.000445869
0.000534311
-0.000534794
0.000499868
-0.000620311
0.000446331
-0.000700833
0.000372959
-0.000773274
0.000276371
-0.000832304
0.000152133
-0.000869941
-2.99322e-06
-0.000875643
-0.000188172
-0.000837756
-0.000394137
-0.000746535
-0.000599237
-0.000599639
-0.000766232
-0.000409672
-0.000844176
-0.000210971
-0.000780471
-5.7376e-05
-0.000549064
-0.000189849
-3.09886e-05
0.000175882
-0.000100566
0.000414808
-0.000189716
0.000556352
-0.000286124
0.000624924
-0.000383353
0.000643743
-0.000478864
0.000629822
-0.000572152
0.000593156
-0.00066328
0.000537459
-0.000751718
0.000461397
-0.000835317
0.00035997
-0.000909356
0.000226172
-0.00096568
5.33304e-05
-0.00099247
-0.000161382
-0.000974702
-0.000411905
-0.000896775
-0.000677163
-0.00074828
-0.000914728
-0.000534295
-0.00105816
-0.000289095
-0.00102567
-8.32278e-05
-0.000754931
-0.000273076
-3.54432e-05
0.000211325
-0.00011279
0.000492155
-0.000208648
0.000652211
-0.00030886
0.000725136
-0.000406963
0.000741845
-0.000501241
0.0007241
-0.000592326
0.00068424
-0.000681565
0.000626699
-0.000769862
0.000549695
-0.000856672
0.00044678
-0.000938953
0.000308453
-0.00101002
0.000124398
-0.00105854
-0.000112859
-0.00106811
-0.00040234
-0.00101799
-0.000727278
-0.000887834
-0.00104489
-0.00066903
-0.00127696
-0.000385994
-0.00130871
-0.000120212
-0.00102071
-0.000393289
-4.18231e-05
0.000253148
-0.000128436
0.000578768
-0.000229897
0.000753671
-0.000329961
0.000825201
-0.000422619
0.000834503
-0.000507426
0.000808907
-0.000586424
0.000763238
-0.000662439
0.000702713
-0.000738097
0.000625353
-0.000815039
0.000523721
-0.000893007
0.000386421
-0.000968623
0.000200015
-0.00103353
-4.79545e-05
-0.00107334
-0.000362529
-0.00106504
-0.000735576
-0.00097901
-0.00113092
-0.000788053
-0.00146792
-0.000493333
-0.00160343
-0.000170674
-0.00134337
-0.000563963
-5.22084e-05
0.000305357
-0.000150678
0.000677237
-0.000255577
0.00085857
-0.000349037
0.000918661
-0.000426802
0.000912268
-0.000490622
0.000872727
-0.000544407
0.000817023
-0.000592655
0.000750962
-0.000639844
0.000672542
-0.000690074
0.000573952
-0.00074656
0.000442906
-0.00081067
0.000264125
-0.000879649
2.10237e-05
-0.000944935
-0.000297243
-0.000986406
-0.000694104
-0.000969855
-0.00114747
-0.000849192
-0.00158858
-0.000589672
-0.00186295
-0.000233634
-0.00169941
-0.000797597
-7.07335e-05
0.00037609
-0.000184826
0.00079133
-0.000288127
0.000961871
-0.000363872
0.000994406
-0.000412582
0.000960979
-0.000439932
0.000900077
-0.000452491
0.000829582
-0.000456661
0.000755132
-0.000458678
0.000674558
-0.000464872
0.000580146
-0.000481765
0.000459799
-0.000515607
0.000297968
-0.000571495
7.69112e-05
-0.000648581
-0.000220157
-0.000736585
-0.000606099
-0.000805358
-0.0010787
-0.000797213
-0.00159673
-0.00063635
-0.00202381
-0.000299483
-0.00203628
-0.00109708
-0.000104986
0.000481076
-0.000237656
0.000923999
-0.000325951
0.00105017
-0.00036319
0.00103164
-0.000360675
0.000958464
-0.000330685
0.000870088
-0.000283427
0.000782323
-0.000227296
0.000699001
-0.000169804
0.000617067
-0.000118645
0.000528987
-8.2517e-05
0.000423671
-7.14958e-05
0.000286947
-9.66932e-05
0.000102109
-0.00016755
-0.0001493
-0.000287125
-0.000486525
-0.000440112
-0.00092571
-0.000573009
-0.00146383
-0.000578047
-0.00201877
-0.000343735
-0.00227059
-0.00144082
-0.000166416
0.000647492
-0.000308367
0.00106595
-0.000344946
0.00108674
-0.000302966
0.000989665
-0.000214091
0.000869589
-9.95316e-05
0.000755528
2.70625e-05
0.000655729
0.000156431
0.000569633
0.000281209
0.000492289
0.000394071
0.000416125
0.000486169
0.000331573
0.000546009
0.000227107
0.000558841
8.9276e-05
0.000507447
-9.79063e-05
0.000375304
-0.000354381
0.00015577
-0.000706177
-0.000121617
-0.00118644
-0.000347867
-0.00179252
-0.000325413
-0.00229304
-0.00176623
-0.000261446
0.000908938
-0.000338847
0.00114335
-0.000230552
0.00097845
-3.79708e-05
0.000797083
0.000182377
0.000649241
0.000405888
0.000532017
0.00062134
0.000440277
0.000822982
0.000367991
0.001007
0.000308269
0.0011691
0.000254022
0.00130273
0.000197951
0.0013976
0.000132233
0.00143856
4.8319e-05
0.00140557
-6.49151e-05
0.00127252
-0.000221339
0.00101101
-0.000444659
0.000609429
-0.000784866
0.000138727
-0.00132182
-0.00016029
-0.00199403
-0.00192652
-0.000254789
0.00116373
2.35195e-06
0.000886211
0.000423923
0.000556878
0.000824373
0.000396634
0.0011777
0.000295913
0.00148557
0.000224143
0.0017526
0.000173253
0.00198369
0.000136902
0.00218256
0.000109393
0.00235038
8.62019e-05
0.00248476
6.35753e-05
0.00257882
3.81786e-05
0.00261934
7.79863e-06
0.00259036
-3.59352e-05
0.00246221
-9.31895e-05
0.00219493
-0.000177383
0.00173445
-0.000324383
0.0010515
-0.000638869
0.000302693
-0.00124522
-0.00162383
0.00116373
0.00204994
0.00260682
0.00300345
0.00329936
0.00352351
0.00369676
0.00383366
0.00394305
0.00402926
0.00409283
0.00413101
0.00413881
0.00410287
0.00400968
0.0038323
0.00350792
0.00286905
0.00162383
)
;

boundaryField
{
    movingWall
    {
        type            calculated;
        value           uniform 0;
    }
    fixedWalls
    {
        type            calculated;
        value           uniform 0;
    }
    frontAndBack
    {
        type            empty;
    }
}


// ************************************************************************* //
