/*--------------------------------*- C++ -*----------------------------------*\
  =========                 |
  \\      /  F ield         | OpenFOAM: The Open Source CFD Toolbox
   \\    /   O peration     | Website:  https://openfoam.org
    \\  /    A nd           | Version:  dev
     \\/     M anipulation  |
\*---------------------------------------------------------------------------*/
FoamFile
{
    format      ascii;
    class       volVectorField;
    location    "2.25";
    object      U;
}
// * * * * * * * * * * * * * * * * * * * * * * * * * * * * * * * * * * * * * //

dimensions      [0 1 -1 0 0 0 0];

internalField   nonuniform List<vector> 
400
(
(0.00012117 -0.0001229 0)
(-0.000139044 0.000162508 0)
(-0.00125103 0.000447028 0)
(-0.0029029 0.000612247 0)
(-0.00482926 0.000678498 0)
(-0.00681673 0.000675408 0)
(-0.00870216 0.000622418 0)
(-0.0103557 0.000528558 0)
(-0.0116628 0.000395666 0)
(-0.0125139 0.000223361 0)
(-0.012807 1.43163e-05 0)
(-0.0124616 -0.000221643 0)
(-0.0114424 -0.000462403 0)
(-0.00978838 -0.000674739 0)
(-0.00763603 -0.000817101 0)
(-0.00522935 -0.00084767 0)
(-0.0029021 -0.000736423 0)
(-0.00102587 -0.000478403 0)
(6.39414e-05 -0.000115343 0)
(0.000187523 0.000174697 0)
(-0.000165087 0.000131792 0)
(-0.0015234 0.00149198 0)
(-0.00459702 0.00269943 0)
(-0.00873579 0.0034335 0)
(-0.0134026 0.00373239 0)
(-0.0181636 0.00368533 0)
(-0.0226495 0.003364 0)
(-0.026547 0.00281058 0)
(-0.0295806 0.00204475 0)
(-0.0315001 0.00108109 0)
(-0.0320899 -5.03348e-05 0)
(-0.0311946 -0.00128555 0)
(-0.0287652 -0.00251317 0)
(-0.0249125 -0.00357557 0)
(-0.0199461 -0.00428569 0)
(-0.0143869 -0.00446445 0)
(-0.00892291 -0.00399512 0)
(-0.00429717 -0.00288221 0)
(-0.00118195 -0.00132141 0)
(-3.92955e-05 9.36186e-05 0)
(-0.000488069 0.00128249 0)
(-0.0029566 0.00462915 0)
(-0.00781939 0.00732309 0)
(-0.014041 0.00896297 0)
(-0.0208789 0.00961013 0)
(-0.0277687 0.00942491 0)
(-0.034217 0.00855169 0)
(-0.0397947 0.00708736 0)
(-0.0441221 0.0050904 0)
(-0.0468568 0.00261421 0)
(-0.0477054 -0.000250718 0)
(-0.0464575 -0.00333812 0)
(-0.0430434 -0.00637797 0)
(-0.0376022 -0.00900064 0)
(-0.0305375 -0.0107758 0)
(-0.0225394 -0.0112981 0)
(-0.0145317 -0.0103109 0)
(-0.00752665 -0.00784019 0)
(-0.00250073 -0.00431499 0)
(-0.000300639 -0.000782124 0)
(-0.000748198 0.00316697 0)
(-0.00419525 0.00925211 0)
(-0.0106778 0.013797 0)
(-0.0187438 0.0164889 0)
(-0.027453 0.0174852 0)
(-0.0361465 0.0170498 0)
(-0.044255 0.0154158 0)
(-0.0512811 0.0127437 0)
(-0.0567794 0.00913711 0)
(-0.0603396 0.00469453 0)
(-0.0615971 -0.000423299 0)
(-0.0602674 -0.00593165 0)
(-0.0562164 -0.0113693 0)
(-0.0495509 -0.0161051 0)
(-0.0406996 -0.0193964 0)
(-0.0304675 -0.0205304 0)
(-0.0199975 -0.0190378 0)
(-0.0106078 -0.0149246 0)
(-0.00366421 -0.00885258 0)
(-0.000489158 -0.00230814 0)
(-0.000959803 0.00566723 0)
(-0.00527087 0.0151738 0)
(-0.013235 0.0218866 0)
(-0.0229959 0.0257313 0)
(-0.0334233 0.0270555 0)
(-0.0437831 0.0262756 0)
(-0.0534612 0.023735 0)
(-0.0619253 0.0196621 0)
(-0.0686891 0.0141988 0)
(-0.073284 0.00747523 0)
(-0.0752623 -0.000292435 0)
(-0.0742264 -0.0087004 0)
(-0.0699123 -0.0170979 0)
(-0.0623135 -0.0245528 0)
(-0.051805 -0.0299294 0)
(-0.039262 -0.0320891 0)
(-0.0260695 -0.0302182 0)
(-0.0139566 -0.0242058 0)
(-0.00483718 -0.0149277 0)
(-0.000639111 -0.00439067 0)
(-0.00114649 0.00871048 0)
(-0.00625538 0.0222962 0)
(-0.0156191 0.0315029 0)
(-0.0269997 0.0366163 0)
(-0.0390893 0.0382711 0)
(-0.0510965 0.0370964 0)
(-0.0623893 0.0335725 0)
(-0.072428 0.0279974 0)
(-0.0807077 0.0205343 0)
(-0.0867065 0.0113137 0)
(-0.0898666 0.000567789 0)
(-0.0896357 -0.011224 0)
(-0.0855453 -0.0232293 0)
(-0.0773582 -0.0341839 0)
(-0.0652854 -0.0424576 0)
(-0.0502002 -0.0463064 0)
(-0.0337463 -0.0443484 0)
(-0.0182062 -0.0361731 0)
(-0.00629588 -0.0228392 0)
(-0.0008085 -0.00707331 0)
(-0.0013263 0.0122634 0)
(-0.00721349 0.0305709 0)
(-0.0179522 0.042605 0)
(-0.0309336 0.0491213 0)
(-0.0446849 0.0511427 0)
(-0.0583789 0.0495782 0)
(-0.0713943 0.0450763 0)
(-0.0832149 0.0380041 0)
(-0.0933419 0.0285178 0)
(-0.101212 0.0166977 0)
(-0.106152 0.00272425 0)
(-0.107401 -0.0129269 0)
(-0.10419 -0.0292839 0)
(-0.0959251 -0.0447421 0)
(-0.0824935 -0.0570649 0)
(-0.0646261 -0.0636562 0)
(-0.0441821 -0.062213 0)
(-0.0241392 -0.0516914 0)
(-0.00838553 -0.0332272 0)
(-0.00106507 -0.0105645 0)
(-0.00151194 0.0163261 0)
(-0.00819436 0.0399986 0)
(-0.0203258 0.0551933 0)
(-0.034916 0.0632531 0)
(-0.0503356 0.065701 0)
(-0.0657465 0.0638031 0)
(-0.0805725 0.0584124 0)
(-0.0943592 0.0499637 0)
(-0.106651 0.0385695 0)
(-0.116869 0.0241906 0)
(-0.124235 0.00685775 0)
(-0.127754 -0.0130623 0)
(-0.126275 -0.0345685 0)
(-0.118707 -0.0557558 0)
(-0.104406 -0.0736887 0)
(-0.083724 -0.0846247 0)
(-0.0585648 -0.0848288 0)
(-0.0326578 -0.0720375 0)
(-0.0115322 -0.0471508 0)
(-0.00149463 -0.0152725 0)
(-0.00171305 0.020923 0)
(-0.00923444 0.0506164 0)
(-0.0227987 0.06929 0)
(-0.0389954 0.0790139 0)
(-0.0560386 0.0819449 0)
(-0.0731065 0.0797976 0)
(-0.0897071 0.0736745 0)
(-0.105494 0.0640792 0)
(-0.120104 0.0510426 0)
(-0.132996 0.0343264 0)
(-0.143328 0.0136921 0)
(-0.149889 -0.0107575 0)
(-0.151123 -0.0381579 0)
(-0.145327 -0.0664268 0)
(-0.131103 -0.0919179 0)
(-0.108088 -0.109464 0)
(-0.0778565 -0.11325 0)
(-0.0447104 -0.0988414 0)
(-0.0162677 -0.0661446 0)
(-0.00221938 -0.0218559 0)
(-0.00194139 0.0260971 0)
(-0.0103714 0.0624843 0)
(-0.0254147 0.0849091 0)
(-0.0431641 0.0963491 0)
(-0.0616668 0.0997638 0)
(-0.0801447 0.0974291 0)
(-0.098232 0.0907521 0)
(-0.11574 0.0803146 0)
(-0.13246 0.0660337 0)
(-0.147963 0.0473976 0)
(-0.161434 0.023772 0)
(-0.171542 -0.00518669 0)
(-0.176391 -0.0389735 0)
(-0.173657 -0.0755666 0)
(-0.161024 -0.11075 0)
(-0.13703 -0.1378 0)
(-0.102301 -0.148148 0)
(-0.0610969 -0.133834 0)
(-0.0232514 -0.0922147 0)
(-0.00343087 -0.0312984 0)
(-0.00222069 0.0319189 0)
(-0.0116721 0.075684 0)
(-0.0282412 0.102029 0)
(-0.0473959 0.115088 0)
(-0.0669962 0.118849 0)
(-0.0863412 0.116285 0)
(-0.105234 0.109174 0)
(-0.123691 0.0981961 0)
(-0.14172 0.0831406 0)
(-0.159104 0.0631722 0)
(-0.175192 0.0371605 0)
(-0.188714 0.00414206 0)
(-0.197645 -0.0360047 0)
(-0.199212 -0.0816562 0)
(-0.190193 -0.128398 0)
(-0.167709 -0.168134 0)
(-0.130648 -0.189125 0)
(-0.0820408 -0.178283 0)
(-0.0332463 -0.127692 0)
(-0.00544065 -0.0450194 0)
(-0.00260573 0.0385181 0)
(-0.0132821 0.0903409 0)
(-0.0314327 0.120569 0)
(-0.0517036 0.134882 0)
(-0.071754 0.138596 0)
(-0.0910144 0.135547 0)
(-0.109505 0.127951 0)
(-0.127491 0.116615 0)
(-0.145252 0.101216 0)
(-0.162878 0.0805929 0)
(-0.180057 0.053083 0)
(-0.195849 0.0169915 0)
(-0.20845 -0.0286708 0)
(-0.215037 -0.0830874 0)
(-0.211791 -0.142269 0)
(-0.194373 -0.197418 0)
(-0.159201 -0.233836 0)
(-0.106419 -0.231986 0)
(-0.0469285 -0.174774 0)
(-0.00873007 -0.0650037 0)
(-0.00321939 0.0461593 0)
(-0.015509 0.106676 0)
(-0.0353193 0.140372 0)
(-0.0562019 0.155124 0)
(-0.0756549 0.158003 0)
(-0.0933576 0.153877 0)
(-0.109624 0.145456 0)
(-0.125005 0.133701 0)
(-0.140095 0.118217 0)
(-0.155368 0.0975828 0)
(-0.171013 0.0696642 0)
(-0.186706 0.0320496 0)
(-0.201299 -0.0172412 0)
(-0.212531 -0.0786147 0)
(-0.216645 -0.14928 0)
(-0.208275 -0.220953 0)
(-0.181084 -0.277201 0)
(-0.130708 -0.291879 0)
(-0.0643114 -0.234459 0)
(-0.013922 -0.0938278 0)
(-0.00432596 0.0554013 0)
(-0.0189608 0.12509 0)
(-0.040504 0.161145 0)
(-0.061111 0.174828 0)
(-0.0783275 0.175543 0)
(-0.092343 0.169332 0)
(-0.103904 0.159395 0)
(-0.113907 0.146846 0)
(-0.12328 0.131273 0)
(-0.132912 0.111112 0)
(-0.143572 0.0839277 0)
(-0.155755 0.0467709 0)
(-0.169368 -0.00325415 0)
(-0.183355 -0.0680415 0)
(-0.194936 -0.146702 0)
(-0.198775 -0.233053 0)
(-0.18639 -0.311321 0)
(-0.148102 -0.350719 0)
(-0.0835963 -0.304646 0)
(-0.0214985 -0.134258 0)
(-0.00646837 0.0674068 0)
(-0.0247522 0.14625 0)
(-0.0478789 0.182283 0)
(-0.0664968 0.192372 0)
(-0.078843 0.18896 0)
(-0.0861453 0.179268 0)
(-0.0898278 0.166856 0)
(-0.0912157 0.152913 0)
(-0.0915786 0.137028 0)
(-0.0921761 0.117621 0)
(-0.0943 0.0921915 0)
(-0.0992522 0.0575572 0)
(-0.108192 0.0102279 0)
(-0.12165 -0.0529588 0)
(-0.138717 -0.133471 0)
(-0.155667 -0.228712 0)
(-0.163644 -0.326798 0)
(-0.148487 -0.396923 0)
(-0.0996538 -0.377944 0)
(-0.0310026 -0.188183 0)
(-0.0106737 0.0845615 0)
(-0.0346714 0.171033 0)
(-0.058147 0.202362 0)
(-0.0710745 0.204959 0)
(-0.0740462 0.194888 0)
(-0.0702395 0.180189 0)
(-0.0620721 0.164408 0)
(-0.0513753 0.148584 0)
(-0.0397052 0.132231 0)
(-0.0285502 0.113825 0)
(-0.0195169 0.0910074 0)
(-0.0144588 0.0607256 0)
(-0.0155002 0.0194069 0)
(-0.0247639 -0.0367428 0)
(-0.0437244 -0.111233 0)
(-0.0716702 -0.205708 0)
(-0.102171 -0.315349 0)
(-0.11963 -0.41628 0)
(-0.103116 -0.440727 0)
(-0.0395877 -0.255458 0)
(-0.018519 0.111855 0)
(-0.0505091 0.199571 0)
(-0.0690182 0.217331 0)
(-0.0677978 0.207033 0)
(-0.053507 0.18779 0)
(-0.0323052 0.167215 0)
(-0.00764647 0.148024 0)
(0.0183175 0.130655 0)
(0.0440129 0.114349 0)
(0.0680434 0.097607 0)
(0.0888527 0.0783535 0)
(0.104471 0.0539796 0)
(0.112322 0.0213724 0)
(0.109253 -0.0231082 0)
(0.0917822 -0.083726 0)
(0.0570439 -0.165489 0)
(0.00629142 -0.272167 0)
(-0.0488319 -0.394483 0)
(-0.0811783 -0.473343 0)
(-0.0402913 -0.331396 0)
(-0.0305585 0.159249 0)
(-0.0683702 0.22625 0)
(-0.0626634 0.213692 0)
(-0.0295031 0.185555 0)
(0.0136136 0.157565 0)
(0.0588454 0.133213 0)
(0.103146 0.113064 0)
(0.145061 0.0964651 0)
(0.18375 0.0822061 0)
(0.21849 0.0688121 0)
(0.248272 0.0545981 0)
(0.271499 0.0376294 0)
(0.285681 0.0156669 0)
(0.287442 -0.0140099 0)
(0.27227 -0.0548436 0)
(0.234546 -0.112628 0)
(0.169464 -0.197547 0)
(0.0780689 -0.319822 0)
(-0.0171738 -0.448668 0)
(-0.018672 -0.392523 0)
(-0.0274888 0.229469 0)
(-0.0401543 0.226135 0)
(0.038909 0.166371 0)
(0.125539 0.12588 0)
(0.201988 0.097698 0)
(0.268104 0.0767668 0)
(0.325421 0.0612217 0)
(0.375057 0.0496019 0)
(0.417894 0.0405026 0)
(0.454468 0.0326734 0)
(0.484707 0.0249702 0)
(0.507763 0.0162618 0)
(0.521633 0.00535484 0)
(0.52359 -0.00888787 0)
(0.509168 -0.0284867 0)
(0.471761 -0.05701 0)
(0.402123 -0.103755 0)
(0.287116 -0.192005 0)
(0.126584 -0.331753 0)
(0.0648563 -0.369186 0)
(0.261621 0.138676 0)
(0.3256 0.119443 0)
(0.458413 0.0781921 0)
(0.56326 0.0521395 0)
(0.63413 0.0360278 0)
(0.684936 0.0253497 0)
(0.723787 0.0181674 0)
(0.754343 0.0133255 0)
(0.778674 0.00995053 0)
(0.79803 0.00738866 0)
(0.812912 0.00513963 0)
(0.823121 0.00279785 0)
(0.827793 -3.57633e-05 0)
(0.825288 -0.00345613 0)
(0.812769 -0.00812393 0)
(0.786152 -0.014971 0)
(0.737328 -0.0264197 0)
(0.648367 -0.0513363 0)
(0.474196 -0.111338 0)
(0.340712 -0.156311 0)
)
;

boundaryField
{
    movingWall
    {
        type            fixedValue;
        value           uniform (1 0 0);
    }
    fixedWalls
    {
        type            noSlip;
    }
    frontAndBack
    {
        type            empty;
    }
}


// ************************************************************************* //
