/*--------------------------------*- C++ -*----------------------------------*\
  =========                 |
  \\      /  F ield         | OpenFOAM: The Open Source CFD Toolbox
   \\    /   O peration     | Website:  https://openfoam.org
    \\  /    A nd           | Version:  dev
     \\/     M anipulation  |
\*---------------------------------------------------------------------------*/
FoamFile
{
    format      ascii;
    class       volScalarField;
    location    "2.25";
    object      Ux;
}
// * * * * * * * * * * * * * * * * * * * * * * * * * * * * * * * * * * * * * //

dimensions      [0 1 -1 0 0 0 0];

internalField   nonuniform List<scalar> 
400
(
0.00012117
-0.000139044
-0.00125103
-0.0029029
-0.00482926
-0.00681673
-0.00870216
-0.0103557
-0.0116628
-0.0125139
-0.012807
-0.0124616
-0.0114424
-0.00978838
-0.00763603
-0.00522935
-0.0029021
-0.00102587
6.39414e-05
0.000187523
-0.000165087
-0.0015234
-0.00459702
-0.00873579
-0.0134026
-0.0181636
-0.0226495
-0.026547
-0.0295806
-0.0315001
-0.0320899
-0.0311946
-0.0287652
-0.0249125
-0.0199461
-0.0143869
-0.00892291
-0.00429717
-0.00118195
-3.92955e-05
-0.000488069
-0.0029566
-0.00781939
-0.014041
-0.0208789
-0.0277687
-0.034217
-0.0397947
-0.0441221
-0.0468568
-0.0477054
-0.0464575
-0.0430434
-0.0376022
-0.0305375
-0.0225394
-0.0145317
-0.00752665
-0.00250073
-0.000300639
-0.000748198
-0.00419525
-0.0106778
-0.0187438
-0.027453
-0.0361465
-0.044255
-0.0512811
-0.0567794
-0.0603396
-0.0615971
-0.0602674
-0.0562164
-0.0495509
-0.0406996
-0.0304675
-0.0199975
-0.0106078
-0.00366421
-0.000489158
-0.000959803
-0.00527087
-0.013235
-0.0229959
-0.0334233
-0.0437831
-0.0534612
-0.0619253
-0.0686891
-0.073284
-0.0752623
-0.0742264
-0.0699123
-0.0623135
-0.051805
-0.039262
-0.0260695
-0.0139566
-0.00483718
-0.000639111
-0.00114649
-0.00625538
-0.0156191
-0.0269997
-0.0390893
-0.0510965
-0.0623893
-0.072428
-0.0807077
-0.0867065
-0.0898666
-0.0896357
-0.0855453
-0.0773582
-0.0652854
-0.0502002
-0.0337463
-0.0182062
-0.00629588
-0.0008085
-0.0013263
-0.00721349
-0.0179522
-0.0309336
-0.0446849
-0.0583789
-0.0713943
-0.0832149
-0.0933419
-0.101212
-0.106152
-0.107401
-0.10419
-0.0959251
-0.0824935
-0.0646261
-0.0441821
-0.0241392
-0.00838553
-0.00106507
-0.00151194
-0.00819436
-0.0203258
-0.034916
-0.0503356
-0.0657465
-0.0805725
-0.0943592
-0.106651
-0.116869
-0.124235
-0.127754
-0.126275
-0.118707
-0.104406
-0.083724
-0.0585648
-0.0326578
-0.0115322
-0.00149463
-0.00171305
-0.00923444
-0.0227987
-0.0389954
-0.0560386
-0.0731065
-0.0897071
-0.105494
-0.120104
-0.132996
-0.143328
-0.149889
-0.151123
-0.145327
-0.131103
-0.108088
-0.0778565
-0.0447104
-0.0162677
-0.00221938
-0.00194139
-0.0103714
-0.0254147
-0.0431641
-0.0616668
-0.0801447
-0.098232
-0.11574
-0.13246
-0.147963
-0.161434
-0.171542
-0.176391
-0.173657
-0.161024
-0.13703
-0.102301
-0.0610969
-0.0232514
-0.00343087
-0.00222069
-0.0116721
-0.0282412
-0.0473959
-0.0669962
-0.0863412
-0.105234
-0.123691
-0.14172
-0.159104
-0.175192
-0.188714
-0.197645
-0.199212
-0.190193
-0.167709
-0.130648
-0.0820408
-0.0332463
-0.00544065
-0.00260573
-0.0132821
-0.0314327
-0.0517036
-0.071754
-0.0910144
-0.109505
-0.127491
-0.145252
-0.162878
-0.180057
-0.195849
-0.20845
-0.215037
-0.211791
-0.194373
-0.159201
-0.106419
-0.0469285
-0.00873007
-0.00321939
-0.015509
-0.0353193
-0.0562019
-0.0756549
-0.0933576
-0.109624
-0.125005
-0.140095
-0.155368
-0.171013
-0.186706
-0.201299
-0.212531
-0.216645
-0.208275
-0.181084
-0.130708
-0.0643114
-0.013922
-0.00432596
-0.0189608
-0.040504
-0.061111
-0.0783275
-0.092343
-0.103904
-0.113907
-0.12328
-0.132912
-0.143572
-0.155755
-0.169368
-0.183355
-0.194936
-0.198775
-0.18639
-0.148102
-0.0835963
-0.0214985
-0.00646837
-0.0247522
-0.0478789
-0.0664968
-0.078843
-0.0861453
-0.0898278
-0.0912157
-0.0915786
-0.0921761
-0.0943
-0.0992522
-0.108192
-0.12165
-0.138717
-0.155667
-0.163644
-0.148487
-0.0996538
-0.0310026
-0.0106737
-0.0346714
-0.058147
-0.0710745
-0.0740462
-0.0702395
-0.0620721
-0.0513753
-0.0397052
-0.0285502
-0.0195169
-0.0144588
-0.0155002
-0.0247639
-0.0437244
-0.0716702
-0.102171
-0.11963
-0.103116
-0.0395877
-0.018519
-0.0505091
-0.0690182
-0.0677978
-0.053507
-0.0323052
-0.00764647
0.0183175
0.0440129
0.0680434
0.0888527
0.104471
0.112322
0.109253
0.0917822
0.0570439
0.00629142
-0.0488319
-0.0811783
-0.0402913
-0.0305585
-0.0683702
-0.0626634
-0.0295031
0.0136136
0.0588454
0.103146
0.145061
0.18375
0.21849
0.248272
0.271499
0.285681
0.287442
0.27227
0.234546
0.169464
0.0780689
-0.0171738
-0.018672
-0.0274888
-0.0401543
0.038909
0.125539
0.201988
0.268104
0.325421
0.375057
0.417894
0.454468
0.484707
0.507763
0.521633
0.52359
0.509168
0.471761
0.402123
0.287116
0.126584
0.0648563
0.261621
0.3256
0.458413
0.56326
0.63413
0.684936
0.723787
0.754343
0.778674
0.79803
0.812912
0.823121
0.827793
0.825288
0.812769
0.786152
0.737328
0.648367
0.474196
0.340712
)
;

boundaryField
{
    movingWall
    {
        type            calculated;
        value           uniform 1;
    }
    fixedWalls
    {
        type            calculated;
        value           uniform 0;
    }
    frontAndBack
    {
        type            empty;
    }
}


// ************************************************************************* //
