/*--------------------------------*- C++ -*----------------------------------*\
  =========                 |
  \\      /  F ield         | OpenFOAM: The Open Source CFD Toolbox
   \\    /   O peration     | Website:  https://openfoam.org
    \\  /    A nd           | Version:  dev
     \\/     M anipulation  |
\*---------------------------------------------------------------------------*/
FoamFile
{
    format      ascii;
    class       volScalarField;
    location    "2.25";
    object      Uy;
}
// * * * * * * * * * * * * * * * * * * * * * * * * * * * * * * * * * * * * * //

dimensions      [0 1 -1 0 0 0 0];

internalField   nonuniform List<scalar> 
400
(
-0.0001229
0.000162508
0.000447028
0.000612247
0.000678498
0.000675408
0.000622418
0.000528558
0.000395666
0.000223361
1.43163e-05
-0.000221643
-0.000462403
-0.000674739
-0.000817101
-0.00084767
-0.000736423
-0.000478403
-0.000115343
0.000174697
0.000131792
0.00149198
0.00269943
0.0034335
0.00373239
0.00368533
0.003364
0.00281058
0.00204475
0.00108109
-5.03348e-05
-0.00128555
-0.00251317
-0.00357557
-0.00428569
-0.00446445
-0.00399512
-0.00288221
-0.00132141
9.36186e-05
0.00128249
0.00462915
0.00732309
0.00896297
0.00961013
0.00942491
0.00855169
0.00708736
0.0050904
0.00261421
-0.000250718
-0.00333812
-0.00637797
-0.00900064
-0.0107758
-0.0112981
-0.0103109
-0.00784019
-0.00431499
-0.000782124
0.00316697
0.00925211
0.013797
0.0164889
0.0174852
0.0170498
0.0154158
0.0127437
0.00913711
0.00469453
-0.000423299
-0.00593165
-0.0113693
-0.0161051
-0.0193964
-0.0205304
-0.0190378
-0.0149246
-0.00885258
-0.00230814
0.00566723
0.0151738
0.0218866
0.0257313
0.0270555
0.0262756
0.023735
0.0196621
0.0141988
0.00747523
-0.000292435
-0.0087004
-0.0170979
-0.0245528
-0.0299294
-0.0320891
-0.0302182
-0.0242058
-0.0149277
-0.00439067
0.00871048
0.0222962
0.0315029
0.0366163
0.0382711
0.0370964
0.0335725
0.0279974
0.0205343
0.0113137
0.000567789
-0.011224
-0.0232293
-0.0341839
-0.0424576
-0.0463064
-0.0443484
-0.0361731
-0.0228392
-0.00707331
0.0122634
0.0305709
0.042605
0.0491213
0.0511427
0.0495782
0.0450763
0.0380041
0.0285178
0.0166977
0.00272425
-0.0129269
-0.0292839
-0.0447421
-0.0570649
-0.0636562
-0.062213
-0.0516914
-0.0332272
-0.0105645
0.0163261
0.0399986
0.0551933
0.0632531
0.065701
0.0638031
0.0584124
0.0499637
0.0385695
0.0241906
0.00685775
-0.0130623
-0.0345685
-0.0557558
-0.0736887
-0.0846247
-0.0848288
-0.0720375
-0.0471508
-0.0152725
0.020923
0.0506164
0.06929
0.0790139
0.0819449
0.0797976
0.0736745
0.0640792
0.0510426
0.0343264
0.0136921
-0.0107575
-0.0381579
-0.0664268
-0.0919179
-0.109464
-0.11325
-0.0988414
-0.0661446
-0.0218559
0.0260971
0.0624843
0.0849091
0.0963491
0.0997638
0.0974291
0.0907521
0.0803146
0.0660337
0.0473976
0.023772
-0.00518669
-0.0389735
-0.0755666
-0.11075
-0.1378
-0.148148
-0.133834
-0.0922147
-0.0312984
0.0319189
0.075684
0.102029
0.115088
0.118849
0.116285
0.109174
0.0981961
0.0831406
0.0631722
0.0371605
0.00414206
-0.0360047
-0.0816562
-0.128398
-0.168134
-0.189125
-0.178283
-0.127692
-0.0450194
0.0385181
0.0903409
0.120569
0.134882
0.138596
0.135547
0.127951
0.116615
0.101216
0.0805929
0.053083
0.0169915
-0.0286708
-0.0830874
-0.142269
-0.197418
-0.233836
-0.231986
-0.174774
-0.0650037
0.0461593
0.106676
0.140372
0.155124
0.158003
0.153877
0.145456
0.133701
0.118217
0.0975828
0.0696642
0.0320496
-0.0172412
-0.0786147
-0.14928
-0.220953
-0.277201
-0.291879
-0.234459
-0.0938278
0.0554013
0.12509
0.161145
0.174828
0.175543
0.169332
0.159395
0.146846
0.131273
0.111112
0.0839277
0.0467709
-0.00325415
-0.0680415
-0.146702
-0.233053
-0.311321
-0.350719
-0.304646
-0.134258
0.0674068
0.14625
0.182283
0.192372
0.18896
0.179268
0.166856
0.152913
0.137028
0.117621
0.0921915
0.0575572
0.0102279
-0.0529588
-0.133471
-0.228712
-0.326798
-0.396923
-0.377944
-0.188183
0.0845615
0.171033
0.202362
0.204959
0.194888
0.180189
0.164408
0.148584
0.132231
0.113825
0.0910074
0.0607256
0.0194069
-0.0367428
-0.111233
-0.205708
-0.315349
-0.41628
-0.440727
-0.255458
0.111855
0.199571
0.217331
0.207033
0.18779
0.167215
0.148024
0.130655
0.114349
0.097607
0.0783535
0.0539796
0.0213724
-0.0231082
-0.083726
-0.165489
-0.272167
-0.394483
-0.473343
-0.331396
0.159249
0.22625
0.213692
0.185555
0.157565
0.133213
0.113064
0.0964651
0.0822061
0.0688121
0.0545981
0.0376294
0.0156669
-0.0140099
-0.0548436
-0.112628
-0.197547
-0.319822
-0.448668
-0.392523
0.229469
0.226135
0.166371
0.12588
0.097698
0.0767668
0.0612217
0.0496019
0.0405026
0.0326734
0.0249702
0.0162618
0.00535484
-0.00888787
-0.0284867
-0.05701
-0.103755
-0.192005
-0.331753
-0.369186
0.138676
0.119443
0.0781921
0.0521395
0.0360278
0.0253497
0.0181674
0.0133255
0.00995053
0.00738866
0.00513963
0.00279785
-3.57633e-05
-0.00345613
-0.00812393
-0.014971
-0.0264197
-0.0513363
-0.111338
-0.156311
)
;

boundaryField
{
    movingWall
    {
        type            calculated;
        value           uniform 0;
    }
    fixedWalls
    {
        type            calculated;
        value           uniform 0;
    }
    frontAndBack
    {
        type            empty;
    }
}


// ************************************************************************* //
