/*--------------------------------*- C++ -*----------------------------------*\
  =========                 |
  \\      /  F ield         | OpenFOAM: The Open Source CFD Toolbox
   \\    /   O peration     | Website:  https://openfoam.org
    \\  /    A nd           | Version:  dev
     \\/     M anipulation  |
\*---------------------------------------------------------------------------*/
FoamFile
{
    format      ascii;
    class       volVectorField;
    location    "48.6";
    object      U;
}
// * * * * * * * * * * * * * * * * * * * * * * * * * * * * * * * * * * * * * //

dimensions      [0 1 -1 0 0 0 0];

internalField   nonuniform List<vector> 
5184
(
(1.24477e-05 -1.2596e-05 0)
(4.5366e-05 -2.08282e-05 0)
(8.04635e-05 -1.72272e-05 0)
(9.60975e-05 -8.19005e-06 0)
(8.22624e-05 2.67154e-06 0)
(3.65566e-05 1.36207e-05 0)
(-4.04788e-05 2.38505e-05 0)
(-0.000146826 3.3056e-05 0)
(-0.000279692 4.11166e-05 0)
(-0.000436018 4.80377e-05 0)
(-0.000612684 5.38809e-05 0)
(-0.000806654 5.87309e-05 0)
(-0.00101506 6.26804e-05 0)
(-0.00123523 6.58206e-05 0)
(-0.00146472 6.82363e-05 0)
(-0.00170125 7.0003e-05 0)
(-0.00194276 7.11848e-05 0)
(-0.00218733 7.18343e-05 0)
(-0.00243318 7.19923e-05 0)
(-0.00267862 7.16884e-05 0)
(-0.00292204 7.09419e-05 0)
(-0.00316189 6.97634e-05 0)
(-0.00339663 6.81557e-05 0)
(-0.00362474 6.61159e-05 0)
(-0.00384469 6.36368e-05 0)
(-0.00405494 6.07086e-05 0)
(-0.00425393 5.73208e-05 0)
(-0.00444009 5.34637e-05 0)
(-0.00461184 4.91303e-05 0)
(-0.00476761 4.43176e-05 0)
(-0.00490582 3.9028e-05 0)
(-0.00502495 3.32707e-05 0)
(-0.00512355 2.70631e-05 0)
(-0.00520024 2.04311e-05 0)
(-0.00525375 1.34104e-05 0)
(-0.00528296 6.0468e-06 0)
(-0.00528694 -1.60352e-06 0)
(-0.00526496 -9.47409e-06 0)
(-0.00521651 -1.74884e-05 0)
(-0.00514138 -2.55604e-05 0)
(-0.0050396 -3.35957e-05 0)
(-0.00491158 -4.14927e-05 0)
(-0.00475801 -4.91442e-05 0)
(-0.00457994 -5.64391e-05 0)
(-0.00437878 -6.32648e-05 0)
(-0.00415629 -6.95093e-05 0)
(-0.00391456 -7.50637e-05 0)
(-0.00365602 -7.98251e-05 0)
(-0.0033834 -8.36988e-05 0)
(-0.00309971 -8.66011e-05 0)
(-0.00280818 -8.84614e-05 0)
(-0.00251224 -8.92245e-05 0)
(-0.00221546 -8.88522e-05 0)
(-0.00192151 -8.73246e-05 0)
(-0.00163404 -8.46415e-05 0)
(-0.00135672 -8.08222e-05 0)
(-0.00109307 -7.59062e-05 0)
(-0.000846467 -6.99522e-05 0)
(-0.00062006 -6.3038e-05 0)
(-0.0004167 -5.52598e-05 0)
(-0.000238886 -4.67316e-05 0)
(-8.8695e-05 -3.75862e-05 0)
(3.2284e-05 -2.79786e-05 0)
(0.000123038 -1.80914e-05 0)
(0.000183235 -8.15053e-06 0)
(0.000213381 1.54853e-06 0)
(0.000215065 1.05807e-05 0)
(0.000191336 1.83104e-05 0)
(0.000147226 2.37282e-05 0)
(9.08314e-05 2.51427e-05 0)
(3.66292e-05 1.98644e-05 0)
(6.22158e-06 6.25089e-06 0)
(2.0928e-05 -4.57279e-05 0)
(6.57985e-05 -6.56196e-05 0)
(9.49047e-05 -4.05252e-05 0)
(7.29986e-05 7.64953e-06 0)
(-1.87586e-05 6.56973e-05 0)
(-0.00018719 0.000126023 0)
(-0.000432883 0.000184343 0)
(-0.000752622 0.000238408 0)
(-0.00114086 0.000287076 0)
(-0.00159081 0.000329902 0)
(-0.00209514 0.000366848 0)
(-0.00264638 0.000398102 0)
(-0.00323722 0.000423976 0)
(-0.00386067 0.000444837 0)
(-0.00451013 0.000461062 0)
(-0.00517939 0.000473011 0)
(-0.00586264 0.000481005 0)
(-0.00655446 0.00048532 0)
(-0.00724968 0.000486181 0)
(-0.00794344 0.000483758 0)
(-0.00863102 0.000478172 0)
(-0.00930788 0.0004695 0)
(-0.00996954 0.000457781 0)
(-0.0106116 0.000443024 0)
(-0.0112296 0.000425217 0)
(-0.0118191 0.000404337 0)
(-0.0123758 0.000380358 0)
(-0.0128952 0.000353265 0)
(-0.013373 0.000323057 0)
(-0.0138047 0.000289762 0)
(-0.0141862 0.000253439 0)
(-0.0145134 0.000214193 0)
(-0.0147822 0.000172172 0)
(-0.0149893 0.00012758 0)
(-0.0151312 8.06764e-05 0)
(-0.015205 3.17811e-05 0)
(-0.0152085 -1.87271e-05 0)
(-0.0151399 -7.04098e-05 0)
(-0.014998 -0.000122772 0)
(-0.0147825 -0.000175265 0)
(-0.0144938 -0.000227295 0)
(-0.014133 -0.00027823 0)
(-0.0137023 -0.000327408 0)
(-0.0132048 -0.00037415 0)
(-0.0126443 -0.00041777 0)
(-0.0120258 -0.000457594 0)
(-0.011355 -0.000492969 0)
(-0.0106386 -0.00052328 0)
(-0.00988387 -0.000547965 0)
(-0.00909898 -0.00056653 0)
(-0.00829262 -0.000578562 0)
(-0.00747398 -0.000583742 0)
(-0.00665259 -0.000581854 0)
(-0.0058382 -0.000572795 0)
(-0.00504059 -0.000556581 0)
(-0.00426944 -0.00053335 0)
(-0.00353412 -0.000503367 0)
(-0.00284357 -0.000467022 0)
(-0.00220606 -0.00042483 0)
(-0.00162907 -0.000377432 0)
(-0.00111909 -0.000325597 0)
(-0.000681412 -0.000270229 0)
(-0.000319946 -0.00021239 0)
(-3.69792e-05 -0.000153332 0)
(0.000167125 -9.45678e-05 0)
(0.000294292 -3.79766e-05 0)
(0.000349277 1.39759e-05 0)
(0.000340359 5.79849e-05 0)
(0.000280033 8.94618e-05 0)
(0.000186153 0.000101914 0)
(8.64005e-05 8.65681e-05 0)
(1.96796e-05 3.65108e-05 0)
(1.76797e-05 -8.12672e-05 0)
(4.14467e-05 -9.50089e-05 0)
(1.97542e-05 -1.91215e-05 0)
(-8.38472e-05 0.000105957 0)
(-0.000290144 0.000254712 0)
(-0.000607887 0.000410694 0)
(-0.00103834 0.000563581 0)
(-0.00157768 0.000707233 0)
(-0.00221876 0.000838198 0)
(-0.00295237 0.000954765 0)
(-0.00376823 0.00105634 0)
(-0.00465564 0.00114302 0)
(-0.00560386 0.00121531 0)
(-0.00660243 0.00127394 0)
(-0.0076413 0.00131973 0)
(-0.00871088 0.00135351 0)
(-0.0098021 0.00137605 0)
(-0.0109064 0.00138801 0)
(-0.0120154 0.00138997 0)
(-0.0131215 0.00138237 0)
(-0.0142169 0.00136553 0)
(-0.0152944 0.00133967 0)
(-0.0163466 0.00130494 0)
(-0.0173665 0.00126139 0)
(-0.0183469 0.00120902 0)
(-0.0192809 0.00114784 0)
(-0.0201613 0.00107782 0)
(-0.0209812 0.00099899 0)
(-0.0217338 0.000911407 0)
(-0.0224122 0.000815212 0)
(-0.0230099 0.000710635 0)
(-0.0235206 0.000598024 0)
(-0.0239384 0.00047785 0)
(-0.0242577 0.00035073 0)
(-0.0244738 0.000217431 0)
(-0.0245823 7.88753e-05 0)
(-0.0245798 -6.38552e-05 0)
(-0.024464 -0.000209524 0)
(-0.0242332 -0.000356749 0)
(-0.0238871 -0.000504009 0)
(-0.0234266 -0.00064967 0)
(-0.0228538 -0.000791997 0)
(-0.0221721 -0.000929187 0)
(-0.0213865 -0.0010594 0)
(-0.0205032 -0.00118077 0)
(-0.0195297 -0.0012915 0)
(-0.0184751 -0.00138982 0)
(-0.0173496 -0.00147408 0)
(-0.0161645 -0.00154279 0)
(-0.0149323 -0.00159463 0)
(-0.0136664 -0.0016285 0)
(-0.0123806 -0.00164357 0)
(-0.0110897 -0.00163926 0)
(-0.0098084 -0.00161533 0)
(-0.00855165 -0.00157184 0)
(-0.00733415 -0.0015092 0)
(-0.00617014 -0.00142815 0)
(-0.00507317 -0.0013298 0)
(-0.00405578 -0.00121559 0)
(-0.00312925 -0.00108733 0)
(-0.00230332 -0.000947193 0)
(-0.00158587 -0.000797754 0)
(-0.000982654 -0.000642019 0)
(-0.000496893 -0.000483521 0)
(-0.000128898 -0.000326459 0)
(0.000124402 -0.000175925 0)
(0.000270112 -3.82415e-05 0)
(0.000320096 7.85687e-05 0)
(0.000291497 0.000164206 0)
(0.000207545 0.000205507 0)
(0.000102512 0.00018637 0)
(2.49863e-05 9.04331e-05 0)
(8.8635e-06 -9.7768e-05 0)
(-6.94139e-06 -7.3175e-05 0)
(-0.000107492 8.47848e-05 0)
(-0.000322302 0.000318423 0)
(-0.000669624 0.000590234 0)
(-0.00115786 0.000874585 0)
(-0.00178777 0.00115444 0)
(-0.00255458 0.001419 0)
(-0.00344974 0.00166179 0)
(-0.00446221 0.00187928 0)
(-0.00557952 0.0020699 0)
(-0.00678846 0.00223341 0)
(-0.0080756 0.00237036 0)
(-0.00942769 0.00248179 0)
(-0.0108318 0.00256897 0)
(-0.0122756 0.00263324 0)
(-0.013747 0.00267587 0)
(-0.0152347 0.00269802 0)
(-0.0167277 0.00270067 0)
(-0.0182156 0.0026846 0)
(-0.019688 0.00265043 0)
(-0.021135 0.00259856 0)
(-0.0225468 0.00252928 0)
(-0.0239138 0.00244274 0)
(-0.0252265 0.00233901 0)
(-0.0264753 0.00221816 0)
(-0.0276509 0.00208022 0)
(-0.028744 0.00192531 0)
(-0.0297455 0.00175363 0)
(-0.0306466 0.00156555 0)
(-0.0314386 0.00136157 0)
(-0.0321133 0.00114244 0)
(-0.0326632 0.000909139 0)
(-0.0330811 0.000662897 0)
(-0.0333609 0.000405233 0)
(-0.0334973 0.000137949 0)
(-0.0334861 -0.000136864 0)
(-0.0333243 -0.000416836 0)
(-0.0330101 -0.000699328 0)
(-0.0325434 -0.000981462 0)
(-0.0319255 -0.00126015 0)
(-0.0311595 -0.00153213 0)
(-0.03025 -0.00179403 0)
(-0.0292037 -0.00204241 0)
(-0.0280287 -0.00227381 0)
(-0.026735 -0.00248484 0)
(-0.0253345 -0.00267226 0)
(-0.0238405 -0.00283302 0)
(-0.0222676 -0.00296434 0)
(-0.0206322 -0.0030638 0)
(-0.0189513 -0.00312937 0)
(-0.0172432 -0.00315951 0)
(-0.0155267 -0.0031532 0)
(-0.0138209 -0.00310999 0)
(-0.012145 -0.00303004 0)
(-0.0105179 -0.00291412 0)
(-0.00895816 -0.00276367 0)
(-0.00748307 -0.00258079 0)
(-0.00610881 -0.00236825 0)
(-0.00484988 -0.00212949 0)
(-0.00371877 -0.00186868 0)
(-0.0027256 -0.0015907 0)
(-0.00187768 -0.00130128 0)
(-0.00117917 -0.0010071 0)
(-0.000630503 -0.000715958 0)
(-0.000227992 -0.000437151 0)
(3.68509e-05 -0.00018182 0)
(0.000177937 3.64174e-05 0)
(0.00021501 0.000200831 0)
(0.000174248 0.000291025 0)
(9.30998e-05 0.00028271 0)
(2.40425e-05 0.00014735 0)
(-2.11267e-06 -8.44602e-05 0)
(-6.72629e-05 2.08503e-05 0)
(-0.000264097 0.000295476 0)
(-0.000609829 0.000668166 0)
(-0.00111696 0.0010911 0)
(-0.00179172 0.00153034 0)
(-0.00263309 0.00196246 0)
(-0.00363471 0.00237195 0)
(-0.00478645 0.0027491 0)
(-0.00607559 0.00308826 0)
(-0.00748777 0.00338666 0)
(-0.00900773 0.00364348 0)
(-0.0106199 0.00385918 0)
(-0.0123086 0.00403499 0)
(-0.0140587 0.00417259 0)
(-0.0158553 0.00427378 0)
(-0.017684 0.00434037 0)
(-0.019531 0.00437399 0)
(-0.0213829 0.00437608 0)
(-0.0232267 0.00434781 0)
(-0.0250498 0.00429008 0)
(-0.02684 0.00420356 0)
(-0.0285851 0.0040887 0)
(-0.0302732 0.0039458 0)
(-0.0318925 0.00377506 0)
(-0.0334314 0.00357662 0)
(-0.0348783 0.00335068 0)
(-0.036222 0.0030975 0)
(-0.0374514 0.00281754 0)
(-0.0385556 0.00251146 0)
(-0.0395244 0.0021802 0)
(-0.040348 0.00182504 0)
(-0.0410172 0.00144762 0)
(-0.0415238 0.00105002 0)
(-0.0418604 0.00063469 0)
(-0.0420209 0.000204573 0)
(-0.0420004 -0.000236976 0)
(-0.0417955 -0.000686166 0)
(-0.0414045 -0.0011388 0)
(-0.0408274 -0.00159033 0)
(-0.040066 -0.00203589 0)
(-0.0391242 -0.00247034 0)
(-0.0380078 -0.0028884 0)
(-0.0367248 -0.00328468 0)
(-0.0352852 -0.00365379 0)
(-0.0337012 -0.00399047 0)
(-0.0319868 -0.00428964 0)
(-0.0301581 -0.00454657 0)
(-0.0282327 -0.00475696 0)
(-0.02623 -0.00491704 0)
(-0.0241705 -0.00502368 0)
(-0.022076 -0.00507449 0)
(-0.0199687 -0.00506791 0)
(-0.0178716 -0.00500326 0)
(-0.0158076 -0.00488079 0)
(-0.0137993 -0.00470176 0)
(-0.0118686 -0.00446846 0)
(-0.0100362 -0.0041842 0)
(-0.00832159 -0.00385337 0)
(-0.00674193 -0.00348144 0)
(-0.00531224 -0.00307497 0)
(-0.00404463 -0.00264172 0)
(-0.00294797 -0.00219068 0)
(-0.00202741 -0.00173226 0)
(-0.00128387 -0.00127854 0)
(-0.000713603 -0.000843543 0)
(-0.000307597 -0.000443782 0)
(-5.10748e-05 -9.88197e-05 0)
(7.6859e-05 0.000167995 0)
(0.00010373 0.000328917 0)
(6.75717e-05 0.000351207 0)
(1.96806e-05 0.000194237 0)
(-1.36913e-05 -3.75828e-05 0)
(-0.000132843 0.000197344 0)
(-0.000435899 0.000627005 0)
(-0.000924845 0.00117062 0)
(-0.00160432 0.00177222 0)
(-0.00247688 0.00239092 0)
(-0.0035387 0.00299765 0)
(-0.00478107 0.00357261 0)
(-0.00619189 0.00410293 0)
(-0.00775663 0.00458085 0)
(-0.00945916 0.00500229 0)
(-0.0112824 0.00536575 0)
(-0.0132089 0.00567149 0)
(-0.015221 0.00592085 0)
(-0.0173016 0.00611583 0)
(-0.0194336 0.00625869 0)
(-0.0216007 0.00635171 0)
(-0.0237868 0.00639703 0)
(-0.0259764 0.00639651 0)
(-0.0281545 0.00635172 0)
(-0.0303063 0.0062639 0)
(-0.0324174 0.00613398 0)
(-0.0344736 0.00596262 0)
(-0.036461 0.0057503 0)
(-0.0383657 0.00549737 0)
(-0.0401742 0.00520416 0)
(-0.041873 0.00487105 0)
(-0.043449 0.00449855 0)
(-0.0448894 0.00408744 0)
(-0.0461817 0.00363881 0)
(-0.047314 0.00315415 0)
(-0.0482751 0.00263542 0)
(-0.0490548 0.0020851 0)
(-0.0496434 0.00150623 0)
(-0.0500329 0.000902474 0)
(-0.0502163 0.00027808 0)
(-0.0501883 -0.000362082 0)
(-0.0499451 -0.00101256 0)
(-0.049485 -0.00166733 0)
(-0.0488081 -0.0023199 0)
(-0.0479167 -0.00296333 0)
(-0.0468155 -0.00359036 0)
(-0.0455111 -0.00419346 0)
(-0.0440129 -0.00476503 0)
(-0.0423324 -0.00529747 0)
(-0.0404835 -0.00578334 0)
(-0.0384824 -0.00621549 0)
(-0.0363472 -0.00658726 0)
(-0.0340983 -0.00689259 0)
(-0.0317576 -0.00712617 0)
(-0.0293486 -0.00728361 0)
(-0.0268959 -0.00736154 0)
(-0.0244251 -0.00735776 0)
(-0.0219623 -0.00727132 0)
(-0.0195336 -0.00710261 0)
(-0.0171649 -0.0068534 0)
(-0.0148811 -0.00652695 0)
(-0.0127061 -0.00612798 0)
(-0.0106619 -0.00566274 0)
(-0.00876864 -0.00513899 0)
(-0.00704342 -0.0045661 0)
(-0.00550037 -0.00395504 0)
(-0.00414998 -0.00331854 0)
(-0.00299859 -0.00267118 0)
(-0.00204799 -0.00202971 0)
(-0.00129489 -0.00141332 0)
(-0.000730517 -0.00084417 0)
(-0.000340127 -0.000347939 0)
(-0.000102751 4.53852e-05 0)
(9.2682e-06 0.000300845 0)
(3.25505e-05 0.000377615 0)
(1.36333e-05 0.000224649 0)
(-2.51891e-05 4.40573e-05 0)
(-0.000200056 0.000461317 0)
(-0.000614239 0.0010873 0)
(-0.00125326 0.0018352 0)
(-0.00211266 0.00264313 0)
(-0.00319029 0.00346484 0)
(-0.00447858 0.00426665 0)
(-0.0059658 0.00502513 0)
(-0.00763745 0.00572463 0)
(-0.00947698 0.00635548 0)
(-0.0114664 0.00691234 0)
(-0.0135869 0.00739306 0)
(-0.0158192 0.00779764 0)
(-0.0181441 0.00812751 0)
(-0.0205425 0.00838495 0)
(-0.0229957 0.00857262 0)
(-0.0254854 0.00869325 0)
(-0.0279939 0.00874945 0)
(-0.0305038 0.00874352 0)
(-0.032998 0.00867742 0)
(-0.03546 0.00855272 0)
(-0.0378736 0.00837063 0)
(-0.0402226 0.00813206 0)
(-0.0424913 0.00783768 0)
(-0.044664 0.00748806 0)
(-0.0467255 0.00708373 0)
(-0.0486607 0.00662532 0)
(-0.0504546 0.00611371 0)
(-0.052093 0.00555005 0)
(-0.0535619 0.00493597 0)
(-0.0548482 0.00427363 0)
(-0.0559393 0.00356579 0)
(-0.0568238 0.00281591 0)
(-0.0574912 0.00202821 0)
(-0.0579326 0.00120766 0)
(-0.0581403 0.000360054 0)
(-0.0581086 -0.000508037 0)
(-0.0578335 -0.00138928 0)
(-0.0573131 -0.00227561 0)
(-0.0565476 -0.00315836 0)
(-0.0555398 -0.00402828 0)
(-0.0542947 -0.0048757 0)
(-0.0528201 -0.00569066 0)
(-0.0511261 -0.00646307 0)
(-0.0492256 -0.00718287 0)
(-0.0471339 -0.0078402 0)
(-0.044869 -0.00842563 0)
(-0.042451 -0.00893034 0)
(-0.0399022 -0.00934629 0)
(-0.037247 -0.00966648 0)
(-0.0345114 -0.00988508 0)
(-0.0317226 -0.00999763 0)
(-0.0289089 -0.0100012 0)
(-0.0260994 -0.00989449 0)
(-0.0233229 -0.009678 0)
(-0.0206083 -0.00935409 0)
(-0.0179835 -0.00892704 0)
(-0.015475 -0.00840311 0)
(-0.0131076 -0.00779058 0)
(-0.0109038 -0.00709977 0)
(-0.00888307 -0.00634306 0)
(-0.00706159 -0.00553499 0)
(-0.00545156 -0.00469231 0)
(-0.00406085 -0.00383411 0)
(-0.00289243 -0.00298211 0)
(-0.00194403 -0.0021609 0)
(-0.00120769 -0.00139843 0)
(-0.000669451 -0.000726562 0)
(-0.000309099 -0.000181797 0)
(-9.97765e-05 0.000194044 0)
(-7.67441e-06 0.000352822 0)
(6.86981e-06 0.000235148 0)
(-3.6349e-05 0.000160455 0)
(-0.000267018 0.000814641 0)
(-0.000793993 0.00168014 0)
(-0.00158614 0.00266692 0)
(-0.0026293 0.00370924 0)
(-0.00391591 0.00475704 0)
(-0.005434 0.00577325 0)
(-0.00716828 0.00673159 0)
(-0.00910142 0.00761424 0)
(-0.0112145 0.00840993 0)
(-0.0134877 0.00911231 0)
(-0.0159002 0.00971866 0)
(-0.0184313 0.0102288 0)
(-0.02106 0.0106443 0)
(-0.0237658 0.0109676 0)
(-0.0265284 0.0112018 0)
(-0.0293278 0.01135 0)
(-0.0321447 0.0114154 0)
(-0.0349601 0.0114007 0)
(-0.0377554 0.0113081 0)
(-0.0405124 0.0111395 0)
(-0.0432131 0.0108966 0)
(-0.0458399 0.0105804 0)
(-0.0483753 0.0101919 0)
(-0.0508022 0.00973174 0)
(-0.0531036 0.00920089 0)
(-0.055263 0.00860022 0)
(-0.0572641 0.007931 0)
(-0.0590912 0.0071949 0)
(-0.0607289 0.00639414 0)
(-0.0621629 0.00553165 0)
(-0.0633797 0.00461113 0)
(-0.0643666 0.00363713 0)
(-0.0651124 0.00261517 0)
(-0.0656073 0.00155173 0)
(-0.0658432 0.000454255 0)
(-0.0658137 -0.000668791 0)
(-0.0655146 -0.00180802 0)
(-0.0649438 -0.00295314 0)
(-0.0641017 -0.00409309 0)
(-0.062991 -0.00521614 0)
(-0.0616174 -0.00631 0)
(-0.0599892 -0.00736206 0)
(-0.0581172 -0.00835952 0)
(-0.0560154 -0.00928964 0)
(-0.0537004 -0.01014 0)
(-0.0511913 -0.0108985 0)
(-0.0485102 -0.0115541 0)
(-0.045681 -0.0120966 0)
(-0.0427301 -0.0125171 0)
(-0.0396858 -0.0128082 0)
(-0.0365776 -0.0129641 0)
(-0.0334363 -0.0129811 0)
(-0.0302934 -0.0128575 0)
(-0.0271807 -0.0125938 0)
(-0.0241296 -0.012193 0)
(-0.0211707 -0.0116604 0)
(-0.0183334 -0.0110039 0)
(-0.015645 -0.010234 0)
(-0.0131304 -0.00936359 0)
(-0.0108116 -0.00840835 0)
(-0.0087068 -0.00738658 0)
(-0.00683033 -0.00631927 0)
(-0.00519177 -0.00523027 0)
(-0.00379572 -0.00414646 0)
(-0.00264133 -0.00309798 0)
(-0.00172202 -0.00211864 0)
(-0.0010252 -0.00124644 0)
(-0.000532037 -0.00052418 0)
(-0.000217163 -9.26075e-08 0)
(-5.04337e-05 0.000271259 0)
(-7.76774e-08 0.000224026 0)
(-4.70749e-05 0.000310974 0)
(-0.000332746 0.00125723 0)
(-0.000972162 0.00240651 0)
(-0.00191786 0.00366765 0)
(-0.00314581 0.00497286 0)
(-0.00464267 0.00626977 0)
(-0.0063916 0.0075191 0)
(-0.00837331 0.00869262 0)
(-0.0105673 0.009771 0)
(-0.0129521 0.0107419 0)
(-0.0155057 0.0115981 0)
(-0.0182055 0.0123368 0)
(-0.0210291 0.0129576 0)
(-0.023954 0.0134622 0)
(-0.0269583 0.0138534 0)
(-0.0300201 0.0141347 0)
(-0.0331182 0.0143097 0)
(-0.0362319 0.0143819 0)
(-0.0393406 0.0143543 0)
(-0.0424245 0.0142298 0)
(-0.0454638 0.0140105 0)
(-0.0484392 0.0136982 0)
(-0.0513316 0.0132943 0)
(-0.0541221 0.0128001 0)
(-0.0567923 0.0122165 0)
(-0.0593237 0.0115447 0)
(-0.0616985 0.0107859 0)
(-0.0638991 0.00994196 0)
(-0.0659085 0.00901497 0)
(-0.0677104 0.0080079 0)
(-0.0692891 0.00692453 0)
(-0.0706301 0.00576957 0)
(-0.0717199 0.00454879 0)
(-0.0725465 0.00326911 0)
(-0.0730991 0.00193862 0)
(-0.0733692 0.00056659 0)
(-0.0733497 -0.000836512 0)
(-0.0730362 -0.00225909 0)
(-0.0724262 -0.00368847 0)
(-0.0715201 -0.00511106 0)
(-0.0703207 -0.00651242 0)
(-0.0688337 -0.00787753 0)
(-0.0670678 -0.00919089 0)
(-0.0650346 -0.0104368 0)
(-0.0627487 -0.0115997 0)
(-0.0602275 -0.0126643 0)
(-0.0574915 -0.0136159 0)
(-0.0545639 -0.0144408 0)
(-0.0514703 -0.0151264 0)
(-0.0482388 -0.0156618 0)
(-0.0448995 -0.0160378 0)
(-0.0414843 -0.0162473 0)
(-0.038026 -0.0162855 0)
(-0.0345588 -0.0161502 0)
(-0.0311168 -0.015842 0)
(-0.027734 -0.0153642 0)
(-0.0244439 -0.0147234 0)
(-0.0212785 -0.013929 0)
(-0.0182677 -0.0129937 0)
(-0.0154392 -0.0119332 0)
(-0.0128172 -0.0107667 0)
(-0.0104227 -0.00951625 0)
(-0.00827189 -0.00820733 0)
(-0.0063767 -0.00686868 0)
(-0.00474362 -0.00553247 0)
(-0.00337369 -0.0042345 0)
(-0.00226213 -0.00301448 0)
(-0.00139823 -0.00191642 0)
(-0.00076499 -0.000989234 0)
(-0.000338985 -0.000287092 0)
(-9.41684e-05 0.000129814 0)
(-6.93903e-06 0.000190631 0)
(-5.7355e-05 0.00049471 0)
(-0.000396757 0.00178784 0)
(-0.00114701 0.00326551 0)
(-0.00224489 0.00483701 0)
(-0.00365663 0.00643398 0)
(-0.0053629 0.00800308 0)
(-0.00734178 0.00950394 0)
(-0.00956966 0.0109073 0)
(-0.0120226 0.0121931 0)
(-0.0146764 0.0133484 0)
(-0.0175066 0.0143658 0)
(-0.020489 0.0152421 0)
(-0.0235991 0.0159774 0)
(-0.0268133 0.0165735 0)
(-0.0301081 0.0170337 0)
(-0.0334605 0.0173618 0)
(-0.0368479 0.0175619 0)
(-0.0402483 0.0176379 0)
(-0.0436402 0.0175933 0)
(-0.0470022 0.0174313 0)
(-0.0503135 0.0171543 0)
(-0.0535535 0.0167644 0)
(-0.0567019 0.0162634 0)
(-0.0597386 0.0156526 0)
(-0.0626438 0.0149334 0)
(-0.065398 0.0141072 0)
(-0.0679821 0.0131757 0)
(-0.0703774 0.0121411 0)
(-0.0725658 0.0110063 0)
(-0.0745299 0.00977485 0)
(-0.076253 0.0084515 0)
(-0.0777196 0.00704206 0)
(-0.0789154 0.0055536 0)
(-0.0798274 0.0039945 0)
(-0.0804442 0.00237457 0)
(-0.0807565 0.000705001 0)
(-0.0807568 -0.00100163 0)
(-0.08044 -0.0027314 0)
(-0.0798034 -0.00446914 0)
(-0.0788468 -0.00619856 0)
(-0.0775732 -0.00790243 0)
(-0.0759882 -0.00956277 0)
(-0.0741005 -0.0111611 0)
(-0.0719222 -0.0126786 0)
(-0.0694681 -0.0140967 0)
(-0.0667566 -0.0153971 0)
(-0.0638088 -0.0165622 0)
(-0.0606491 -0.0175754 0)
(-0.0573045 -0.0184218 0)
(-0.0538044 -0.0190879 0)
(-0.0501807 -0.0195628 0)
(-0.0464672 -0.0198377 0)
(-0.0426991 -0.0199067 0)
(-0.0389126 -0.0197669 0)
(-0.0351445 -0.0194187 0)
(-0.0314313 -0.0188659 0)
(-0.0278093 -0.0181161 0)
(-0.0243131 -0.0171803 0)
(-0.0209757 -0.0160734 0)
(-0.0178273 -0.0148141 0)
(-0.0148951 -0.0134249 0)
(-0.0122025 -0.0119319 0)
(-0.00976847 -0.0103652 0)
(-0.00760726 -0.0087585 0)
(-0.00572777 -0.00714938 0)
(-0.00413327 -0.00557935 0)
(-0.00282119 -0.00409405 0)
(-0.00178306 -0.00274345 0)
(-0.00100408 -0.00158234 0)
(-0.000463028 -0.000670502 0)
(-0.000138062 -7.31284e-05 0)
(-1.35988e-05 0.000134882 0)
(-6.7207e-05 0.000710631 0)
(-0.000458824 0.00240457 0)
(-0.00131752 0.00425507 0)
(-0.00256501 0.00617304 0)
(-0.00415803 0.00809079 0)
(-0.00607128 0.0099552 0)
(-0.00827759 0.0117259 0)
(-0.0107489 0.0133735 0)
(-0.0134577 0.0148778 0)
(-0.0163768 0.0162259 0)
(-0.0194795 0.0174107 0)
(-0.0227392 0.0184293 0)
(-0.0261302 0.019282 0)
(-0.0296271 0.0199712 0)
(-0.0332052 0.0205006 0)
(-0.0368402 0.0208745 0)
(-0.0405087 0.0210976 0)
(-0.0441874 0.0211742 0)
(-0.0478536 0.0211083 0)
(-0.0514852 0.0209032 0)
(-0.05506 0.0205618 0)
(-0.0585565 0.0200866 0)
(-0.0619533 0.0194794 0)
(-0.0652294 0.018742 0)
(-0.0683637 0.017876 0)
(-0.0713358 0.0168831 0)
(-0.0741256 0.0157655 0)
(-0.0767133 0.0145258 0)
(-0.0790797 0.0131675 0)
(-0.0812066 0.0116952 0)
(-0.0830763 0.0101144 0)
(-0.0846723 0.00843209 0)
(-0.0859794 0.00665667 0)
(-0.0869838 0.0047981 0)
(-0.0876735 0.00286793 0)
(-0.0880381 0.000879342 0)
(-0.0880696 -0.00115289 0)
(-0.0877622 -0.00321244 0)
(-0.0871126 -0.00528153 0)
(-0.0861204 -0.0073411 0)
(-0.0847878 -0.00937098 0)
(-0.0831205 -0.0113501 0)
(-0.081127 -0.0132568 0)
(-0.0788193 -0.0150692 0)
(-0.0762126 -0.0167653 0)
(-0.0733255 -0.0183236 0)
(-0.0701799 -0.0197234 0)
(-0.0668009 -0.0209452 0)
(-0.0632165 -0.0219712 0)
(-0.0594576 -0.0227856 0)
(-0.0555576 -0.023375 0)
(-0.051552 -0.023729 0)
(-0.0474782 -0.0238402 0)
(-0.0433745 -0.023705 0)
(-0.0392803 -0.0233234 0)
(-0.0352349 -0.0226995 0)
(-0.0312772 -0.0218417 0)
(-0.0274449 -0.0207627 0)
(-0.0237739 -0.0194796 0)
(-0.0202974 -0.0180139 0)
(-0.0170457 -0.0163915 0)
(-0.0140451 -0.0146429 0)
(-0.0113176 -0.0128025 0)
(-0.00888021 -0.0109093 0)
(-0.0067445 -0.00900638 0)
(-0.00491639 -0.00714097 0)
(-0.00339588 -0.00536465 0)
(-0.00217701 -0.00373339 0)
(-0.00124746 -0.00230771 0)
(-0.000588277 -0.00115277 0)
(-0.000181787 -0.000338409 0)
(-2.00308e-05 5.69468e-05 0)
(-7.66551e-05 0.000957657 0)
(-0.000518844 0.00310512 0)
(-0.00148311 0.0053723 0)
(-0.00287678 0.00767264 0)
(-0.00464746 0.00994016 0)
(-0.00676398 0.012123 0)
(-0.00919392 0.0141816 0)
(-0.0119047 0.0160875 0)
(-0.0148652 0.0178211 0)
(-0.018045 0.0193701 0)
(-0.021415 0.0207281 0)
(-0.0249467 0.0218929 0)
(-0.0286125 0.0228653 0)
(-0.0323856 0.0236485 0)
(-0.0362402 0.0242469 0)
(-0.0401508 0.0246653 0)
(-0.0440928 0.024909 0)
(-0.0480422 0.0249828 0)
(-0.0519753 0.0248911 0)
(-0.055869 0.0246377 0)
(-0.0597004 0.0242257 0)
(-0.063447 0.0236578 0)
(-0.0670865 0.0229363 0)
(-0.0705969 0.022063 0)
(-0.0739565 0.02104 0)
(-0.0771437 0.0198692 0)
(-0.0801375 0.0185533 0)
(-0.0829173 0.0170954 0)
(-0.0854631 0.0154997 0)
(-0.0877555 0.0137715 0)
(-0.089776 0.0119173 0)
(-0.0915074 0.00994534 0)
(-0.0929333 0.00786531 0)
(-0.0940393 0.00568874 0)
(-0.0948122 0.003429 0)
(-0.0952411 0.00110128 0)
(-0.0953169 -0.0012774 0)
(-0.0950331 -0.00368825 0)
(-0.0943857 -0.00611083 0)
(-0.0933735 -0.00852321 0)
(-0.0919983 -0.0109022 0)
(-0.0902651 -0.0132235 0)
(-0.0881821 -0.0154622 0)
(-0.0857609 -0.017593 0)
(-0.0830169 -0.0195905 0)
(-0.0799686 -0.0214298 0)
(-0.0766383 -0.0230868 0)
(-0.0730517 -0.0245389 0)
(-0.0692376 -0.0257651 0)
(-0.0652281 -0.0267469 0)
(-0.061058 -0.0274685 0)
(-0.0567645 -0.0279172 0)
(-0.0523868 -0.0280843 0)
(-0.0479658 -0.0279648 0)
(-0.0435432 -0.0275583 0)
(-0.0391612 -0.0268691 0)
(-0.0348616 -0.0259062 0)
(-0.0306853 -0.0246837 0)
(-0.0266713 -0.023221 0)
(-0.0228564 -0.0215423 0)
(-0.019274 -0.0196772 0)
(-0.0159539 -0.01766 0)
(-0.0129213 -0.0155301 0)
(-0.0101964 -0.0133316 0)
(-0.00779391 -0.0111131 0)
(-0.0057227 -0.00892787 0)
(-0.00398564 -0.00683343 0)
(-0.00257956 -0.00489173 0)
(-0.00149474 -0.00316908 0)
(-0.000714575 -0.0017359 0)
(-0.000225346 -0.000666591 0)
(-2.62614e-05 -4.29579e-05 0)
(-8.57205e-05 0.0012347 0)
(-0.000576766 0.00388694 0)
(-0.00164339 0.00661377 0)
(-0.00317922 0.00933189 0)
(-0.00512311 0.0119779 0)
(-0.00743817 0.014502 0)
(-0.0100868 0.0168666 0)
(-0.0130321 0.0190447 0)
(-0.0162389 0.0210181 0)
(-0.0196741 0.0227758 0)
(-0.0233057 0.0243124 0)
(-0.0271033 0.0256268 0)
(-0.0310376 0.026721 0)
(-0.0350805 0.0275989 0)
(-0.0392047 0.0282657 0)
(-0.043384 0.0287272 0)
(-0.0475927 0.028989 0)
(-0.0518059 0.0290567 0)
(-0.0559993 0.0289351 0)
(-0.0601488 0.0286283 0)
(-0.064231 0.0281399 0)
(-0.0682225 0.0274728 0)
(-0.0721003 0.0266294 0)
(-0.0758416 0.025612 0)
(-0.079424 0.0244228 0)
(-0.0828251 0.0230642 0)
(-0.0860232 0.0215392 0)
(-0.0889967 0.0198515 0)
(-0.0917248 0.0180058 0)
(-0.0941873 0.0160083 0)
(-0.0963649 0.0138664 0)
(-0.0982393 0.0115895 0)
(-0.0997935 0.00918874 0)
(-0.101012 0.00667714 0)
(-0.10188 0.00406987 0)
(-0.102387 0.00138416 0)
(-0.102522 -0.00136071 0)
(-0.102277 -0.00414347 0)
(-0.101649 -0.00694096 0)
(-0.100633 -0.00972833 0)
(-0.0992328 -0.0124793 0)
(-0.0974509 -0.0151663 0)
(-0.0952954 -0.0177609 0)
(-0.0927773 -0.0202343 0)
(-0.0899114 -0.0225575 0)
(-0.0867164 -0.0247021 0)
(-0.0832144 -0.0266403 0)
(-0.0794314 -0.0283459 0)
(-0.0753971 -0.0297948 0)
(-0.0711443 -0.0309653 0)
(-0.066709 -0.0318388 0)
(-0.0621303 -0.0324003 0)
(-0.0574492 -0.032639 0)
(-0.0527088 -0.0325487 0)
(-0.0479536 -0.032128 0)
(-0.0432287 -0.0313812 0)
(-0.0385789 -0.0303177 0)
(-0.0340486 -0.0289531 0)
(-0.0296804 -0.0273085 0)
(-0.0255147 -0.0254112 0)
(-0.0215887 -0.023294 0)
(-0.0179358 -0.0209956 0)
(-0.0145849 -0.01856 0)
(-0.01156 -0.0160367 0)
(-0.00887907 -0.01348 0)
(-0.00655441 -0.0109491 0)
(-0.00459203 -0.00850784 0)
(-0.00299177 -0.00622415 0)
(-0.00174665 -0.00417025 0)
(-0.000842368 -0.00242196 0)
(-0.000268957 -0.00105832 0)
(-3.23491e-05 -0.000164699 0)
(-9.44184e-05 0.00154066 0)
(-0.000632551 0.00474733 0)
(-0.00179808 0.00797566 0)
(-0.00347158 0.0111463 0)
(-0.00558355 0.014199 0)
(-0.00809161 0.0170871 0)
(-0.0109532 0.0197755 0)
(-0.0141269 0.0222395 0)
(-0.0175739 0.024463 0)
(-0.021258 0.0264369 0)
(-0.0251448 0.0281573 0)
(-0.0292017 0.0296248 0)
(-0.0333979 0.0308425 0)
(-0.0377037 0.0318156 0)
(-0.0420907 0.0325503 0)
(-0.0465318 0.0330533 0)
(-0.0510005 0.033331 0)
(-0.0554712 0.0333894 0)
(-0.0599187 0.0332341 0)
(-0.0643186 0.0328694 0)
(-0.0686465 0.0322994 0)
(-0.0728787 0.0315272 0)
(-0.0769915 0.0305555 0)
(-0.0809616 0.0293868 0)
(-0.0847656 0.0280235 0)
(-0.0883808 0.0264684 0)
(-0.0917846 0.0247249 0)
(-0.0949548 0.0227971 0)
(-0.0978698 0.0206904 0)
(-0.100509 0.0184117 0)
(-0.102851 0.0159695 0)
(-0.104878 0.013374 0)
(-0.106571 0.0106379 0)
(-0.107914 0.00777566 0)
(-0.108892 0.00480426 0)
(-0.109491 0.0017429 0)
(-0.109701 -0.00138687 0)
(-0.109513 -0.00456131 0)
(-0.108921 -0.00775454 0)
(-0.107921 -0.0109388 0)
(-0.106514 -0.0140845 0)
(-0.104702 -0.0171608 0)
(-0.102491 -0.0201358 0)
(-0.0998935 -0.0229768 0)
(-0.0969221 -0.0256513 0)
(-0.0935951 -0.0281267 0)
(-0.0899347 -0.0303717 0)
(-0.0859668 -0.0323561 0)
(-0.0817215 -0.0340523 0)
(-0.0772323 -0.035435 0)
(-0.0725365 -0.0364825 0)
(-0.0676745 -0.0371772 0)
(-0.0626893 -0.0375058 0)
(-0.0576266 -0.0374604 0)
(-0.0525332 -0.0370386 0)
(-0.0474574 -0.0362439 0)
(-0.0424477 -0.0350863 0)
(-0.0375517 -0.0335823 0)
(-0.0328162 -0.031755 0)
(-0.0282856 -0.0296341 0)
(-0.0240011 -0.0272561 0)
(-0.0200005 -0.0246637 0)
(-0.0163167 -0.0219059 0)
(-0.0129777 -0.0190374 0)
(-0.0100054 -0.0161186 0)
(-0.0074157 -0.0132148 0)
(-0.0052182 -0.0103961 0)
(-0.00341592 -0.00773698 0)
(-0.0020047 -0.00531559 0)
(-0.000972533 -0.00321346 0)
(-0.000312991 -0.00151458 0)
(-3.83717e-05 -0.000308312 0)
(-0.000102756 0.00187443 0)
(-0.000686155 0.00568344 0)
(-0.00194692 0.00945385 0)
(-0.00375322 0.0131107 0)
(-0.0060276 0.0165978 0)
(-0.00872241 0.0198721 0)
(-0.0117903 0.0229018 0)
(-0.0151855 0.0256653 0)
(-0.0188657 0.0281492 0)
(-0.0227915 0.0303466 0)
(-0.0269263 0.0322561 0)
(-0.0312353 0.0338799 0)
(-0.0356861 0.0352229 0)
(-0.0402476 0.0362917 0)
(-0.0448904 0.0370939 0)
(-0.0495865 0.037637 0)
(-0.0543086 0.0379284 0)
(-0.0590304 0.0379749 0)
(-0.0637264 0.0377825 0)
(-0.0683714 0.0373561 0)
(-0.0729407 0.0367001 0)
(-0.07741 0.0358178 0)
(-0.0817552 0.0347122 0)
(-0.0859524 0.0333861 0)
(-0.089978 0.0318421 0)
(-0.0938084 0.0300833 0)
(-0.0974205 0.0281133 0)
(-0.100791 0.0259367 0)
(-0.103899 0.0235597 0)
(-0.106721 0.0209895 0)
(-0.109237 0.0182357 0)
(-0.111427 0.0153097 0)
(-0.113272 0.0122251 0)
(-0.114753 0.00899812 0)
(-0.115855 0.00564731 0)
(-0.116564 0.00219385 0)
(-0.116867 -0.00133853 0)
(-0.116754 -0.00492363 0)
(-0.116217 -0.00853287 0)
(-0.115252 -0.0121355 0)
(-0.113857 -0.0156988 0)
(-0.112034 -0.0191884 0)
(-0.109789 -0.0225688 0)
(-0.107129 -0.0258035 0)
(-0.10407 -0.0288558 0)
(-0.100627 -0.0316894 0)
(-0.0968217 -0.0342685 0)
(-0.0926809 -0.0365591 0)
(-0.0882342 -0.0385293 0)
(-0.0835159 -0.0401503 0)
(-0.0785642 -0.0413966 0)
(-0.0734207 -0.0422475 0)
(-0.0681307 -0.042687 0)
(-0.0627417 -0.0427049 0)
(-0.0573039 -0.0422972 0)
(-0.0518685 -0.0414668 0)
(-0.0464876 -0.0402235 0)
(-0.041213 -0.0385846 0)
(-0.0360957 -0.0365747 0)
(-0.0311844 -0.0342263 0)
(-0.0265251 -0.0315791 0)
(-0.0221601 -0.02868 0)
(-0.018127 -0.0255828 0)
(-0.0144582 -0.022348 0)
(-0.0111799 -0.0190419 0)
(-0.00831229 -0.0157362 0)
(-0.00586853 -0.0125077 0)
(-0.00385517 -0.00943752 0)
(-0.00227099 -0.0066103 0)
(-0.00110625 -0.00411362 0)
(-0.000357921 -0.00203687 0)
(-4.44193e-05 -0.000474065 0)
(-0.000110735 0.00223488 0)
(-0.000737518 0.0066923 0)
(-0.00208967 0.0110439 0)
(-0.00402355 0.0152197 0)
(-0.00645414 0.0191681 0)
(-0.00932883 0.0228502 0)
(-0.0125956 0.0262385 0)
(-0.0162046 0.0293148 0)
(-0.0201101 0.032069 0)
(-0.0242699 0.0344974 0)
(-0.0286446 0.0366011 0)
(-0.0331978 0.0383845 0)
(-0.0378952 0.0398547 0)
(-0.0427048 0.0410199 0)
(-0.047596 0.0418892 0)
(-0.0525398 0.0424714 0)
(-0.0575086 0.0427749 0)
(-0.0624753 0.0428072 0)
(-0.0674139 0.042575 0)
(-0.0722991 0.0420837 0)
(-0.0771056 0.0413381 0)
(-0.0818088 0.0403417 0)
(-0.0863843 0.0390979 0)
(-0.0908077 0.0376095 0)
(-0.095055 0.0358795 0)
(-0.0991023 0.033911 0)