/*--------------------------------*- C++ -*----------------------------------*\
  =========                 |
  \\      /  F ield         | OpenFOAM: The Open Source CFD Toolbox
   \\    /   O peration     | Website:  https://openfoam.org
    \\  /    A nd           | Version:  dev
     \\/     M anipulation  |
\*---------------------------------------------------------------------------*/
FoamFile
{
    format      ascii;
    class       volScalarField;
    location    "48.6";
    object      Ux;
}
// * * * * * * * * * * * * * * * * * * * * * * * * * * * * * * * * * * * * * //

dimensions      [0 1 -1 0 0 0 0];

internalField   nonuniform List<scalar> 
5184
(
1.24477e-05
4.5366e-05
8.04635e-05
9.60975e-05
8.22624e-05
3.65566e-05
-4.04788e-05
-0.000146826
-0.000279692
-0.000436018
-0.000612684
-0.000806654
-0.00101506
-0.00123523
-0.00146472
-0.00170125
-0.00194276
-0.00218733
-0.00243318
-0.00267862
-0.00292204
-0.00316189
-0.00339663
-0.00362474
-0.00384469
-0.00405494
-0.00425393
-0.00444009
-0.00461184
-0.00476761
-0.00490582
-0.00502495
-0.00512355
-0.00520024
-0.00525375
-0.00528296
-0.00528694
-0.00526496
-0.00521651
-0.00514138
-0.0050396
-0.00491158
-0.00475801
-0.00457994
-0.00437878
-0.00415629
-0.00391456
-0.00365602
-0.0033834
-0.00309971
-0.00280818
-0.00251224
-0.00221546
-0.00192151
-0.00163404
-0.00135672
-0.00109307
-0.000846467
-0.00062006
-0.0004167
-0.000238886
-8.8695e-05
3.2284e-05
0.000123038
0.000183235
0.000213381
0.000215065
0.000191336
0.000147226
9.08314e-05
3.66292e-05
6.22158e-06
2.0928e-05
6.57985e-05
9.49047e-05
7.29986e-05
-1.87586e-05
-0.00018719
-0.000432883
-0.000752622
-0.00114086
-0.00159081
-0.00209514
-0.00264638
-0.00323722
-0.00386067
-0.00451013
-0.00517939
-0.00586264
-0.00655446
-0.00724968
-0.00794344
-0.00863102
-0.00930788
-0.00996954
-0.0106116
-0.0112296
-0.0118191
-0.0123758
-0.0128952
-0.013373
-0.0138047
-0.0141862
-0.0145134
-0.0147822
-0.0149893
-0.0151312
-0.015205
-0.0152085
-0.0151399
-0.014998
-0.0147825
-0.0144938
-0.014133
-0.0137023
-0.0132048
-0.0126443
-0.0120258
-0.011355
-0.0106386
-0.00988387
-0.00909898
-0.00829262
-0.00747398
-0.00665259
-0.0058382
-0.00504059
-0.00426944
-0.00353412
-0.00284357
-0.00220606
-0.00162907
-0.00111909
-0.000681412
-0.000319946
-3.69792e-05
0.000167125
0.000294292
0.000349277
0.000340359
0.000280033
0.000186153
8.64005e-05
1.96796e-05
1.76797e-05
4.14467e-05
1.97542e-05
-8.38472e-05
-0.000290144
-0.000607887
-0.00103834
-0.00157768
-0.00221876
-0.00295237
-0.00376823
-0.00465564
-0.00560386
-0.00660243
-0.0076413
-0.00871088
-0.0098021
-0.0109064
-0.0120154
-0.0131215
-0.0142169
-0.0152944
-0.0163466
-0.0173665
-0.0183469
-0.0192809
-0.0201613
-0.0209812
-0.0217338
-0.0224122
-0.0230099
-0.0235206
-0.0239384
-0.0242577
-0.0244738
-0.0245823
-0.0245798
-0.024464
-0.0242332
-0.0238871
-0.0234266
-0.0228538
-0.0221721
-0.0213865
-0.0205032
-0.0195297
-0.0184751
-0.0173496
-0.0161645
-0.0149323
-0.0136664
-0.0123806
-0.0110897
-0.0098084
-0.00855165
-0.00733415
-0.00617014
-0.00507317
-0.00405578
-0.00312925
-0.00230332
-0.00158587
-0.000982654
-0.000496893
-0.000128898
0.000124402
0.000270112
0.000320096
0.000291497
0.000207545
0.000102512
2.49863e-05
8.8635e-06
-6.94139e-06
-0.000107492
-0.000322302
-0.000669624
-0.00115786
-0.00178777
-0.00255458
-0.00344974
-0.00446221
-0.00557952
-0.00678846
-0.0080756
-0.00942769
-0.0108318
-0.0122756
-0.013747
-0.0152347
-0.0167277
-0.0182156
-0.019688
-0.021135
-0.0225468
-0.0239138
-0.0252265
-0.0264753
-0.0276509
-0.028744
-0.0297455
-0.0306466
-0.0314386
-0.0321133
-0.0326632
-0.0330811
-0.0333609
-0.0334973
-0.0334861
-0.0333243
-0.0330101
-0.0325434
-0.0319255
-0.0311595
-0.03025
-0.0292037
-0.0280287
-0.026735
-0.0253345
-0.0238405
-0.0222676
-0.0206322
-0.0189513
-0.0172432
-0.0155267
-0.0138209
-0.012145
-0.0105179
-0.00895816
-0.00748307
-0.00610881
-0.00484988
-0.00371877
-0.0027256
-0.00187768
-0.00117917
-0.000630503
-0.000227992
3.68509e-05
0.000177937
0.00021501
0.000174248
9.30998e-05
2.40425e-05
-2.11267e-06
-6.72629e-05
-0.000264097
-0.000609829
-0.00111696
-0.00179172
-0.00263309
-0.00363471
-0.00478645
-0.00607559
-0.00748777
-0.00900773
-0.0106199
-0.0123086
-0.0140587
-0.0158553
-0.017684
-0.019531
-0.0213829
-0.0232267
-0.0250498
-0.02684
-0.0285851
-0.0302732
-0.0318925
-0.0334314
-0.0348783
-0.036222
-0.0374514
-0.0385556
-0.0395244
-0.040348
-0.0410172
-0.0415238
-0.0418604
-0.0420209
-0.0420004
-0.0417955
-0.0414045
-0.0408274
-0.040066
-0.0391242
-0.0380078
-0.0367248
-0.0352852
-0.0337012
-0.0319868
-0.0301581
-0.0282327
-0.02623
-0.0241705
-0.022076
-0.0199687
-0.0178716
-0.0158076
-0.0137993
-0.0118686
-0.0100362
-0.00832159
-0.00674193
-0.00531224
-0.00404463
-0.00294797
-0.00202741
-0.00128387
-0.000713603
-0.000307597
-5.10748e-05
7.6859e-05
0.00010373
6.75717e-05
1.96806e-05
-1.36913e-05
-0.000132843
-0.000435899
-0.000924845
-0.00160432
-0.00247688
-0.0035387
-0.00478107
-0.00619189
-0.00775663
-0.00945916
-0.0112824
-0.0132089
-0.015221
-0.0173016
-0.0194336
-0.0216007
-0.0237868
-0.0259764
-0.0281545
-0.0303063
-0.0324174
-0.0344736
-0.036461
-0.0383657
-0.0401742
-0.041873
-0.043449
-0.0448894
-0.0461817
-0.047314
-0.0482751
-0.0490548
-0.0496434
-0.0500329
-0.0502163
-0.0501883
-0.0499451
-0.049485
-0.0488081
-0.0479167
-0.0468155
-0.0455111
-0.0440129
-0.0423324
-0.0404835
-0.0384824
-0.0363472
-0.0340983
-0.0317576
-0.0293486
-0.0268959
-0.0244251
-0.0219623
-0.0195336
-0.0171649
-0.0148811
-0.0127061
-0.0106619
-0.00876864
-0.00704342
-0.00550037
-0.00414998
-0.00299859
-0.00204799
-0.00129489
-0.000730517
-0.000340127
-0.000102751
9.2682e-06
3.25505e-05
1.36333e-05
-2.51891e-05
-0.000200056
-0.000614239
-0.00125326
-0.00211266
-0.00319029
-0.00447858
-0.0059658
-0.00763745
-0.00947698
-0.0114664
-0.0135869
-0.0158192
-0.0181441
-0.0205425
-0.0229957
-0.0254854
-0.0279939
-0.0305038
-0.032998
-0.03546
-0.0378736
-0.0402226
-0.0424913
-0.044664
-0.0467255
-0.0486607
-0.0504546
-0.052093
-0.0535619
-0.0548482
-0.0559393
-0.0568238
-0.0574912
-0.0579326
-0.0581403
-0.0581086
-0.0578335
-0.0573131
-0.0565476
-0.0555398
-0.0542947
-0.0528201
-0.0511261
-0.0492256
-0.0471339
-0.044869
-0.042451
-0.0399022
-0.037247
-0.0345114
-0.0317226
-0.0289089
-0.0260994
-0.0233229
-0.0206083
-0.0179835
-0.015475
-0.0131076
-0.0109038
-0.00888307
-0.00706159
-0.00545156
-0.00406085
-0.00289243
-0.00194403
-0.00120769
-0.000669451
-0.000309099
-9.97765e-05
-7.67441e-06
6.86981e-06
-3.6349e-05
-0.000267018
-0.000793993
-0.00158614
-0.0026293
-0.00391591
-0.005434
-0.00716828
-0.00910142
-0.0112145
-0.0134877
-0.0159002
-0.0184313
-0.02106
-0.0237658
-0.0265284
-0.0293278
-0.0321447
-0.0349601
-0.0377554
-0.0405124
-0.0432131
-0.0458399
-0.0483753
-0.0508022
-0.0531036
-0.055263
-0.0572641
-0.0590912
-0.0607289
-0.0621629
-0.0633797
-0.0643666
-0.0651124
-0.0656073
-0.0658432
-0.0658137
-0.0655146
-0.0649438
-0.0641017
-0.062991
-0.0616174
-0.0599892
-0.0581172
-0.0560154
-0.0537004
-0.0511913
-0.0485102
-0.045681
-0.0427301
-0.0396858
-0.0365776
-0.0334363
-0.0302934
-0.0271807
-0.0241296
-0.0211707
-0.0183334
-0.015645
-0.0131304
-0.0108116
-0.0087068
-0.00683033
-0.00519177
-0.00379572
-0.00264133
-0.00172202
-0.0010252
-0.000532037
-0.000217163
-5.04337e-05
-7.76774e-08
-4.70749e-05
-0.000332746
-0.000972162
-0.00191786
-0.00314581
-0.00464267
-0.0063916
-0.00837331
-0.0105673
-0.0129521
-0.0155057
-0.0182055
-0.0210291
-0.023954
-0.0269583
-0.0300201
-0.0331182
-0.0362319
-0.0393406
-0.0424245
-0.0454638
-0.0484392
-0.0513316
-0.0541221
-0.0567923
-0.0593237
-0.0616985
-0.0638991
-0.0659085
-0.0677104
-0.0692891
-0.0706301
-0.0717199
-0.0725465
-0.0730991
-0.0733692
-0.0733497
-0.0730362
-0.0724262
-0.0715201
-0.0703207
-0.0688337
-0.0670678
-0.0650346
-0.0627487
-0.0602275
-0.0574915
-0.0545639
-0.0514703
-0.0482388
-0.0448995
-0.0414843
-0.038026
-0.0345588
-0.0311168
-0.027734
-0.0244439
-0.0212785
-0.0182677
-0.0154392
-0.0128172
-0.0104227
-0.00827189
-0.0063767
-0.00474362
-0.00337369
-0.00226213
-0.00139823
-0.00076499
-0.000338985
-9.41684e-05
-6.93903e-06
-5.7355e-05
-0.000396757
-0.00114701
-0.00224489
-0.00365663
-0.0053629
-0.00734178
-0.00956966
-0.0120226
-0.0146764
-0.0175066
-0.020489
-0.0235991
-0.0268133
-0.0301081
-0.0334605
-0.0368479
-0.0402483
-0.0436402
-0.0470022
-0.0503135
-0.0535535
-0.0567019
-0.0597386
-0.0626438
-0.065398
-0.0679821
-0.0703774
-0.0725658
-0.0745299
-0.076253
-0.0777196
-0.0789154
-0.0798274
-0.0804442
-0.0807565
-0.0807568
-0.08044
-0.0798034
-0.0788468
-0.0775732
-0.0759882
-0.0741005
-0.0719222
-0.0694681
-0.0667566
-0.0638088
-0.0606491
-0.0573045
-0.0538044
-0.0501807
-0.0464672
-0.0426991
-0.0389126
-0.0351445
-0.0314313
-0.0278093
-0.0243131
-0.0209757
-0.0178273
-0.0148951
-0.0122025
-0.00976847
-0.00760726
-0.00572777
-0.00413327
-0.00282119
-0.00178306
-0.00100408
-0.000463028
-0.000138062
-1.35988e-05
-6.7207e-05
-0.000458824
-0.00131752
-0.00256501
-0.00415803
-0.00607128
-0.00827759
-0.0107489
-0.0134577
-0.0163768
-0.0194795
-0.0227392
-0.0261302
-0.0296271
-0.0332052
-0.0368402
-0.0405087
-0.0441874
-0.0478536
-0.0514852
-0.05506
-0.0585565
-0.0619533
-0.0652294
-0.0683637
-0.0713358
-0.0741256
-0.0767133
-0.0790797
-0.0812066
-0.0830763
-0.0846723
-0.0859794
-0.0869838
-0.0876735
-0.0880381
-0.0880696
-0.0877622
-0.0871126
-0.0861204
-0.0847878
-0.0831205
-0.081127
-0.0788193
-0.0762126
-0.0733255
-0.0701799
-0.0668009
-0.0632165
-0.0594576
-0.0555576
-0.051552
-0.0474782
-0.0433745
-0.0392803
-0.0352349
-0.0312772
-0.0274449
-0.0237739
-0.0202974
-0.0170457
-0.0140451
-0.0113176
-0.00888021
-0.0067445
-0.00491639
-0.00339588
-0.00217701
-0.00124746
-0.000588277
-0.000181787
-2.00308e-05
-7.66551e-05
-0.000518844
-0.00148311
-0.00287678
-0.00464746
-0.00676398
-0.00919392
-0.0119047
-0.0148652
-0.018045
-0.021415
-0.0249467
-0.0286125
-0.0323856
-0.0362402
-0.0401508
-0.0440928
-0.0480422
-0.0519753
-0.055869
-0.0597004
-0.063447
-0.0670865
-0.0705969
-0.0739565
-0.0771437
-0.0801375
-0.0829173
-0.0854631
-0.0877555
-0.089776
-0.0915074
-0.0929333
-0.0940393
-0.0948122
-0.0952411
-0.0953169
-0.0950331
-0.0943857
-0.0933735
-0.0919983
-0.0902651
-0.0881821
-0.0857609
-0.0830169
-0.0799686
-0.0766383
-0.0730517
-0.0692376
-0.0652281
-0.061058
-0.0567645
-0.0523868
-0.0479658
-0.0435432
-0.0391612
-0.0348616
-0.0306853
-0.0266713
-0.0228564
-0.019274
-0.0159539
-0.0129213
-0.0101964
-0.00779391
-0.0057227
-0.00398564
-0.00257956
-0.00149474
-0.000714575
-0.000225346
-2.62614e-05
-8.57205e-05
-0.000576766
-0.00164339
-0.00317922
-0.00512311
-0.00743817
-0.0100868
-0.0130321
-0.0162389
-0.0196741
-0.0233057
-0.0271033
-0.0310376
-0.0350805
-0.0392047
-0.043384
-0.0475927
-0.0518059
-0.0559993
-0.0601488
-0.064231
-0.0682225
-0.0721003
-0.0758416
-0.079424
-0.0828251
-0.0860232
-0.0889967
-0.0917248
-0.0941873
-0.0963649
-0.0982393
-0.0997935
-0.101012
-0.10188
-0.102387
-0.102522
-0.102277
-0.101649
-0.100633
-0.0992328
-0.0974509
-0.0952954
-0.0927773
-0.0899114
-0.0867164
-0.0832144
-0.0794314
-0.0753971
-0.0711443
-0.066709
-0.0621303
-0.0574492
-0.0527088
-0.0479536
-0.0432287
-0.0385789
-0.0340486
-0.0296804
-0.0255147
-0.0215887
-0.0179358
-0.0145849
-0.01156
-0.00887907
-0.00655441
-0.00459203
-0.00299177
-0.00174665
-0.000842368
-0.000268957
-3.23491e-05
-9.44184e-05
-0.000632551
-0.00179808
-0.00347158
-0.00558355
-0.00809161
-0.0109532
-0.0141269
-0.0175739
-0.021258
-0.0251448
-0.0292017
-0.0333979
-0.0377037
-0.0420907
-0.0465318
-0.0510005
-0.0554712
-0.0599187
-0.0643186
-0.0686465
-0.0728787
-0.0769915
-0.0809616
-0.0847656
-0.0883808
-0.0917846
-0.0949548
-0.0978698
-0.100509
-0.102851
-0.104878
-0.106571
-0.107914
-0.108892
-0.109491
-0.109701
-0.109513
-0.108921
-0.107921
-0.106514
-0.104702
-0.102491
-0.0998935
-0.0969221
-0.0935951
-0.0899347
-0.0859668
-0.0817215
-0.0772323
-0.0725365
-0.0676745
-0.0626893
-0.0576266
-0.0525332
-0.0474574
-0.0424477
-0.0375517
-0.0328162
-0.0282856
-0.0240011
-0.0200005
-0.0163167
-0.0129777
-0.0100054
-0.0074157
-0.0052182
-0.00341592
-0.0020047
-0.000972533
-0.000312991
-3.83717e-05
-0.000102756
-0.000686155
-0.00194692
-0.00375322
-0.0060276
-0.00872241
-0.0117903
-0.0151855
-0.0188657
-0.0227915
-0.0269263
-0.0312353
-0.0356861
-0.0402476
-0.0448904
-0.0495865
-0.0543086
-0.0590304
-0.0637264
-0.0683714
-0.0729407
-0.07741
-0.0817552
-0.0859524
-0.089978
-0.0938084
-0.0974205
-0.100791
-0.103899
-0.106721
-0.109237
-0.111427
-0.113272
-0.114753
-0.115855
-0.116564
-0.116867
-0.116754
-0.116217
-0.115252
-0.113857
-0.112034
-0.109789
-0.107129
-0.10407
-0.100627
-0.0968217
-0.0926809
-0.0882342
-0.0835159
-0.0785642
-0.0734207
-0.0681307
-0.0627417
-0.0573039
-0.0518685
-0.0464876
-0.041213
-0.0360957
-0.0311844
-0.0265251
-0.0221601
-0.018127
-0.0144582
-0.0111799
-0.00831229
-0.00586853
-0.00385517
-0.00227099
-0.00110625
-0.000357921
-4.44193e-05
-0.000110735
-0.000737518
-0.00208967
-0.00402355
-0.00645414
-0.00932883
-0.0125956
-0.0162046
-0.0201101
-0.0242699
-0.0286446
-0.0331978
-0.0378952
-0.0427048
-0.047596
-0.0525398
-0.0575086
-0.0624753
-0.0674139
-0.0722991
-0.0771056
-0.0818088
-0.0863843
-0.0908077
-0.095055
-0.0991023
-0.102926
-0.106503
-0.109809
-0.112823
-0.115523
-0.117887
-0.119896
-0.12153
-0.122773
-0.123609
-0.124023
-0.124004
-0.123544
-0.122634
-0.121273
-0.119461
-0.1172
-0.114499
-0.111369
-0.107827
-0.103893
-0.0995924
-0.0949552
-0.0900159
-0.0848134
-0.0793908
-0.0737951
-0.0680763
-0.0622873
-0.0564829
-0.0507191
-0.0450519
-0.0395369
-0.0342279
-0.0291759
-0.0244282
-0.0200277
-0.0160117
-0.0124113
-0.00925104
-0.0065483
-0.00431335
-0.00254804
-0.00124492
-0.000404288
-5.05896e-05
-0.000118347
-0.000786556
-0.00222603
-0.00428192
-0.00686208
-0.00990918
-0.0133668
-0.0171813
-0.0213034
-0.0256883
-0.0302942
-0.0350829
-0.0400186
-0.0450679
-0.0501994
-0.0553835
-0.0605917
-0.0657968
-0.0709723
-0.0760924
-0.0811319
-0.0860659
-0.0908695
-0.0955184
-0.099988
-0.104254
-0.108293
-0.11208
-0.115593
-0.118807
-0.121701
-0.124251
-0.126438
-0.128242
-0.129642
-0.130623
-0.131168
-0.131264
-0.130901
-0.13007
-0.128765
-0.126985
-0.124731
-0.12201
-0.11883
-0.115207
-0.111161
-0.106715
-0.1019
-0.0967488
-0.0913021
-0.0856037
-0.0797024
-0.0736506
-0.0675041
-0.0613214
-0.0551624
-0.049088
-0.0431588
-0.0374338
-0.0319697
-0.0268196
-0.0220319
-0.0176495
-0.013709
-0.0102396
-0.00726346
-0.00479475
-0.00283866
-0.00139008
-0.000452683
-5.6985e-05
-0.000125581
-0.000833166
-0.00235567
-0.00452766
-0.00725028
-0.0104617
-0.0141016
-0.0181123
-0.0224417
-0.0270421
-0.0318697
-0.0368845
-0.0420491
-0.0473292
-0.0526925
-0.0581086
-0.0635487
-0.0689851
-0.0743912
-0.0797409
-0.0850089
-0.0901701
-0.0951997
-0.100073
-0.104765
-0.109252
-0.11351
-0.117513
-0.121238
-0.124662
-0.127759
-0.130509
-0.132888
-0.134876
-0.136452
-0.137596
-0.138293
-0.138526
-0.138283
-0.137553
-0.136328
-0.134604
-0.132381
-0.129662
-0.126454
-0.122772
-0.118632
-0.114058
-0.109078
-0.103727
-0.0980441
-0.0920749
-0.0858695
-0.0794826
-0.0729732
-0.0664032
-0.0598372
-0.0533408
-0.0469801
-0.0408201
-0.0349235
-0.0293497
-0.0241535
-0.0193838
-0.0150831
-0.0112864
-0.00802042
-0.00530402
-0.00314587
-0.00154338
-0.000503725
-6.37106e-05
-0.000132418
-0.000877219
-0.00247822
-0.00476005
-0.00761754
-0.0109848
-0.0147974
-0.0189946
-0.023521
-0.0283267
-0.0333657
-0.0385962
-0.0439799
-0.049481
-0.0550667
-0.060706
-0.0663697
-0.0720298
-0.0776595
-0.0832328
-0.0887242
-0.0941087
-0.0993615
-0.104458
-0.109373
-0.114082
-0.118561
-0.122785
-0.12673
-0.13037
-0.133683
-0.136644
-0.139229
-0.141417
-0.143185
-0.144513
-0.145382
-0.145774
-0.145674
-0.14507
-0.143949
-0.142307
-0.14014
-0.137448
-0.134237
-0.130517
-0.126305
-0.121622
-0.116494
-0.110957
-0.105048
-0.0988156
-0.0923096
-0.0855874
-0.0787109
-0.071746
-0.0647616
-0.0578287
-0.0510193
-0.0444046
-0.0380542
-0.0320343
-0.0264066
-0.021227
-0.0165444
-0.0123999
-0.0088259
-0.005846
-0.00347284
-0.00170655
-0.000558057
-7.0873e-05
-0.000138837
-0.000918574
-0.00259329
-0.00497831
-0.0079626
-0.0114764
-0.0154519
-0.0198249
-0.0245375
-0.0295373
-0.0347765
-0.0402118
-0.0458036
-0.0515152
-0.0573131
-0.0631659
-0.069044
-0.0749193
-0.080765
-0.0865551
-0.0922641
-0.0978671
-0.103339
-0.108656
-0.113793
-0.118726
-0.123429
-0.127877
-0.132047
-0.135913
-0.139449
-0.142633
-0.145438
-0.147841
-0.149819
-0.15135
-0.152412
-0.152986
-0.153053
-0.152599
-0.151609
-0.150075
-0.14799
-0.145352
-0.142164
-0.138433
-0.134172
-0.129401
-0.124146
-0.118438
-0.112318
-0.105832
-0.0990314
-0.091976
-0.0847305
-0.0773645
-0.0699517
-0.0625687
-0.0552935
-0.0482045
-0.0413783
-0.0348889
-0.0288055
-0.0231917
-0.0181036
-0.0135891
-0.00968681
-0.00642571
-0.00382282
-0.00188135
-0.000616334
-7.85799e-05
-0.000144811
-0.000957069
-0.00270042
-0.00518159
-0.00828416
-0.0119349
-0.0160626
-0.0206002
-0.0254872
-0.0306692
-0.0360966
-0.0417248
-0.0475128
-0.0534235
-0.0594225
-0.0654781
-0.0715605
-0.0776416
-0.0836946
-0.0896935
-0.0956132
-0.101429
-0.107116
-0.11265
-0.118007
-0.123162
-0.12809
-0.132766
-0.137165
-0.141263
-0.145032
-0.148448
-0.151486
-0.15412
-0.156325
-0.158077
-0.159352
-0.16013
-0.160389
-0.16011
-0.159278
-0.15788
-0.155906
-0.153351
-0.150213
-0.146498
-0.142216
-0.137382
-0.132022
-0.126165
-0.11985
-0.113123
-0.106038
-0.0986546
-0.0910408
-0.08327
-0.0754207
-0.0675753
-0.0598184
-0.0522356
-0.0449116
-0.0379286
-0.0313643
-0.0252905
-0.0197716
-0.014863
-0.0106102
-0.00704823
-0.00419913
-0.00206957
-0.000679219
-8.69396e-05
-0.000150313
-0.000992536
-0.00279917
-0.00536906
-0.00858086
-0.0123582
-0.0166268
-0.021317
-0.0263661
-0.0317175
-0.0373203
-0.0431285
-0.0491001
-0.0551974
-0.0613854
-0.0676321
-0.0739077
-0.080184
-0.0864343
-0.092633
-0.0987552
-0.104776
-0.110672
-0.116419
-0.121992
-0.127367
-0.13252
-0.137425
-0.142057
-0.146391
-0.1504
-0.154058
-0.157339
-0.160217
-0.162664
-0.164655
-0.166164
-0.167168
-0.167642
-0.167565
-0.166918
-0.165685
-0.163852
-0.161409
-0.158354
-0.154685
-0.15041
-0.145543
-0.140104
-0.134122
-0.127633
-0.120683
-0.113326
-0.105624
-0.0976459
-0.0894697
-0.0811785
-0.0728604
-0.0646072
-0.0565122
-0.0486686
-0.0411676
-0.0340963
-0.0275357
-0.0215591
-0.0162304
-0.0116029
-0.00771866
-0.0046051
-0.00227302
-0.000747381
-9.6061e-05
-0.000155313
-0.0010248
-0.00288906
-0.00553984
-0.00885136
-0.0127444
-0.017142
-0.0219722
-0.0271701
-0.0326775
-0.0384419
-0.0444163
-0.0505579
-0.0568282
-0.063192
-0.069617
-0.0760733
-0.0825329
-0.0889694
-0.0953573
-0.101672
-0.10789
-0.113987
-0.119939
-0.125724
-0.131315
-0.13669
-0.141823
-0.146689
-0.151263
-0.155516
-0.159424
-0.162958
-0.16609
-0.168793
-0.17104
-0.172802
-0.174052
-0.174765
-0.174916
-0.174482
-0.173442
-0.171781
-0.169484
-0.166543
-0.162954
-0.15872
-0.15385
-0.148363
-0.142284
-0.135647
-0.128496
-0.120885
-0.112877
-0.104544
-0.0959655
-0.0872302
-0.0784322
-0.0696703
-0.0610461
-0.052662
-0.0446189
-0.0370141
-0.0299388
-0.0234763
-0.0177
-0.0126721
-0.00844207
-0.00504405
-0.00249351
-0.000821491
-0.000106054
-0.00015978
-0.00105369
-0.00296964
-0.00569307
-0.00909432
-0.0130916
-0.0176058
-0.0225626
-0.0278953
-0.0335443
-0.0394559
-0.0455818
-0.0518787
-0.0583074
-0.0648326
-0.0714217
-0.078045
-0.0846747
-0.0912845
-0.0978496
-0.104346
-0.11075
-0.117038
-0.123188
-0.129176
-0.134978
-0.14057
-0.145928
-0.151027
-0.15584
-0.160341
-0.164502
-0.168296
-0.171693
-0.174664
-0.17718
-0.179211
-0.180729
-0.181703
-0.182106
-0.181912
-0.181096
-0.179638
-0.17752
-0.174728
-0.171255
-0.167097
-0.162262
-0.156761
-0.150617
-0.143862
-0.136538
-0.128697
-0.120402
-0.111726
-0.102753
-0.0935761
-0.0842944
-0.0750143
-0.0658463
-0.0569022
-0.0482937
-0.040129
-0.0325107
-0.0255331
-0.0192803
-0.0138242
-0.00922344
-0.00551928
-0.00273283
-0.000902222
-0.000117029
-0.000163687
-0.00107902
-0.00304044
-0.00582793
-0.00930847
-0.0133981
-0.0180157
-0.0230851
-0.0285381
-0.0343136
-0.0403567
-0.0466185
-0.0530549
-0.0596265
-0.0662974
-0.0730353
-0.0798104
-0.0865953
-0.0933641
-0.100092
-0.106757
-0.113334
-0.119802
-0.126138
-0.13232
-0.138324
-0.144126
-0.149704
-0.155031
-0.160082
-0.164829
-0.169246
-0.173303
-0.176972
-0.18022
-0.183018
-0.185333
-0.187135
-0.188391
-0.18907
-0.189143
-0.188581
-0.187359
-0.185453
-0.182847
-0.179527
-0.175486
-0.170723
-0.165248
-0.159077
-0.15224
-0.144775
-0.136732
-0.128174
-0.119176
-0.109822
-0.10021
-0.0904456
-0.0806419
-0.0709183
-0.0613972
-0.0522013
-0.043451
-0.0352612
-0.0277386
-0.0209792
-0.015066
-0.0100676
-0.00603403
-0.00299279
-0.000990246
-0.000129098
-0.000167006
-0.00110066
-0.00310108
-0.00594367
-0.00949265
-0.0136623
-0.0183697
-0.0235371
-0.0290949
-0.0349809
-0.0411394
-0.0475205
-0.0540797
-0.0607772
-0.0675771
-0.0744469
-0.0813572
-0.0882808
-0.0951925
-0.102068
-0.108885
-0.115621
-0.122255
-0.128764
-0.135127
-0.141321
-0.147324
-0.153112
-0.15866
-0.163943
-0.168934
-0.173604
-0.177926
-0.181869
-0.185401
-0.188489
-0.191101
-0.193202
-0.194758
-0.195735
-0.1961
-0.19582
-0.194866
-0.193209
-0.190826
-0.1877
-0.183816
-0.179169
-0.173762
-0.167608
-0.16073
-0.153162
-0.144954
-0.136164
-0.126868
-0.117154
-0.10712
-0.0968786
-0.0865504
-0.0762636
-0.0661513
-0.0563484
-0.046988
-0.0381988
-0.030101
-0.022804
-0.0164034
-0.0109794
-0.00659149
-0.00327514
-0.00108623
-0.000142374
-0.000169712
-0.00111845
-0.00315117
-0.00603964
-0.00964583
-0.0138826
-0.0186656
-0.0239159
-0.0295626
-0.0355426
-0.0417992
-0.0482822
-0.0549464
-0.0617519
-0.0686625
-0.0756462
-0.0826735
-0.0897177
-0.0967541
-0.103759
-0.110712
-0.117589
-0.124372
-0.131038
-0.137567
-0.143937
-0.150127
-0.156113
-0.161871
-0.167377
-0.172603
-0.177523
-0.182107
-0.186323
-0.19014
-0.193524
-0.196441
-0.198854
-0.200726
-0.202021
-0.202701
-0.202731
-0.202075
-0.200702
-0.198581
-0.195689
-0.192007
-0.187522
-0.182231
-0.176141
-0.169269
-0.161644
-0.153311
-0.144329
-0.134769
-0.12472
-0.114285
-0.103579
-0.0927315
-0.0818788
-0.0711654
-0.0607386
-0.0507458
-0.0413303
-0.0326275
-0.0247616
-0.0178424
-0.0119631
-0.00719472
-0.00358164
-0.00119085
-0.000156972
-0.000171784
-0.00113229
-0.00319044
-0.0061153
-0.00976719
-0.0140579
-0.018902
-0.0242195
-0.0299385
-0.0359952
-0.0423322
-0.0488986
-0.0556491
-0.0625434
-0.0695455
-0.0766233
-0.0837478
-0.0908927
-0.098034
-0.105149
-0.112217
-0.119216
-0.126128
-0.132932
-0.139609
-0.146138
-0.152497
-0.158666
-0.16462
-0.170335
-0.175787
-0.180946
-0.185783
-0.190269
-0.19437
-0.198051
-0.201277
-0.20401
-0.206211
-0.207839
-0.208856
-0.20922
-0.208893
-0.207837
-0.206017
-0.203403
-0.199968
-0.195694
-0.19057
-0.184596
-0.177782
-0.170153
-0.161745
-0.152615
-0.142832
-0.132484
-0.121675
-0.110526
-0.0991704
-0.0877551
-0.0764354
-0.0653721
-0.0547274
-0.0446606
-0.0353238
-0.0268577
-0.0193881
-0.0130231
-0.00784669
-0.00391396
-0.00130477
-0.000173009
-0.000173209
-0.0011421
-0.00321868
-0.00617028
-0.00985616
-0.0141874
-0.0190777
-0.0244463
-0.0302207
-0.0363362
-0.042735
-0.0493658
-0.0561828
-0.0631457
-0.0702186
-0.0773695
-0.0845698
-0.0917938
-0.099018
-0.106221
-0.113381
-0.120481
-0.1275
-0.134421
-0.141223
-0.147889
-0.154398
-0.16073
-0.166861
-0.17277
-0.17843
-0.183814
-0.188895
-0.19364
-0.198018
-0.201994
-0.205529
-0.208586
-0.211123
-0.213098
-0.214468
-0.21519
-0.215219
-0.214512
-0.213031
-0.210736
-0.207597
-0.203585
-0.198683
-0.192882
-0.186184
-0.178607
-0.170182
-0.160958
-0.151002
-0.140398
-0.129253
-0.117688
-0.105845
-0.0938774
-0.0819527
-0.0702451
-0.0589328
-0.0481923
-0.0381941
-0.0290971
-0.0210451
-0.0141631
-0.00855019
-0.00427377
-0.00142864
-0.000190606
-0.000173978
-0.00114784
-0.0032358
-0.00620441
-0.00991245
-0.0142706
-0.0191921
-0.0245955
-0.0304079
-0.0365639
-0.0430053
-0.0496804
-0.0565434
-0.0635537
-0.0706755
-0.0778771
-0.0851303
-0.0924099
-0.0996932
-0.106959
-0.114189
-0.121363
-0.128465
-0.135477
-0.142381
-0.14916
-0.155794
-0.162265
-0.168552
-0.174631
-0.18048
-0.186071
-0.191378
-0.196369
-0.201013
-0.205274
-0.209114
-0.212493
-0.21537
-0.2177
-0.219437
-0.220534
-0.220944
-0.220618
-0.219511
-0.217579
-0.214781
-0.211084
-0.206461
-0.200893
-0.194376
-0.186916
-0.178537
-0.169282
-0.15921
-0.148405
-0.136969
-0.125027
-0.112725
-0.100224
-0.0877025
-0.0753492
-0.0633585
-0.0519256
-0.0412408
-0.0314834
-0.0228173
-0.0153867
-0.00930785
-0.00466264
-0.00156311
-0.000209882
-0.00017409
-0.00114952
-0.00324183
-0.00621776
-0.00993616
-0.0143076
-0.0192451
-0.0246669
-0.0304996
-0.0366775
-0.0431419
-0.0498408
-0.0567283
-0.0637638
-0.0709115
-0.07814
-0.0854217
-0.0927318
-0.100048
-0.107351
-0.114623
-0.121845
-0.129001
-0.136077
-0.143054
-0.149918
-0.15665
-0.163233
-0.169647
-0.175872
-0.181884
-0.18766
-0.193171
-0.198389
-0.203282
-0.207814
-0.211948
-0.215644
-0.218859
-0.221547
-0.223659
-0.225146
-0.225957
-0.226038
-0.225339
-0.223809
-0.221401
-0.218072
-0.213786
-0.208517
-0.202246
-0.194974
-0.186713
-0.177496
-0.167377
-0.156433
-0.144764
-0.132493
-0.119771
-0.106765
-0.0936638
-0.0806706
-0.0679969
-0.0558575
-0.0444642
-0.0340188
-0.0247077
-0.0166968
-0.0101221
-0.00508208
-0.00170882
-0.000230963
-0.000173555
-0.00114719
-0.00323695
-0.00621066
-0.00992776
-0.0142991
-0.0192376
-0.0246613
-0.0304966
-0.0366773
-0.0431447
-0.0498465
-0.0567364
-0.0637739
-0.0709235
-0.078154
-0.0854381
-0.0927518
-0.100074
-0.107386
-0.114669
-0.121909
-0.12909
-0.136198
-0.143218
-0.150134
-0.156933
-0.163597
-0.170108
-0.176447
-0.182594
-0.188525
-0.194215
-0.199634
-0.204754
-0.209538
-0.213951
-0.217952
-0.221497
-0.224539
-0.22703
-0.228916
-0.230143
-0.230654
-0.230393
-0.229303
-0.227329
-0.224421
-0.220533
-0.215626
-0.209675
-0.202665
-0.194599
-0.1855
-0.175411
-0.164401
-0.152566
-0.140027
-0.126934
-0.113462
-0.0998085
-0.08619
-0.0728358
-0.0599815
-0.047862
-0.0367038
-0.0267184
-0.0180959
-0.0109949
-0.00553348
-0.00186638
-0.000253975
-0.000172392
-0.001141
-0.00322152
-0.00618375
-0.00988823
-0.0142462
-0.0191709
-0.0245803
-0.0304005
-0.0365653
-0.0430155
-0.0496985
-0.0565682
-0.063584
-0.0707104
-0.0779166
-0.0851759
-0.0924648
-0.0997631
-0.107053
-0.114318
-0.121543
-0.128715
-0.135822
-0.142849
-0.149784
-0.156614
-0.163323
-0.169896
-0.176316
-0.182563
-0.188617
-0.194452
-0.200044
-0.205362
-0.210374
-0.215043
-0.21933
-0.223191
-0.22658
-0.229445
-0.231733
-0.233387
-0.234345
-0.234548
-0.233931
-0.232435
-0.229998
-0.226565
-0.222089
-0.21653
-0.209863
-0.202076
-0.19318
-0.183207
-0.172215
-0.160293
-0.147557
-0.134156
-0.120269
-0.106101
-0.0918815
-0.0778579
-0.0642873
-0.0514292
-0.0395371
-0.02885
-0.0195857
-0.0119282
-0.00601813
-0.00203639
-0.000279045
-0.000170632
-0.00113113
-0.00319607
-0.00613802
-0.00981906
-0.0141511
-0.0190477
-0.0244269
-0.0302147
-0.0363446
-0.0427573
-0.0494
-0.0562264
-0.0631959
-0.0702733
-0.077428
-0.0846339
-0.0918682
-0.0991115
-0.106347
-0.113559
-0.120735
-0.127863
-0.134932
-0.141929
-0.148845
-0.155667
-0.162383
-0.168979
-0.17544
-0.181749
-0.187887
-0.193833
-0.199561
-0.205044
-0.210252
-0.21515
-0.219699
-0.223856
-0.227576
-0.230807
-0.233493
-0.235576
-0.236994
-0.237679
-0.237565
-0.236583
-0.234664
-0.231745
-0.227766
-0.222674
-0.216431
-0.209012
-0.200412
-0.190649
-0.17977
-0.167851
-0.155002
-0.141368
-0.127129
-0.112497
-0.0977123
-0.0830404
-0.0687602
-0.0551576
-0.042515
-0.0311019
-0.021167
-0.0129233
-0.00653714
-0.00221941
-0.000306304
-0.000168318
-0.00111787
-0.00316136
-0.00607487
-0.00972235
-0.0140165
-0.0188714
-0.0242051
-0.0299436
-0.0360202
-0.0423753
-0.048956
-0.0557157
-0.0626141
-0.0696159
-0.076691
-0.0838138
-0.0909622
-0.0981178
-0.105265
-0.112389
-0.119479
-0.126525
-0.133516
-0.140444
-0.147299
-0.154072
-0.160752
-0.167328
-0.173788
-0.180117
-0.186297
-0.192311
-0.198135
-0.203746
-0.209113
-0.214205
-0.218985
-0.223412
-0.227441
-0.23102
-0.234094
-0.236604
-0.238484
-0.239665
-0.240076
-0.23964
-0.238284
-0.235932
-0.232513
-0.227963
-0.222228
-0.215268
-0.207062
-0.197611
-0.186947
-0.175133
-0.162268
-0.148489
-0.133975
-0.118943
-0.103642
-0.0883542
-0.073381
-0.0590356
-0.0456315
-0.0334721
-0.02284
-0.0139811
-0.00709147
-0.00241597
-0.000335882
-0.000165509
-0.00110157
-0.00311838
-0.0059961
-0.00960085
-0.0138462
-0.0186467
-0.0239205
-0.0295936
-0.0355989
-0.0418767
-0.0483737
-0.0550435
-0.0618453
-0.0687445
-0.0757111
-0.0827201
-0.0897503
-0.0967841
-0.103807
-0.110806
-0.117772
-0.124695
-0.131568
-0.138383
-0.145134
-0.151813
-0.158412
-0.164923
-0.171335
-0.177636
-0.183813
-0.189849
-0.195725
-0.201418
-0.206904
-0.21215
-0.217125
-0.221788
-0.226096
-0.23
-0.233444
-0.236369
-0.238708
-0.240391
-0.241341
-0.241478
-0.24072
-0.238983
-0.236185
-0.232249
-0.227106
-0.220698
-0.212987
-0.203957
-0.193621
-0.182023
-0.16925
-0.155429
-0.140732
-0.125377
-0.109622
-0.0937638
-0.0781249
-0.0630474
-0.048878
-0.0359565
-0.0246036
-0.0151021
-0.00768185
-0.00262654
-0.000367909
-0.000162279
-0.00108272
-0.00306838
-0.00590402
-0.00945806
-0.013645
-0.0183795
-0.0235802
-0.0291727
-0.0350896
-0.0412709
-0.0476631
-0.0542195
-0.0608995
-0.0676685
-0.0744972
-0.0813609
-0.0882394
-0.095116
-0.101977
-0.108813
-0.115613
-0.122372
-0.129083
-0.135741
-0.142341
-0.14888
-0.15535
-0.161746
-0.168061
-0.174286
-0.180409
-0.186418
-0.192296
-0.198024
-0.20358
-0.208937
-0.214063
-0.218923
-0.223475
-0.227672
-0.231461
-0.234782
-0.23757
-0.239751
-0.241247
-0.241974
-0.241844
-0.240763
-0.238641
-0.235386
-0.230915
-0.225153
-0.218041
-0.209545
-0.199653
-0.188394
-0.175834
-0.162085
-0.147312
-0.131728
-0.115597
-0.0992263
-0.0829618
-0.0671733
-0.0522428
-0.0385494
-0.0264557
-0.016286
-0.0083088
-0.00285154
-0.000402516
-0.00015872
-0.00106186
-0.00301292
-0.00580147
-0.00929827
-0.0134185
-0.0180774
-0.0231931
-0.0286909
-0.0345034
-0.0405698
-0.0468364
-0.0532564
-0.0597892
-0.0664004
-0.0730611
-0.0797474
-0.0864399
-0.0931231
-0.099785
-0.106416
-0.11301
-0.11956
-0.126064
-0.132518
-0.138921
-0.145269
-0.15156
-0.15779
-0.163956
-0.170052
-0.176068
-0.181997
-0.187825
-0.193536
-0.199111
-0.204528
-0.209758
-0.214769