/*--------------------------------*- C++ -*----------------------------------*\
  =========                 |
  \\      /  F ield         | OpenFOAM: The Open Source CFD Toolbox
   \\    /   O peration     | Website:  https://openfoam.org
    \\  /    A nd           | Version:  dev
     \\/     M anipulation  |
\*---------------------------------------------------------------------------*/
FoamFile
{
    format      ascii;
    class       volScalarField;
    location    "48.6";
    object      Uy;
}
// * * * * * * * * * * * * * * * * * * * * * * * * * * * * * * * * * * * * * //

dimensions      [0 1 -1 0 0 0 0];

internalField   nonuniform List<scalar> 
5184
(
-1.2596e-05
-2.08282e-05
-1.72272e-05
-8.19005e-06
2.67154e-06
1.36207e-05
2.38505e-05
3.3056e-05
4.11166e-05
4.80377e-05
5.38809e-05
5.87309e-05
6.26804e-05
6.58206e-05
6.82363e-05
7.0003e-05
7.11848e-05
7.18343e-05
7.19923e-05
7.16884e-05
7.09419e-05
6.97634e-05
6.81557e-05
6.61159e-05
6.36368e-05
6.07086e-05
5.73208e-05
5.34637e-05
4.91303e-05
4.43176e-05
3.9028e-05
3.32707e-05
2.70631e-05
2.04311e-05
1.34104e-05
6.0468e-06
-1.60352e-06
-9.47409e-06
-1.74884e-05
-2.55604e-05
-3.35957e-05
-4.14927e-05
-4.91442e-05
-5.64391e-05
-6.32648e-05
-6.95093e-05
-7.50637e-05
-7.98251e-05
-8.36988e-05
-8.66011e-05
-8.84614e-05
-8.92245e-05
-8.88522e-05
-8.73246e-05
-8.46415e-05
-8.08222e-05
-7.59062e-05
-6.99522e-05
-6.3038e-05
-5.52598e-05
-4.67316e-05
-3.75862e-05
-2.79786e-05
-1.80914e-05
-8.15053e-06
1.54853e-06
1.05807e-05
1.83104e-05
2.37282e-05
2.51427e-05
1.98644e-05
6.25089e-06
-4.57279e-05
-6.56196e-05
-4.05252e-05
7.64953e-06
6.56973e-05
0.000126023
0.000184343
0.000238408
0.000287076
0.000329902
0.000366848
0.000398102
0.000423976
0.000444837
0.000461062
0.000473011
0.000481005
0.00048532
0.000486181
0.000483758
0.000478172
0.0004695
0.000457781
0.000443024
0.000425217
0.000404337
0.000380358
0.000353265
0.000323057
0.000289762
0.000253439
0.000214193
0.000172172
0.00012758
8.06764e-05
3.17811e-05
-1.87271e-05
-7.04098e-05
-0.000122772
-0.000175265
-0.000227295
-0.00027823
-0.000327408
-0.00037415
-0.00041777
-0.000457594
-0.000492969
-0.00052328
-0.000547965
-0.00056653
-0.000578562
-0.000583742
-0.000581854
-0.000572795
-0.000556581
-0.00053335
-0.000503367
-0.000467022
-0.00042483
-0.000377432
-0.000325597
-0.000270229
-0.00021239
-0.000153332
-9.45678e-05
-3.79766e-05
1.39759e-05
5.79849e-05
8.94618e-05
0.000101914
8.65681e-05
3.65108e-05
-8.12672e-05
-9.50089e-05
-1.91215e-05
0.000105957
0.000254712
0.000410694
0.000563581
0.000707233
0.000838198
0.000954765
0.00105634
0.00114302
0.00121531
0.00127394
0.00131973
0.00135351
0.00137605
0.00138801
0.00138997
0.00138237
0.00136553
0.00133967
0.00130494
0.00126139
0.00120902
0.00114784
0.00107782
0.00099899
0.000911407
0.000815212
0.000710635
0.000598024
0.00047785
0.00035073
0.000217431
7.88753e-05
-6.38552e-05
-0.000209524
-0.000356749
-0.000504009
-0.00064967
-0.000791997
-0.000929187
-0.0010594
-0.00118077
-0.0012915
-0.00138982
-0.00147408
-0.00154279
-0.00159463
-0.0016285
-0.00164357
-0.00163926
-0.00161533
-0.00157184
-0.0015092
-0.00142815
-0.0013298
-0.00121559
-0.00108733
-0.000947193
-0.000797754
-0.000642019
-0.000483521
-0.000326459
-0.000175925
-3.82415e-05
7.85687e-05
0.000164206
0.000205507
0.00018637
9.04331e-05
-9.7768e-05
-7.3175e-05
8.47848e-05
0.000318423
0.000590234
0.000874585
0.00115444
0.001419
0.00166179
0.00187928
0.0020699
0.00223341
0.00237036
0.00248179
0.00256897
0.00263324
0.00267587
0.00269802
0.00270067
0.0026846
0.00265043
0.00259856
0.00252928
0.00244274
0.00233901
0.00221816
0.00208022
0.00192531
0.00175363
0.00156555
0.00136157
0.00114244
0.000909139
0.000662897
0.000405233
0.000137949
-0.000136864
-0.000416836
-0.000699328
-0.000981462
-0.00126015
-0.00153213
-0.00179403
-0.00204241
-0.00227381
-0.00248484
-0.00267226
-0.00283302
-0.00296434
-0.0030638
-0.00312937
-0.00315951
-0.0031532
-0.00310999
-0.00303004
-0.00291412
-0.00276367
-0.00258079
-0.00236825
-0.00212949
-0.00186868
-0.0015907
-0.00130128
-0.0010071
-0.000715958
-0.000437151
-0.00018182
3.64174e-05
0.000200831
0.000291025
0.00028271
0.00014735
-8.44602e-05
2.08503e-05
0.000295476
0.000668166
0.0010911
0.00153034
0.00196246
0.00237195
0.0027491
0.00308826
0.00338666
0.00364348
0.00385918
0.00403499
0.00417259
0.00427378
0.00434037
0.00437399
0.00437608
0.00434781
0.00429008
0.00420356
0.0040887
0.0039458
0.00377506
0.00357662
0.00335068
0.0030975
0.00281754
0.00251146
0.0021802
0.00182504
0.00144762
0.00105002
0.00063469
0.000204573
-0.000236976
-0.000686166
-0.0011388
-0.00159033
-0.00203589
-0.00247034
-0.0028884
-0.00328468
-0.00365379
-0.00399047
-0.00428964
-0.00454657
-0.00475696
-0.00491704
-0.00502368
-0.00507449
-0.00506791
-0.00500326
-0.00488079
-0.00470176
-0.00446846
-0.0041842
-0.00385337
-0.00348144
-0.00307497
-0.00264172
-0.00219068
-0.00173226
-0.00127854
-0.000843543
-0.000443782
-9.88197e-05
0.000167995
0.000328917
0.000351207
0.000194237
-3.75828e-05
0.000197344
0.000627005
0.00117062
0.00177222
0.00239092
0.00299765
0.00357261
0.00410293
0.00458085
0.00500229
0.00536575
0.00567149
0.00592085
0.00611583
0.00625869
0.00635171
0.00639703
0.00639651
0.00635172
0.0062639
0.00613398
0.00596262
0.0057503
0.00549737
0.00520416
0.00487105
0.00449855
0.00408744
0.00363881
0.00315415
0.00263542
0.0020851
0.00150623
0.000902474
0.00027808
-0.000362082
-0.00101256
-0.00166733
-0.0023199
-0.00296333
-0.00359036
-0.00419346
-0.00476503
-0.00529747
-0.00578334
-0.00621549
-0.00658726
-0.00689259
-0.00712617
-0.00728361
-0.00736154
-0.00735776
-0.00727132
-0.00710261
-0.0068534
-0.00652695
-0.00612798
-0.00566274
-0.00513899
-0.0045661
-0.00395504
-0.00331854
-0.00267118
-0.00202971
-0.00141332
-0.00084417
-0.000347939
4.53852e-05
0.000300845
0.000377615
0.000224649
4.40573e-05
0.000461317
0.0010873
0.0018352
0.00264313
0.00346484
0.00426665
0.00502513
0.00572463
0.00635548
0.00691234
0.00739306
0.00779764
0.00812751
0.00838495
0.00857262
0.00869325
0.00874945
0.00874352
0.00867742
0.00855272
0.00837063
0.00813206
0.00783768
0.00748806
0.00708373
0.00662532
0.00611371
0.00555005
0.00493597
0.00427363
0.00356579
0.00281591
0.00202821
0.00120766
0.000360054
-0.000508037
-0.00138928
-0.00227561
-0.00315836
-0.00402828
-0.0048757
-0.00569066
-0.00646307
-0.00718287
-0.0078402
-0.00842563
-0.00893034
-0.00934629
-0.00966648
-0.00988508
-0.00999763
-0.0100012
-0.00989449
-0.009678
-0.00935409
-0.00892704
-0.00840311
-0.00779058
-0.00709977
-0.00634306
-0.00553499
-0.00469231
-0.00383411
-0.00298211
-0.0021609
-0.00139843
-0.000726562
-0.000181797
0.000194044
0.000352822
0.000235148
0.000160455
0.000814641
0.00168014
0.00266692
0.00370924
0.00475704
0.00577325
0.00673159
0.00761424
0.00840993
0.00911231
0.00971866
0.0102288
0.0106443
0.0109676
0.0112018
0.01135
0.0114154
0.0114007
0.0113081
0.0111395
0.0108966
0.0105804
0.0101919
0.00973174
0.00920089
0.00860022
0.007931
0.0071949
0.00639414
0.00553165
0.00461113
0.00363713
0.00261517
0.00155173
0.000454255
-0.000668791
-0.00180802
-0.00295314
-0.00409309
-0.00521614
-0.00631
-0.00736206
-0.00835952
-0.00928964
-0.01014
-0.0108985
-0.0115541
-0.0120966
-0.0125171
-0.0128082
-0.0129641
-0.0129811
-0.0128575
-0.0125938
-0.012193
-0.0116604
-0.0110039
-0.010234
-0.00936359
-0.00840835
-0.00738658
-0.00631927
-0.00523027
-0.00414646
-0.00309798
-0.00211864
-0.00124644
-0.00052418
-9.26075e-08
0.000271259
0.000224026
0.000310974
0.00125723
0.00240651
0.00366765
0.00497286
0.00626977
0.0075191
0.00869262
0.009771
0.0107419
0.0115981
0.0123368
0.0129576
0.0134622
0.0138534
0.0141347
0.0143097
0.0143819
0.0143543
0.0142298
0.0140105
0.0136982
0.0132943
0.0128001
0.0122165
0.0115447
0.0107859
0.00994196
0.00901497
0.0080079
0.00692453
0.00576957
0.00454879
0.00326911
0.00193862
0.00056659
-0.000836512
-0.00225909
-0.00368847
-0.00511106
-0.00651242
-0.00787753
-0.00919089
-0.0104368
-0.0115997
-0.0126643
-0.0136159
-0.0144408
-0.0151264
-0.0156618
-0.0160378
-0.0162473
-0.0162855
-0.0161502
-0.015842
-0.0153642
-0.0147234
-0.013929
-0.0129937
-0.0119332
-0.0107667
-0.00951625
-0.00820733
-0.00686868
-0.00553247
-0.0042345
-0.00301448
-0.00191642
-0.000989234
-0.000287092
0.000129814
0.000190631
0.00049471
0.00178784
0.00326551
0.00483701
0.00643398
0.00800308
0.00950394
0.0109073
0.0121931
0.0133484
0.0143658
0.0152421
0.0159774
0.0165735
0.0170337
0.0173618
0.0175619
0.0176379
0.0175933
0.0174313
0.0171543
0.0167644
0.0162634
0.0156526
0.0149334
0.0141072
0.0131757
0.0121411
0.0110063
0.00977485
0.0084515
0.00704206
0.0055536
0.0039945
0.00237457
0.000705001
-0.00100163
-0.0027314
-0.00446914
-0.00619856
-0.00790243
-0.00956277
-0.0111611
-0.0126786
-0.0140967
-0.0153971
-0.0165622
-0.0175754
-0.0184218
-0.0190879
-0.0195628
-0.0198377
-0.0199067
-0.0197669
-0.0194187
-0.0188659
-0.0181161
-0.0171803
-0.0160734
-0.0148141
-0.0134249
-0.0119319
-0.0103652
-0.0087585
-0.00714938
-0.00557935
-0.00409405
-0.00274345
-0.00158234
-0.000670502
-7.31284e-05
0.000134882
0.000710631
0.00240457
0.00425507
0.00617304
0.00809079
0.0099552
0.0117259
0.0133735
0.0148778
0.0162259
0.0174107
0.0184293
0.019282
0.0199712
0.0205006
0.0208745
0.0210976
0.0211742
0.0211083
0.0209032
0.0205618
0.0200866
0.0194794
0.018742
0.017876
0.0168831
0.0157655
0.0145258
0.0131675
0.0116952
0.0101144
0.00843209
0.00665667
0.0047981
0.00286793
0.000879342
-0.00115289
-0.00321244
-0.00528153
-0.0073411
-0.00937098
-0.0113501
-0.0132568
-0.0150692
-0.0167653
-0.0183236
-0.0197234
-0.0209452
-0.0219712
-0.0227856
-0.023375
-0.023729
-0.0238402
-0.023705
-0.0233234
-0.0226995
-0.0218417
-0.0207627
-0.0194796
-0.0180139
-0.0163915
-0.0146429
-0.0128025
-0.0109093
-0.00900638
-0.00714097
-0.00536465
-0.00373339
-0.00230771
-0.00115277
-0.000338409
5.69468e-05
0.000957657
0.00310512
0.0053723
0.00767264
0.00994016
0.012123
0.0141816
0.0160875
0.0178211
0.0193701
0.0207281
0.0218929
0.0228653
0.0236485
0.0242469
0.0246653
0.024909
0.0249828
0.0248911
0.0246377
0.0242257
0.0236578
0.0229363
0.022063
0.02104
0.0198692
0.0185533
0.0170954
0.0154997
0.0137715
0.0119173
0.00994534
0.00786531
0.00568874
0.003429
0.00110128
-0.0012774
-0.00368825
-0.00611083
-0.00852321
-0.0109022
-0.0132235
-0.0154622
-0.017593
-0.0195905
-0.0214298
-0.0230868
-0.0245389
-0.0257651
-0.0267469
-0.0274685
-0.0279172
-0.0280843
-0.0279648
-0.0275583
-0.0268691
-0.0259062
-0.0246837
-0.023221
-0.0215423
-0.0196772
-0.01766
-0.0155301
-0.0133316
-0.0111131
-0.00892787
-0.00683343
-0.00489173
-0.00316908
-0.0017359
-0.000666591
-4.29579e-05
0.0012347
0.00388694
0.00661377
0.00933189
0.0119779
0.014502
0.0168666
0.0190447
0.0210181
0.0227758
0.0243124
0.0256268
0.026721
0.0275989
0.0282657
0.0287272
0.028989
0.0290567
0.0289351
0.0286283
0.0281399
0.0274728
0.0266294
0.025612
0.0244228
0.0230642
0.0215392
0.0198515
0.0180058
0.0160083
0.0138664
0.0115895
0.00918874
0.00667714
0.00406987
0.00138416
-0.00136071
-0.00414347
-0.00694096
-0.00972833
-0.0124793
-0.0151663
-0.0177609
-0.0202343
-0.0225575
-0.0247021
-0.0266403
-0.0283459
-0.0297948
-0.0309653
-0.0318388
-0.0324003
-0.032639
-0.0325487
-0.032128
-0.0313812
-0.0303177
-0.0289531
-0.0273085
-0.0254112
-0.023294
-0.0209956
-0.01856
-0.0160367
-0.01348
-0.0109491
-0.00850784
-0.00622415
-0.00417025
-0.00242196
-0.00105832
-0.000164699
0.00154066
0.00474733
0.00797566
0.0111463
0.014199
0.0170871
0.0197755
0.0222395
0.024463
0.0264369
0.0281573
0.0296248
0.0308425
0.0318156
0.0325503
0.0330533
0.033331
0.0333894
0.0332341
0.0328694
0.0322994
0.0315272
0.0305555
0.0293868
0.0280235
0.0264684
0.0247249
0.0227971
0.0206904
0.0184117
0.0159695
0.013374
0.0106379
0.00777566
0.00480426
0.0017429
-0.00138687
-0.00456131
-0.00775454
-0.0109388
-0.0140845
-0.0171608
-0.0201358
-0.0229768
-0.0256513
-0.0281267
-0.0303717
-0.0323561
-0.0340523
-0.035435
-0.0364825
-0.0371772
-0.0375058
-0.0374604
-0.0370386
-0.0362439
-0.0350863
-0.0335823
-0.031755
-0.0296341
-0.0272561
-0.0246637
-0.0219059
-0.0190374
-0.0161186
-0.0132148
-0.0103961
-0.00773698
-0.00531559
-0.00321346
-0.00151458
-0.000308312
0.00187443
0.00568344
0.00945385
0.0131107
0.0165978
0.0198721
0.0229018
0.0256653
0.0281492
0.0303466
0.0322561
0.0338799
0.0352229
0.0362917
0.0370939
0.037637
0.0379284
0.0379749
0.0377825
0.0373561
0.0367001
0.0358178
0.0347122
0.0333861
0.0318421
0.0300833
0.0281133
0.0259367
0.0235597
0.0209895
0.0182357
0.0153097
0.0122251
0.00899812
0.00564731
0.00219385
-0.00133853
-0.00492363
-0.00853287
-0.0121355
-0.0156988
-0.0191884
-0.0225688
-0.0258035
-0.0288558
-0.0316894
-0.0342685
-0.0365591
-0.0385293
-0.0401503
-0.0413966
-0.0422475
-0.042687
-0.0427049
-0.0422972
-0.0414668
-0.0402235
-0.0385846
-0.0365747
-0.0342263
-0.0315791
-0.02868
-0.0255828
-0.022348
-0.0190419
-0.0157362
-0.0125077
-0.00943752
-0.0066103
-0.00411362
-0.00203687
-0.000474065
0.00223488
0.0066923
0.0110439
0.0152197
0.0191681
0.0228502
0.0262385
0.0293148
0.032069
0.0344974
0.0366011
0.0383845
0.0398547
0.0410199
0.0418892
0.0424714
0.0427749
0.0428072
0.042575
0.0420837
0.0413381
0.0403417
0.0390979
0.0376095
0.0358795
0.033911
0.0317081
0.0292757
0.0266204
0.0237503
0.0206755
0.0174084
0.0139639
0.0103595
0.00661539
0.00275458
-0.00119709
-0.00521102
-0.00925597
-0.0132982
-0.0173019
-0.0212291
-0.0250405
-0.0286959
-0.0321541
-0.0353746
-0.0383172
-0.0409435
-0.0432172
-0.045105
-0.0465777
-0.0476107
-0.0481849
-0.0482872
-0.0479119
-0.0470603
-0.0457418
-0.0439743
-0.0417837
-0.0392047
-0.0362804
-0.0330618
-0.0296078
-0.0259845
-0.0222644
-0.0185261
-0.0148534
-0.0113344
-0.00806071
-0.00512654
-0.00262734
-0.000662494
0.00262086
0.0077708
0.0127412
0.0174674
0.021903
0.026014
0.0297776
0.0331797
0.0362143
0.038881
0.0411839
0.0431304
0.0447298
0.0459924
0.0469288
0.0475495
0.0478638
0.0478803
0.0476062
0.0470477
0.0462098
0.0450965
0.0437111
0.0420569
0.0401368
0.0379543
0.0355135
0.0328199
0.0298803
0.0267033
0.0232998
0.0196829
0.0158687
0.0118757
0.00772583
0.00344369
-0.000942834
-0.00540287
-0.0099026
-0.0144054
-0.0188722
-0.0232615
-0.0275303
-0.0316341
-0.0355277
-0.0391655
-0.0425031
-0.0454969
-0.0481058
-0.0502921
-0.0520217
-0.0532658
-0.0540015
-0.0542127
-0.0538907
-0.0530351
-0.0516546
-0.0497668
-0.0473988
-0.0445874
-0.0413788
-0.0378282
-0.0339994
-0.0299644
-0.0258024
-0.0215991
-0.0174456
-0.0134377
-0.00967446
-0.00625744
-0.00328885
-0.000874431
0.00303116
0.00891569
0.0145407
0.0198474
0.0247952
0.0293555
0.0335105
0.0372512
0.0405759
0.0434881
0.0459956
0.0481088
0.0498396
0.0512007
0.0522047
0.0528636
0.0531881
0.0531877
0.0528706
0.0522434
0.0513115
0.0500793
0.0485504
0.046728
0.0446154
0.042216
0.0395342
0.0365755
0.0333472
0.0298582
0.02612
0.0221464
0.0179542
0.0135633
0.00899666
0.00428062
-0.000555131
-0.00547756
-0.0104504
-0.0154341
-0.0203865
-0.0252628
-0.0300157
-0.0345968
-0.0389561
-0.0430435
-0.0468093
-0.0502048
-0.0531836
-0.0557026
-0.0577228
-0.0592104
-0.060138
-0.0604856
-0.0602412
-0.0594021
-0.0579753
-0.0559779
-0.053438
-0.0503938
-0.0468946
-0.0429996
-0.0387779
-0.0343074
-0.0296742
-0.0249716
-0.0202986
-0.0157591
-0.0114606
-0.00751265
-0.00402508
-0.00111102
0.00346451
0.0101235
0.0164372
0.0223532
0.0278369
0.0328659
0.037428
0.0415197
0.045144
0.0483089
0.0510262
0.0533097
0.0551745
0.0566357
0.0577082
0.0584055
0.0587402
0.0587226
0.0583619
0.0576654
0.0566389
0.0552872
0.053614
0.0516226
0.0493163
0.0466987
0.0437742
0.0405485
0.0370288
0.0332246
0.0291475
0.024812
0.0202356
0.015439
0.0104463
0.00528529
-1.26895e-05
-0.00541262
-0.0108759
-0.0163603
-0.0218206
-0.0272083
-0.0324726
-0.0375604
-0.0424172
-0.0469878
-0.051217
-0.0550507
-0.0584367
-0.0613259
-0.0636736
-0.0654404
-0.0665938
-0.067109
-0.0669701
-0.0661712
-0.0647171
-0.0626239
-0.0599196
-0.0566441
-0.0528492
-0.0485982
-0.0439653
-0.0390348
-0.0338999
-0.0286618
-0.0234283
-0.0183121
-0.0134298
-0.00889976
-0.00484055
-0.00137373
0.0039196
0.0113907
0.0184252
0.0249775
0.0310197
0.036536
0.0415202
0.0459747
0.0499079
0.0533327
0.0562651
0.0587228
0.0607242
0.0622875
0.0634296
0.0641664
0.0645117
0.0644774
0.0640735
0.063308
0.0621873
0.0607164
0.0588993
0.0567394
0.0542398
0.0514043
0.0482372
0.0447441
0.0409324
0.0368115
0.0323933
0.0276927
0.0227276
0.0175194
0.0120932
0.00647783
0.000706163
-0.00518502
-0.0111549
-0.0171589
-0.0231486
-0.0290723
-0.034875
-0.0404995
-0.0458864
-0.0509751
-0.0557049
-0.0600155
-0.0638484
-0.0671483
-0.0698638
-0.0719493
-0.0733662
-0.0740843
-0.0740827
-0.0733515
-0.0718926
-0.0697203
-0.0668622
-0.063359
-0.059265
-0.0546473
-0.0495852
-0.0441696
-0.0385013
-0.0326901
-0.0268528
-0.0211121
-0.0155942
-0.0104277
-0.00574064
-0.00166437
0.004395
0.0127133
0.0204987
0.0277128
0.0343349
0.0403558
0.0457764
0.0506051
0.0548562
0.0585478
0.0617006
0.0643366
0.0664777
0.0681452
0.0693587
0.0701363
0.0704934
0.0704435
0.0699976
0.0691644
0.0679509
0.0663624
0.0644031
0.0620764
0.0593855
0.0563339
0.0529259
0.0491669
0.0450642
0.0406271
0.0358675
0.0308005
0.0254443
0.0198207
0.0139554
0.00787819
0.00162314
-0.00477143
-0.0112628
-0.017804
-0.0243438
-0.0308271
-0.0371953
-0.0433866
-0.0493367
-0.0549797
-0.0602486
-0.0650768
-0.0693992
-0.073153
-0.07628
-0.0787274
-0.0804497
-0.08141
-0.0815818
-0.0809501
-0.079513
-0.0772822
-0.0742839
-0.0705595
-0.066165
-0.0611711
-0.0556625
-0.0497367
-0.0435025
-0.0370786
-0.0305921
-0.024176
-0.0179677
-0.0121065
-0.00673162
-0.00198508
0.00488923
0.0140873
0.0226515
0.0305511
0.0377728
0.044315
0.0501854
0.0553992
0.0599767
0.0639419
0.0673205
0.0701388
0.0724228
0.074197
0.0754841
0.0763043
0.0766751
0.0766113
0.0761253
0.0752265
0.0739226
0.0722192
0.0701205
0.0676302
0.0647513
0.0614871
0.0578415
0.0538198
0.049429
0.0446782
0.0395791
0.0341465
0.0283989
0.022358
0.0160502
0.00950573
0.0027596
-0.00414861
-0.0111745
-0.018269
-0.0253783
-0.0324441
-0.0394041
-0.0461922
-0.0527389
-0.0589728
-0.0648207
-0.0702091
-0.0750655
-0.0793197
-0.0829053
-0.0857616
-0.0878351
-0.0890815
-0.0894674
-0.0889717
-0.0875874
-0.0853228
-0.0822021
-0.078266
-0.0735722
-0.0681947
-0.0622234
-0.0557623
-0.0489289
-0.0418516
-0.0346681
-0.027523
-0.0205658
-0.0139479
-0.00782066
-0.00233834
0.0054007
0.0155084
0.0248771
0.033484
0.0413238
0.0484024
0.0547351
0.0603442
0.0652565
0.0695019
0.0731114
0.0761162
0.0785464
0.0804302
0.0817933
0.0826584
0.0830451
0.08297
0.0824465
0.0814851
0.080094
0.0782793
0.0760455
0.0733959
0.0703337
0.0668616
0.0629835
0.0587042
0.05403
0.0489699
0.043535
0.0377399
0.0316027
0.0251452
0.0183936
0.0113788
0.00413609
-0.0032938
-0.0108652
-0.0185272
-0.0262237
-0.0338935
-0.0414705
-0.0488845
-0.0560611
-0.0629229
-0.0693904
-0.075383
-0.0808203
-0.0856238
-0.0897183
-0.0930343
-0.0955093
-0.0970903
-0.0977359
-0.0974176
-0.0961224
-0.0938536
-0.0906324
-0.0864983
-0.0815097
-0.0757436
-0.0692946
-0.062274
-0.0548077
-0.0470348
-0.0391044
-0.0311738
-0.0234055
-0.0159647
-0.00901581
-0.00272697
0.00592773
0.0169721
0.0271685
0.0365026
0.0449772
0.0526063
0.0594131
0.065427
0.0706818
0.0752136
0.0790591
0.0822546
0.0848345
0.0868309
0.0882727
0.0891853
0.0895908
0.0895073
0.0889495
0.0879292
0.0864552
0.0845338
0.0821698
0.0793666
0.076127
0.0724535
0.0683494
0.063819
0.0588682
0.053505
0.0477402
0.0415878
0.0350652
0.0281939
0.021
0.013514
0.00577191
-0.00218525
-0.0103107
-0.0185522
-0.0268514
-0.0351446
-0.0433624
-0.0514303
-0.0592691
-0.0667956
-0.0739238
-0.0805655
-0.086632
-0.092036
-0.0966928
-0.100523
-0.103454
-0.105423
-0.106379
-0.106285
-0.105121
-0.102883
-0.0995884
-0.0952745
-0.0899996
-0.0838428
-0.0769036
-0.0693002
-0.0611676
-0.0526559
-0.0439267
-0.0351509
-0.0265057
-0.018171
-0.0103261
-0.00315415
0.00646857
0.0184736
0.0295185
0.0395976
0.0487221
0.0569145
0.0642059
0.0706335
0.0762381
0.0810622
0.0851486
0.0885388
0.0912719
0.0933839
0.0949074
0.0958706
0.0962979
0.0962093
0.0956212
0.0945463
0.0929941
0.0909715
0.0884834
0.0855332
0.0821233
0.078256
0.073934
0.0691608
0.0639416
0.0582837
0.052197
0.0456946
0.0387932
0.0315135
0.0238811
0.0159262
0.00768449
-0.000802684
-0.00948802
-0.018318
-0.0272329
-0.0361666
-0.0450465
-0.0537945
-0.0623265
-0.0705537
-0.0783832
-0.0857192
-0.0924646
-0.0985223
-0.103797
-0.1082
-0.111646
-0.114061
-0.115384
-0.115568
-0.114582
-0.112416
-0.109081
-0.104611
-0.0990625
-0.092517
-0.0850778
-0.07687
-0.0680382
-0.0587437
-0.049162
-0.0394786
-0.0298867
-0.0205823
-0.0117613
-0.00362339
0.00702136
0.0200079
0.0319195
0.0427593
0.0525471
0.0613142
0.0690999
0.0759491
0.08191
0.087032
0.0913638
0.0949526
0.0978422
0.100073
0.101681
0.102698
0.103151
0.103061
0.102446
0.101322
0.0996968
0.0975791
0.0949738
0.0918841
0.0883122
0.08426
0.0797293
0.0747232
0.0692457
0.0633032
0.0569046
0.0500618
0.0427905
0.0351105
0.0270462
0.0186273
0.00988891
0.000872095
-0.00837564
-0.0178002
-0.0273405
-0.0369287
-0.0464895
-0.0559412
-0.0651953
-0.0741573
-0.0827278
-0.0908033
-0.0982774
-0.105043
-0.110995
-0.116031
-0.120055
-0.12298
-0.124732
-0.125251
-0.124498
-0.122452
-0.119116
-0.11452
-0.108717
-0.101789
-0.093844
-0.0850128
-0.0754498
-0.0653286
-0.054839
-0.0441828
-0.0335702
-0.0232154
-0.0133321
-0.00413854
0.00758418
0.0215699
0.0343636
0.0459776
0.0564405
0.0657922
0.0740805
0.0813585
0.0876817
0.0931064
0.0976879
0.101479
0.104528
0.106881
0.108577
0.109651
0.110132
0.110044
0.109408
0.108239
0.106547
0.104341
0.101626
0.098405
0.0946803
0.090453
0.0857244
0.0804964
0.0747723
0.0685571
0.0618585
0.0546872
0.0470574
0.0389876
0.0305011
0.0216262
0.0123972
0.00285461
-0.00695454
-0.0169759
-0.0271479
-0.0374009
-0.0476578
-0.0578336
-0.0678358
-0.0775645
-0.0869139
-0.0957726
-0.104025
-0.111555
-0.118243
-0.123976
-0.128644
-0.132147
-0.134395
-0.135316
-0.134857
-0.132986
-0.129696
-0.12501
-0.118978
-0.111681
-0.103228
-0.0937573
-0.0834331
-0.0724415
-0.0609875
-0.0492905
-0.0375796
-0.0260883
-0.0150503
-0.0047038
0.00815503
0.0231543
0.0368428
0.0492421
0.0603899
0.0703347
0.0791329
0.0868458
0.0935364
0.0992684
0.104103
0.1081
0.111312
0.113789
0.115575
0.116709
0.117222
0.117141
0.116488
0.115279
0.113526
0.111239
0.108422
0.105079
0.101211
0.0968196
0.0919047
0.0864673
0.0805096
0.0740353
0.0670506
0.0595647
0.0515902
0.0431439
0.0342475
0.024928
0.015218
0.00515706
-0.00520861
-0.0158251
-0.0266305
-0.0375547
-0.0485188
-0.0594351
-0.0702076
-0.0807316
-0.090895
-0.100579
-0.109658
-0.118006
-0.125492
-0.131988
-0.13737
-0.141523
-0.144341
-0.145736
-0.145639
-0.144005
-0.140817
-0.136086
-0.129858
-0.122209
-0.113253
-0.103131
-0.0920186
-0.0801139
-0.0676384
-0.0548304
-0.0419392
-0.0292202
-0.0169283
-0.00532371
0.00873188
0.0247555
0.0393488
0.0525424
0.0643828
0.0749277
0.0842419
0.0923947
0.0994571
0.1055
0.110591
0.114796
0.118173
0.120777
0.122656
0.123853
0.124401
0.12433
0.123664
0.122421
0.120614
0.118252
0.115342
0.111886
0.107885
0.103341
0.0982521
0.0926188
0.0864418
0.0797235
0.0724684
0.0646838
0.0563807
0.0475739
0.0382831
0.0285333
0.0183557
0.00778776
-0.00312534
-0.0143307
-0.025767
-0.0373637
-0.0490411
-0.0607097
-0.0722702
-0.0836138
-0.0946225
-0.10517
-0.115123
-0.124343
-0.132687
-0.140013
-0.146182
-0.15106
-0.154526
-0.156473
-0.156815
-0.155491
-0.152467
-0.147746
-0.141362
-0.133389
-0.12394
-0.113161
-0.101236
-0.0883774
-0.0748232
-0.0608318
-0.046675
-0.0326312
-0.0189793
-0.00600316
0.00931265
0.0263682
0.0418732
0.0558676
0.0684067
0.0795569
0.0893917
0.0979884
0.105426
0.111782
0.117132
0.121547
0.125091
0.127824
0.129799
0.13106
0.131646
0.131589
0.130914
0.129642
0.127786
0.125357
0.122361
0.118802
0.11468
0.109994
0.104745
0.0989299
0.0925491
0.0856031
0.0780948
0.0700295
0.0614161
0.0522672
0.0426004
0.0324383
0.0218098
0.0107505
-0.000696516
-0.0124798
-0.0245391
-0.0368045
-0.049196
-0.0616228
-0.0739836
-0.0861659
-0.0980466
-0.109493
-0.120362
-0.130505
-0.139766
-0.14799
-0.15502
-0.160704
-0.164901
-0.167485
-0.168349
-0.167414
-0.164628
-0.159979
-0.153491
-0.14523
-0.135306
-0.123871
-0.111114
-0.0972632
-0.0825736
-0.0673251
-0.0518136
-0.0363429
-0.0212175
-0.00674737
0.00989524
0.0279867
0.0444076
0.0592069
0.0724488
0.084208
0.0945666
0.10361
0.111425
0.118097
0.123707
0.128333
0.132046
0.134909
0.13698
0.138307
0.138933
0.138893
0.138213
0.136916
0.135018
0.132528
0.129455
0.125801
0.121568
0.116754
0.111357
0.105376
0.0988072
0.0916511
0.0839082
0.0755818
0.0666785
0.0572086
0.0471869
0.0366336
0.0255749
0.0140439
0.00208117
-0.010264
-0.022933
-0.0358574
-0.0489576
-0.0621427
-0.0753097
-0.0883436
-0.101117
-0.11349
-0.125314
-0.136428
-0.146664
-0.155852
-0.163816
-0.170388
-0.175404
-0.178715
-0.180194
-0.179736
-0.177272
-0.172769
-0.166237
-0.157734
-0.147364
-0.13528
-0.121679
-0.106801
-0.0909213
-0.0743412
-0.0573826
-0.0403773
-0.0236576
-0.0075619
0.0104776
0.0296055
0.0469437
0.0625498
0.0764963
0.0888666
0.0997508
0.109243
0.117436
0.124424
0.130296
0.135133
0.139014
0.142007
0.144175
0.14557
0.146237
0.146215
0.145534
0.144216
0.142279
0.139736
0.136593
0.132854
0.12852
0.12359
0.11806
0.111927
0.105188
0.0978398
0.0898822
0.0813159
0.072145
0.0623772
0.0520247
0.0411045
0.0296399
0.017661
0.00520554
-0.00768013
-0.02094
-0.0345074
-0.0483044
-0.0622406
-0.0762128
-0.0901041
-0.103784
-0.117107
-0.129917
-0.142045
-0.153309
-0.163524
-0.172498
-0.180039
-0.185964
-0.190099
-0.19229
-0.192408
-0.190358
-0.186087
-0.179586
-0.170898
-0.16012
-0.147404
-0.132954
-0.11702
-0.0998972
-0.0819108
-0.0634104
-0.0447576
-0.0263154
-0.00845263
0.0110577
0.0312192
0.0494733
0.0658857
0.0805369
0.0935185
0.104929
0.114869
0.123441
0.130745
0.136876
0.141925
0.145973
0.149096
0.151359
0.152821
0.153531
0.153528
0.152847
0.151511
0.149541
0.146949
0.143743
0.139928
0.135504
0.130469
0.124819
0.11855
0.111658
0.104137
0.0959855
0.0872017
0.0777872
0.067747
0.05709
0.0458304
0.0339879
0.0215891
0.00866845
-0.00473114
-0.0185568
-0.0327449
-0.0472197
-0.0618926
-0.076661
-0.0914073
-0.105999
-0.120287
-0.134109
-0.147286
-0.159626
-0.170928
-0.180982
-0.189577
-0.196503
-0.201561
-0.204569
-0.205369
-0.203838
-0.199895
-0.19351
-0.184708
-0.173574
-0.160254
-0.144957
-0.127946
-0.109531
-0.0900646
-0.0699255
-0.0495075
-0.029207
-0.00942576
0.0116336
0.0328228
0.0519886
0.0692045
0.0845586
0.09815
0.110085
0.120472
0.129421
0.137039
0.143428
0.148686
0.152899
0.156149
0.158507
0.160035
0.160785
0.160802
0.160121
0.15877
0.156769
0.154133
0.150871
0.146987
0.142482
0.137354
0.131598
0.125209
0.11818
0.110506
0.102182
0.0932045
0.0835718
0.0732863
0.0623537
0.0507847
0.0385956
0.025809
0.0124554
-0.00142621
-0.0157868
-0.0305665
-0.0456929
-0.06108
-0.0766271
-0.0922175
-0.107718
-0.122977
-0.137826
-0.15208
-0.165536
-0.177979
-0.189181
-0.198909
-0.206929
-0.213014
-0.216949
-0.218546
-0.217648
-0.214144
-0.207974
-0.199142
-0.187716
-0.173834
-0.157705
-0.1396
-0.119851
-0.0988326
-0.0769565
-0.0546513
-0.0323491
-0.0104878
0.0122034
0.0344115
0.0544824
0.0724968
0.0885498
0.102748
0.115204
0.126035
0.135358
0.143287
0.149931
0.155393
0.159768
0.163142
0.165591
0.167182
0.167971
0.168006
0.167325
0.165959
0.163929
0.161253
0.157939
0.153994
0.149417
0.144206
0.138356
0.131862
0.124714
0.116907
0.108432
0.0992847
0.0894603
0.0789581
0.0677807
0.0559352
0.0434337
0.0302951
0.0165452
0.00221871
-0.0126401
-0.0279756
-0.0437198
-0.0597904
-0.07609
-0.092504
-0.1089
-0.125125
-0.141008
-0.156357
-0.170961
-0.18459
-0.197002
-0.20794
-0.217145
-0.22436
-0.229338
-0.231853
-0.231712
-0.228768
-0.222928
-0.214166
-0.202528
-0.188139
-0.171204
-0.152002
-0.130881
-0.108243
-0.084532
-0.0602135
-0.0357592
-0.0116456
0.0127656
0.0359807
0.0569478
0.0757538
0.0925001
0.1073
0.120273
0.131544
0.141236
0.14947
0.156364
0.162026
0.166557
0.170049
0.172584
0.174232
0.175056
0.175106
0.174423
0.173041
0.170984
0.168269
0.164908
0.160906
0.156265
0.150981
0.14505
0.138465
0.131216
0.123294
0.114691
0.105398
0.0954094
0.0847205
0.0733308
0.0612436
0.0484671
0.0350155
0.0209102
0.00618068
-0.00913376
-0.0249828
-0.0413037
-0.058019
-0.0750356
-0.0922427
-0.10951
-0.126686
-0.143597
-0.160049
-0.175821
-0.190674
-0.204348
-0.216566
-0.227044
-0.235493
-0.24163
-0.245191
-0.245942
-0.243692
-0.23831
-0.229733
-0.217979
-0.203155
-0.185456
-0.165165
-0.142645
-0.118324
-0.0926797
-0.0662189
-0.0394548
-0.0129062
0.0133187
0.0375268
0.0593791
0.0789677
0.0963998
0.111794
0.125278
0.136982
0.147037
0.15557
0.162706
0.16856
0.17324
0.176843
0.179457
0.181157
0.182009
0.182069
0.181381
0.17998
0.177894
0.175141
0.171735
0.167681
0.162982
0.157635
0.151634
0.144971
0.137637
0.12962
0.12091
0.111497
0.101372
0.0905269
0.0789588
0.0666666
0.0536546
0.0399322
0.0255159
0.0104298
-0.00529253
-0.0216067
-0.0384557
-0.0557686
-0.0734576
-0.0914171
-0.109521
-0.12762
-0.145543
-0.163091
-0.180041
-0.196142
-0.21112
-0.224681
-0.236513
-0.246296
-0.25371
-0.258448
-0.260232
-0.258822
-0.254041
-0.245782
-0.234027
-0.218857
-0.200452
-0.179095
-0.155159
-0.129098
-0.101426
-0.0726919
-0.0434541
-0.0142769
0.0138614
0.0390465
0.0617713
0.0821322
0.100241
0.116222
0.130208
0.142337
0.152745
0.161568
0.168937
0.174974
0.179793
0.183498
0.186181
0.187924
0.188798
0.188861
0.188161
0.186737
0.184619
0.181828
0.178377
0.174275
0.169523
0.164119
0.158058
0.151331
0.143927
0.135833
0.127038
0.11753
0.107296
0.0963266
0.0846147
0.0721557
0.0589496
0.0450011
0.0303215
0.0149292
-0.0011483
-0.0178732
-0.0351954
-0.0530506
-0.0713584
-0.0900195
-0.108914
-0.127897
-0.1468
-0.165426
-0.183547
-0.200908
-0.217221
-0.232175
-0.245433
-0.256644
-0.265451
-0.271501
-0.274465
-0.274052
-0.270028
-0.262237
-0.250617
-0.23521
-0.216177
-0.193791
-0.168435
-0.140588
-0.110797
-0.0796566
-0.0477752
-0.0157653
0.0143929
0.0405376
0.0641209
0.0852421
0.104017
0.120574
0.135053
0.147595
0.158347
0.167449
0.175039
0.181246
0.186192
0.189987
0.192728
0.194504
0.195388
0.195444
0.194725
0.193273
0.191118
0.188285
0.184789
0.180639
0.175838
0.170385
0.164273
0.157492
0.150033
0.141881
0.133022
0.123442
0.113127
0.102065
0.0902449
0.0776582
0.0643009
0.050173
0.0352804
0.0196357
0.00325985
-0.0138163
-0.0315502
-0.0498854
-0.0687496
-0.0880515
-0.107679