/*--------------------------------*- C++ -*----------------------------------*\
  =========                 |
  \\      /  F ield         | OpenFOAM: The Open Source CFD Toolbox
   \\    /   O peration     | Website:  https://openfoam.org
    \\  /    A nd           | Version:  dev
     \\/     M anipulation  |
\*---------------------------------------------------------------------------*/
FoamFile
{
    format      ascii;
    class       volScalarField;
    location    "4.5";
    object      p;
}
// * * * * * * * * * * * * * * * * * * * * * * * * * * * * * * * * * * * * * //

dimensions      [0 2 -2 0 0 0 0];

internalField   nonuniform List<scalar> 
400
(
-1.51315e-08
-0.000529113
-0.00108586
-0.00147083
-0.00158231
-0.00137792
-0.000845688
1.09906e-05
0.00117211
0.00259024
0.00417854
0.00580395
0.00729626
0.00847082
0.00917004
0.00931234
0.00893474
0.0082096
0.00740277
0.00689892
0.000519841
-2.92892e-05
-0.000454704
-0.000696807
-0.000727165
-0.000518202
-5.74579e-05
0.000656303
0.00161098
0.00277156
0.00406999
0.00540354
0.00663272
0.00760862
0.00820406
0.00835413
0.00808935
0.00754311
0.00691192
0.00640076
0.00110615
0.0003547
-9.58377e-05
-0.000302784
-0.000316318
-0.000129998
0.000264327
0.000872222
0.00169274
0.00270647
0.00386301
0.00507368
0.00621179
0.00713205
0.00770266
0.00784734
0.00758175
0.00701947
0.00630747
0.00557576
0.00151754
0.000502731
-4.49874e-05
-0.000278772
-0.000320177
-0.000182668
0.00013814
0.000654231
0.00137923
0.00231223
0.00342009
0.00462655
0.00580248
0.00678674
0.00741794
0.00758416
0.00727282
0.00658484
0.00564463
0.00456121
0.00155766
0.000282783
-0.000379453
-0.000667479
-0.000765946
-0.000703921
-0.000477203
-6.35517e-05
0.0005697
0.00144515
0.00255115
0.00383048
0.0051455
0.0063095
0.00711184
0.0073789
0.00704676
0.00619617
0.00494254
0.00340508
0.00106059
-0.0004528
-0.00123277
-0.00159498
-0.00177958
-0.00182711
-0.00172984
-0.00145104
-0.000933359
-0.000121433
0.00100916
0.00241319
0.00396814
0.00545406
0.00659038
0.00710675
0.00684832
0.00584935
0.00421288
0.0020928
-0.000115357
-0.00183847
-0.00273502
-0.00319146
-0.00349732
-0.00370236
-0.003793
-0.00371453
-0.00337853
-0.00268638
-0.00156334
-8.11035e-06
0.00187922
0.0038564
0.00555794
0.00657161
0.00658737
0.00553415
0.0034678
0.000590405
-0.00209079
-0.00399007
-0.00500053
-0.00557369
-0.00604443
-0.00647221
-0.00683819
-0.00706838
-0.00703764
-0.00659098
-0.00557986
-0.00391922
-0.00164945
0.00099535
0.00356419
0.00545401
0.0061052
0.00523093
0.00274617
-0.00111043
-0.00496046
-0.00699952
-0.00811948
-0.00883172
-0.00951531
-0.0102439
-0.010998
-0.0116871
-0.0121471
-0.0121541
-0.0114578
-0.00984453
-0.00723238
-0.00378485
-5.09683e-06
0.00328047
0.00514564
0.00490803
0.00214653
-0.00293807
-0.00878458
-0.0109272
-0.0121452
-0.013007
-0.0139402
-0.0150425
-0.0163035
-0.0176242
-0.0188045
-0.0195451
-0.0194689
-0.0181846
-0.0154125
-0.0111442
-0.00584711
-0.000550209
0.00334852
0.0045233
0.00187096
-0.0046567
-0.0135835
-0.0157988
-0.0170834
-0.0180689
-0.0192473
-0.0207572
-0.0226116
-0.0247157
-0.0268431
-0.0286205
-0.0295314
-0.0289687
-0.0263775
-0.0214584
-0.0144932
-0.00659716
0.000336023
0.00406848
0.00229549
-0.00572174
-0.0193457
-0.0216142
-0.0228899
-0.0238971
-0.0252308
-0.0270963
-0.0295471
-0.0325062
-0.0357327
-0.0387892
-0.0410235
-0.0416017
-0.0396269
-0.0344178
-0.0258847
-0.0150029
-0.00402389
0.0037225
0.00409661
-0.00503534
-0.0260636
-0.0283771
-0.0294794
-0.030273
-0.0315351
-0.0335724
-0.0364928
-0.0402439
-0.0445777
-0.0490018
-0.0527406
-0.0547422
-0.0537749
-0.0487076
-0.0389282
-0.0249876
-0.00916472
0.00417242
0.00849262
-0.000561447
-0.0338258
-0.0361556
-0.0367458
-0.0368819
-0.0376637
-0.0395337
-0.0426528
-0.0469837
-0.0522612
-0.0579355
-0.0631166
-0.0665587
-0.0667299
-0.0620602
-0.0513538
-0.0345019
-0.0133665
0.00703993
0.0176353
0.0111699
-0.0430272
-0.0451871
-0.0445801
-0.0433161
-0.0430123
-0.0442445
-0.0471888
-0.0517836
-0.0577114
-0.0643374
-0.0706492
-0.0752214
-0.076267
-0.0718157
-0.0601483
-0.0404116
-0.0136656
0.015155
0.0349611
0.0353478
-0.0548416
-0.0560481
-0.0528575
-0.0490662
-0.0469215
-0.0470009
-0.0493924
-0.0539301
-0.0601829
-0.0673731
-0.0743355
-0.0794512
-0.0806894
-0.0757499
-0.0624529
-0.0392818
-0.00633713
0.0324771
0.0651332
0.0785221
-0.0723537
-0.0699504
-0.0614748
-0.053618
-0.0488326
-0.0473181
-0.0488878
-0.0531478
-0.0594518
-0.0668307
-0.0739132
-0.0788595
-0.0793829
-0.0728393
-0.0565937
-0.0285406
0.0121117
0.0635852
0.113905
0.1497
-0.104083
-0.0889097
-0.0703315
-0.0565476
-0.0483657
-0.0449833
-0.0456683
-0.0496107
-0.0558423
-0.0631429
-0.0699209
-0.0741136
-0.0731705
-0.0640491
-0.043578
-0.00868664
0.0428726
0.110782
0.188597
0.269162
-0.176405
-0.112952
-0.0743726
-0.0534636
-0.0423473
-0.0378393
-0.0383839
-0.0426021
-0.0491432
-0.0565728
-0.0631698
-0.0667612
-0.0646496
-0.0533431
-0.0292669
0.0121644
0.0761627
0.168329
0.295753
0.47062
-0.344125
-0.134243
-0.0551803
-0.0323543
-0.0235527
-0.0211719
-0.023877
-0.0300748
-0.0381972
-0.0467937
-0.0542134
-0.0583687
-0.0566932
-0.0461754
-0.022099
0.0208721
0.0917075
0.208472
0.406279
0.737104
)
;

boundaryField
{
    movingWall
    {
        type            zeroGradient;
    }
    fixedWalls
    {
        type            zeroGradient;
    }
    frontAndBack
    {
        type            empty;
    }
}


// ************************************************************************* //
