/*--------------------------------*- C++ -*----------------------------------*\
  =========                 |
  \\      /  F ield         | OpenFOAM: The Open Source CFD Toolbox
   \\    /   O peration     | Website:  https://openfoam.org
    \\  /    A nd           | Version:  dev
     \\/     M anipulation  |
\*---------------------------------------------------------------------------*/
FoamFile
{
    format      ascii;
    class       surfaceScalarField;
    location    "4.5";
    object      phi;
}
// * * * * * * * * * * * * * * * * * * * * * * * * * * * * * * * * * * * * * //

dimensions      [0 3 -1 0 0 0 0];

internalField   nonuniform List<scalar> 
760
(
7.89905e-07
-7.89825e-07
-3.02266e-06
3.81256e-06
-1.12456e-05
8.2229e-06
-2.22951e-05
1.10496e-05
-3.47224e-05
1.24273e-05
-4.73665e-05
1.26441e-05
-5.92447e-05
1.18781e-05
-6.94207e-05
1.0176e-05
-7.69332e-05
7.51252e-06
-8.08268e-05
3.89362e-06
-8.02821e-05
-5.44679e-07
-7.48496e-05
-5.43248e-06
-6.46826e-05
-1.0167e-05
-5.07383e-05
-1.39442e-05
-3.48068e-05
-1.59315e-05
-1.93073e-05
-1.54995e-05
-6.82376e-06
-1.24835e-05
5.72562e-07
-7.39631e-06
2.24118e-06
-1.6686e-06
2.24119e-06
-3.91897e-06
3.12912e-06
-1.78451e-05
1.77387e-05
-4.02791e-05
3.06568e-05
-6.83758e-05
3.91463e-05
-9.92488e-05
4.33002e-05
-0.000130273
4.36687e-05
-0.000159045
4.065e-05
-0.000183259
3.43902e-05
-0.000200666
2.49195e-05
-0.000209188
1.24156e-05
-0.000207227
-2.5053e-06
-0.000194011
-1.86487e-05
-0.000170117
-3.40617e-05
-0.000137714
-4.63462e-05
-0.000100598
-5.30475e-05
-6.37528e-05
-5.2345e-05
-3.24265e-05
-4.38098e-05
-1.08344e-05
-2.89884e-05
-8.4205e-07
-1.16609e-05
1.39911e-06
-9.36192e-06
1.2491e-05
-3.39175e-05
4.22943e-05
-6.97157e-05
6.64551e-05
-0.000112651
8.20817e-05
-0.000158838
8.94873e-05
-0.000204714
8.95443e-05
-0.000246944
8.288e-05
-0.000282306
6.9752e-05
-0.000307682
5.02961e-05
-0.000320241
2.49744e-05
-0.000317804
-4.94257e-06
-0.000299333
-3.71194e-05
-0.000265502
-6.78928e-05
-0.000219081
-9.27666e-05
-0.000165025
-0.000107104
-0.000110012
-0.000107358
-6.13331e-05
-9.24887e-05
-2.52242e-05
-6.50973e-05
-5.05888e-06
-3.18263e-05
-3.6598e-06
-1.43347e-05
2.68258e-05
-4.90343e-05
7.69937e-05
-9.74418e-05
0.000114863
-0.000153987
0.000138627
-0.000213904
0.000149405
-0.000272985
0.000148624
-0.000327309
0.000137204
-0.000373061
0.000115505
-0.000406502
8.37364e-05
-0.000424151
4.26237e-05
-0.000423204
-5.88982e-06
-0.000402033
-5.82898e-05
-0.000360946
-0.00010898
-0.00030272
-0.000150992
-0.000232942
-0.000176883
-0.000159735
-0.000180564
-9.26222e-05
-0.000159602
-4.04954e-05
-0.000117224
-9.24355e-06
-6.30782e-05
-1.29034e-05
-1.87649e-05
4.55907e-05
-6.28199e-05
0.000121049
-0.000122947
0.00017499
-0.000192129
0.000207808
-0.000264826
0.000222102
-0.000336391
0.000220189
-0.000402574
0.000203387
-0.000459196
0.000172127
-0.000502039
0.000126579
-0.000526964
6.75494e-05
-0.000530369
-2.48546e-06
-0.000509573
-7.90855e-05
-0.000463947
-0.000154606
-0.000395603
-0.000219337
-0.000310229
-0.000262256
-0.000217265
-0.000273528
-0.000128945
-0.000247922
-5.78824e-05
-0.000188287
-1.36867e-05
-0.000107274
-2.65901e-05
-2.26789e-05
6.82696e-05
-7.51533e-05
0.000173523
-0.000145951
0.000245788
-0.000226765
0.000288622
-0.000311437
0.000306774
-0.000395074
0.000303826
-0.000473315
0.000281628
-0.00054182
0.000240633
-0.00059602
0.000180779
-0.000631129
0.000102658
-0.000642394
8.77898e-06
-0.000625878
-9.56009e-05
-0.000579208
-0.000201276
-0.000503038
-0.000295507
-0.000402395
-0.000362899
-0.000287662
-0.000388262
-0.000174191
-0.000361393
-7.96572e-05
-0.000282821
-1.91639e-05
-0.000167767
-4.5754e-05
-2.60441e-05
9.43137e-05
-8.58336e-05
0.000233313
-0.000165997
0.000325952
-0.000257156
0.00037978
-0.000352714
0.000402333
-0.000447734
0.000398846
-0.000537966
0.00037186
-0.000619133
0.0003218
-0.000686491
0.000248137
-0.00073467
0.000150837
-0.000757797
3.19057e-05
-0.000750181
-0.000103217
-0.000707193
-0.000244264
-0.000627059
-0.000375641
-0.000512994
-0.000476964
-0.000375352
-0.000525904
-0.000232501
-0.000504244
-0.000108535
-0.000406787
-2.66263e-05
-0.000249676
-7.23803e-05
-2.87665e-05
0.00012308
-9.45313e-05
0.000299077
-0.000182371
0.000413791
-0.000282046
0.000479455
-0.000386703
0.00050699
-0.000491557
0.0005037
-0.00059271
0.000473012
-0.00068622
0.000415311
-0.000767461
0.000329378
-0.000830749
0.000214125
-0.000869277
7.04339e-05
-0.000875544
-9.69496e-05
-0.000842277
-0.000277531
-0.000764335
-0.000453583
-0.000641585
-0.000599714
-0.000482531
-0.000684958
-0.000307351
-0.000679424
-0.000147361
-0.000566777
-3.7169e-05
-0.000359867
-0.000109549
-3.07361e-05
0.000153816
-0.000100881
0.000369222
-0.000194237
0.000507147
-0.000299849
0.000585067
-0.000410747
0.000617888
-0.000522485
0.000615437
-0.000631763
0.00058229
-0.000735312
0.00051886
-0.000829047
0.000423114
-0.000907481
0.000292558
-0.000963394
0.000126346
-0.000987903
-7.24396e-05
-0.000971158
-0.000294277
-0.000904017
-0.000520724
-0.000781338
-0.000722394
-0.000607058
-0.000859237
-0.000400291
-0.00088619
-0.000198755
-0.000768314
-5.20702e-05
-0.000506552
-0.000161619
-3.19229e-05
0.000185739
-0.00010471
0.000442009
-0.000200981
0.000603418
-0.00030909
0.000693177
-0.000422045
0.000730842
-0.000535904
0.000729297
-0.000648225
0.000694612
-0.000756784
0.000627418
-0.000858576
0.000524907
-0.000949039
0.00038302
-0.00102144
0.000198743
-0.00106646
-2.74144e-05
-0.00107247
-0.000288267
-0.00102639
-0.0005668
-0.000916822
-0.000831966
-0.000739957
-0.0010361
-0.000509068
-0.00111708
-0.00026445
-0.00101293
-7.28445e-05
-0.000698158
-0.000234464
-3.25268e-05
0.000218266
-0.000106388
0.000515871
-0.000202727
0.000699756
-0.000309078
0.000799529
-0.000418507
0.000840271
-0.00052777
0.000838559
-0.000635545
0.000802387
-0.000741037
0.00073291
-0.000842899
0.000626769
-0.000938332
0.000478454
-0.00102224
0.000282653
-0.00108635
3.66963e-05
-0.00111875
-0.000255872
-0.00110361
-0.000581939
-0.00102316
-0.000912418
-0.000863226
-0.00119603
-0.000625167
-0.00135514
-0.000344003
-0.0012941
-0.000101214
-0.000940946
-0.000335678
-3.32004e-05
0.000251466
-0.000107303
0.000589974
-0.000200979
0.000793432
-0.000300685
0.000899235
-0.00039974
0.000939325
-0.000495909
0.000934729
-0.000589312
0.000895789
-0.000680942
0.00082454
-0.00077161
0.000717437
-0.000861046
0.00056789
-0.000946933
0.00036854
-0.00102378
0.000113541
-0.00108134
-0.000198307
-0.00110355
-0.000559726
-0.00106796
-0.000948009
-0.000949326
-0.00131467
-0.000731476
-0.00157299
-0.000432678
-0.00159289
-0.000138799
-0.00123483
-0.000474476
-3.53954e-05
0.000286862
-0.000110461
0.000665039
-0.000199264
0.000882235
-0.00028697
0.000986941
-0.00036774
0.0010201
-0.000440966
0.00100795
-0.00050865
0.000963474
-0.000573899
0.000889788
-0.00064
0.000783539
-0.000709671
0.00063756
-0.000784186
0.000443055
-0.00086214
0.000191495
-0.000937358
-0.000123089
-0.00099667
-0.000500414
-0.00101674
-0.000927942
-0.000963755
-0.00136765
-0.000801431
-0.00173531
-0.000518836
-0.00187549
-0.000186169
-0.00156749
-0.000660645
-4.19481e-05
0.00032881
-0.000121202
0.000744293
-0.000203504
0.000964537
-0.000273129
0.00105657
-0.000326553
0.00107352
-0.00036595
0.00104735
-0.000395862
0.000993385
-0.000421782
0.000915709
-0.000449536
0.000811292
-0.000484828
0.000672853
-0.000532677
0.000490904
-0.000596398
0.000255216
-0.000675573
-4.39146e-05
-0.00076316
-0.000412827
-0.000840219
-0.000850882
-0.000870601
-0.00133727
-0.000800736
-0.00180518
-0.000581673
-0.00209455
-0.000240741
-0.00190842
-0.000901387
-5.80833e-05
0.000386893
-0.000147834
0.000834043
-0.000221308
0.00103801
-0.000264447
0.00109971
-0.000279206
0.00108828
-0.000272436
0.00104058
-0.000252079
0.000973027
-0.000226206
0.000889836
-0.000202972
0.000788059
-0.000190569
0.000660449
-0.000197198
0.000497534
-0.000230507
0.000288525
-0.000296392
2.19699e-05
-0.00039583
-0.000313389
-0.000519703
-0.000727009
-0.000638505
-0.00121847
-0.000691039
-0.00175264
-0.000590001
-0.00219559
-0.000293124
-0.0022053
-0.00119451
-9.27613e-05
0.000479654
-0.000200666
0.000941948
-0.000257063
0.00109441
-0.000258182
0.00110082
-0.000217379
0.00104747
-0.000148755
0.000971958
-6.44779e-05
0.00088875
2.48821e-05
0.000800476
0.000109605
0.000703336
0.000179833
0.000590222
0.000225321
0.000452046
0.000235263
0.000278584
0.000198637
5.85952e-05
0.000106198
-0.000220949
-4.54982e-05
-0.000575313
-0.000242721
-0.00102125
-0.000433155
-0.00156221
-0.000501636
-0.00212711
-0.000322677
-0.00238426
-0.00151719
-0.000158579
0.000638234
-0.000281677
0.00106505
-0.000291296
0.00110403
-0.000216722
0.00102625
-9.18664e-05
0.00092262
5.99995e-05
0.000820092
0.000223005
0.000725745
0.000385427
0.000638054
0.000537309
0.000551454
0.00066892
0.000458611
0.000769594
0.000351372
0.000827131
0.000221046
0.000827345
5.83812e-05
0.00075488
-0.000148483
0.000594576
-0.000415009
0.000340262
-0.000766936
2.05692e-05
-0.00124252
-0.000261504
-0.00184504
-0.000295146
-0.00235062
-0.00181233
-0.000261016
0.00089925
-0.000331116
0.00113515
-0.000206862
0.000979772
8.55248e-06
0.000810836
0.000257022
0.00067415
0.000511842
0.000565273
0.000759526
0.000478062
0.000991741
0.000405839
0.00120182
0.000341372
0.00138269
0.000277744
0.00152551
0.000208548
0.00161882
0.000127737
0.00164776
2.94492e-05
0.00159464
-9.53713e-05
0.00143604
-0.000256402
0.00114629
-0.000477189
0.000713232
-0.000809458
0.000207881
-0.00133969
-0.000128576
-0.00201416
-0.00194091
-0.000260347
0.0011596
-5.71171e-06
0.000880511
0.000419272
0.000554789
0.000830775
0.000399332
0.0012017
0.00030323
0.00153198
0.000234989
0.00182401
0.000186034
0.00208009
0.000149755
0.00230109
0.000120373
0.00248533
9.35053e-05
0.00262806
6.58212e-05
0.00272098
3.48111e-05
0.00275087
-4.44701e-07
0.002704
-4.84941e-05
0.00255375
-0.000106154
0.0022647
-0.000188139
0.00178537
-0.000330133
0.00108557
-0.000639886
0.000316458
-0.00124504
-0.00162445
0.0011596
0.00204011
0.0025949
0.00299423
0.00329746
0.00353245
0.00371848
0.00386824
0.00398861
0.00408211
0.00414794
0.00418275
0.0041823
0.00413381
0.00402765
0.00383951
0.00350938
0.0028695
0.00162445
)
;

boundaryField
{
    movingWall
    {
        type            calculated;
        value           uniform 0;
    }
    fixedWalls
    {
        type            calculated;
        value           uniform 0;
    }
    frontAndBack
    {
        type            empty;
    }
}


// ************************************************************************* //
