/*--------------------------------*- C++ -*----------------------------------*\
  =========                 |
  \\      /  F ield         | OpenFOAM: The Open Source CFD Toolbox
   \\    /   O peration     | Website:  https://openfoam.org
    \\  /    A nd           | Version:  dev
     \\/     M anipulation  |
\*---------------------------------------------------------------------------*/
FoamFile
{
    format      ascii;
    class       volVectorField;
    location    "4.5";
    object      U;
}
// * * * * * * * * * * * * * * * * * * * * * * * * * * * * * * * * * * * * * //

dimensions      [0 1 -1 0 0 0 0];

internalField   nonuniform List<vector> 
400
(
(0.000190134 -0.000191251 0)
(-2.12586e-05 0.000141245 0)
(-0.00127943 0.000497174 0)
(-0.00326881 0.000722177 0)
(-0.00567023 0.00083215 0)
(-0.00822457 0.000858051 0)
(-0.0107202 0.000817847 0)
(-0.0129676 0.000715179 0)
(-0.014777 0.000545116 0)
(-0.0159531 0.000303495 0)
(-0.0163116 -3.53632e-06 0)
(-0.0157168 -0.000353196 0)
(-0.0141314 -0.000698548 0)
(-0.0116633 -0.000976474 0)
(-0.00859128 -0.0011191 0)
(-0.00534959 -0.00107341 0)
(-0.00245792 -0.000823343 0)
(-0.00039689 -0.000409197 0)
(0.000506709 4.80896e-05 0)
(0.000320182 0.000303133 0)
(-0.000147973 1.06286e-05 0)
(-0.00171426 0.00165613 0)
(-0.00546052 0.00321716 0)
(-0.0106687 0.00424522 0)
(-0.0166987 0.00475577 0)
(-0.0230085 0.00483175 0)
(-0.0291015 0.00452979 0)
(-0.0345089 0.00386726 0)
(-0.0387729 0.00284061 0)
(-0.0414512 0.00145996 0)
(-0.0421602 -0.000214149 0)
(-0.0406442 -0.0020438 0)
(-0.0368679 -0.00380288 0)
(-0.0310997 -0.0052019 0)
(-0.0239455 -0.00594315 0)
(-0.0163124 -0.00580512 0)
(-0.00927089 -0.00473588 0)
(-0.00381988 -0.00292691 0)
(-0.000636837 -0.000867334 0)
(0.000164814 0.000535557 0)
(-0.000579224 0.00135053 0)
(-0.00365855 0.00551269 0)
(-0.00987306 0.00906751 0)
(-0.0179822 0.0114069 0)
(-0.0270823 0.0125457 0)
(-0.036458 0.0126164 0)
(-0.0454308 0.0117184 0)
(-0.0533459 0.00989124 0)
(-0.0595641 0.00715037 0)
(-0.0634773 0.00355651 0)
(-0.064564 -0.000711198 0)
(-0.0624788 -0.00530204 0)
(-0.0571642 -0.00968098 0)
(-0.0489547 -0.0131809 0)
(-0.0386304 -0.0151238 0)
(-0.027389 -0.015005 0)
(-0.0166859 -0.0127022 0)
(-0.00793787 -0.00863483 0)
(-0.00223167 -0.00383116 0)
(-0.000124249 -3.68316e-05 0)
(-0.000963608 0.00374138 0)
(-0.00547303 0.0114862 0)
(-0.0140464 0.0175621 0)
(-0.0248552 0.021452 0)
(-0.0367313 0.0232658 0)
(-0.0488331 0.0232181 0)
(-0.0603679 0.0214587 0)
(-0.0705638 0.0180499 0)
(-0.0786599 0.0130299 0)
(-0.0839199 0.00652088 0)
(-0.0856931 -0.0011567 0)
(-0.0835082 -0.0094044 0)
(-0.0772052 -0.0173172 0)
(-0.0670729 -0.0237639 0)
(-0.0539454 -0.0275713 0)
(-0.0392231 -0.0278236 0)
(-0.0247334 -0.0242217 0)
(-0.0123923 -0.0173774 0)
(-0.00387313 -0.00891117 0)
(-0.000379241 -0.0014504 0)
(-0.00129656 0.00707057 0)
(-0.00710792 0.0194024 0)
(-0.0178735 0.0284654 0)
(-0.0311913 0.0340766 0)
(-0.0456421 0.036574 0)
(-0.0602908 0.036314 0)
(-0.0742791 0.0335145 0)
(-0.0867702 0.0282567 0)
(-0.0969217 0.0205863 0)
(-0.103886 0.0106672 0)
(-0.106864 -0.00105869 0)
(-0.105197 -0.0137448 0)
(-0.0985163 -0.0261072 0)
(-0.0869319 -0.0364813 0)
(-0.0712014 -0.0430621 0)
(-0.0528504 -0.0443252 0)
(-0.0341057 -0.0395852 0)
(-0.0175436 -0.0295099 0)
(-0.00568301 -0.0163273 0)
(-0.000617683 -0.00370353 0)
(-0.00158532 0.0112357 0)
(-0.00855786 0.0291002 0)
(-0.0213096 0.0416111 0)
(-0.0369226 0.0491272 0)
(-0.0537583 0.0523514 0)
(-0.0708212 0.0518547 0)
(-0.0872308 0.0479476 0)
(-0.10213 0.0407217 0)
(-0.114632 0.0301991 0)
(-0.123791 0.0165365 0)
(-0.128632 0.000239627 0)
(-0.12825 -0.017654 0)
(-0.121965 -0.0354939 0)
(-0.109545 -0.0510284 0)
(-0.0915027 -0.0616577 0)
(-0.0693593 -0.0649648 0)
(-0.0457265 -0.0595282 0)
(-0.0240137 -0.0457987 0)
(-0.00794434 -0.0265897 0)
(-0.000901469 -0.00691543 0)
(-0.00183024 0.0161319 0)
(-0.00980515 0.0403809 0)
(-0.0242911 0.0567752 0)
(-0.0419289 0.0663941 0)
(-0.0609024 0.0704363 0)
(-0.0801913 0.0697644 0)
(-0.0989356 0.0648102 0)
(-0.116305 0.0556647 0)
(-0.131409 0.0422816 0)
(-0.143233 0.0247379 0)
(-0.150635 0.00350811 0)
(-0.152421 -0.0202871 0)
(-0.147501 -0.0446896 0)
(-0.13515 -0.0668514 0)
(-0.115418 -0.0832225 0)
(-0.089587 -0.0901418 0)
(-0.0605095 -0.0849306 0)
(-0.0325253 -0.0673177 0)
(-0.0110137 -0.0405413 0)
(-0.0013092 -0.0113817 0)
(-0.00202519 0.0216408 0)
(-0.0108145 0.0530016 0)
(-0.0267208 0.073662 0)
(-0.0460205 0.0855744 0)
(-0.0667609 0.0905561 0)
(-0.0879316 0.0898413 0)
(-0.108737 0.084017 0)
(-0.128424 0.073165 0)
(-0.146159 0.0571217 0)
(-0.160917 0.0357963 0)
(-0.171435 0.00950922 0)
(-0.17625 -0.0206746 0)
(-0.173822 -0.0526335 0)
(-0.162809 -0.0829968 0)
(-0.142551 -0.107181 0)
(-0.113736 -0.119925 0)
(-0.0790984 -0.116607 0)
(-0.0437891 -0.0953774 0)
(-0.0153029 -0.0593901 0)
(-0.00193922 -0.0176056 0)
(-0.00216257 0.0276217 0)
(-0.0115474 0.0666677 0)
(-0.0284911 0.0918886 0)
(-0.0489691 0.106234 0)
(-0.0709246 0.11226 0)
(-0.0933859 0.111656 0)
(-0.115663 0.105209 0)
(-0.137143 0.0929949 0)
(-0.15712 0.0746933 0)
(-0.174654 0.0499623 0)
(-0.188471 0.0188362 0)
(-0.196937 -0.0178535 0)
(-0.198123 -0.0580374 0)
(-0.190028 -0.0980224 0)
(-0.171066 -0.132268 0)
(-0.140895 -0.153682 0)
(-0.101506 -0.154937 0)
(-0.0583495 -0.131307 0)
(-0.0212769 -0.0846821 0)
(-0.00292565 -0.0263308 0)
(-0.002243 0.0339158 0)
(-0.0119943 0.0810384 0)
(-0.0295404 0.110975 0)
(-0.0505869 0.127775 0)
(-0.0729883 0.134852 0)
(-0.0958354 0.134452 0)
(-0.118587 0.127621 0)
(-0.140826 0.11445 0)
(-0.162072 0.0944525 0)
(-0.181592 0.0669767 0)
(-0.198266 0.0316574 0)
(-0.210482 -0.0110973 0)
(-0.216108 -0.0595491 0)
(-0.21259 -0.110026 0)
(-0.197329 -0.156352 0)
(-0.168533 -0.18966 0)
(-0.126629 -0.199301 0)
(-0.0763154 -0.176012 0)
(-0.0294349 -0.118172 0)
(-0.00446492 -0.0385867 0)
(-0.00229083 0.0403752 0)
(-0.0122255 0.0957668 0)
(-0.0299414 0.130366 0)
(-0.0508441 0.149423 0)
(-0.0727008 0.157358 0)
(-0.0946932 0.157087 0)
(-0.116472 0.149994 0)
(-0.137885 0.136237 0)
(-0.15876 0.115185 0)
(-0.178719 0.0858692 0)
(-0.196991 0.0474603 0)
(-0.212252 -0.000217194 0)
(-0.222477 -0.0560605 0)
(-0.224848 -0.116878 0)
(-0.215903 -0.176462 0)
(-0.192186 -0.224684 0)
(-0.151719 -0.247443 0)
(-0.0969239 -0.229269 0)
(-0.0402193 -0.161511 0)
(-0.00684616 -0.0557426 0)
(-0.0023785 0.0469287 0)
(-0.0124628 0.110586 0)
(-0.0300131 0.149485 0)
(-0.0500097 0.170255 0)
(-0.0701364 0.178531 0)
(-0.0897253 0.178035 0)
(-0.108685 0.170579 0)
(-0.127187 0.156462 0)
(-0.145459 0.134969 0)
(-0.163589 0.104864 0)
(-0.181348 0.06486 0)
(-0.197984 0.0141172 0)
(-0.211953 -0.0471376 0)
(-0.220641 -0.116707 0)
(-0.220175 -0.189178 0)
(-0.205613 -0.254207 0)
(-0.172057 -0.294958 0)
(-0.117984 -0.288793 0)
(-0.0537715 -0.215624 0)
(-0.0104634 -0.0795364 0)
(-0.00266854 0.0537035 0)
(-0.0131818 0.125448 0)
(-0.0304483 0.167823 0)
(-0.0487761 0.189245 0)
(-0.0658211 0.196892 0)
(-0.0812069 0.195452 0)
(-0.0952101 0.187242 0)
(-0.108402 0.172766 0)
(-0.121461 0.151312 0)
(-0.135019 0.12147 0)
(-0.149503 0.0815862 0)
(-0.164938 0.0301915 0)
(-0.180624 -0.0334631 0)
(-0.194704 -0.108587 0)
(-0.203623 -0.191434 0)
(-0.201657 -0.272933 0)
(-0.181144 -0.335303 0)
(-0.13542 -0.34937 0)
(-0.0694423 -0.279643 0)
(-0.0157525 -0.111971 0)
(-0.0034914 0.0612397 0)
(-0.0152629 0.140717 0)
(-0.0324319 0.185004 0)
(-0.0482911 0.205279 0)
(-0.0606857 0.21077 0)
(-0.0698343 0.207272 0)
(-0.0765669 0.197624 0)
(-0.0819396 0.182561 0)
(-0.0871118 0.161434 0)
(-0.0932525 0.132771 0)
(-0.101451 0.0946993 0)
(-0.112572 0.0452801 0)
(-0.126965 -0.0171165 0)
(-0.144012 -0.0932293 0)
(-0.161323 -0.181619 0)
(-0.173608 -0.276082 0)
(-0.171538 -0.360667 0)
(-0.143214 -0.402586 0)
(-0.0850414 -0.34949 0)
(-0.0229359 -0.154855 0)
(-0.00548647 0.0708692 0)
(-0.0202016 0.157361 0)
(-0.0376515 0.200734 0)
(-0.0498781 0.21703 0)
(-0.0555443 0.218226 0)
(-0.0560274 0.211229 0)
(-0.052983 0.199285 0)
(-0.0480416 0.183274 0)
(-0.0428309 0.162614 0)
(-0.0389801 0.135844 0)
(-0.0381228 0.101032 0)
(-0.0418534 0.056007 0)
(-0.0515634 -0.00143714 0)
(-0.0680592 -0.0732872 0)
(-0.0908087 -0.16052 0)
(-0.116415 -0.260974 0)
(-0.135952 -0.363729 0)
(-0.133756 -0.437706 0)
(-0.0959697 -0.416783 0)
(-0.031389 -0.208945 0)
(-0.00980026 0.085414 0)
(-0.0302418 0.177011 0)
(-0.0477428 0.214406 0)
(-0.053707 0.222529 0)
(-0.0492089 0.216734 0)
(-0.0376869 0.204698 0)
(-0.0219154 0.189687 0)
(-0.00413495 0.172485 0)
(0.0136437 0.152464 0)
(0.0294929 0.128198 0)
(0.0414501 0.0978123 0)
(0.0474329 0.0591542 0)
(0.0452611 0.00985473 0)
(0.0328578 -0.0527135 0)
(0.00869674 -0.131337 0)
(-0.0268363 -0.228029 0)
(-0.0678941 -0.339514 0)
(-0.0982454 -0.443396 0)
(-0.0946287 -0.468924 0)
(-0.0384857 -0.27332 0)
(-0.0180961 0.110605 0)
(-0.0475321 0.201019 0)
(-0.0611555 0.22329 0)
(-0.0538617 0.21753 0)
(-0.0327057 0.202013 0)
(-0.00415517 0.183946 0)
(0.0279164 0.165803 0)
(0.06089 0.147808 0)
(0.092684 0.12907 0)
(0.121392 0.108158 0)
(0.145035 0.0833387 0)
(0.161382 0.0526912 0)
(0.167826 0.0140798 0)
(0.16147 -0.0350735 0)
(0.139167 -0.0981686 0)
(0.0981664 -0.180174 0)
(0.0390144 -0.286141 0)
(-0.0265198 -0.408878 0)
(-0.0704934 -0.489333 0)
(-0.0380374 -0.343516 0)
(-0.0308132 0.157191 0)
(-0.06792 0.225006 0)
(-0.0596581 0.215184 0)
(-0.02259 0.190243 0)
(0.0255919 0.165057 0)
(0.0767671 0.142744 0)
(0.12747 0.123651 0)
(0.175743 0.106964 0)
(0.220199 0.0913773 0)
(0.259543 0.0754498 0)
(0.29225 0.0577138 0)
(0.316366 0.0366801 0)
(0.329266 0.010766 0)
(0.327856 -0.0219725 0)
(0.308083 -0.0642783 0)
(0.264925 -0.121639 0)
(0.193783 -0.204842 0)
(0.0954714 -0.325594 0)
(-0.00813187 -0.454988 0)
(-0.0163788 -0.397867 0)
(-0.0281366 0.227914 0)
(-0.0417331 0.224225 0)
(0.0374331 0.165642 0)
(0.125536 0.126807 0)
(0.204798 0.100188 0)
(0.274913 0.0804704 0)
(0.337023 0.0656289 0)
(0.391743 0.0541067 0)
(0.439404 0.0444539 0)
(0.479963 0.0354443 0)
(0.512815 0.0260497 0)
(0.536724 0.015369 0)
(0.549487 0.0025396 0)
(0.54863 -0.0131097 0)
(0.530107 -0.0333359 0)
(0.488144 -0.0614587 0)
(0.41425 -0.10689 0)
(0.295508 -0.193644 0)
(0.131288 -0.333031 0)
(0.066378 -0.370107 0)
(0.261184 0.138206 0)
(0.324216 0.118604 0)
(0.456253 0.0775587 0)
(0.561052 0.0519062 0)
(0.63285 0.0362314 0)
(0.685468 0.0259252 0)
(0.726718 0.0189824 0)
(0.759894 0.0142099 0)
(0.786679 0.0107204 0)
(0.807943 0.00786911 0)
(0.823861 0.00519005 0)
(0.83403 0.00234516 0)
(0.837563 -0.000980791 0)
(0.833 -0.00471058 0)
(0.817856 -0.00949302 0)
(0.788731 -0.0161884 0)
(0.738098 -0.0272621 0)
(0.648335 -0.0517354 0)
(0.474102 -0.111467 0)
(0.340764 -0.156286 0)
)
;

boundaryField
{
    movingWall
    {
        type            fixedValue;
        value           uniform (1 0 0);
    }
    fixedWalls
    {
        type            noSlip;
    }
    frontAndBack
    {
        type            empty;
    }
}


// ************************************************************************* //
