/*--------------------------------*- C++ -*----------------------------------*\
  =========                 |
  \\      /  F ield         | OpenFOAM: The Open Source CFD Toolbox
   \\    /   O peration     | Website:  https://openfoam.org
    \\  /    A nd           | Version:  dev
     \\/     M anipulation  |
\*---------------------------------------------------------------------------*/
FoamFile
{
    format      ascii;
    class       volScalarField;
    location    "4.5";
    object      Ux;
}
// * * * * * * * * * * * * * * * * * * * * * * * * * * * * * * * * * * * * * //

dimensions      [0 1 -1 0 0 0 0];

internalField   nonuniform List<scalar> 
400
(
0.000190134
-2.12586e-05
-0.00127943
-0.00326881
-0.00567023
-0.00822457
-0.0107202
-0.0129676
-0.014777
-0.0159531
-0.0163116
-0.0157168
-0.0141314
-0.0116633
-0.00859128
-0.00534959
-0.00245792
-0.00039689
0.000506709
0.000320182
-0.000147973
-0.00171426
-0.00546052
-0.0106687
-0.0166987
-0.0230085
-0.0291015
-0.0345089
-0.0387729
-0.0414512
-0.0421602
-0.0406442
-0.0368679
-0.0310997
-0.0239455
-0.0163124
-0.00927089
-0.00381988
-0.000636837
0.000164814
-0.000579224
-0.00365855
-0.00987306
-0.0179822
-0.0270823
-0.036458
-0.0454308
-0.0533459
-0.0595641
-0.0634773
-0.064564
-0.0624788
-0.0571642
-0.0489547
-0.0386304
-0.027389
-0.0166859
-0.00793787
-0.00223167
-0.000124249
-0.000963608
-0.00547303
-0.0140464
-0.0248552
-0.0367313
-0.0488331
-0.0603679
-0.0705638
-0.0786599
-0.0839199
-0.0856931
-0.0835082
-0.0772052
-0.0670729
-0.0539454
-0.0392231
-0.0247334
-0.0123923
-0.00387313
-0.000379241
-0.00129656
-0.00710792
-0.0178735
-0.0311913
-0.0456421
-0.0602908
-0.0742791
-0.0867702
-0.0969217
-0.103886
-0.106864
-0.105197
-0.0985163
-0.0869319
-0.0712014
-0.0528504
-0.0341057
-0.0175436
-0.00568301
-0.000617683
-0.00158532
-0.00855786
-0.0213096
-0.0369226
-0.0537583
-0.0708212
-0.0872308
-0.10213
-0.114632
-0.123791
-0.128632
-0.12825
-0.121965
-0.109545
-0.0915027
-0.0693593
-0.0457265
-0.0240137
-0.00794434
-0.000901469
-0.00183024
-0.00980515
-0.0242911
-0.0419289
-0.0609024
-0.0801913
-0.0989356
-0.116305
-0.131409
-0.143233
-0.150635
-0.152421
-0.147501
-0.13515
-0.115418
-0.089587
-0.0605095
-0.0325253
-0.0110137
-0.0013092
-0.00202519
-0.0108145
-0.0267208
-0.0460205
-0.0667609
-0.0879316
-0.108737
-0.128424
-0.146159
-0.160917
-0.171435
-0.17625
-0.173822
-0.162809
-0.142551
-0.113736
-0.0790984
-0.0437891
-0.0153029
-0.00193922
-0.00216257
-0.0115474
-0.0284911
-0.0489691
-0.0709246
-0.0933859
-0.115663
-0.137143
-0.15712
-0.174654
-0.188471
-0.196937
-0.198123
-0.190028
-0.171066
-0.140895
-0.101506
-0.0583495
-0.0212769
-0.00292565
-0.002243
-0.0119943
-0.0295404
-0.0505869
-0.0729883
-0.0958354
-0.118587
-0.140826
-0.162072
-0.181592
-0.198266
-0.210482
-0.216108
-0.21259
-0.197329
-0.168533
-0.126629
-0.0763154
-0.0294349
-0.00446492
-0.00229083
-0.0122255
-0.0299414
-0.0508441
-0.0727008
-0.0946932
-0.116472
-0.137885
-0.15876
-0.178719
-0.196991
-0.212252
-0.222477
-0.224848
-0.215903
-0.192186
-0.151719
-0.0969239
-0.0402193
-0.00684616
-0.0023785
-0.0124628
-0.0300131
-0.0500097
-0.0701364
-0.0897253
-0.108685
-0.127187
-0.145459
-0.163589
-0.181348
-0.197984
-0.211953
-0.220641
-0.220175
-0.205613
-0.172057
-0.117984
-0.0537715
-0.0104634
-0.00266854
-0.0131818
-0.0304483
-0.0487761
-0.0658211
-0.0812069
-0.0952101
-0.108402
-0.121461
-0.135019
-0.149503
-0.164938
-0.180624
-0.194704
-0.203623
-0.201657
-0.181144
-0.13542
-0.0694423
-0.0157525
-0.0034914
-0.0152629
-0.0324319
-0.0482911
-0.0606857
-0.0698343
-0.0765669
-0.0819396
-0.0871118
-0.0932525
-0.101451
-0.112572
-0.126965
-0.144012
-0.161323
-0.173608
-0.171538
-0.143214
-0.0850414
-0.0229359
-0.00548647
-0.0202016
-0.0376515
-0.0498781
-0.0555443
-0.0560274
-0.052983
-0.0480416
-0.0428309
-0.0389801
-0.0381228
-0.0418534
-0.0515634
-0.0680592
-0.0908087
-0.116415
-0.135952
-0.133756
-0.0959697
-0.031389
-0.00980026
-0.0302418
-0.0477428
-0.053707
-0.0492089
-0.0376869
-0.0219154
-0.00413495
0.0136437
0.0294929
0.0414501
0.0474329
0.0452611
0.0328578
0.00869674
-0.0268363
-0.0678941
-0.0982454
-0.0946287
-0.0384857
-0.0180961
-0.0475321
-0.0611555
-0.0538617
-0.0327057
-0.00415517
0.0279164
0.06089
0.092684
0.121392
0.145035
0.161382
0.167826
0.16147
0.139167
0.0981664
0.0390144
-0.0265198
-0.0704934
-0.0380374
-0.0308132
-0.06792
-0.0596581
-0.02259
0.0255919
0.0767671
0.12747
0.175743
0.220199
0.259543
0.29225
0.316366
0.329266
0.327856
0.308083
0.264925
0.193783
0.0954714
-0.00813187
-0.0163788
-0.0281366
-0.0417331
0.0374331
0.125536
0.204798
0.274913
0.337023
0.391743
0.439404
0.479963
0.512815
0.536724
0.549487
0.54863
0.530107
0.488144
0.41425
0.295508
0.131288
0.066378
0.261184
0.324216
0.456253
0.561052
0.63285
0.685468
0.726718
0.759894
0.786679
0.807943
0.823861
0.83403
0.837563
0.833
0.817856
0.788731
0.738098
0.648335
0.474102
0.340764
)
;

boundaryField
{
    movingWall
    {
        type            calculated;
        value           uniform 1;
    }
    fixedWalls
    {
        type            calculated;
        value           uniform 0;
    }
    frontAndBack
    {
        type            empty;
    }
}


// ************************************************************************* //
