/*--------------------------------*- C++ -*----------------------------------*\
  =========                 |
  \\      /  F ield         | OpenFOAM: The Open Source CFD Toolbox
   \\    /   O peration     | Website:  https://openfoam.org
    \\  /    A nd           | Version:  dev
     \\/     M anipulation  |
\*---------------------------------------------------------------------------*/
FoamFile
{
    format      ascii;
    class       volScalarField;
    location    "4.5";
    object      Uy;
}
// * * * * * * * * * * * * * * * * * * * * * * * * * * * * * * * * * * * * * //

dimensions      [0 1 -1 0 0 0 0];

internalField   nonuniform List<scalar> 
400
(
-0.000191251
0.000141245
0.000497174
0.000722177
0.00083215
0.000858051
0.000817847
0.000715179
0.000545116
0.000303495
-3.53632e-06
-0.000353196
-0.000698548
-0.000976474
-0.0011191
-0.00107341
-0.000823343
-0.000409197
4.80896e-05
0.000303133
1.06286e-05
0.00165613
0.00321716
0.00424522
0.00475577
0.00483175
0.00452979
0.00386726
0.00284061
0.00145996
-0.000214149
-0.0020438
-0.00380288
-0.0052019
-0.00594315
-0.00580512
-0.00473588
-0.00292691
-0.000867334
0.000535557
0.00135053
0.00551269
0.00906751
0.0114069
0.0125457
0.0126164
0.0117184
0.00989124
0.00715037
0.00355651
-0.000711198
-0.00530204
-0.00968098
-0.0131809
-0.0151238
-0.015005
-0.0127022
-0.00863483
-0.00383116
-3.68316e-05
0.00374138
0.0114862
0.0175621
0.021452
0.0232658
0.0232181
0.0214587
0.0180499
0.0130299
0.00652088
-0.0011567
-0.0094044
-0.0173172
-0.0237639
-0.0275713
-0.0278236
-0.0242217
-0.0173774
-0.00891117
-0.0014504
0.00707057
0.0194024
0.0284654
0.0340766
0.036574
0.036314
0.0335145
0.0282567
0.0205863
0.0106672
-0.00105869
-0.0137448
-0.0261072
-0.0364813
-0.0430621
-0.0443252
-0.0395852
-0.0295099
-0.0163273
-0.00370353
0.0112357
0.0291002
0.0416111
0.0491272
0.0523514
0.0518547
0.0479476
0.0407217
0.0301991
0.0165365
0.000239627
-0.017654
-0.0354939
-0.0510284
-0.0616577
-0.0649648
-0.0595282
-0.0457987
-0.0265897
-0.00691543
0.0161319
0.0403809
0.0567752
0.0663941
0.0704363
0.0697644
0.0648102
0.0556647
0.0422816
0.0247379
0.00350811
-0.0202871
-0.0446896
-0.0668514
-0.0832225
-0.0901418
-0.0849306
-0.0673177
-0.0405413
-0.0113817
0.0216408
0.0530016
0.073662
0.0855744
0.0905561
0.0898413
0.084017
0.073165
0.0571217
0.0357963
0.00950922
-0.0206746
-0.0526335
-0.0829968
-0.107181
-0.119925
-0.116607
-0.0953774
-0.0593901
-0.0176056
0.0276217
0.0666677
0.0918886
0.106234
0.11226
0.111656
0.105209
0.0929949
0.0746933
0.0499623
0.0188362
-0.0178535
-0.0580374
-0.0980224
-0.132268
-0.153682
-0.154937
-0.131307
-0.0846821
-0.0263308
0.0339158
0.0810384
0.110975
0.127775
0.134852
0.134452
0.127621
0.11445
0.0944525
0.0669767
0.0316574
-0.0110973
-0.0595491
-0.110026
-0.156352
-0.18966
-0.199301
-0.176012
-0.118172
-0.0385867
0.0403752
0.0957668
0.130366
0.149423
0.157358
0.157087
0.149994
0.136237
0.115185
0.0858692
0.0474603
-0.000217194
-0.0560605
-0.116878
-0.176462
-0.224684
-0.247443
-0.229269
-0.161511
-0.0557426
0.0469287
0.110586
0.149485
0.170255
0.178531
0.178035
0.170579
0.156462
0.134969
0.104864
0.06486
0.0141172
-0.0471376
-0.116707
-0.189178
-0.254207
-0.294958
-0.288793
-0.215624
-0.0795364
0.0537035
0.125448
0.167823
0.189245
0.196892
0.195452
0.187242
0.172766
0.151312
0.12147
0.0815862
0.0301915
-0.0334631
-0.108587
-0.191434
-0.272933
-0.335303
-0.34937
-0.279643
-0.111971
0.0612397
0.140717
0.185004
0.205279
0.21077
0.207272
0.197624
0.182561
0.161434
0.132771
0.0946993
0.0452801
-0.0171165
-0.0932293
-0.181619
-0.276082
-0.360667
-0.402586
-0.34949
-0.154855
0.0708692
0.157361
0.200734
0.21703
0.218226
0.211229
0.199285
0.183274
0.162614
0.135844
0.101032
0.056007
-0.00143714
-0.0732872
-0.16052
-0.260974
-0.363729
-0.437706
-0.416783
-0.208945
0.085414
0.177011
0.214406
0.222529
0.216734
0.204698
0.189687
0.172485
0.152464
0.128198
0.0978123
0.0591542
0.00985473
-0.0527135
-0.131337
-0.228029
-0.339514
-0.443396
-0.468924
-0.27332
0.110605
0.201019
0.22329
0.21753
0.202013
0.183946
0.165803
0.147808
0.12907
0.108158
0.0833387
0.0526912
0.0140798
-0.0350735
-0.0981686
-0.180174
-0.286141
-0.408878
-0.489333
-0.343516
0.157191
0.225006
0.215184
0.190243
0.165057
0.142744
0.123651
0.106964
0.0913773
0.0754498
0.0577138
0.0366801
0.010766
-0.0219725
-0.0642783
-0.121639
-0.204842
-0.325594
-0.454988
-0.397867
0.227914
0.224225
0.165642
0.126807
0.100188
0.0804704
0.0656289
0.0541067
0.0444539
0.0354443
0.0260497
0.015369
0.0025396
-0.0131097
-0.0333359
-0.0614587
-0.10689
-0.193644
-0.333031
-0.370107
0.138206
0.118604
0.0775587
0.0519062
0.0362314
0.0259252
0.0189824
0.0142099
0.0107204
0.00786911
0.00519005
0.00234516
-0.000980791
-0.00471058
-0.00949302
-0.0161884
-0.0272621
-0.0517354
-0.111467
-0.156286
)
;

boundaryField
{
    movingWall
    {
        type            calculated;
        value           uniform 0;
    }
    fixedWalls
    {
        type            calculated;
        value           uniform 0;
    }
    frontAndBack
    {
        type            empty;
    }
}


// ************************************************************************* //
