/*--------------------------------*- C++ -*----------------------------------*\
  =========                 |
  \\      /  F ield         | OpenFOAM: The Open Source CFD Toolbox
   \\    /   O peration     | Website:  https://openfoam.org
    \\  /    A nd           | Version:  dev
     \\/     M anipulation  |
\*---------------------------------------------------------------------------*/
FoamFile
{
    format      ascii;
    class       volScalarField;
    location    "43.2";
    object      p;
}
// * * * * * * * * * * * * * * * * * * * * * * * * * * * * * * * * * * * * * //

dimensions      [0 2 -2 0 0 0 0];

internalField   nonuniform List<scalar> 
5184
(
1.06869e-06
-1.0751e-05
-9.6713e-05
-0.000249655
-0.000449134
-0.00067789
-0.000921693
-0.00116854
-0.00140929
-0.00163678
-0.00184564
-0.00203182
-0.00219239
-0.00232524
-0.00242888
-0.00250233
-0.00254491
-0.00255618
-0.00253587
-0.00248379
-0.00239988
-0.00228411
-0.00213653
-0.00195728
-0.0017466
-0.00150486
-0.00123261
-0.000930592
-0.000599801
-0.000241509
0.000142699
0.000550895
0.000980787
0.0014297
0.00189458
0.00237197
0.00285805
0.00334867
0.00383933
0.00432529
0.00480162
0.00526324
0.00570501
0.00612187
0.00650884
0.00686123
0.00717465
0.0074452
0.00766949
0.00784478
0.00796907
0.00804115
0.00806068
0.00802821
0.00794525
0.00781425
0.00763859
0.00742261
0.00717151
0.00689135
0.006589
0.00627207
0.00594887
0.00562837
0.00532012
0.0050342
0.00478113
0.00457153
0.00441537
0.00432108
0.00429412
0.00432139
1.43247e-05
1.83049e-06
-7.28022e-05
-0.000200645
-0.000365983
-0.000556328
-0.000760763
-0.000969695
-0.0011752
-0.00137086
-0.00155165
-0.00171365
-0.0018539
-0.00197016
-0.00206078
-0.00212457
-0.00216067
-0.00216848
-0.00214756
-0.00209764
-0.00201853
-0.00191015
-0.00177251
-0.0016057
-0.00140997
-0.00118566
-0.000933309
-0.000653648
-0.000347634
-1.64863e-05
0.000338287
0.000714868
0.00111111
0.00152451
0.00195225
0.00239112
0.00283762
0.00328792
0.00373792
0.0041833
0.00461956
0.0050421
0.00544627
0.00582748
0.00618129
0.00650345
0.00679008
0.00703768
0.00724327
0.00740447
0.00751955
0.00758753
0.0076082
0.00758218
0.00751096
0.00739687
0.00724308
0.00705361
0.00683327
0.00658761
0.00632288
0.00604595
0.00576428
0.00548579
0.00521879
0.00497186
0.00475366
0.00457258
0.00443591
0.00434961
0.00432105
0.00434863
0.000100959
7.62638e-05
9.16488e-07
-0.000116694
-0.000264499
-0.000432823
-0.000612953
-0.000797076
-0.000978509
-0.00115169
-0.00131209
-0.00145613
-0.00158098
-0.00168449
-0.00176501
-0.00182129
-0.0018524
-0.00185767
-0.00183658
-0.00178878
-0.00171403
-0.00161219
-0.0014832
-0.00132715
-0.00114422
-0.000934727
-0.000699163
-0.000438208
-0.000152761
0.000156033
0.000486762
0.000837723
0.00120691
0.00159198
0.0019903
0.0023989
0.00281449
0.00323353
0.00365221
0.0040665
0.00447224
0.00486516
0.00524096
0.0055954
0.00592437
0.00622398
0.00649062
0.00672112
0.00691275
0.00706334
0.00717137
0.00723598
0.00725705
0.00723524
0.00717199
0.00706953
0.00693087
0.0067598
0.00656079
0.00633902
0.00610025
0.00585077
0.00559735
0.00534711
0.00510743
0.00488574
0.00468957
0.00452594
0.00440087
0.00431963
0.00429187
0.00432251
0.000256033
0.000204624
0.000116816
-2.17749e-06
-0.000144688
-0.00030291
-0.0004697
-0.000638696
-0.000804374
-0.000962052
-0.00110785
-0.00123862
-0.00135185
-0.00144559
-0.0015183
-0.0015688
-0.00159619
-0.00159978
-0.00157904
-0.00153357
-0.0014631
-0.00136744
-0.0012465
-0.00110028
-0.000928934
-0.000732709
-0.000512031
-0.000267509
4.44821e-08
0.000289581
0.000599798
0.000929116
0.00127567
0.00163727
0.00201146
0.00239545
0.00278616
0.00318025
0.00357414
0.00396403
0.00434601
0.00471603
0.00507005
0.00540406
0.00571417
0.0059967
0.00624826
0.00646586
0.00664692
0.00678942
0.00689194
0.00695369
0.00697459
0.0069553
0.00689722
0.00680249
0.00667399
0.00651529
0.00633064
0.00612489
0.00590343
0.00567209
0.00543709
0.00520492
0.00498223
0.00477571
0.00459198
0.0044373
0.0043171
0.00423643
0.00420542
0.0042307
0.000460855
0.000372223
0.000263603
0.000135881
-8.51592e-06
-0.000163424
-0.000323059
-0.000482412
-0.000637075
-0.000783257
-0.000917775
-0.00103801
-0.00114185
-0.00122761
-0.00129395
-0.00133983
-0.00136441
-0.00136705
-0.00134722
-0.00130454
-0.00123867
-0.00114941
-0.0010366
-0.000900207
-0.000740283
-0.000557017
-0.000350749
-0.00012199
0.000128548
0.000399933
0.000690986
0.00100027
0.00132605
0.00166632
0.00201877
0.00238078
0.00274947
0.00312168
0.00349401
0.00386287
0.00422452
0.00457512
0.0049108
0.00522771
0.00552213
0.00579055
0.00602969
0.00623668
0.00640905
0.00654486
0.00664272
0.00670191
0.00672235
0.00670466
0.0066502
0.00656101
0.00643986
0.00629015
0.0061159
0.00592169
0.00571258
0.00549402
0.00527177
0.00505177
0.00484007
0.0046427
0.00446558
0.00431436
0.00419396
0.00410915
0.00406877
0.00407863
0.000699239
0.000567185
0.00043198
0.000289913
0.00013796
-1.91248e-05
-0.000176735
-0.00033112
-0.000478937
-0.000617262
-0.000743624
-0.000855975
-0.00095264
-0.00103227
-0.00109377
-0.00113628
-0.00115908
-0.00116161
-0.00114338
-0.00110401
-0.00104315
-0.000960546
-0.000856012
-0.000729428
-0.000580778
-0.000410159
-0.000217809
-4.12919e-06
0.000230288
0.00048464
0.000757886
0.00104873
0.0013556
0.00167663
0.00200968
0.0023523
0.00270176
0.00305506
0.00340898
0.00376007
0.00410474
0.00443927
0.00475993
0.005063
0.00534484
0.00560202
0.00583137
0.00603004
0.00619562
0.00632619
0.00642039
0.00647747
0.00649733
0.00648056
0.00642844
0.00634294
0.00622669
0.00608295
0.00591556
0.00572887
0.00552766
0.00531704
0.00510239
0.00488922
0.00468307
0.00448944
0.00431365
0.00416077
0.00403537
0.00394183
0.00388665
0.0038736
0.000957394
0.000778618
0.000613041
0.000452459
0.000288507
0.000124784
-3.50991e-05
-0.000188539
-0.000333195
-0.000466975
-0.000588106
-0.000695119
-0.000786807
-0.000862185
-0.00092045
-0.000960941
-0.000983105
-0.000986465
-0.000970602
-0.000935142
-0.00087975
-0.000804131
-0.000708037
-0.000591283
-0.000453762
-0.000295471
-0.000116535
8.27685e-05
0.000301982
0.000540444
0.000797259
0.00107128
0.0013611
0.00166501
0.00198101
0.0023068
0.00263981
0.00297718
0.00331579
0.00365234
0.00398333
0.00430515
0.00461412
0.00490657
0.00517895
0.00542783
0.00565005
0.00584277
0.00600357
0.0061305
0.00622218
0.00627779
0.00629719
0.00628091
0.00623014
0.00614676
0.0060333
0.00589287
0.00572916
0.00554634
0.00534894
0.00514184
0.00493007
0.00471882
0.00451322
0.00431832
0.00413898
0.00397977
0.00384495
0.00373855
0.00366424
0.00362324
0.00122321
0.000996363
0.000798164
0.000616219
0.000437058
0.000263326
9.78085e-05
-5.79285e-05
-0.000202475
-0.000334529
-0.000452992
-0.000556966
-0.000645715
-0.000718638
-0.000775234
-0.000815072
-0.000837769
-0.000842964
-0.00083031
-0.000799465
-0.00075009
-0.000681858
-0.000594466
-0.000487649
-0.000361207
-0.000215024
-4.9101e-05
0.000136421
0.000341229
0.000564813
0.000806435
0.00106511
0.00133957
0.00162828
0.00192938
0.00224071
0.00255983
0.002884
0.00321022
0.00353524
0.00385565
0.00416789
0.0044683
0.00475325
0.00501915
0.00526256
0.00548028
0.00566943
0.00582752
0.00595252
0.00604296
0.00609797
0.0061173
0.00610139
0.00605135
0.00596894
0.00585659
0.0057173
0.00555461
0.00537254
0.00517547
0.00496804
0.00475505
0.00454141
0.00433194
0.00413138
0.00394419
0.00377454
0.00362645
0.00350365
0.00340688
0.00333472
0.00148643
0.00121127
0.000979267
0.000774134
0.000577549
0.000391358
0.000217646
5.70523e-05
-8.98699e-05
-0.000222562
-0.000340571
-0.000443549
-0.000531227
-0.000603384
-0.000659828
-0.000700367
-0.000724796
-0.000732877
-0.000724342
-0.000698882
-0.000656159
-0.000595811
-0.000517475
-0.000420805
-0.000305494
-0.000171308
-1.81114e-05
0.0001541
0.000345169
0.000554747
0.000782259
0.00102688
0.00128751
0.00156276
0.00185092
0.00214996
0.00245756
0.00277107
0.00308757
0.00340389
0.00371665
0.00402229
0.00431716
0.00459759
0.00485992
0.00510067
0.00531654
0.00550454
0.00566206
0.00578698
0.0058777
0.00593321
0.00595315
0.00593784
0.00588826
0.00580609
0.00569363
0.00555378
0.00538997
0.00520607
0.00500635
0.00479528
0.00457752
0.00435773
0.00414055
0.00393044
0.00373161
0.00354793
0.00338325
0.00324112
0.00311937
0.00301404
0.00173806
0.00141507
0.00114885
0.000919465
0.000704001
0.000503624
0.000319815
0.000152373
1.06819e-06
-0.000134234
-0.00025369
-0.000357483
-0.00044579
-0.000518764
-0.000576516
-0.000619091
-0.000646462
-0.000658519
-0.000655068
-0.000635836
-0.000600479
-0.000548601
-0.000479774
-0.000393558
-0.00028954
-0.000167353
-2.67171e-05
0.000132528
0.000310391
0.000506691
0.000721026
0.000952742
0.0012009
0.00146426
0.00174126
0.00202999
0.00232825
0.00263347
0.00294279
0.00325309
0.00356098
0.00386289
0.00415514
0.00443398
0.00469566
0.00493657
0.00515328
0.00534266
0.00550194
0.00562883
0.00572155
0.00577895
0.0058005
0.00578636
0.0057374
0.00565514
0.00554179
0.00540014
0.00523351
0.00504569
0.00484082
0.0046233
0.00439766
0.00416846
0.00394017
0.00371711
0.0035033
0.00330241
0.00311829
0.00295437
0.00280572
0.002666
0.00197013
0.00160028
0.00129996
0.00104581
0.000810592
0.000594868
0.000399591
0.000223788
6.65049e-05
-7.3035e-05
-0.000195564
-0.000301764
-0.000392241
-0.000467508
-0.000527963
-0.000573884
-0.000605416
-0.000622567
-0.000625218
-0.000613122
-0.000585929
-0.0005432
-0.000484432
-0.000409093
-0.000316645
-0.000206584
-7.84762e-05
6.80065e-05
0.000233047
0.000416642
0.000618571
0.000838352
0.00107522
0.00132808
0.00159552
0.00187576
0.00216669
0.00246582
0.00277035
0.00307716
0.00338286
0.00368385
0.00397635
0.0042565
0.00452045
0.00476441
0.00498477
0.00517821
0.00534175
0.00547289
0.00556963
0.00563062
0.00565512
0.00564312
0.00559531
0.00551308
0.00539849
0.00525424
0.00508356
0.00489016
0.00467812
0.00445178
0.00421562
0.00397414
0.00373176
0.00349274
0.00326099
0.0030401
0.00283401
0.0026462
0.00246911
0.00229418
0.0021755
0.00176
0.00142607
0.00114709
0.000891674
0.000659887
0.000452196
0.000266912
0.000102403
-4.27065e-05
-0.000169687
-0.000279694
-0.000373738
-0.000452669
-0.000517163
-0.000567713
-0.000604625
-0.000628019
-0.000637836
-0.000633855
-0.000615705
-0.000582899
-0.000534855
-0.000470931
-0.000390461
-0.000292794
-0.000177328
-4.35614e-05
0.000108875
0.000280166
0.000470278
0.000678913
0.000905477
0.00114905
0.00140834
0.00168173
0.00196716
0.00226225
0.00256423
0.00286997
0.00317607
0.00347885
0.00377444
0.00405885
0.00432804
0.00457803
0.00480499
0.00500536
0.0051759
0.00531384
0.00541693
0.00548355
0.00551274
0.00550424
0.00545855
0.00537688
0.00526116
0.00511397
0.00493845
0.00473827
0.00451747
0.00428036
0.00403142
0.00377518
0.00351609
0.00325841
0.00300608
0.00276269
0.00253238
0.00231881
0.00211195
0.00190113
0.00234762
0.00188784
0.00152105
0.00121747
0.000941781
0.000693561
0.000472847
0.000277277
0.000104582
-4.71799e-05
-0.000179784
-0.000294829
-0.000393707
-0.000477586
-0.000547397
-0.000603834
-0.00064735
-0.000678163
-0.000696265
-0.000701444
-0.000693306
-0.000671302
-0.00063476
-0.000582922
-0.000514983
-0.000430129
-0.000327587
-0.000206663
-6.67972e-05
9.23978e-05
0.000271084
0.000469158
0.00068621
0.000921485
0.00117386
0.00144181
0.00172342
0.00201635
0.00231787
0.00262485
0.00293386
0.00324111
0.00354263
0.00383424
0.00411173
0.00437086
0.00460755
0.00481793
0.00499847
0.00514608
0.0052582
0.00533289
0.0053689
0.0053657
0.00532355
0.00524346
0.00512718
0.00497717
0.00479649
0.00458875
0.004358
0.00410857
0.00384499
0.00357187
0.00329375
0.00301501
0.0027397
0.00247153
0.00221493
0.00197386
0.00173594
0.00148853
0.00248042
0.00197785
0.00157912
0.00125142
0.000955621
0.00069087
0.000456791
0.000250382
6.87707e-05
-9.05212e-05
-0.000229746
-0.000350921
-0.000455793
-0.000545825
-0.000622186
-0.000685752
-0.000737105
-0.000776545
-0.000804104
-0.000819568
-0.000822505
-0.000812294
-0.000788162
-0.000749224
-0.000694524
-0.000623076
-0.00053392
-0.000426164
-0.000299037
-0.000151945
1.5488e-05
0.000203362
0.000411464
0.00063922
0.000885666
0.00114942
0.00142867
0.00172115
0.00202416
0.00233458
0.0026489
0.00296327
0.00327354
0.00357538
0.00386431
0.00413585
0.00438559
0.00460933
0.00480318
0.00496367
0.00508789
0.00517351
0.00521893
0.00522332
0.00518662
0.0051096
0.00499383
0.00484159
0.00465589
0.00444028
0.00419881
0.00393589
0.00365615
0.00336434
0.00306516
0.00276321
0.00246273
0.00216763
0.00188277
0.0016125
0.0013422
0.00105728
0.00256816
0.0020244
0.00159479
0.00124362
0.000928088
0.000646918
0.000399338
0.000181735
-9.34055e-06
-0.000176878
-0.000323582
-0.000451863
-0.000563802
-0.000661134
-0.000745245
-0.000817173
-0.000877612
-0.000926929
-0.000965179
-0.000992136
-0.00100731
-0.00101001
-0.000999338
-0.000974273
-0.000933694
-0.000876434
-0.000801331
-0.000707281
-0.000593293
-0.000458546
-0.000302441
-0.000124655
7.48084e-05
0.000295572
0.000536849
0.000797408
0.00107555
0.00136909
0.00167539
0.0019913
0.00231327
0.00263734
0.00295921
0.00327434
0.00357798
0.00386535
0.0041317
0.00437242
0.00458323
0.00476022
0.00490002
0.0049999
0.00505784
0.00507259
0.00504378
0.00497188
0.00485819
0.00470486
0.00451475
0.0042914
0.00403888
0.0037617
0.00346463
0.00315262
0.00283062
0.0025035
0.00217579
0.00185173
0.00153668
0.00123548
0.00093133
0.000607701
0.00260544
0.00202216
0.00156286
0.001189
0.000854258
0.00055694
0.000295885
6.68866e-05
-0.000134059
-0.00031043
-0.000465365
-0.000601643
-0.000721656
-0.000827391
-0.000920431
-0.00100196
-0.00107276
-0.00113325
-0.0011835
-0.00122325
-0.00125195
-0.0012688
-0.00127279
-0.00126275
-0.00123736
-0.00119528
-0.00113512
-0.00105556
-0.000955363
-0.00083347
-0.000689039
-0.000521508
-0.000330651
-0.000116629
0.000119966
0.00037807
0.00065612
0.000952038
0.00126322
0.00158654
0.00191838
0.00225469
0.002591
0.00292253
0.00324427
0.00355109
0.00383783
0.00409948
0.00433125
0.00452876
0.00468812
0.0048061
0.00488018
0.00490867
0.00489077
0.00482659
0.00471716
0.00456439
0.00437103
0.00414057
0.00387712
0.00358529
0.00327006
0.00293663
0.00259028
0.00223622
0.00187936
0.00152434
0.00117714
0.00084321
0.000503531
0.000139656
0.0025871
0.00196609
0.00147837
0.0010827
0.0007294
0.000416328
0.000141945
-9.85331e-05
-0.000309648
-0.000495349
-0.000659184
-0.000804285
-0.000933334
-0.00104855
-0.00115169
-0.00124407
-0.00132655
-0.00139958
-0.00146321
-0.00151716
-0.00156079
-0.0015932
-0.00161323
-0.00161953
-0.00161063
-0.00158494
-0.00154087
-0.00147683
-0.00139136
-0.00128312
-0.00115102
-0.000994218
-0.000812248
-0.000605029
-0.000372934
-0.000116833
0.00016187
0.000461216
0.00077867
0.00111113
0.00145495
0.00180596
0.00215952
0.00251063
0.00285396
0.00318402
0.00349521
0.00378203
0.00403917
0.00426167
0.00444508
0.00458555
0.00468001
0.00472622
0.00472288
0.00466968
0.00456729
0.00441737
0.00422249
0.00398607
0.00371227
0.00340585
0.003072
0.00271624
0.00234422
0.0019616
0.00157376
0.00118582
0.000804469
0.00043585
5.8721e-05
-0.000347347
0.00250824
0.00185136
0.00133661
0.00092012
0.000548985
0.000220646
-6.68273e-05
-0.000318785
-0.000540291
-0.000735748
-0.000909099
-0.00106381
-0.00120283
-0.0013286
-0.00144303
-0.00154754
-0.00164305
-0.00173004
-0.00180855
-0.00187822
-0.00193833
-0.00198784
-0.00202546
-0.00204966
-0.00205874
-0.00205092
-0.00202434
-0.00197718
-0.00190767
-0.00181421
-0.00169541
-0.00155017
-0.00137771
-0.00117771
-0.000950274
-0.000696057
-0.000416271
-0.000112729
0.000212135
0.000555265
0.000912986
0.00128104
0.00165463
0.00202851
0.00239703
0.00275429
0.00309424
0.00341082
0.00369814
0.0039506
0.00416306
0.00433103
0.00445075
0.00451934
0.00453493
0.00449667
0.00440481
0.00426067
0.00406662
0.003826
0.00354297
0.00322246
0.00286991
0.00249121
0.00209246
0.00167983
0.00125924
0.000836406
0.00041882
1.34054e-05
-0.000403381
-0.00085403
0.0023642
0.00167342
0.00113309
0.000696848
0.000308694
-3.43503e-05
-0.00033461
-0.000597985
-0.000830049
-0.00103565
-0.00121909
-0.00138417
-0.00153409
-0.00167148
-0.00179841
-0.00191637
-0.00202635
-0.00212882
-0.00222378
-0.00231081
-0.00238909
-0.00245744
-0.0025144
-0.00255825
-0.00258708
-0.00259886
-0.00259148
-0.00256283
-0.00251086
-0.00243366
-0.00232953
-0.00219704
-0.00203512
-0.00184313
-0.0016209
-0.00136882
-0.00108789
-0.000779715
-0.000446608
-9.15502e-05
0.000281793
0.000669092
0.0010654
0.00146522
0.00186259
0.00225118
0.00262443
0.0029757
0.00329843
0.00358631
0.00383345
0.00403456
0.00418511
0.0042815
0.00432113
0.00430254
0.00422546
0.0040908
0.00390066
0.00365821
0.00336767
0.00303408
0.00266319
0.00226129
0.00183499
0.00139105
0.000936034
0.000476313
2.03024e-05
-0.000424203
-0.000883161
-0.00138124
0.00215056
0.00142797
0.000863608
0.000408738
4.44197e-06
-0.000352693
-0.000665384
-0.000940073
-0.00118283
-0.00139892
-0.00159302
-0.00176923
-0.00193098
-0.00208109
-0.00222174
-0.00235454
-0.00248047
-0.00260002
-0.00271313
-0.0028193
-0.00291759
-0.00300669
-0.00308494
-0.00315044
-0.00320104
-0.00323445
-0.00324828
-0.00324013
-0.00320764
-0.00314855
-0.00306084
-0.00294272
-0.00279278
-0.00261003
-0.00239399
-0.00214474
-0.001863
-0.00155016
-0.00120834
-0.000840406
-0.00044999
-4.14542e-05
0.000380123
0.000809013
0.00123892
0.00166308
0.0020744
0.0024656
0.00282939
0.00315867
0.00344668
0.00368727
0.003875
0.00400539
0.00407503
0.00408171
0.00402452
0.00390386
0.00372146
0.00348033
0.00318463
0.00283955
0.00245116
0.00202617
0.00157178
0.00109543
0.000604379
0.00010577
-0.000390964
-0.000877051
-0.00138102
-0.00192985
0.00186316
0.00111096
0.000524199
5.18993e-05
-0.00036761
-0.000738176
-0.00106291
-0.00134878
-0.00160234
-0.00182926
-0.00203459
-0.00222267
-0.0023972
-0.00256115
-0.00271682
-0.00286587
-0.00300933
-0.00314765
-0.00328073
-0.00340795
-0.00352827
-0.00364021
-0.00374193
-0.00383131
-0.00390596
-0.00396332
-0.00400071
-0.00401541
-0.0040047
-0.003966
-0.00389689
-0.00379521
-0.00365916
-0.00348737
-0.00327898
-0.00303372
-0.00275198
-0.00243488
-0.00208429
-0.00170293
-0.00129432
-0.000862836
-0.000413645
4.73142e-05
0.000513421
0.000977472
0.00143181
0.00186847
0.00227937
0.00265654
0.00299227
0.00327937
0.00351141
0.00368289
0.00378941
0.00382789
0.00379664
0.00369542
0.00352552
0.00328964
0.00299189
0.00263758
0.00223307
0.00178556
0.00130287
0.000793193
0.000264605
-0.000274908
-0.000814771
-0.00134514
-0.00189728
-0.00250069
0.00149814
0.000718648
0.0001112
-0.000377277
-0.000811026
-0.00119433
-0.00153069
-0.00182759
-0.00209205
-0.00233015
-0.00254726
-0.002748
-0.00293627
-0.00311522
-0.00328723
-0.00345404
-0.00361667
-0.00377555
-0.00393051
-0.00408085
-0.00422537
-0.00436244
-0.00449002
-0.00460576
-0.00470703
-0.00479097
-0.0048546
-0.00489485
-0.00490866
-0.00489305
-0.00484518
-0.00476249
-0.00464274
-0.00448413
-0.00428538
-0.00404581
-0.00376541
-0.00344496
-0.00308606
-0.00269116
-0.00226366
-0.00180786
-0.00132899
-0.000833161
-0.000327293
0.000180968
0.000683382
0.00117127
0.00163572
0.00206777
0.00245865
0.00280006
0.00308438
0.00330493
0.0034562
0.00353404
0.00353582
0.00346053
0.00330885
0.00308312
0.00278728
0.00242672
0.0020081
0.00153914
0.00102833
0.000484677
-8.28293e-05
-0.000665251
-0.00125075
-0.00182829
-0.00243212
-0.00309439
0.00105192
0.000247587
-0.000378748
-0.000882093
-0.00132907
-0.00172438
-0.00207193
-0.00237971
-0.00265518
-0.0029048
-0.00313425
-0.00334844
-0.00355146
-0.00374658
-0.00393633
-0.00412243
-0.00430596
-0.00448729
-0.00466617
-0.00484181
-0.00501287
-0.00517754
-0.00533358
-0.00547842
-0.00560914
-0.00572261
-0.00581551
-0.00588441
-0.00592587
-0.00593647
-0.00591297
-0.00585233
-0.00575183
-0.00560919
-0.00542264
-0.00519103
-0.0049139
-0.00459162
-0.00422539
-0.0038174
-0.00337079
-0.00288976
-0.00237952
-0.00184631
-0.00129731
-0.000740605
-0.000185003
0.000360072
0.000884795
0.00137916
0.00183325
0.00223748
0.0025829
0.00286149
0.00306642
0.00319229
0.00323533
0.00319358
0.00306697
0.00285733
0.00256832
0.00220536
0.00177539
0.00128664
0.000748324
0.000170361
-0.000437272
-0.00106457
-0.0016983
-0.0023261
-0.00298544
-0.00371138
0.000521293
-0.000305325
-0.000948668
-0.00146552
-0.00192467
-0.00233125
-0.00268956
-0.00300804
-0.00329461
-0.0035561
-0.00379848
-0.00402693
-0.00424571
-0.00445824
-0.00466712
-0.00487414
-0.00508035
-0.00528609
-0.00549104
-0.0056943
-0.00589438
-0.0060893
-0.00627662
-0.00645352
-0.00661681
-0.00676305
-0.00688859
-0.00698961
-0.00706226
-0.00710268
-0.00710715
-0.00707213
-0.00699438
-0.00687108
-0.00669991
-0.00647917
-0.00620789
-0.00588591
-0.00551402
-0.00509397
-0.00462864
-0.00412199
-0.00357917
-0.00300647
-0.00241128
-0.00180207
-0.00118823
-0.000579943
1.20274e-05
0.000576559
0.00110245
0.00157872
0.00199493
0.00234152
0.00261012
0.00279386
0.00288764
0.00288831
0.00279484
0.00260839
0.00233224
0.00197172
0.001534
0.00102781
0.000463157
-0.000149079
-0.000797825
-0.0014719
-0.00215651
-0.00283783
-0.00355683
-0.00435173
-9.66082e-05
-0.000942824
-0.00160122
-0.00213018
-0.00260043
-0.00301751
-0.0033861
-0.00371513
-0.0040129
-0.0042866
-0.00454252
-0.00478603
-0.00502161
-0.00525279
-0.00548226
-0.00571183
-0.00594257
-0.00617476
-0.00640801
-0.00664131
-0.00687303
-0.00710101
-0.00732261
-0.00753475
-0.00773398
-0.00791654
-0.0080784
-0.00821538
-0.00832317
-0.00839746
-0.008434
-0.00842871
-0.00837779
-0.0082778
-0.00812583
-0.00791954
-0.00765736
-0.00733855
-0.00696333
-0.006533
-0.00604999
-0.005518
-0.00494197
-0.00432817
-0.00368415
-0.0030187
-0.00234176
-0.00166426
-0.000997942
-0.000355105
0.000251674
0.000809875
0.0013074
0.00173293
0.00207635
0.00232907
0.00248436
0.00253768
0.0024868
0.00233197
0.00207594
0.00172381
0.00128291
0.000762463
0.000173279
-0.000472726
-0.00116328
-0.00188589
-0.00262405
-0.00336231
-0.00414545
-0.00501507
-0.000804227
-0.00166725
-0.00233868
-0.00287831
-0.00335855
-0.00378535
-0.00416376
-0.00450315
-0.00481222
-0.00509848
-0.00536851
-0.00562791
-0.00588132
-0.00613241
-0.00638392
-0.00663772
-0.00689486
-0.00715558
-0.00741944
-0.00768528
-0.00795136
-0.00821535
-0.00847438
-0.00872515
-0.00896391
-0.00918658
-0.00938877
-0.00956588
-0.00971316
-0.00982578
-0.00989897
-0.00992805
-0.00990859
-0.00983651
-0.00970821
-0.00952065
-0.00927156
-0.00895953
-0.00858412
-0.00814603
-0.00764718
-0.00709085
-0.00648169
-0.00582585
-0.00513091
-0.00440595
-0.00366137
-0.00290884
-0.00216108
-0.00143162
-0.000734488
-8.38852e-05
0.00050625
0.00102265
0.00145318
0.00178726
0.00201626
0.00213392
0.00213654
0.00202322
0.00179594
0.00145942
0.00102105
0.000490484
-0.000120665
-0.000799369
-0.00153205
-0.00230478
-0.00309914
-0.00389788
-0.00474991
-0.0057005
-0.00160358
-0.00248053
-0.00316292
-0.00371173
-0.00420083
-0.00463656
-0.00502431
-0.00537387
-0.00569432
-0.00599349
-0.0062782
-0.00655429
-0.00682656
-0.00709878
-0.00737379
-0.00765348
-0.00793889
-0.00823025
-0.00852703
-0.00882798
-0.00913122
-0.00943425
-0.009734
-0.0100269
-0.010309
-0.0105758
-0.0108226
-0.0110443
-0.0112358
-0.0113916
-0.0115065
-0.011575
-0.0115922
-0.0115533
-0.0114538
-0.0112899
-0.0110587
-0.0107578
-0.0103862
-0.00994372
-0.00943172
-0.0088529
-0.00821153
-0.00751346
-0.00676625
-0.0059791
-0.00516284
-0.0043298
-0.00349368
-0.00266925
-0.00187207
-0.00111814
-0.000423395
0.000196711
0.000727759
0.00115687
0.00147322
0.00166845
0.00173708
0.00167676
0.00148841
0.00117617
0.000747305
0.000211847
-0.0004178
-0.00112745
-0.00190211
-0.00272627
-0.0035794
-0.00444224
-0.00536819
-0.00640647
-0.0024962
-0.00338414
-0.00407536
-0.00463186
-0.00512868
-0.00557251
-0.00596911
-0.00632864
-0.00666053
-0.0069729
-0.00727284
-0.00756638
-0.00785847
-0.00815302
-0.00845293
-0.00876014
-0.00907568
-0.00939976
-0.00973178
-0.0100704
-0.0104136
-0.0107588
-0.0111026
-0.0114413
-0.0117706
-0.0120857
-0.0123816
-0.0126527
-0.0128933
-0.0130976
-0.0132595
-0.0133732
-0.0134328
-0.0134327
-0.0133678
-0.0132333
-0.0130254
-0.012741
-0.0123779
-0.0119354
-0.0114138
-0.0108153
-0.0101436
-0.00940406
-0.00860406
-0.00775284
-0.00686153
-0.00594305
-0.00501201
-0.00408443
-0.00317746
-0.00230896
-0.00149706
-0.000759613
-0.00011358
0.000425535
0.000844311
0.00113196
0.00128082
0.0012867
0.00114913
0.000871426
0.000460512
-7.33393e-05
-0.00071697
-0.00145499
-0.00227091
-0.00314746
-0.00406178
-0.0049924
-0.00599753
-0.00713064
-0.00348316
-0.00437908
-0.00507699
-0.00563966
-0.00614303
-0.00659414
-0.00699907
-0.00736834
-0.00771168
-0.00803751
-0.00835316
-0.00866484
-0.00897767
-0.00929567
-0.00962181
-0.00995807
-0.0103055
-0.0106643
-0.0110338
-0.0114127
-0.0117986
-0.012189
-0.0125803
-0.0129684
-0.0133489
-0.0137167
-0.0140662
-0.0143916
-0.0146866
-0.0149449
-0.0151597
-0.0153245
-0.0154326
-0.0154777
-0.0154537
-0.015355
-0.0151767
-0.0149147
-0.0145659
-0.0141285
-0.013602
-0.0129877
-0.0122885
-0.0115092
-0.010657
-0.00974074
-0.00877188
-0.00776378
-0.00673185
-0.00569334
-0.00466698
-0.0036726
-0.00273064
-0.00186154
-0.00108512
-0.000419836
0.000117909
0.000514456
0.00075951
0.000846626
0.00077356
0.0005424
0.000159504
-0.000364799
-0.00101668
-0.00177954
-0.00263527
-0.00356472
-0.00454245
-0.00554448
-0.00663426
-0.0078698
-0.004565
-0.00546588
-0.00616833
-0.00673564
-0.0072444
-0.00770194
-0.00811466
-0.00849338
-0.00884814
-0.00918762
-0.00951936
-0.00984978
-0.0101841
-0.0105266
-0.0108801
-0.0112469
-0.0116279
-0.0120233
-0.0124325
-0.0128539
-0.0132853
-0.0137239
-0.0141659
-0.0146072
-0.0150429
-0.0154676
-0.0158755
-0.0162602
-0.016615
-0.0169329
-0.0172066
-0.0174288
-0.0175921
-0.0176891
-0.017713
-0.017657
-0.0175152
-0.0172824
-0.0169544
-0.0165283
-0.0160025
-0.0153773
-0.0146546
-0.0138386
-0.0129357
-0.0119547
-0.0109068
-0.0098059
-0.00866796
-0.00751138
-0.00635646
-0.00522504
-0.00413995
-0.00312447
-0.00220148
-0.00139278
-0.000718161
-0.00019462
0.000164413
0.000349729
0.000356823
0.000186156
-0.000156844
-0.00066203
-0.00131503
-0.00209806
-0.00299133
-0.00397362
-0.00501663
-0.00609365
-0.00727371
-0.00861968
-0.00574173
-0.00664456
-0.00734941
-0.00791986
-0.00843284
-0.00889595
-0.00931587
-0.0097037
-0.0100698
-0.010423
-0.0107711
-0.0111207
-0.0114772
-0.0118449
-0.0122269
-0.0126254
-0.0130414
-0.0134751
-0.0139259
-0.0143921
-0.0148716
-0.0153611
-0.0158571
-0.016355
-0.0168498
-0.0173357
-0.0178066
-0.0182556
-0.0186757
-0.019059
-0.0193979
-0.019684
-0.0199093
-0.0200654
-0.0201444
-0.0201386
-0.0200409
-0.0198449
-0.0195451
-0.0191373
-0.0186188
-0.0179886
-0.0172476
-0.016399
-0.0154485
-0.0144042
-0.0132772
-0.0120814
-0.0108334
-0.00955254
-0.00826062
-0.00698143
-0.00574034
-0.00456353
-0.00347727
-0.002507
-0.00167636
-0.00100618
-0.000513591
-0.000211137
-0.000106147
-0.000200307
-0.000489546
-0.000964226
-0.00160963
-0.00240685
-0.00333436
-0.00436872
-0.0054785
-0.00663392
-0.00791001
-0.00937476
-0.00701283
-0.00791467
-0.00861982
-0.00919192
-0.00970795
-0.0101757
-0.0106022
-0.0109988
-0.0113759
-0.0117428
-0.0121074
-0.0124765
-0.0128556
-0.0132491
-0.0136604
-0.0140916
-0.0145438
-0.0150172
-0.0155112
-0.0160243
-0.016554
-0.0170972
-0.01765
-0.0182079
-0.0187654
-0.0193166
-0.019855
-0.0203734
-0.020864
-0.0213187
-0.0217288
-0.0220855
-0.0223797
-0.0226023
-0.0227442
-0.0227965
-0.0227509
-0.0225997
-0.0223362
-0.0219547
-0.0214511
-0.020823
-0.0200701
-0.0191944
-0.0182004
-0.0170958
-0.0158909
-0.0145996
-0.0132388
-0.0118287
-0.0103924
-0.0089555
-0.00754598
-0.00619305
-0.00492657
-0.00377595
-0.00276909
-0.00193122
-0.00128377
-0.000843256
-0.000620499
-0.000619941
-0.000839405
-0.00127018
-0.0018975
-0.00270142
-0.00365871
-0.00474352
-0.00592101
-0.007158
-0.00853592
-0.0101282
-0.00837724
-0.00927524
-0.00997866
-0.010551
-0.0110689
-0.0115405
-0.0119728
-0.0123776
-0.0127654
-0.0131458
-0.0135267
-0.0139153
-0.0143172
-0.0147369
-0.0151779
-0.0156424
-0.0161317
-0.016646
-0.0171846
-0.0177461
-0.018328
-0.0189271
-0.0195394
-0.0201601
-0.0207838
-0.0214042
-0.0220144
-0.0226067
-0.0231731
-0.0237047
-0.0241922
-0.0246261
-0.0249963
-0.0252928
-0.0255053
-0.0256238
-0.0256388
-0.0255411
-0.0253225
-0.0249759
-0.0244957
-0.0238778
-0.0231206
-0.0222244
-0.0211928
-0.0200322
-0.0187523
-0.0173665
-0.0158918
-0.0143489
-0.0127621
-0.0111587
-0.00956923
-0.00802592
-0.00656237
-0.00521229
-0.00400826
-0.00298046
-0.00215522
-0.00155382
-0.00119126
-0.00107549
-0.00120688
-0.00157817
-0.0021749
-0.00297636
-0.00395757
-0.00509021
-0.0063357
-0.00765709
-0.00914262
-0.0108714
-0.00983335
-0.0107248
-0.0114246
-0.0119957
-0.0125144
-0.0129888
-0.0134263
-0.0138386
-0.0142367
-0.01463
-0.015027
-0.0154348
-0.0158593
-0.0163052
-0.016776
-0.0172741
-0.0178009
-0.0183566
-0.0189408
-0.0195519
-0.0201874
-0.0208442
-0.0215182
-0.0222045
-0.0228973
-0.0235902
-0.024276
-0.0249468
-0.0255937
-0.0262076
-0.0267784
-0.0272958
-0.0277489
-0.0281266
-0.0284176
-0.0286107
-0.0286948
-0.0286595
-0.028495
-0.0281926
-0.0277449
-0.0271462
-0.0263932
-0.0254846
-0.0244225
-0.0232118
-0.0218614
-0.0203839
-0.0187959
-0.0171185
-0.0153767
-0.0135996
-0.0118198
-0.0100728
-0.00839588
-0.0068273
-0.00540474
-0.00416383
-0.00313653
-0.00234959
-0.00182309
-0.00156929
-0.00159188
-0.00188575
-0.00243724
-0.00322515
-0.00422289
-0.00539955
-0.00671251
-0.00812069
-0.00971951
-0.011594
-0.0113791
-0.0122615
-0.0129559
-0.0135245
-0.0140429
-0.0145192
-0.0149609
-0.01538
-0.0157876
-0.0161932
-0.0166056
-0.017032
-0.0174786
-0.0179501
-0.0184503
-0.0189818
-0.019546
-0.0201434
-0.0207735
-0.0214348
-0.022125
-0.0228408
-0.023578
-0.0243318
-0.0250962
-0.0258646
-0.0266295
-0.0273824
-0.0281143
-0.0288154
-0.0294749
-0.0300818
-0.0306244
-0.0310904
-0.0314675
-0.0317433
-0.0319052
-0.0319414
-0.0318404
-0.0315917
-0.0311863
-0.0306166
-0.0298773
-0.0289654
-0.0278812
-0.026628
-0.0252132
-0.0236485
-0.0219498
-0.0201381
-0.018239
-0.0162827
-0.0143041
-0.0123413
-0.0104357
-0.00863012
-0.00696768
-0.00548995
-0.00423522
-0.00323652
-0.00251992
-0.00210295
-0.00199357
-0.00218958
-0.00267881
-0.00343998
-0.00444508
-0.00566058
-0.00703953
-0.00853631
-0.010254
-0.0122836
-0.0130118
-0.013883
-0.0145704
-0.0151353
-0.0156523
-0.0161295
-0.0165746
-0.0169996
-0.0174156
-0.0178326
-0.0182593
-0.0187033
-0.0191708
-0.019667
-0.0201957
-0.0207598
-0.0213608
-0.0219993
-0.0226751
-0.0233866
-0.0241317
-0.0249071