/*--------------------------------*- C++ -*----------------------------------*\
  =========                 |
  \\      /  F ield         | OpenFOAM: The Open Source CFD Toolbox
   \\    /   O peration     | Website:  https://openfoam.org
    \\  /    A nd           | Version:  dev
     \\/     M anipulation  |
\*---------------------------------------------------------------------------*/
FoamFile
{
    format      ascii;
    class       volVectorField;
    location    "43.2";
    object      U;
}
// * * * * * * * * * * * * * * * * * * * * * * * * * * * * * * * * * * * * * //

dimensions      [0 1 -1 0 0 0 0];

internalField   nonuniform List<vector> 
5184
(
(1.23985e-05 -1.26436e-05 0)
(4.52908e-05 -2.08573e-05 0)
(8.04213e-05 -1.72402e-05 0)
(9.60691e-05 -8.1936e-06 0)
(8.22405e-05 2.67251e-06 0)
(3.65423e-05 1.36214e-05 0)
(-4.04876e-05 2.38489e-05 0)
(-0.000146832 3.30532e-05 0)
(-0.000279692 4.11146e-05 0)
(-0.00043601 4.80367e-05 0)
(-0.000612662 5.38796e-05 0)
(-0.000806619 5.87285e-05 0)
(-0.00101501 6.2677e-05 0)
(-0.00123518 6.5817e-05 0)
(-0.00146464 6.8233e-05 0)
(-0.00170116 6.99997e-05 0)
(-0.00194266 7.11813e-05 0)
(-0.00218721 7.18305e-05 0)
(-0.00243304 7.19883e-05 0)
(-0.00267847 7.16843e-05 0)
(-0.00292188 7.09379e-05 0)
(-0.00316171 6.97595e-05 0)
(-0.00339644 6.8152e-05 0)
(-0.00362453 6.61124e-05 0)
(-0.00384447 6.36335e-05 0)
(-0.0040547 6.07055e-05 0)
(-0.00425368 5.73179e-05 0)
(-0.00443984 5.3461e-05 0)
(-0.00461158 4.91279e-05 0)
(-0.00476733 4.43153e-05 0)
(-0.00490553 3.9026e-05 0)
(-0.00502466 3.32692e-05 0)
(-0.00512326 2.70619e-05 0)
(-0.00519994 2.04304e-05 0)
(-0.00525344 1.34103e-05 0)
(-0.00528266 6.04724e-06 0)
(-0.00528665 -1.60253e-06 0)
(-0.00526467 -9.47256e-06 0)
(-0.00521623 -1.74863e-05 0)
(-0.00514109 -2.55578e-05 0)
(-0.00503933 -3.35927e-05 0)
(-0.00491132 -4.14892e-05 0)
(-0.00475776 -4.91403e-05 0)
(-0.0045797 -5.64348e-05 0)
(-0.00437856 -6.32601e-05 0)
(-0.00415609 -6.95042e-05 0)
(-0.00391438 -7.50584e-05 0)
(-0.00365586 -7.98195e-05 0)
(-0.00338326 -8.36931e-05 0)
(-0.00309958 -8.65953e-05 0)
(-0.00280807 -8.84556e-05 0)
(-0.00251215 -8.92188e-05 0)
(-0.00221539 -8.88467e-05 0)
(-0.00192145 -8.73194e-05 0)
(-0.001634 -8.46368e-05 0)
(-0.00135669 -8.0818e-05 0)
(-0.00109306 -7.59025e-05 0)
(-0.000846469 -6.99491e-05 0)
(-0.000620072 -6.30356e-05 0)
(-0.000416721 -5.52579e-05 0)
(-0.000238913 -4.67301e-05 0)
(-8.87258e-05 -3.75852e-05 0)
(3.22516e-05 -2.79783e-05 0)
(0.000123006 -1.80922e-05 0)
(0.000183206 -8.1527e-06 0)
(0.000213355 1.54565e-06 0)
(0.00021504 1.0579e-05 0)
(0.000191314 1.8311e-05 0)
(0.000147214 2.37277e-05 0)
(9.08355e-05 2.51351e-05 0)
(3.66467e-05 1.98488e-05 0)
(6.23055e-06 6.24052e-06 0)
(2.08952e-05 -4.57956e-05 0)
(6.57361e-05 -6.56674e-05 0)
(9.48544e-05 -4.05515e-05 0)
(7.29582e-05 7.63734e-06 0)
(-1.87937e-05 6.56942e-05 0)
(-0.000187216 0.000126021 0)
(-0.000432893 0.000184335 0)
(-0.000752611 0.000238394 0)
(-0.00114083 0.00028706 0)
(-0.00159075 0.000329886 0)
(-0.00209505 0.000366831 0)
(-0.00264625 0.000398082 0)
(-0.00323706 0.000423953 0)
(-0.00386047 0.000444812 0)
(-0.00450989 0.000461036 0)
(-0.0051791 0.000472984 0)
(-0.00586232 0.000480978 0)
(-0.00655408 0.000485292 0)
(-0.00724927 0.000486152 0)
(-0.00794298 0.000483729 0)
(-0.00863052 0.000478143 0)
(-0.00930734 0.000469472 0)
(-0.00996895 0.000457754 0)
(-0.0106109 0.000442998 0)
(-0.0112289 0.000425192 0)
(-0.0118184 0.000404314 0)
(-0.012375 0.000380337 0)
(-0.0128944 0.000353245 0)
(-0.0133722 0.000323039 0)
(-0.0138039 0.000289746 0)
(-0.0141854 0.000253426 0)
(-0.0145125 0.000214183 0)
(-0.0147814 0.000172165 0)
(-0.0149884 0.000127576 0)
(-0.0151303 8.06763e-05 0)
(-0.0152041 3.17845e-05 0)
(-0.0152077 -1.87202e-05 0)
(-0.015139 -7.03993e-05 0)
(-0.0149972 -0.000122758 0)
(-0.0147817 -0.000175248 0)
(-0.014493 -0.000227275 0)
(-0.0141322 -0.000278207 0)
(-0.0137016 -0.000327382 0)
(-0.0132041 -0.00037412 0)
(-0.0126436 -0.000417739 0)
(-0.0120252 -0.000457561 0)
(-0.0113545 -0.000492934 0)
(-0.0106381 -0.000523243 0)
(-0.00988341 -0.000547928 0)
(-0.00909858 -0.000566493 0)
(-0.00829227 -0.000578525 0)
(-0.00747368 -0.000583706 0)
(-0.00665235 -0.000581819 0)
(-0.005838 -0.000572762 0)
(-0.00504044 -0.00055655 0)
(-0.00426933 -0.000533322 0)
(-0.00353405 -0.000503342 0)
(-0.00284353 -0.000467001 0)
(-0.00220606 -0.000424812 0)
(-0.00162909 -0.000377417 0)
(-0.00111913 -0.000325585 0)
(-0.000681465 -0.000270221 0)
(-0.000320009 -0.000212386 0)
(-3.7045e-05 -0.000153333 0)
(0.000167061 -9.45732e-05 0)
(0.000294234 -3.79863e-05 0)
(0.000349227 1.3966e-05 0)
(0.000340315 5.79806e-05 0)
(0.000279994 8.9463e-05 0)
(0.00018613 0.00010191 0)
(8.64091e-05 8.65472e-05 0)
(1.96914e-05 3.64901e-05 0)
(1.76627e-05 -8.12932e-05 0)
(4.1406e-05 -9.50313e-05 0)
(1.97124e-05 -1.91389e-05 0)
(-8.3879e-05 0.00010594 0)
(-0.000290166 0.000254695 0)
(-0.000607896 0.000410673 0)
(-0.00103832 0.000563554 0)
(-0.00157764 0.000707197 0)
(-0.00221867 0.000838152 0)
(-0.00295223 0.000954712 0)
(-0.00376805 0.00105628 0)
(-0.0046554 0.00114295 0)
(-0.00560356 0.00121524 0)
(-0.00660207 0.00127386 0)
(-0.00764086 0.00131965 0)
(-0.00871038 0.00135343 0)
(-0.00980153 0.00137596 0)
(-0.0109057 0.00138793 0)
(-0.0120147 0.00138988 0)
(-0.0131207 0.00138228 0)
(-0.0142161 0.00136544 0)
(-0.0152935 0.00133959 0)
(-0.0163456 0.00130486 0)
(-0.0173654 0.00126131 0)
(-0.0183458 0.00120895 0)
(-0.0192797 0.00114777 0)
(-0.02016 0.00107776 0)
(-0.0209799 0.000998933 0)
(-0.0217324 0.000911356 0)
(-0.0224108 0.000815167 0)
(-0.0230085 0.000710599 0)
(-0.0235192 0.000597996 0)
(-0.0239369 0.000477831 0)
(-0.0242563 0.00035072 0)
(-0.0244723 0.000217431 0)
(-0.0245808 7.88852e-05 0)
(-0.0245784 -6.38353e-05 0)
(-0.0244626 -0.000209494 0)
(-0.0242318 -0.000356709 0)
(-0.0238857 -0.00050396 0)
(-0.0234253 -0.000649611 0)
(-0.0228525 -0.000791929 0)
(-0.0221709 -0.000929111 0)
(-0.0213854 -0.00105931 0)
(-0.0205021 -0.00118068 0)
(-0.0195287 -0.0012914 0)
(-0.0184742 -0.00138972 0)
(-0.0173488 -0.00147398 0)
(-0.0161638 -0.00154269 0)
(-0.0149317 -0.00159453 0)
(-0.0136658 -0.0016284 0)
(-0.0123801 -0.00164347 0)
(-0.0110893 -0.00163917 0)
(-0.00980804 -0.00161524 0)
(-0.00855136 -0.00157176 0)
(-0.00733393 -0.00150912 0)
(-0.00616999 -0.00142808 0)
(-0.00507307 -0.00132974 0)
(-0.00405573 -0.00121553 0)
(-0.00312924 -0.00108728 0)
(-0.00230334 -0.000947159 0)
(-0.00158592 -0.000797731 0)
(-0.000982719 -0.000642006 0)
(-0.000496968 -0.000483517 0)
(-0.000128976 -0.000326465 0)
(0.00012433 -0.000175941 0)
(0.000270054 -3.82653e-05 0)
(0.000320051 7.85436e-05 0)
(0.000291456 0.000164189 0)
(0.000207508 0.000205502 0)
(0.000102498 0.000186363 0)
(2.49886e-05 9.04202e-05 0)
(8.85674e-06 -9.7773e-05 0)
(-6.96303e-06 -7.31789e-05 0)
(-0.000107519 8.47788e-05 0)
(-0.00032232 0.000318405 0)
(-0.000669622 0.0005902 0)
(-0.00115784 0.000874537 0)
(-0.00178771 0.00115438 0)
(-0.00255447 0.00141892 0)
(-0.00344957 0.0016617 0)
(-0.00446198 0.00187917 0)
(-0.00557922 0.00206978 0)
(-0.00678808 0.00223327 0)
(-0.00807514 0.00237021 0)
(-0.00942714 0.00248164 0)
(-0.0108312 0.00256881 0)
(-0.0122748 0.00263307 0)
(-0.0137461 0.0026757 0)
(-0.0152338 0.00269785 0)
(-0.0167267 0.0027005 0)
(-0.0182145 0.00268443 0)
(-0.0196868 0.00265026 0)
(-0.0211337 0.0025984 0)
(-0.0225454 0.00252912 0)
(-0.0239124 0.00244259 0)
(-0.0252249 0.00233887 0)
(-0.0264736 0.00221802 0)
(-0.0276492 0.00208009 0)
(-0.0287422 0.00192519 0)
(-0.0297437 0.00175354 0)
(-0.0306447 0.00156546 0)
(-0.0314366 0.0013615 0)
(-0.0321113 0.00114239 0)
(-0.0326612 0.000909104 0)
(-0.0330791 0.00066288 0)
(-0.0333589 0.000405234 0)
(-0.0334953 0.000137969 0)
(-0.0334841 -0.000136825 0)
(-0.0333223 -0.000416777 0)
(-0.0330082 -0.00069925 0)
(-0.0325415 -0.000981366 0)
(-0.0319237 -0.00126004 0)
(-0.0311577 -0.001532 0)
(-0.0302483 -0.00179389 0)
(-0.0292021 -0.00204225 0)
(-0.0280272 -0.00227363 0)
(-0.0267336 -0.00248466 0)
(-0.0253332 -0.00267207 0)
(-0.0238393 -0.00283282 0)
(-0.0222666 -0.00296414 0)
(-0.0206312 -0.00306359 0)
(-0.0189505 -0.00312917 0)
(-0.0172425 -0.00315931 0)
(-0.015526 -0.00315301 0)
(-0.0138203 -0.00310981 0)
(-0.0121445 -0.00302987 0)
(-0.0105176 -0.00291396 0)
(-0.00895789 -0.00276353 0)
(-0.00748288 -0.00258067 0)
(-0.00610868 -0.00236814 0)
(-0.00484981 -0.00212941 0)
(-0.00371875 -0.00186861 0)
(-0.00272561 -0.00159065 0)
(-0.00187773 -0.00130125 0)
(-0.00117923 -0.00100708 0)
(-0.000630577 -0.00071596 0)
(-0.000228067 -0.000437168 0)
(3.67859e-05 -0.000181851 0)
(0.00017789 3.63739e-05 0)
(0.000214977 0.000200785 0)
(0.000174217 0.000290992 0)
(9.30799e-05 0.000282693 0)
(2.40389e-05 0.000147341 0)
(-2.11366e-06 -8.44545e-05 0)
(-6.72682e-05 2.08519e-05 0)
(-0.000264107 0.000295468 0)
(-0.000609826 0.000668138 0)
(-0.00111693 0.00109104 0)
(-0.00179164 0.00153026 0)
(-0.00263297 0.00196235 0)
(-0.00363453 0.00237182 0)
(-0.0047862 0.00274894 0)
(-0.00607525 0.00308808 0)
(-0.00748733 0.00338646 0)
(-0.0090072 0.00364326 0)
(-0.0106192 0.00385894 0)
(-0.0123079 0.00403474 0)
(-0.0140579 0.00417233 0)
(-0.0158543 0.00427351 0)
(-0.0176829 0.00434009 0)
(-0.0195298 0.00437372 0)
(-0.0213815 0.00437581 0)
(-0.0232252 0.00434753 0)
(-0.0250482 0.00428981 0)
(-0.0268383 0.0042033 0)
(-0.0285833 0.00408845 0)
(-0.0302712 0.00394556 0)
(-0.0318904 0.00377483 0)
(-0.0334292 0.00357641 0)
(-0.0348761 0.00335048 0)
(-0.0362197 0.00309732 0)
(-0.037449 0.00281738 0)
(-0.0385532 0.00251132 0)
(-0.039522 0.00218009 0)
(-0.0403455 0.00182495 0)
(-0.0410147 0.00144757 0)
(-0.0415212 0.00104999 0)
(-0.0418578 0.000634694 0)
(-0.0420183 0.000204607 0)
(-0.0419979 -0.00023691 0)
(-0.041793 -0.000686069 0)
(-0.0414021 -0.00113868 0)
(-0.040825 -0.00159018 0)
(-0.0400637 -0.0020357 0)
(-0.039122 -0.00247013 0)
(-0.0380056 -0.00288816 0)
(-0.0367227 -0.00328442 0)
(-0.0352833 -0.00365351 0)
(-0.0336994 -0.00399017 0)
(-0.0319851 -0.00428933 0)
(-0.0301565 -0.00454626 0)
(-0.0282313 -0.00475664 0)
(-0.0262287 -0.00491671 0)
(-0.0241694 -0.00502335 0)
(-0.022075 -0.00507418 0)
(-0.0199679 -0.00506761 0)
(-0.0178709 -0.00500296 0)
(-0.015807 -0.00488051 0)
(-0.0137988 -0.00470151 0)
(-0.0118682 -0.00446823 0)
(-0.0100359 -0.004184 0)
(-0.00832137 -0.00385319 0)
(-0.00674179 -0.00348129 0)
(-0.00531216 -0.00307485 0)
(-0.0040446 -0.00264163 0)
(-0.00294798 -0.00219062 0)
(-0.00202744 -0.00173223 0)
(-0.00128393 -0.00127853 0)
(-0.000713665 -0.000843558 0)
(-0.000307659 -0.000443815 0)
(-5.11246e-05 -9.88681e-05 0)
(7.6827e-05 0.000167936 0)
(0.000103708 0.000328862 0)
(6.75569e-05 0.000351173 0)
(1.96766e-05 0.000194225 0)
(-1.36912e-05 -3.75697e-05 0)
(-0.00013284 0.000197344 0)
(-0.000435888 0.000626982 0)
(-0.000924814 0.00117057 0)
(-0.00160425 0.00177213 0)
(-0.00247676 0.00239079 0)
(-0.00353851 0.00299748 0)
(-0.0047808 0.0035724 0)
(-0.00619152 0.00410268 0)
(-0.00775617 0.00458057 0)
(-0.00945859 0.00500198 0)
(-0.0112817 0.00536542 0)
(-0.013208 0.00567113 0)
(-0.0152201 0.00592048 0)
(-0.0173005 0.00611544 0)
(-0.0194324 0.00625829 0)
(-0.0215993 0.00635131 0)
(-0.0237852 0.00639662 0)
(-0.0259747 0.0063961 0)
(-0.0281527 0.00635132 0)
(-0.0303043 0.0062635 0)
(-0.0324153 0.00613359 0)
(-0.0344714 0.00596225 0)
(-0.0364586 0.00574994 0)
(-0.0383633 0.00549704 0)
(-0.0401716 0.00520385 0)
(-0.0418703 0.00487076 0)
(-0.0434463 0.00449829 0)
(-0.0448865 0.00408721 0)
(-0.0461787 0.00363862 0)
(-0.047311 0.00315399 0)
(-0.0482721 0.0026353 0)
(-0.0490517 0.00208502 0)
(-0.0496403 0.0015062 0)
(-0.0500298 0.000902483 0)
(-0.0502132 0.000278134 0)
(-0.0501852 -0.000361983 0)
(-0.0499421 -0.00101241 0)
(-0.049482 -0.00166714 0)
(-0.0488052 -0.00231967 0)
(-0.047914 -0.00296306 0)
(-0.0468128 -0.00359004 0)
(-0.0455085 -0.00419312 0)
(-0.0440105 -0.00476466 0)
(-0.0423301 -0.00529707 0)
(-0.0404814 -0.00578291 0)
(-0.0384804 -0.00621504 0)
(-0.0363454 -0.0065868 0)
(-0.0340966 -0.00689212 0)
(-0.031756 -0.00712569 0)
(-0.0293472 -0.00728313 0)
(-0.0268947 -0.00736108 0)
(-0.024424 -0.00735731 0)
(-0.0219614 -0.00727089 0)
(-0.0195328 -0.0071022 0)
(-0.0171642 -0.00685303 0)
(-0.0148805 -0.00652661 0)
(-0.0127056 -0.00612768 0)
(-0.0106616 -0.00566247 0)
(-0.00876841 -0.00513877 0)
(-0.00704326 -0.00456592 0)
(-0.00550028 -0.0039549 0)
(-0.00414993 -0.00331844 0)
(-0.00299859 -0.00267112 0)
(-0.00204801 -0.00202969 0)
(-0.00129493 -0.00141333 0)
(-0.000730563 -0.000844206 0)
(-0.000340171 -0.000347992 0)
(-0.000102782 4.53199e-05 0)
(9.25071e-06 0.000300778 0)
(3.25417e-05 0.000377566 0)
(1.3631e-05 0.000224629 0)
(-2.51897e-05 4.40703e-05 0)
(-0.000200049 0.00046131 0)
(-0.00061421 0.00108725 0)
(-0.0012532 0.00183511 0)
(-0.00211255 0.00264299 0)
(-0.00319011 0.00346464 0)
(-0.00447831 0.00426641 0)
(-0.00596543 0.00502482 0)
(-0.00763698 0.00572428 0)
(-0.00947638 0.00635508 0)
(-0.0114657 0.00691191 0)
(-0.013586 0.00739259 0)
(-0.0158181 0.00779714 0)
(-0.0181429 0.00812699 0)
(-0.0205411 0.00838441 0)
(-0.0229942 0.00857206 0)
(-0.0254838 0.00869269 0)
(-0.0279921 0.00874889 0)
(-0.0305017 0.00874296 0)
(-0.0329958 0.00867687 0)
(-0.0354577 0.00855218 0)
(-0.0378711 0.0083701 0)
(-0.0402199 0.00813155 0)
(-0.0424885 0.00783719 0)
(-0.0446611 0.0074876 0)
(-0.0467225 0.0070833 0)
(-0.0486575 0.00662493 0)
(-0.0504513 0.00611335 0)
(-0.0520896 0.00554974 0)
(-0.0535585 0.00493571 0)
(-0.0548447 0.00427342 0)
(-0.0559358 0.00356563 0)
(-0.0568202 0.00281581 0)
(-0.0574876 0.00202816 0)
(-0.057929 0.00120768 0)
(-0.0581368 0.000360132 0)
(-0.0581051 -0.000507898 0)
(-0.05783 -0.00138908 0)
(-0.0573096 -0.00227535 0)
(-0.0565442 -0.00315804 0)
(-0.0555365 -0.0040279 0)
(-0.0542916 -0.00487527 0)
(-0.0528171 -0.00569019 0)
(-0.0511232 -0.00646256 0)
(-0.0492228 -0.00718232 0)
(-0.0471314 -0.00783962 0)
(-0.0448666 -0.00842502 0)
(-0.0424487 -0.00892971 0)
(-0.0399001 -0.00934565 0)
(-0.0372451 -0.00966584 0)
(-0.0345097 -0.00988444 0)
(-0.0317211 -0.009997 0)
(-0.0289076 -0.0100006 0)
(-0.0260982 -0.0098939 0)
(-0.0233219 -0.00967744 0)
(-0.0206075 -0.00935357 0)
(-0.0179828 -0.00892656 0)
(-0.0154744 -0.00840268 0)
(-0.0131072 -0.00779021 0)
(-0.0109035 -0.00709945 0)
(-0.00888283 -0.0063428 0)
(-0.00706142 -0.00553479 0)
(-0.00545146 -0.00469216 0)
(-0.00406079 -0.00383402 0)
(-0.00289242 -0.00298206 0)
(-0.00194404 -0.00216089 0)
(-0.00120771 -0.00139846 0)
(-0.00066948 -0.000726618 0)
(-0.000309123 -0.000181866 0)
(-9.97911e-05 0.000193971 0)
(-7.68018e-06 0.000352763 0)
(6.86882e-06 0.000235122 0)
(-3.63492e-05 0.000160461 0)
(-0.000267008 0.00081462 0)
(-0.000793949 0.00168007 0)
(-0.00158605 0.00266678 0)
(-0.00262914 0.00370903 0)
(-0.00391567 0.00475676 0)
(-0.00543366 0.00577291 0)
(-0.00716782 0.00673118 0)
(-0.00910082 0.00761377 0)
(-0.0112138 0.0084094 0)
(-0.0134868 0.00911172 0)
(-0.0158991 0.00971803 0)
(-0.01843 0.0102281 0)
(-0.0210586 0.0106436 0)
(-0.0237642 0.0109668 0)
(-0.0265266 0.011201 0)
(-0.0293258 0.0113493 0)
(-0.0321426 0.0114147 0)
(-0.0349578 0.0113999 0)
(-0.0377529 0.0113073 0)
(-0.0405097 0.0111388 0)
(-0.0432102 0.0108959 0)
(-0.0458368 0.0105797 0)
(-0.0483721 0.0101912 0)
(-0.0507988 0.00973115 0)
(-0.0531001 0.00920033 0)
(-0.0552594 0.00859972 0)
(-0.0572604 0.00793055 0)
(-0.0590873 0.0071945 0)
(-0.060725 0.00639381 0)
(-0.062159 0.00553138 0)
(-0.0633756 0.00461093 0)
(-0.0643625 0.00363701 0)
(-0.0651083 0.00261513 0)
(-0.0656033 0.00155175 0)
(-0.0658392 0.000454361 0)
(-0.0658097 -0.000668607 0)
(-0.0655107 -0.00180775 0)
(-0.0649399 -0.0029528 0)
(-0.0640979 -0.00409268 0)
(-0.0629873 -0.00521565 0)
(-0.0616139 -0.00630945 0)
(-0.0599857 -0.00736145 0)
(-0.0581139 -0.00835885 0)
(-0.0560123 -0.00928892 0)
(-0.0536974 -0.0101392 0)
(-0.0511886 -0.0108977 0)
(-0.0485076 -0.0115533 0)
(-0.0456786 -0.0120958 0)
(-0.042728 -0.0125163 0)
(-0.0396838 -0.0128073 0)
(-0.0365758 -0.0129633 0)
(-0.0334347 -0.0129803 0)
(-0.0302921 -0.0128567 0)
(-0.0271795 -0.0125931 0)
(-0.0241286 -0.0121923 0)
(-0.0211699 -0.0116598 0)
(-0.0183327 -0.0110034 0)
(-0.0156444 -0.0102335 0)
(-0.0131299 -0.00936316 0)
(-0.0108112 -0.008408 0)
(-0.00870655 -0.00738629 0)
(-0.00683015 -0.00631906 0)
(-0.00519166 -0.00523013 0)
(-0.00379566 -0.00414637 0)
(-0.00264131 -0.00309795 0)
(-0.00172202 -0.00211866 0)
(-0.00102521 -0.00124649 0)
(-0.000532052 -0.000524252 0)
(-0.000217174 -1.70347e-07 0)
(-5.04381e-05 0.000271194 0)
(-7.83182e-08 0.000223995 0)
(-4.70727e-05 0.000310969 0)
(-0.000332728 0.00125718 0)
(-0.000972102 0.00240639 0)
(-0.00191773 0.00366745 0)
(-0.0031456 0.00497257 0)
(-0.00464236 0.00626939 0)
(-0.00639118 0.00751863 0)
(-0.00837275 0.00869207 0)
(-0.0105666 0.00977037 0)
(-0.0129513 0.0107412 0)
(-0.0155046 0.0115974 0)
(-0.0182043 0.012336 0)
(-0.0210276 0.0129567 0)
(-0.0239524 0.0134613 0)
(-0.0269564 0.0138525 0)
(-0.030018 0.0141338 0)
(-0.0331159 0.0143088 0)
(-0.0362294 0.0143809 0)
(-0.0393379 0.0143534 0)
(-0.0424216 0.0142289 0)
(-0.0454607 0.0140096 0)
(-0.0484359 0.0136973 0)
(-0.0513281 0.0132935 0)
(-0.0541185 0.0127993 0)
(-0.0567885 0.0122158 0)
(-0.0593198 0.011544 0)
(-0.0616944 0.0107853 0)
(-0.0638949 0.0099414 0)
(-0.0659042 0.00901448 0)
(-0.067706 0.00800749 0)
(-0.0692847 0.0069242 0)
(-0.0706256 0.00576933 0)
(-0.0717154 0.00454864 0)
(-0.0725419 0.00326906 0)
(-0.0730946 0.00193866 0)
(-0.0733646 0.000566729 0)
(-0.0733452 -0.000836276 0)
(-0.0730318 -0.00225875 0)
(-0.0724219 -0.00368804 0)
(-0.0715158 -0.00511054 0)
(-0.0703165 -0.00651182 0)
(-0.0688297 -0.00787684 0)
(-0.067064 -0.00919012 0)
(-0.0650309 -0.010436 0)
(-0.0627452 -0.0115988 0)
(-0.0602242 -0.0126634 0)
(-0.0574884 -0.0136149 0)
(-0.054561 -0.0144398 0)
(-0.0514676 -0.0151254 0)
(-0.0482363 -0.0156608 0)
(-0.0448973 -0.0160368 0)
(-0.0414822 -0.0162463 0)
(-0.0380242 -0.0162845 0)
(-0.0345572 -0.0161493 0)
(-0.0311153 -0.0158411 0)
(-0.0277328 -0.0153634 0)
(-0.0244429 -0.0147226 0)
(-0.0212776 -0.0139283 0)
(-0.018267 -0.012993 0)
(-0.0154386 -0.0119327 0)
(-0.0128168 -0.0107662 0)
(-0.0104223 -0.00951587 0)
(-0.00827164 -0.00820704 0)
(-0.00637652 -0.00686847 0)
(-0.00474351 -0.00553234 0)
(-0.00337363 -0.00423444 0)
(-0.0022621 -0.00301447 0)
(-0.00139822 -0.00191646 0)
(-0.000764993 -0.000989302 0)
(-0.000338991 -0.000287171 0)
(-9.41716e-05 0.000129746 0)
(-6.93968e-06 0.000190599 0)
(-5.73503e-05 0.000494694 0)
(-0.00039673 0.00178776 0)
(-0.00114693 0.00326535 0)
(-0.00224473 0.00483674 0)
(-0.00365638 0.00643359 0)
(-0.00536254 0.00800258 0)
(-0.00734127 0.00950333 0)
(-0.009569 0.0109066 0)
(-0.0120218 0.0121923 0)
(-0.0146754 0.0133475 0)
(-0.0175054 0.0143648 0)
(-0.0204875 0.0152411 0)
(-0.0235975 0.0159763 0)
(-0.0268115 0.0165724 0)
(-0.030106 0.0170325 0)
(-0.0334581 0.0173606 0)
(-0.0368453 0.0175607 0)
(-0.0402456 0.0176367 0)
(-0.0436372 0.0175922 0)
(-0.046999 0.0174302 0)
(-0.0503101 0.0171532 0)
(-0.0535499 0.0167634 0)
(-0.0566981 0.0162624 0)
(-0.0597346 0.0156517 0)
(-0.0626396 0.0149325 0)
(-0.0653936 0.0141064 0)
(-0.0679776 0.013175 0)
(-0.0703728 0.0121405 0)
(-0.0725611 0.0110057 0)
(-0.074525 0.00977436 0)
(-0.0762481 0.00845111 0)
(-0.0777146 0.00704178 0)
(-0.0789104 0.00555342 0)
(-0.0798223 0.00399445 0)
(-0.0804392 0.00237463 0)
(-0.0807515 0.000705176 0)
(-0.0807519 -0.00100134 0)
(-0.0804351 -0.00273099 0)
(-0.0797986 -0.00446861 0)
(-0.0788422 -0.00619793 0)
(-0.0775686 -0.00790169 0)
(-0.0759838 -0.00956193 0)
(-0.0740963 -0.0111602 0)
(-0.0719181 -0.0126776 0)
(-0.0694642 -0.0140957 0)
(-0.0667529 -0.015396 0)
(-0.0638054 -0.016561 0)
(-0.0606459 -0.0175742 0)
(-0.0573014 -0.0184205 0)
(-0.0538016 -0.0190867 0)
(-0.0501782 -0.0195616 0)
(-0.0464649 -0.0198365 0)
(-0.042697 -0.0199055 0)
(-0.0389108 -0.0197657 0)
(-0.0351428 -0.0194176 0)
(-0.0314299 -0.0188649 0)
(-0.0278081 -0.0181151 0)
(-0.0243121 -0.0171794 0)
(-0.0209748 -0.0160726 0)
(-0.0178266 -0.0148134 0)
(-0.0148945 -0.0134243 0)
(-0.012202 -0.0119314 0)
(-0.00976814 -0.0103648 0)
(-0.00760702 -0.00875821 0)
(-0.0057276 -0.00714919 0)
(-0.00413316 -0.00557925 0)
(-0.00282113 -0.00409401 0)
(-0.00178302 -0.00274347 0)
(-0.00100407 -0.0015824 0)
(-0.000463027 -0.000670576 0)
(-0.000138063 -7.3196e-05 0)
(-1.35994e-05 0.000134849 0)
(-6.72012e-05 0.000710603 0)
(-0.00045879 0.00240445 0)
(-0.00131743 0.00425484 0)
(-0.00256483 0.00617267 0)
(-0.00415773 0.00809029 0)
(-0.00607085 0.00995457 0)
(-0.008277 0.0117251 0)
(-0.0107482 0.0133726 0)
(-0.0134568 0.0148768 0)
(-0.0163757 0.0162249 0)
(-0.0194781 0.0174096 0)
(-0.0227376 0.0184281 0)
(-0.0261283 0.0192807 0)
(-0.029625 0.0199699 0)
(-0.0332028 0.0204992 0)
(-0.0368377 0.0208731 0)
(-0.0405059 0.0210962 0)
(-0.0441843 0.0211728 0)
(-0.0478503 0.0211069 0)
(-0.0514816 0.0209018 0)
(-0.0550562 0.0205605 0)
(-0.0585525 0.0200853 0)
(-0.0619491 0.0194782 0)
(-0.0652249 0.0187409 0)
(-0.0683591 0.0178749 0)
(-0.0713311 0.0168821 0)
(-0.0741207 0.0157646 0)
(-0.0767082 0.014525 0)
(-0.0790746 0.0131668 0)
(-0.0812013 0.0116946 0)
(-0.0830709 0.0101139 0)
(-0.0846669 0.00843176 0)
(-0.085974 0.00665647 0)
(-0.0869784 0.00479804 0)
(-0.087668 0.00286801 0)
(-0.0880327 0.000879557 0)
(-0.0880642 -0.00115254 0)
(-0.0877569 -0.00321195 0)
(-0.0871074 -0.0052809 0)
(-0.0861153 -0.00734034 0)
(-0.0847829 -0.0093701 0)
(-0.0831157 -0.0113491 0)
(-0.0811224 -0.0132557 0)
(-0.0788148 -0.015068 0)
(-0.0762084 -0.016764 0)
(-0.0733215 -0.0183222 0)
(-0.0701761 -0.019722 0)
(-0.0667973 -0.0209437 0)
(-0.0632132 -0.0219697 0)
(-0.0594545 -0.0227841 0)
(-0.0555548 -0.0233735 0)
(-0.0515494 -0.0237275 0)
(-0.0474758 -0.0238388 0)
(-0.0433724 -0.0237036 0)
(-0.0392785 -0.023322 0)
(-0.0352333 -0.0226982 0)
(-0.0312758 -0.0218405 0)
(-0.0274437 -0.0207616 0)
(-0.0237728 -0.0194786 0)
(-0.0202966 -0.018013 0)
(-0.017045 -0.0163908 0)
(-0.0140446 -0.0146423 0)
(-0.0113172 -0.012802 0)
(-0.0088799 -0.010909 0)
(-0.00674427 -0.00900611 0)
(-0.00491624 -0.0071408 0)
(-0.00339579 -0.00536458 0)
(-0.00217696 -0.00373338 0)
(-0.00124743 -0.00230775 0)
(-0.000588269 -0.00115283 0)
(-0.000181786 -0.000338473 0)
(-2.00312e-05 5.69141e-05 0)
(-7.66492e-05 0.000957615 0)
(-0.000518805 0.00310495 0)
(-0.001483 0.00537198 0)
(-0.00287657 0.00767216 0)
(-0.00464713 0.00993952 0)
(-0.00676349 0.0121222 0)
(-0.00919325 0.0141807 0)
(-0.0119039 0.0160864 0)
(-0.0148641 0.0178199 0)
(-0.0180437 0.0193688 0)
(-0.0214135 0.0207267 0)
(-0.0249449 0.0218914 0)
(-0.0286104 0.0228638 0)
(-0.0323833 0.0236469 0)
(-0.0362376 0.0242452 0)
(-0.0401479 0.0246637 0)
(-0.0440897 0.0249074 0)
(-0.0480388 0.0249812 0)
(-0.0519717 0.0248895 0)
(-0.0558652 0.0246361 0)
(-0.0596963 0.0242242 0)
(-0.0634427 0.0236564 0)
(-0.067082 0.0229349 0)
(-0.0705922 0.0220617 0)
(-0.0739515 0.0210387 0)
(-0.0771385 0.019868 0)
(-0.0801322 0.0185522 0)
(-0.0829119 0.0170945 0)
(-0.0854575 0.0154989 0)
(-0.0877498 0.0137708 0)
(-0.0897703 0.0119168 0)
(-0.0915015 0.00994497 0)
(-0.0929275 0.00786508 0)
(-0.0940334 0.00568868 0)
(-0.0948064 0.00342909 0)
(-0.0952352 0.00110153 0)
(-0.0953111 -0.00127699 0)
(-0.0950274 -0.00368767 0)
(-0.0943801 -0.00611009 0)
(-0.093368 -0.00852232 0)
(-0.091993 -0.0109011 0)
(-0.0902599 -0.0132223 0)
(-0.088177 -0.0154609 0)
(-0.0857561 -0.0175916 0)
(-0.0830123 -0.019589 0)
(-0.0799642 -0.0214282 0)
(-0.0766342 -0.0230851 0)
(-0.0730478 -0.0245372 0)
(-0.069234 -0.0257634 0)
(-0.0652248 -0.0267451 0)
(-0.0610549 -0.0274667 0)
(-0.0567616 -0.0279155 0)
(-0.0523842 -0.0280826 0)
(-0.0479634 -0.0279632 0)
(-0.0435411 -0.0275568 0)
(-0.0391594 -0.0268676 0)
(-0.03486 -0.0259048 0)
(-0.0306839 -0.0246824 0)
(-0.0266701 -0.0232198 0)
(-0.0228554 -0.0215413 0)
(-0.0192732 -0.0196763 0)
(-0.0159533 -0.0176592 0)
(-0.0129208 -0.0155295 0)
(-0.010196 -0.0133311 0)
(-0.00779363 -0.0111128 0)
(-0.00572251 -0.00892763 0)
(-0.00398551 -0.0068333 0)
(-0.00257948 -0.00489169 0)
(-0.0014947 -0.00316909 0)
(-0.000714558 -0.00173595 0)
(-0.000225342 -0.000666649 0)
(-2.62615e-05 -4.29892e-05 0)
(-8.57144e-05 0.00123464 0)
(-0.000576723 0.00388671 0)
(-0.00164326 0.00661336 0)
(-0.00317898 0.00933129 0)
(-0.00512273 0.0119771 0)
(-0.00743762 0.0145011 0)
(-0.0100861 0.0168655 0)
(-0.0130311 0.0190434 0)
(-0.0162377 0.0210167 0)
(-0.0196726 0.0227742 0)
(-0.023304 0.0243107 0)
(-0.0271013 0.0256251 0)
(-0.0310354 0.0267192 0)
(-0.035078 0.027597 0)
(-0.0392019 0.0282638 0)
(-0.0433809 0.0287253 0)
(-0.0475893 0.0289871 0)
(-0.0518023 0.0290548 0)
(-0.0559953 0.0289332 0)
(-0.0601446 0.0286265 0)
(-0.0642266 0.0281381 0)
(-0.0682178 0.027471 0)
(-0.0720954 0.0266278 0)
(-0.0758365 0.0256105 0)
(-0.0794187 0.0244214 0)
(-0.0828196 0.0230629 0)
(-0.0860175 0.021538 0)
(-0.0889909 0.0198504 0)
(-0.0917189 0.0180049 0)
(-0.0941813 0.0160075 0)
(-0.0963588 0.0138658 0)
(-0.0982331 0.0115891 0)
(-0.0997873 0.00918849 0)
(-0.101006 0.00667707 0)
(-0.101874 0.00406998 0)
(-0.102381 0.00138446 0)
(-0.102516 -0.00136023 0)
(-0.102271 -0.0041428 0)
(-0.101643 -0.00694011 0)
(-0.100628 -0.00972732 0)
(-0.0992271 -0.0124781 0)
(-0.0974454 -0.0151649 0)
(-0.09529 -0.0177594 0)
(-0.0927721 -0.0202327 0)
(-0.0899065 -0.0225558 0)
(-0.0867117 -0.0247002 0)
(-0.0832099 -0.0266384 0)
(-0.0794272 -0.0283439 0)
(-0.0753932 -0.0297928 0)
(-0.0711406 -0.0309633 0)
(-0.0667056 -0.0318367 0)
(-0.0621271 -0.0323983 0)
(-0.0574463 -0.032637 0)
(-0.0527062 -0.0325468 0)
(-0.0479513 -0.0321262 0)
(-0.0432266 -0.0313794 0)
(-0.0385771 -0.0303161 0)
(-0.0340471 -0.0289516 0)
(-0.0296791 -0.0273072 0)
(-0.0255136 -0.02541 0)
(-0.0215877 -0.0232929 0)
(-0.017935 -0.0209947 0)
(-0.0145844 -0.0185593 0)
(-0.0115595 -0.0160361 0)
(-0.00887873 -0.0134795 0)
(-0.00655416 -0.0109488 0)
(-0.00459186 -0.00850764 0)
(-0.00299167 -0.00622406 0)
(-0.00174659 -0.00417023 0)
(-0.000842343 -0.00242199 0)
(-0.000268949 -0.00105837 0)
(-3.23486e-05 -0.000164727 0)
(-9.44114e-05 0.00154057 0)
(-0.000632503 0.00474704 0)
(-0.00179794 0.00797516 0)
(-0.00347132 0.0111455 0)
(-0.00558313 0.0141981 0)
(-0.00809101 0.0170859 0)
(-0.0109524 0.0197741 0)
(-0.0141258 0.022238 0)
(-0.0175726 0.0244613 0)
(-0.0212564 0.0264351 0)
(-0.0251429 0.0281554 0)
(-0.0291996 0.0296228 0)
(-0.0333955 0.0308404 0)
(-0.0377009 0.0318135 0)
(-0.0420877 0.0325481 0)
(-0.0465285 0.0330511 0)
(-0.0509969 0.0333288 0)
(-0.0554673 0.0333873 0)
(-0.0599146 0.0332319 0)
(-0.0643141 0.0328673 0)
(-0.0686418 0.0322974 0)
(-0.0728738 0.0315252 0)
(-0.0769863 0.0305536 0)
(-0.0809561 0.029385 0)
(-0.08476 0.0280219 0)
(-0.088375 0.0264669 0)
(-0.0917786 0.0247235 0)
(-0.0949487 0.0227959 0)
(-0.0978635 0.0206894 0)
(-0.100502 0.0184109 0)
(-0.102844 0.0159688 0)
(-0.104871 0.0133736 0)
(-0.106564 0.0106376 0)
(-0.107907 0.00777559 0)
(-0.108885 0.00480439 0)
(-0.109485 0.00174325 0)
(-0.109695 -0.00138632 0)
(-0.109507 -0.00456055 0)
(-0.108915 -0.00775358 0)
(-0.107915 -0.0109376 0)
(-0.106508 -0.0140831 0)
(-0.104696 -0.0171593 0)
(-0.102486 -0.0201341 0)
(-0.099888 -0.022975 0)
(-0.0969168 -0.0256493 0)
(-0.0935901 -0.0281247 0)
(-0.0899299 -0.0303695 0)
(-0.0859623 -0.0323539 0)
(-0.0817172 -0.03405 0)
(-0.0772283 -0.0354327 0)
(-0.0725328 -0.0364802 0)
(-0.0676711 -0.0371749 0)
(-0.0626862 -0.0375036 0)
(-0.0576237 -0.0374582 0)
(-0.0525307 -0.0370365 0)
(-0.0474552 -0.0362419 0)
(-0.0424457 -0.0350844 0)
(-0.03755 -0.0335806 0)
(-0.0328148 -0.0317534 0)
(-0.0282843 -0.0296327 0)
(-0.0240001 -0.0272548 0)
(-0.0199997 -0.0246626 0)
(-0.0163161 -0.021905 0)
(-0.0129771 -0.0190367 0)
(-0.0100049 -0.016118 0)
(-0.00741541 -0.0132144 0)
(-0.005218 -0.0103959 0)
(-0.0034158 -0.00773682 0)
(-0.00200463 -0.00531553 0)
(-0.0009725 -0.00321347 0)
(-0.000312981 -0.00151462 0)
(-3.83706e-05 -0.000308337 0)
(-0.000102748 0.00187431 0)
(-0.000686102 0.00568308 0)
(-0.00194677 0.00945323 0)
(-0.00375294 0.0131098 0)
(-0.00602715 0.0165967 0)
(-0.00872176 0.0198707 0)
(-0.0117894 0.0229003 0)
(-0.0151843 0.0256635 0)
(-0.0188643 0.0281472 0)
(-0.0227899 0.0303445 0)
(-0.0269243 0.0322539 0)
(-0.0312331 0.0338776 0)
(-0.0356835 0.0352205 0)
(-0.0402447 0.0362893 0)
(-0.0448872 0.0370914 0)
(-0.049583 0.0376345 0)
(-0.0543048 0.0379259 0)
(-0.0590263 0.0379724 0)
(-0.063722 0.03778 0)
(-0.0683667 0.0373537 0)
(-0.0729357 0.0366977 0)
(-0.0774048 0.0358156 0)
(-0.0817497 0.0347101 0)
(-0.0859467 0.0333841 0)
(-0.089972 0.0318403 0)
(-0.0938022 0.0300816 0)
(-0.0974141 0.0281117 0)
(-0.100785 0.0259354 0)
(-0.103892 0.0235585 0)
(-0.106715 0.0209886 0)
(-0.109231 0.018235 0)
(-0.11142 0.0153092 0)
(-0.113265 0.0122248 0)
(-0.114746 0.00899805 0)
(-0.115848 0.00564747 0)
(-0.116557 0.00219424 0)
(-0.11686 -0.00133791 0)
(-0.116747 -0.00492278 0)
(-0.11621 -0.00853179 0)
(-0.115246 -0.0121342 0)
(-0.113851 -0.0156973 0)
(-0.112028 -0.0191867 0)
(-0.109783 -0.0225669 0)
(-0.107124 -0.0258014 0)
(-0.104064 -0.0288537 0)
(-0.100621 -0.0316871 0)
(-0.0968166 -0.0342661 0)
(-0.0926761 -0.0365566 0)
(-0.0882297 -0.0385268 0)
(-0.0835117 -0.0401477 0)
(-0.0785602 -0.041394 0)
(-0.0734171 -0.0422449 0)
(-0.0681273 -0.0426844 0)
(-0.0627387 -0.0427024 0)
(-0.0573012 -0.0422948 0)
(-0.051866 -0.0414645 0)
(-0.0464854 -0.0402214 0)
(-0.0412111 -0.0385826 0)
(-0.0360941 -0.0365729 0)
(-0.031183 -0.0342247 0)
(-0.026524 -0.0315776 0)
(-0.0221592 -0.0286787 0)
(-0.0181262 -0.0255818 0)
(-0.0144575 -0.0223471 0)
(-0.0111795 -0.0190412 0)
(-0.00831195 -0.0157357 0)
(-0.0058683 -0.0125074 0)
(-0.00385502 -0.0094373 0)
(-0.00227091 -0.00661019 0)
(-0.00110621 -0.00411359 0)
(-0.000357908 -0.00203689 0)
(-4.44178e-05 -0.000474085 0)
(-0.000110726 0.00223474 0)
(-0.00073746 0.00669186 0)
(-0.00208951 0.0110432 0)
(-0.00402324 0.0152187 0)
(-0.00645365 0.0191668 0)
(-0.00932813 0.0228487 0)
(-0.0125947 0.0262367 0)
(-0.0162034 0.0293127 0)
(-0.0201087 0.0320668 0)
(-0.0242681 0.0344951 0)
(-0.0286425 0.0365986 0)
(-0.0331954 0.0383819 0)
(-0.0378925 0.039852 0)
(-0.0427017 0.0410172 0)
(-0.0475926 0.0418864 0)
(-0.0525362 0.0424686 0)
(-0.0575045 0.0427721 0)
(-0.062471 0.0428044 0)
(-0.0674093 0.0425722 0)
(-0.0722941 0.0420811 0)
(-0.0771004 0.0413355 0)
(-0.0818033 0.0403393 0)
(-0.0863785 0.0390956 0)
(-0.0908017 0.0376073 0)