/*--------------------------------*- C++ -*----------------------------------*\
  =========                 |
  \\      /  F ield         | OpenFOAM: The Open Source CFD Toolbox
   \\    /   O peration     | Website:  https://openfoam.org
    \\  /    A nd           | Version:  dev
     \\/     M anipulation  |
\*---------------------------------------------------------------------------*/
FoamFile
{
    format      ascii;
    class       volScalarField;
    location    "14.85";
    object      p;
}
// * * * * * * * * * * * * * * * * * * * * * * * * * * * * * * * * * * * * * //

dimensions      [0 2 -2 0 0 0 0];

internalField   nonuniform List<scalar> 
5184
(
-1.83856e-08
-1.26623e-05
-9.86443e-05
-0.000251263
-0.000450232
-0.000678337
-0.00092132
-0.00116732
-0.00140718
-0.00163376
-0.00184167
-0.00202689
-0.0021865
-0.00231841
-0.00242114
-0.0024937
-0.00253541
-0.00254584
-0.00252472
-0.00247188
-0.00238724
-0.00227078
-0.00212256
-0.00194272
-0.00173151
-0.00148929
-0.00121663
-0.000914272
-0.000583211
-0.000224722
0.000159607
0.000567848
0.000997717
0.00144654
0.00191128
0.00238848
0.00287435
0.00336471
0.00385512
0.00434083
0.00481691
0.0052783
0.00571989
0.0061366
0.00652349
0.00687586
0.00718935
0.00746004
0.00768457
0.0078602
0.00798492
0.00805754
0.00807769
0.00804596
0.00796381
0.0078337
0.007659
0.00744402
0.00719395
0.00691483
0.00661351
0.00629759
0.00597534
0.00565572
0.00534826
0.00506303
0.00481051
0.00460129
0.00444534
0.00435112
0.00432411
0.00435124
1.26562e-05
-4.63371e-08
-7.45755e-05
-0.00020209
-0.00036697
-0.000556749
-0.000760508
-0.000968686
-0.00117338
-0.00136819
-0.00154811
-0.00170923
-0.00184858
-0.00196395
-0.0020537
-0.00211663
-0.00215189
-0.00215887
-0.00213717
-0.00208648
-0.00200665
-0.00189757
-0.00175928
-0.00159186
-0.00139556
-0.00117074
-0.000917943
-0.000637895
-0.000331563
-1.6741e-07
0.000354789
0.000731488
0.00112778
0.00154119
0.00196886
0.00240764
0.00285401
0.00330416
0.003754
0.00419922
0.00463532
0.00505772
0.00546178
0.00584292
0.0061967
0.00651891
0.00680565
0.00705343
0.00725928
0.00742082
0.00753634
0.00760483
0.0076261
0.00760078
0.00753031
0.00741704
0.00726413
0.00707559
0.00685619
0.00661147
0.00634767
0.00607165
0.00579084
0.00551315
0.00524686
0.00500053
0.00478283
0.0046021
0.00446565
0.00437942
0.00435081
0.00437826
9.91289e-05
7.43312e-05
-9.06089e-07
-0.000118212
-0.000265565
-0.000433351
-0.000612869
-0.00079631
-0.000976994
-0.00114937
-0.00130895
-0.00145214
-0.00157614
-0.00167881
-0.00175848
-0.00181393
-0.00184422
-0.00184868
-0.00182681
-0.00177825
-0.00170277
-0.00160022
-0.00147057
-0.00131389
-0.00113037
-0.000920331
-0.000684277
-0.00042289
-0.000137076
0.000172019
0.000502986
0.000854123
0.00122342
0.00160856
0.0020069
0.00241547
0.00283101
0.00324997
0.00366855
0.00408275
0.0044884
0.00488125
0.005257
0.00561143
0.00594042
0.0062401
0.00650689
0.00673759
0.00692949
0.00708044
0.0071889
0.00725401
0.00727567
0.00725451
0.00719198
0.0070903
0.00695247
0.00678226
0.00658413
0.00636324
0.00612533
0.0058767
0.00562407
0.00537457
0.00513554
0.00491443
0.0047187
0.0045554
0.00443056
0.00434941
0.00432157
0.00435202
0.000253945
0.000202488
0.000114809
-3.89181e-06
-0.000145967
-0.000303664
-0.000469865
-0.000638208
-0.00080318
-0.000960099
-0.0011051
-0.00123506
-0.00134748
-0.00144039
-0.00151228
-0.00156197
-0.00158855
-0.00159134
-0.00156982
-0.00152359
-0.00145238
-0.001356
-0.00123436
-0.00108749
-0.000915518
-0.000718719
-0.000497519
-0.000252526
1.54417e-05
0.000305332
0.000615839
0.000945388
0.00129211
0.00165385
0.00202811
0.00241213
0.00280285
0.00319692
0.00359077
0.00398062
0.00436256
0.00473255
0.00508656
0.00542059
0.00573076
0.0060134
0.00626512
0.00648294
0.00666429
0.00680715
0.00691009
0.00697234
0.00699381
0.00697515
0.00691777
0.00682378
0.00669607
0.00653819
0.00635438
0.00614947
0.00592883
0.00569828
0.00546404
0.00523256
0.0050105
0.00480452
0.00462121
0.00446685
0.00434687
0.00426631
0.00423521
0.00426026
0.000458282
0.000369704
0.000261275
0.000133865
-1.01065e-05
-0.000164499
-0.000323546
-0.000482258
-0.000636235
-0.000781687
-0.000915441
-0.0010349
-0.00113794
-0.0012229
-0.00128844
-0.00133351
-0.00135729
-0.00135913
-0.00133852
-0.00129506
-0.00122844
-0.00113844
-0.00102492
-0.000887831
-0.000727252
-0.000543373
-0.00033654
-0.000107269
0.000143728
0.000415516
0.000706915
0.00101648
0.0013425
0.00168295
0.00203552
0.00239763
0.00276637
0.00313861
0.00351096
0.00387983
0.00424148
0.00459209
0.00492779
0.00524475
0.00553926
0.0058078
0.00604712
0.00625434
0.00642701
0.00656317
0.00666147
0.00672114
0.00674213
0.00672506
0.00667127
0.00658281
0.00646242
0.0063135
0.00614005
0.00594665
0.00573834
0.00552055
0.00529901
0.00507968
0.00486857
0.00467173
0.00449504
0.00434412
0.00422393
0.00413924
0.00409879
0.00410842
0.000696007
0.000564113
0.000429191
0.000287485
0.000135975
-2.05908e-05
-0.000177608
-0.000331352
-0.000478486
-0.000616094
-0.000741716
-0.000853303
-0.000949192
-0.00102803
-0.00108874
-0.00113045
-0.00115246
-0.00115418
-0.00113516
-0.00109499
-0.00103335
-0.000949989
-0.000844708
-0.000717403
-0.000568061
-0.000396787
-0.000203828
1.04117e-05
0.000245338
0.000500143
0.000773787
0.00106497
0.00137213
0.00169339
0.00202663
0.00236939
0.00271895
0.00307233
0.00342631
0.00377744
0.00412214
0.00445671
0.00477742
0.00508056
0.0053625
0.00561982
0.00584936
0.00604827
0.00621415
0.00634508
0.0064397
0.00649726
0.00651766
0.00650149
0.00645003
0.00636523
0.00624972
0.00610675
0.00594015
0.00575424
0.0055538
0.00534393
0.00512999
0.00491746
0.0047119
0.00451877
0.00434341
0.00419087
0.00406568
0.00397226
0.00391705
0.00390379
0.000953352
0.000774868
0.000609663
0.000449516
0.000286057
0.000122881
-3.63984e-05
-0.00018919
-0.00033316
-0.000466229
-0.000586627
-0.000692891
-0.000783808
-0.000858406
-0.000915882
-0.000955572
-0.000976929
-0.000979477
-0.0009628
-0.000926527
-0.000870328
-0.000793912
-0.000697036
-0.000579521
-0.000441267
-0.000282279
-0.000102687
9.72278e-05
0.000317004
0.000555972
0.00081324
0.00108766
0.00137782
0.00168201
0.00199825
0.00232423
0.00265739
0.00299487
0.00333357
0.00367019
0.00400124
0.00432311
0.00463215
0.00492469
0.00519717
0.0054462
0.00566861
0.00586157
0.00602267
0.00614996
0.00624204
0.00629813
0.00631807
0.00630237
0.00625225
0.00616955
0.00605681
0.00591714
0.0057542
0.00557214
0.00537551
0.00516914
0.00495807
0.00474746
0.00454243
0.00434805
0.00416915
0.00401029
0.00387572
0.00376945
0.00369514
0.003654
0.00121824
0.000991845
0.000794111
0.00061268
0.000434079
0.000260942
9.60545e-05
-5.90185e-05
-0.000202871
-0.000334212
-0.000451943
-0.00055517
-0.00064315
-0.000715291
-0.000771091
-0.00081012
-0.000831993
-0.000836356
-0.000822864
-0.000791175
-0.000740958
-0.000671889
-0.000583674
-0.000476053
-0.000348831
-0.000201902
-3.52715e-05
0.000150916
0.000356341
0.000580489
0.000822619
0.00108174
0.0013566
0.00164564
0.00194702
0.00225859
0.0025779
0.00290221
0.00322855
0.00355366
0.00387415
0.00418645
0.00448694
0.00477198
0.00503799
0.00528155
0.00549946
0.00568884
0.00584721
0.00597256
0.0060634
0.00611887
0.00613872
0.00612339
0.00607398
0.00599224
0.0058806
0.00574205
0.00558013
0.00539882
0.0052025
0.00499579
0.0047835
0.0045705
0.00436163
0.00416159
0.00397485
0.00380557
0.00365776
0.00353514
0.00343842
0.00336618
0.00148045
0.00120592
0.000974503
0.000769962
0.000574008
0.00038847
0.000215426
5.55184e-05
-9.06997e-05
-0.00022267
-0.00033994
-0.000442163
-0.00052907
-0.000600435
-0.000656066
-0.000695776
-0.000719358
-0.000726579
-0.00071717
-0.000690829
-0.000647221
-0.000585992
-0.000506785
-0.000409258
-0.000293117
-0.000158131
-4.16913e-06
0.000168765
0.00036051
0.00057071
0.000798788
0.00104392
0.001305
0.00158063
0.00186911
0.00216842
0.00247624
0.00278993
0.00310658
0.00342301
0.00373585
0.00404156
0.0043365
0.00461701
0.00487946
0.00512034
0.00533639
0.00552461
0.0056824
0.00580765
0.00589875
0.0059547
0.00597515
0.0059604
0.00591144
0.00582994
0.00571818
0.00557905
0.00541599
0.00523286
0.00503388
0.00482354
0.00460647
0.00438734
0.00417077
0.00396121
0.00376286
0.00357957
0.00341521
0.0032733
0.00315166
0.00304634
0.00173103
0.00140887
0.00114337
0.000914661
0.000699891
0.000500224
0.000317126
0.000150398
-1.83908e-07
-0.000134747
-0.000253454
-0.000356477
-0.000443998
-0.00051616
-0.000573077
-0.000614795
-0.000641288
-0.000652446
-0.000648078
-0.000627917
-0.000591626
-0.000538815
-0.000469063
-0.000381936
-0.000277028
-0.000153979
-1.25155e-05
0.000147516
0.000326117
0.000523102
0.000738063
0.00097034
0.001219
0.00148279
0.00176016
0.0020492
0.00234771
0.00265313
0.00296262
0.00327303
0.00358101
0.003883
0.00417532
0.00445422
0.00471599
0.00495702
0.00517389
0.00536347
0.00552299
0.00565018
0.00574326
0.00580108
0.00582311
0.00580952
0.00576116
0.00567956
0.0055669
0.00542596
0.00526007
0.005073
0.00486889
0.0046521
0.00442718
0.00419864
0.00397099
0.00374851
0.0035352
0.00333475
0.00315098
0.00298734
0.00283888
0.00269926
0.00196206
0.00159322
0.00129376
0.00104039
0.000805933
0.00059097
0.000396447
0.000221393
6.48586e-05
-7.39241e-05
-0.00019568
-0.000301093
-0.000390759
-0.000465186
-0.000524776
-0.000569805
-0.000600416
-0.000616622
-0.000618305
-0.000605225
-0.000577039
-0.000533316
-0.000473562
-0.000397249
-0.000303845
-0.000192855
-6.38517e-05
8.34861e-05
0.000249333
0.00043368
0.000636297
0.000856698
0.00109411
0.00134746
0.00161531
0.00189591
0.00218712
0.00248647
0.00279117
0.00309811
0.0034039
0.00370494
0.0039975
0.0042777
0.00454172
0.00478577
0.00500626
0.00519986
0.00536362
0.00549502
0.00559209
0.00565346
0.00567842
0.00566694
0.00561971
0.00553811
0.0054242
0.00528066
0.00511071
0.00491806
0.00470677
0.00448118
0.00424575
0.00400496
0.00376324
0.00352481
0.00329361
0.00307321
0.00286753
0.00268006
0.00250324
0.00232851
0.00216643
0.00175211
0.00141918
0.00114107
0.0008865
0.000655528
0.000448634
0.000264135
0.000100408
-4.39182e-05
-0.000170101
-0.000279292
-0.000372491
-0.000450549
-0.000514139
-0.000563753
-0.000599694
-0.000622086
-0.000630877
-0.000625848
-0.000606641
-0.000572772
-0.000523671
-0.0004587
-0.000377201
-0.00027853
-0.000162095
-2.73973e-05
0.000125918
0.00029803
0.000488896
0.000698213
0.000925384
0.00116949
0.00142924
0.00170301
0.00198876
0.00228409
0.00258625
0.00289212
0.0031983
0.00350113
0.00379675
0.00408118
0.0043504
0.00460044
0.00482749
0.00502798
0.00519869
0.00533685
0.00544023
0.0055072
0.0055368
0.00552879
0.00548365
0.00540259
0.00528753
0.00514103
0.00496624
0.0047668
0.00454675
0.0043104
0.00406221
0.00380669
0.00354828
0.00329123
0.00303949
0.00279664
0.00256681
0.00235365
0.00214713
0.00193662
0.00233763
0.00187921
0.00151353
0.00121093
0.000936148
0.0006888
0.000468928
0.000274182
0.000102303
-4.86421e-05
-0.000180418
-0.00029461
-0.000392606
-0.00047557
-0.000544428
-0.000599875
-0.000642363
-0.000672111
-0.000689118
-0.000693179
-0.00068391
-0.000660767
-0.000623089
-0.000570123
-0.000501071
-0.000415133
-0.000311537
-0.000189602
-4.87786e-05
0.000111311
0.00029082
0.000489641
0.000707359
0.000943219
0.0011961
0.00146447
0.00174642
0.00203961
0.00234131
0.00264842
0.0029575
0.00326478
0.0035663
0.0038579
0.00413537
0.00439451
0.00463124
0.00484169
0.00502234
0.00517012
0.00528247
0.00535745
0.00539383
0.00539107
0.00534944
0.00526992
0.00515428
0.00500494
0.00482497
0.00461797
0.00438797
0.00413931
0.00387649
0.00360411
0.00332671
0.00304865
0.00277398
0.0025064
0.00225034
0.00200975
0.00177227
0.00152526
0.00246959
0.00196856
0.00157106
0.00124442
0.000949607
0.000685789
0.000452597
0.000247052
6.62927e-05
-9.21444e-05
-0.000230502
-0.000350782
-0.000454729
-0.000543796
-0.000619149
-0.000681663
-0.000731922
-0.000770226
-0.000796614
-0.00081088
-0.000812601
-0.000801165
-0.000775808
-0.000735652
-0.000679749
-0.000607124
-0.000516824
-0.000407969
-0.000279801
-0.000131735
3.65953e-05
0.000225285
0.000434115
0.000662511
0.000909508
0.00117372
0.00145333
0.00174609
0.00204929
0.00235983
0.0026742
0.00298857
0.00329881
0.00360059
0.00388946
0.00416095
0.00441066
0.0046344
0.0048283
0.0049889
0.00511327
0.00519913
0.00524486
0.00524963
0.00521339
0.00513691
0.00502173
0.00487015
0.00468513
0.00447025
0.00422953
0.00396738
0.00368842
0.00339738
0.00309896
0.00279773
0.00249794
0.00220349
0.00191924
0.00164952
0.00137974
0.00109532
0.00255663
0.00201457
0.00158631
0.00123627
0.000921792
0.000641612
0.000394968
0.00017827
-1.19132e-05
-0.000178555
-0.000324346
-0.000451688
-0.000562651
-0.00065896
-0.000741999
-0.000812806
-0.000872076
-0.000920177
-0.000957173
-0.000982842
-0.000996711
-0.000998086
-0.000986088
-0.000959704
-0.000917821
-0.000859281
-0.000782936
-0.000687694
-0.000572575
-0.000436769
-0.000279686
-0.000101011
9.92471e-05
0.00032071
0.000562586
0.000823639
0.00110217
0.00139601
0.0017025
0.00201852
0.00234052
0.00266456
0.00298636
0.00330138
0.0036049
0.00389215
0.00415839
0.00439904
0.00460981
0.00478682
0.0049267
0.00502673
0.0050849
0.00509997
0.00507156
0.00500014
0.004887
0.00473428
0.00454484
0.0043222
0.00407042
0.00379401
0.00349773
0.00318651
0.0028653
0.00253895
0.00221199
0.00188864
0.00157426
0.00127369
0.000970138
0.00064713
0.00259335
0.00201193
0.00155409
0.00118143
0.000847808
0.000551532
0.00029146
6.34097e-05
-0.0001366
-0.000312032
-0.000466006
-0.000601295
-0.000720271
-0.00082492
-0.000916819
-0.000997146
-0.0010667
-0.00112588
-0.00117479
-0.00121315
-0.00124044
-0.00125586
-0.00125842
-0.00124694
-0.00122014
-0.00117667
-0.00111516
-0.0010343
-0.000932877
-0.000809833
-0.000664338
-0.000495839
-0.000304116
-8.93334e-05
0.000147912
0.00040655
0.000685018
0.000981241
0.00129262
0.00161603
0.00194789
0.00228413
0.00262031
0.00295168
0.00327323
0.00357985
0.0038664
0.00412787
0.00435952
0.00455694
0.00471629
0.00483433
0.00490855
0.00493727
0.00491969
0.00485592
0.00474697
0.00459477
0.00440204
0.00417226
0.00390954
0.00361848
0.00330406
0.00297144
0.00262591
0.00227266
0.00191661
0.00156236
0.0012159
0.000882664
0.000543671
0.000180522
0.00257464
0.00195562
0.00146947
0.00107508
0.000722943
0.000410961
0.000137608
-0.000101877
-0.000312012
-0.000496726
-0.000659553
-0.000803606
-0.000931554
-0.00104561
-0.00114754
-0.00123864
-0.00131977
-0.0013914
-0.00145359
-0.00150604
-0.00154815
-0.001579
-0.00159747
-0.00160222
-0.00159178
-0.00156459
-0.00151905
-0.00145361
-0.0013668
-0.00125732
-0.00112405
-0.000966198
-0.000783285
-0.000575241
-0.000342442
-8.5764e-05
0.000193386
0.000493052
0.000810704
0.00114325
0.00148705
0.00183794
0.00219133
0.0025422
0.00288527
0.00321503
0.00352593
0.00381248
0.00406938
0.00429168
0.00447496
0.00461538
0.00470987
0.0047562
0.00475309
0.00470021
0.00459823
0.00444881
0.0042545
0.00401873
0.00374564
0.00343998
0.00310695
0.00275202
0.00238085
0.00199909
0.0016121
0.001225
0.000844458
0.000476605
0.000100249
-0.000304992
0.00249563
0.00184086
0.00132775
0.000912602
0.000542691
0.000215489
-7.09126e-05
-0.000321833
-0.000542315
-0.000736738
-0.000909026
-0.00106262
-0.00120048
-0.00132501
-0.00143814
-0.00154128
-0.00163536
-0.00172085
-0.00179779
-0.00186584
-0.0019243
-0.00197214
-0.00200806
-0.00203057
-0.00203799
-0.00202853
-0.00200037
-0.00195167
-0.00188072
-0.0017859
-0.00166585
-0.00151945
-0.00134597
-0.00114507
-0.000916874
-0.000662035
-0.000381771
-7.78937e-05
0.000247169
0.000590364
0.000948032
0.00131593
0.00168929
0.00206285
0.00243101
0.00278788
0.00312743
0.00344362
0.00373057
0.0039827
0.00419491
0.0043627
0.00448232
0.00455091
0.0045666
0.00452855
0.00443701
0.00429329
0.00409975
0.00385972
0.00357738
0.00325761
0.00290588
0.00252803
0.00213016
0.00171842
0.00129874
0.000876797
0.000460087
5.55131e-05
-0.000360416
-0.000810136
0.00235166
0.0016631
0.00112448
0.000689634
0.000302753
-3.91126e-05
-0.000338259
-0.000600557
-0.000831552
-0.00103606
-0.00121839
-0.00138229
-0.00153097
-0.00166705
-0.00179259
-0.00190908
-0.00201752
-0.00211837
-0.00221165
-0.00229694
-0.00237343
-0.00243996
-0.00249509
-0.00253711
-0.00256413
-0.00257414
-0.00256503
-0.00253473
-0.00248118
-0.00240251
-0.002297
-0.00216327
-0.00200023
-0.00180727
-0.00158421
-0.00133147
-0.00105002
-0.000741494
-0.000408189
-5.30799e-05
0.000320178
0.000707273
0.00110328
0.00150271
0.00189962
0.00228771
0.00266043
0.00301117
0.0033334
0.00362081
0.00386753
0.00406831
0.00421862
0.00431487
0.00435446
0.00433596
0.00425908
0.00412474
0.00393502
0.00369311
0.00340321
0.00307034
0.00270025
0.00229921
0.0018738
0.0014308
0.000976731
0.000517965
6.28942e-05
-0.000380697
-0.000838717
-0.00133577
0.00213834
0.00141806
0.000855469
0.000402041
-9.39165e-07
-0.00035686
-0.000668402
-0.000941975
-0.00118362
-0.00139857
-0.00159149
-0.00176645
-0.00192689
-0.0020756
-0.00221478
-0.002346
-0.00247028
-0.00258808
-0.00269938
-0.00280367
-0.00290003
-0.00298717
-0.00306344
-0.00312695
-0.00317559
-0.00320707
-0.00321904
-0.00320909
-0.00317489
-0.0031142
-0.003025
-0.00290552
-0.00275437
-0.00257057
-0.00235363
-0.00210366
-0.00182137
-0.00150815
-0.00116613
-0.00079816
-0.000407862
4.16962e-07
0.000421618
0.00085003
0.00127938
0.00170291
0.00211357
0.0025041
0.00286722
0.00319587
0.00348331
0.00372339
0.00391071
0.00404079
0.00411024
0.00411686
0.00405973
0.00393927
0.0037572
0.00351653
0.0032214
0.00287701
0.00248939
0.00206526
0.00161178
0.00113638
0.000646327
0.000148725
-0.000347006
-0.000832113
-0.00133506
-0.00188277
0.00185154
0.00110171
0.000516775
4.59496e-05
-0.000372214
-0.000741532
-0.00106508
-0.0013498
-0.0016022
-0.00182794
-0.00203202
-0.0022188
-0.00239193
-0.00255439
-0.00270848
-0.00285585
-0.00299753
-0.00313398
-0.0032651
-0.0033903
-0.00350854
-0.00361835
-0.00371794
-0.00380517
-0.0038777
-0.00393298
-0.00396834
-0.00398109
-0.00396853
-0.00392809
-0.00385736
-0.00375421
-0.00361684
-0.00344391
-0.00323455
-0.0029885
-0.00270617
-0.00238867
-0.00203787
-0.00165649
-0.00124803
-0.000816855
-0.000368114
9.22737e-05
0.000557707
0.001021
0.00147453
0.00191035
0.00232043
0.00269678
0.00303174
0.00331815
0.0035496
0.00372058
0.00382673
0.00386497
0.00383363
0.00373248
0.00356278
0.00332727
0.00303002
0.00267633
0.00227255
0.00182588
0.00134411
0.000835412
0.00030785
-0.000230608
-0.000769411
-0.00129873
-0.00184978
-0.00245196
0.00148739
0.000710327
0.00010474
-0.000382238
-0.00081462
-0.00119665
-0.0015318
-0.00182751
-0.00209078
-0.00232764
-0.00254344
-0.0027428
-0.00292959
-0.00310696
-0.00327729
-0.00344229
-0.00360301
-0.00375989
-0.00391275
-0.00406091
-0.00420319
-0.00433796
-0.00446324
-0.00457667
-0.00467564
-0.00475734
-0.00481878
-0.00485692
-0.00486872
-0.00485121
-0.00480159
-0.0047173
-0.00459612
-0.00443627
-0.00423647
-0.00399604
-0.00371501
-0.00339414
-0.00303501
-0.0026401
-0.00221278
-0.00175734
-0.00127899
-0.000783831
-0.000278756
0.000228613
0.000730063
0.00121695
0.00168037
0.0021114
0.00250131
0.00284182
0.00312533
0.00334518
0.00349588
0.00357329
0.0035748
0.00349942
0.00334781
0.00312232
0.00282688
0.00246687
0.00204894
0.00158077
0.00107087
0.000528213
-3.824e-05
-0.000619566
-0.00120396
-0.00178039
-0.00238304
-0.003044
0.00104235
0.000240468
-0.000383983
-0.000885816
-0.00133141
-0.00172543
-0.00207175
-0.00237831
-0.00265254
-0.00290087
-0.00312896
-0.00334169
-0.00354314
-0.00373659
-0.00392452
-0.00410871
-0.00429019
-0.00446937
-0.004646
-0.0048193
-0.00498795
-0.00515016
-0.00530373
-0.00544607
-0.00557433
-0.00568537
-0.00577591
-0.00584253
-0.00588181
-0.00589036
-0.00586496
-0.00580258
-0.00570053
-0.00555654
-0.00536885
-0.00513631
-0.00485849
-0.00453575
-0.00416929
-0.00376128
-0.00331488
-0.00283426
-0.00232462
-0.00179217
-0.00124409
-0.000688417
-0.000133943
0.000409939
0.000933434
0.00142657
0.00187947
0.00228256
0.00262694
0.0029046
0.00310874
0.00323396
0.00327653
0.0032345
0.0031078
0.00289824
0.00260952
0.00224702
0.00181767
0.00132967
0.000792243
0.000215269
-0.000391296
-0.00101747
-0.00165005
-0.00227668
-0.00293478
-0.00365931
0.000513208
-0.000310957
-0.000952411
-0.00146775
-0.00192551
-0.0023308
-0.00268785
-0.00300509
-0.00329038
-0.00355052
-0.00379148
-0.00401839
-0.00423551
-0.00444626
-0.00465322
-0.00485819
-0.00506221
-0.00526565
-0.00546819
-0.00566895
-0.00586645
-0.00605873
-0.00624339
-0.00641762
-0.00657826
-0.00672189
-0.00684488
-0.00694344
-0.00701374
-0.00705195
-0.00705436
-0.00701746
-0.00693803
-0.00681326
-0.00664084
-0.0064191
-0.00614706
-0.00582458
-0.00545243
-0.00503238
-0.00456727
-0.00406108
-0.00351893
-0.00294709
-0.00235294
-0.00174491
-0.00113237
-0.000525468
6.50629e-05
0.000628138
0.00115259
0.00162748
0.00204239
0.0023878
0.00265536
0.00283822
0.0029313
0.00293147
0.00283772
0.00265119
0.00237518
0.002015
0.0015778
0.00107231
0.00050851
-0.000102753
-0.000750425
-0.00142335
-0.00210676
-0.00278687
-0.00350457
-0.00429797
-0.0001029
-0.000946682
-0.0016032
-0.00213066
-0.00259952
-0.0030153
-0.00338263
-0.00371039
-0.00400684
-0.00427915
-0.00453357
-0.00477548
-0.0050093
-0.0052386
-0.00546602
-0.00569341
-0.00592181
-0.00615155
-0.00638223
-0.00661285
-0.00684182
-0.00706698
-0.00728574
-0.00749502
-0.0076914
-0.00787115
-0.00803028
-0.0081646
-0.00826987
-0.00834177
-0.00837609
-0.00836877
-0.00831602
-0.00821444
-0.00806112
-0.00785374
-0.00759073
-0.00727137
-0.00689587
-0.00646552
-0.00598276
-0.00545126
-0.00487597
-0.00426313
-0.00362027
-0.00295615
-0.00228068
-0.00160477
-0.000940112
-0.000298973
0.000306114
0.000862668
0.00135862
0.0017827
0.0021248
0.00237637
0.00253071
0.00258329
0.00253191
0.00237681
0.00212075
0.00176882
0.00132834
0.000808513
0.000220122
-0.00042494
-0.00111443
-0.00183587
-0.00257281
-0.00330981
-0.00409158
-0.00495963
-0.000808417
-0.00166905
-0.00233864
-0.00287678
-0.00335565
-0.00378115
-0.00415829
-0.00449639
-0.00480411
-0.00508894
-0.00535741
-0.00561512
-0.00586668
-0.00611577
-0.00636511
-0.00661659
-0.00687125
-0.00712936
-0.00739047
-0.00765347
-0.00791662
-0.0081776
-0.0084336
-0.00868131
-0.00891703
-0.00913669
-0.00933594
-0.00951021
-0.00965477
-0.00976483
-0.00983563
-0.00986252
-0.00984109
-0.00976729
-0.00963751
-0.00944877
-0.00919878
-0.00888613
-0.00851041
-0.00807229
-0.00757371
-0.00701791
-0.00640956
-0.00575476
-0.00506111
-0.00433762
-0.00359469
-0.00284394
-0.00209807
-0.00137055
-0.000675381
-2.67059e-05
0.00056157
0.00107622
0.00150513
0.00183777
0.00206555
0.0021822
0.00218407
0.00207027
0.00184277
0.00150629
0.0010682
0.000538148
-7.22787e-05
-0.000750082
-0.00148172
-0.00225328
-0.00304639
-0.00384384
-0.00469445
-0.00564339
-0.00160536
-0.00247999
-0.00316059
-0.00370795
-0.0041957
-0.00463014
-0.00501662
-0.00536488
-0.00568394
-0.00598162
-0.00626471
-0.00653903
-0.00680935
-0.00707946
-0.00735218
-0.00762941
-0.0079122
-0.00820078
-0.00849465
-0.00879258
-0.00909271
-0.00939254
-0.00968906
-0.00997873
-0.0102575
-0.0105211
-0.0107648
-0.0109835
-0.011172
-0.0113251
-0.0114374
-0.0115036
-0.0115187
-0.0114779
-0.0113768
-0.0112117
-0.0109794
-0.0106779
-0.0103059
-0.00986339
-0.00935166
-0.00877342
-0.00813291
-0.00743598
-0.00669016
-0.00590463
-0.00509019
-0.00425914
-0.00342513
-0.00260289
-0.00180794
-0.00105622
-0.000363644
0.000254395
0.000783517
0.00121088
0.00152569
0.00171963
0.00178725
0.0017262
0.0015374
0.00122501
0.000796271
0.000261203
-0.000367816
-0.00107662
-0.00185027
-0.00267327
-0.00352515
-0.00438668
-0.00531116
-0.00634771
-0.0024953
-0.00338099
-0.00407049
-0.00462558
-0.00512109
-0.00556365
-0.00595898
-0.00631719
-0.00664766
-0.0069585
-0.00725676
-0.00754844
-0.0078385
-0.00813083
-0.00842833
-0.00873293
-0.0090457
-0.00936684
-0.00969578
-0.0100312
-0.0103711
-0.0107129
-0.0110533
-0.0113885
-0.0117144
-0.0120261
-0.0123186
-0.0125865
-0.012824
-0.0130253
-0.0131845
-0.0132957
-0.013353
-0.0133509
-0.0132843
-0.0131484
-0.0129395
-0.0126543
-0.0122908
-0.0118482
-0.0113269
-0.010729
-0.0100582
-0.00931987
-0.00852137
-0.00767191
-0.00678259
-0.00586629
-0.00493758
-0.00401244
-0.00310797
-0.00224199
-0.00143257
-0.000697504
-5.37285e-05
0.000483308
0.000900227
0.00118628
0.00133382
0.00133869
0.00120044
0.000922361
0.000511388
-2.22202e-05
-0.000665336
-0.0014026
-0.00221755
-0.00309297
-0.00400605
-0.00493533
-0.00593895
-0.00707027
-0.00347929
-0.00437307
-0.00506934
-0.00563065
-0.00613276
-0.00658262
-0.00698629
-0.00735422
-0.00769613
-0.00802039
-0.00833429
-0.00864404
-0.00895475
-0.00927041
-0.00959401
-0.00992754
-0.0102721
-0.0106278
-0.010994
-0.0113695
-0.011752
-0.0121388
-0.0125264
-0.0129109
-0.0132878
-0.0136519
-0.0139979
-0.0143198
-0.0146116
-0.0148667
-0.0150786
-0.0152407
-0.0153464
-0.0153894
-0.0153635
-0.0152633
-0.0150838
-0.014821
-0.0144717
-0.0140342
-0.013508
-0.0128943
-0.012196
-0.0114181
-0.0105674
-0.0096531
-0.00868638
-0.00768065
-0.00665127
-0.00561545
-0.00459186
-0.00360028
-0.0026611
-0.00179473
-0.0010209
-0.000358043
0.000177502
0.000572118
0.000815538
0.000901348
0.000827317
0.000595546
0.000212385
-0.000311849
-0.000963351
-0.00172555
-0.0025804
-0.00350876
-0.00448526
-0.00548595
-0.00657419
-0.00780789
-0.00455789
-0.00545676
-0.00615766
-0.0067237
-0.00723124
-0.00768756
-0.00809903
-0.00847642
-0.00882973
-0.00916759
-0.00949753
-0.00982595
-0.0101581
-0.0104981
-0.010849
-0.0112129
-0.0115908
-0.011983
-0.0123887
-0.0128066
-0.0132344
-0.0136691
-0.0141073
-0.0145448
-0.0149766
-0.0153975
-0.0158016
-0.0161827
-0.016534
-0.0168486
-0.0171193
-0.0173386
-0.0174993
-0.0175941
-0.017616
-0.0175584
-0.0174153
-0.0171816
-0.0168531
-0.0164269
-0.0159013
-0.0152767
-0.014555
-0.0137403
-0.0128391
-0.0118602
-0.0108146
-0.0097162
-0.00858101
-0.00742735
-0.00627547
-0.00514713
-0.00406515
-0.00305271
-0.00213267
-0.00132674
-0.00065467
-0.000133412
0.000223649
0.000407336
0.000413171
0.000241624
-0.000101871
-0.000607186
-0.00125997
-0.00204247
-0.00293494
-0.0039162
-0.00495801
-0.0060337
-0.0072122
-0.00855627
-0.00573113
-0.00663211
-0.00733552
-0.00790477
-0.00841659
-0.00887853
-0.00929722
-0.00968372
-0.0100483
-0.0103999
-0.0107461
-0.0110937
-0.0114479
-0.0118131
-0.0121923
-0.0125878
-0.0130006
-0.0134309
-0.0138781
-0.0143406
-0.0148162
-0.0153018
-0.0157937
-0.0162876
-0.0167783
-0.0172603
-0.0177272
-0.0181724
-0.0185888
-0.0189687
-0.0193043
-0.0195874
-0.0198099
-0.0199637
-0.0200406
-0.0200331
-0.019934
-0.019737
-0.0194366
-0.0190286
-0.0185104
-0.0178808
-0.0171408
-0.0162937
-0.0153449
-0.0143027
-0.0131781
-0.011985
-0.01074
-0.00946223
-0.00817358
-0.00689777
-0.00566007
-0.00448663
-0.00340366
-0.00243652
-0.00160878
-0.000941251
-0.000450986
-0.0001505
-4.70843e-05
-0.000142412
-0.000432406
-0.000907438
-0.00155282
-0.00234965
-0.00327648
-0.00430989
-0.00541852
-0.00657262
-0.00784714
-0.00930996
-0.00699852
-0.00789868
-0.00860251
-0.0091735
-0.00968844
-0.0101551
-0.0105804
-0.0109756
-0.0113513
-0.0117165
-0.0120792
-0.0124461
-0.0128229
-0.0132138
-0.0136222
-0.0140502
-0.0144991
-0.014969
-0.0154593
-0.0159684
-0.0164941
-0.0170332
-0.0175818
-0.0181354
-0.0186887
-0.0192358
-0.0197701
-0.0202845
-0.0207712
-0.0212222
-0.021629
-0.0219825
-0.0222739
-0.0224939
-0.0226335
-0.022684
-0.022637
-0.0224848
-0.0222206
-0.0218389
-0.0213355
-0.020708
-0.0199562
-0.0190819
-0.0180898
-0.0169873
-0.015785
-0.0144966
-0.0131389
-0.0117321
-0.0102992
-0.00886598
-0.00746013
-0.00611089
-0.00484802
-0.00370087
-0.00269728
-0.00186243
-0.00121766
-0.000779466
-0.000558619
-0.000559538
-0.00078004
-0.00121142
-0.00183891
-0.00264264
-0.00359937
-0.00468333
-0.00585973
-0.00709544
-0.00847179
-0.0100621
-0.00835901
-0.00925553
-0.00995777
-0.0105291
-0.011046
-0.0115165
-0.0119477
-0.0123511
-0.0127375
-0.0131161
-0.0134952
-0.0138816
-0.014281
-0.014698
-0.015136
-0.0155973
-0.0160831
-0.0165937
-0.0171284
-0.0176859
-0.0182636
-0.0188584
-0.0194663
-0.0200827
-0.020702
-0.021318
-0.0219239
-0.0225121
-0.0230745
-0.0236023
-0.0240862
-0.0245168
-0.0248841
-0.0251778
-0.025388
-0.0255047
-0.0255181
-0.0254193
-0.0252001
-0.0248532
-0.0243732
-0.0237559
-0.0229997
-0.022105
-0.0210753
-0.019917
-0.0186397
-0.0172569
-0.0157854
-0.014246
-0.0126628
-0.0110634
-0.0094778
-0.00793845
-0.00647882
-0.00513254
-0.00393214
-0.0029077
-0.00208552
-0.00148679
-0.00112649
-0.00101252
-0.00114525
-0.00151741
-0.00211456
-0.00291601
-0.00389683
-0.00502873
-0.00627321
-0.00759337
-0.00907735
-0.0108041
-0.00981104
-0.0107012
-0.0114
-0.0119702
-0.012488
-0.0129614
-0.0133977
-0.0138088
-0.0142053
-0.014597
-0.014992
-0.0153976
-0.0158196
-0.0162627
-0.0167304
-0.0172252
-0.0177483
-0.0183003
-0.0188805
-0.0194873
-0.0201186
-0.0207709
-0.0214404
-0.0221221
-0.0228104
-0.0234988
-0.0241802
-0.0248466
-0.0254894
-0.0260994
-0.0266665
-0.0271805
-0.0276305
-0.0280054
-0.028294
-0.0284851
-0.0285676
-0.0285312
-0.028366
-0.0280632
-0.0276157
-0.0270177
-0.0262657
-0.0253586
-0.0242984
-0.0230901
-0.0217424
-0.0202679
-0.0186833
-0.0170095
-0.0152716
-0.0134985
-0.0117229
-0.00998008
-0.00830736
-0.00674289
-0.00532428
-0.00408708
-0.00306319
-0.00227928
-0.00175539
-0.00150373
-0.00152797
-0.001823
-0.00237516
-0.00316328
-0.0041608
-0.00533686
-0.00664891
-0.00805594
-0.00965325
-0.0115258
-0.0113525
-0.0122339
-0.0129274
-0.0134953
-0.0140128
-0.0144882
-0.0149289
-0.0153467
-0.0157528
-0.0161568
-0.0165671
-0.0169913
-0.0174353
-0.0179039
-0.018401
-0.018929
-0.0194896
-0.020083
-0.020709
-0.021366
-0.0220517
-0.0227629
-0.0234956
-0.0242446
-0.0250044
-0.0257681
-0.0265284
-0.027277
-0.0280046
-0.0287016
-0.0293574
-0.0299608
-0.0305001
-0.0309633
-0.031338
-0.0316116
-0.0317719
-0.0318069
-0.0317051
-0.0314562
-0.0310509
-0.0304818
-0.0297436
-0.0288332
-0.0277509
-0.0265001
-0.0250881
-0.0235265
-0.0218313
-0.0200233
-0.0181282
-0.0161762
-0.0142018
-0.0122435
-0.0103423
-0.00854115
-0.00688295
-0.00540926
-0.00415826
-0.00316294
-0.0024493
-0.00203482
-0.00192741
-0.00212489
-0.00261505
-0.00337666
-0.00438174
-0.0055968
-0.00697497
-0.00847067
-0.0101869
-0.0122146
-0.0129809
-0.0138514
-0.014538
-0.0151023
-0.0156186
-0.0160949
-0.016539
-0.0169627
-0.0173773
-0.0177926
-0.0182173
-0.018659
-0.0191239
-0.0196172
-0.0201427
-0.0207033
-0.0213005
-0.021935
-0.0226065
-0.0233137
-0.0240542
-0.0248249
-0.0256217
-0.0264396