/*--------------------------------*- C++ -*----------------------------------*\
  =========                 |
  \\      /  F ield         | OpenFOAM: The Open Source CFD Toolbox
   \\    /   O peration     | Website:  https://openfoam.org
    \\  /    A nd           | Version:  dev
     \\/     M anipulation  |
\*---------------------------------------------------------------------------*/
FoamFile
{
    format      ascii;
    class       surfaceScalarField;
    location    "14.85";
    object      phi;
}
// * * * * * * * * * * * * * * * * * * * * * * * * * * * * * * * * * * * * * //

dimensions      [0 3 -1 0 0 0 0];

internalField   nonuniform List<scalar> 
10224
(
3.42695e-08
-3.4265e-08
8.78421e-08
-5.35682e-08
1.24035e-07
-3.62007e-08
1.24713e-07
-6.75935e-10
8.28991e-08
4.18117e-08
-2.6853e-09
8.55814e-08
-1.30226e-07
1.27538e-07
-2.96409e-07
1.66183e-07
-4.97186e-07
2.00775e-07
-7.28263e-07
2.31074e-07
-9.85376e-07
2.57113e-07
-1.26444e-06
2.79069e-07
-1.56164e-06
2.97191e-07
-1.8734e-06
3.11768e-07
-2.19648e-06
3.2308e-07
-2.52787e-06
3.31392e-07
-2.86481e-06
3.36943e-07
-3.20474e-06
3.3993e-07
-3.54526e-06
3.40516e-07
-3.88408e-06
3.38824e-07
-4.21902e-06
3.34938e-07
-4.54792e-06
3.28912e-07
-4.86869e-06
3.20768e-07
-5.1792e-06
3.10513e-07
-5.47733e-06
2.98131e-07
-5.76093e-06
2.83603e-07
-6.02785e-06
2.66909e-07
-6.27588e-06
2.48031e-07
-6.50285e-06
2.26966e-07
-6.70658e-06
2.03729e-07
-6.88493e-06
1.78355e-07
-7.03584e-06
1.5091e-07
-7.15733e-06
1.21498e-07
-7.24759e-06
9.02581e-08
-7.30496e-06
5.73708e-08
-7.32802e-06
2.30586e-08
-7.31561e-06
-1.24139e-08
-7.26687e-06
-4.87393e-08
-7.1813e-06
-8.55691e-08
-7.05878e-06
-1.22518e-07
-6.89961e-06
-1.59168e-07
-6.70455e-06
-1.95068e-07
-6.4748e-06
-2.29749e-07
-6.21207e-06
-2.6273e-07
-5.91854e-06
-2.93526e-07
-5.59688e-06
-3.21655e-07
-5.25023e-06
-3.46652e-07
-4.88215e-06
-3.6808e-07
-4.49661e-06
-3.85537e-07
-4.09794e-06
-3.98668e-07
-3.69076e-06
-4.0718e-07
-3.27992e-06
-4.10843e-07
-2.87042e-06
-4.095e-07
-2.46735e-06
-4.03076e-07
-2.07577e-06
-3.91579e-07
-1.70066e-06
-3.75106e-07
-1.34682e-06
-3.53842e-07
-1.01876e-06
-3.28059e-07
-7.20646e-07
-2.98118e-07
-4.56185e-07
-2.64464e-07
-2.2855e-07
-2.27635e-07
-4.02884e-08
-1.88261e-07
1.06794e-07
-1.47081e-07
2.11754e-07
-1.04961e-07
2.74701e-07
-6.29483e-08
2.97058e-07
-2.23583e-08
2.8199e-07
1.50696e-08
2.35072e-07
4.69203e-08
1.65338e-07
6.9736e-08
8.70432e-08
7.82954e-08
2.25179e-08
6.4526e-08
2.2519e-08
5.3986e-08
-8.82398e-08
1.12101e-07
-1.11691e-07
1.17417e-07
-4.15091e-08
3.77091e-08
7.90286e-08
-1.43356e-07
2.22881e-07
-4.31062e-07
3.73291e-07
-8.23625e-07
5.201e-07
-1.31491e-06
6.57468e-07
-1.89636e-06
7.82227e-07
-2.55818e-06
8.92898e-07
-3.29012e-06
9.89051e-07
-4.08195e-06
1.07089e-06
-4.92376e-06
1.139e-06
-5.80613e-06
1.19414e-06
-6.7202e-06
1.23714e-06
-7.65764e-06
1.26883e-06
-8.61068e-06
1.28997e-06
-9.57197e-06
1.30122e-06
-1.05346e-05
1.30312e-06
-1.14919e-05
1.2961e-06
-1.24374e-05
1.28048e-06
-1.3365e-05
1.25647e-06
-1.42684e-05
1.22417e-06
-1.51415e-05
1.18364e-06
-1.59782e-05
1.13488e-06
-1.67725e-05
1.07787e-06
-1.75182e-05
1.01258e-06
-1.82092e-05
9.39011e-07
-1.88394e-05
8.57205e-07
-1.94029e-05
7.67279e-07
-1.9894e-05
6.69436e-07
-2.03071e-05
5.63986e-07
-2.0637e-05
4.5136e-07
-2.08788e-05
3.32125e-07
-2.10285e-05
2.06994e-07
-2.10822e-05
7.68286e-08
-2.10373e-05
-5.7357e-08
-2.08916e-05
-1.94402e-07
-2.06442e-05
-3.33002e-07
-2.0295e-05
-4.71723e-07
-1.98451e-05
-6.09019e-07
-1.92969e-05
-7.43248e-07
-1.8654e-05
-8.72699e-07
-1.79211e-05
-9.95618e-07
-1.71044e-05
-1.11025e-06
-1.62112e-05
-1.21485e-06
-1.52501e-05
-1.30775e-06
-1.42308e-05
-1.38739e-06
-1.3164e-05
-1.45233e-06
-1.20613e-05
-1.50131e-06
-1.09352e-05
-1.53327e-06
-9.79864e-06
-1.54742e-06
-8.66493e-06
-1.54321e-06
-7.54762e-06
-1.52039e-06
-6.46019e-06
-1.47901e-06
-5.41585e-06
-1.41945e-06
-4.42729e-06
-1.3424e-06
-3.50643e-06
-1.24891e-06
-2.66421e-06
-1.14034e-06
-1.9103e-06
-1.01837e-06
-1.25287e-06
-8.85061e-07
-6.98326e-07
-7.42808e-07
-2.50971e-07
-5.94437e-07
8.73385e-08
-4.43271e-07
3.17662e-07
-2.93272e-07
4.44581e-07
-1.49277e-07
4.77048e-07
-1.73978e-08
4.29496e-07
9.44732e-08
3.23308e-07
1.75926e-07
1.88423e-07
2.13181e-07
6.42179e-08
1.88731e-07
8.67377e-08
3.722e-08
-1.25461e-07
4.28364e-08
-1.17318e-07
-4.41538e-08
4.54836e-08
-2.59883e-07
2.94748e-07
-6.23854e-07
5.86848e-07
-1.14313e-06
8.92565e-07
-1.81596e-06
1.19293e-06
-2.63467e-06
1.47619e-06
-3.58793e-06
1.73548e-06
-4.66223e-06
1.96719e-06
-5.84301e-06
2.16984e-06
-7.11544e-06
2.34332e-06
-8.46482e-06
2.48838e-06
-9.87694e-06
2.60626e-06
-1.13382e-05
2.69841e-06
-1.28357e-05
2.76633e-06
-1.43572e-05
2.81144e-06
-1.5891e-05
2.83502e-06
-1.7426e-05
2.83813e-06
-1.89515e-05
2.82163e-06
-2.04572e-05
2.78616e-06
-2.19329e-05
2.73218e-06
-2.33687e-05
2.65996e-06
-2.47547e-05
2.56966e-06
-2.60812e-05
2.46135e-06
-2.73383e-05
2.33504e-06
-2.85165e-05
2.19076e-06
-2.96061e-05
2.02861e-06
-3.05977e-05
1.84877e-06
-3.1482e-05
1.65157e-06
-3.22501e-05
1.43755e-06
-3.28935e-05
1.20745e-06
-3.34045e-05
9.62271e-07
-3.37756e-05
7.03302e-07
-3.40008e-05
4.32124e-07
-3.40746e-05
1.50625e-07
-3.39929e-05
-1.38998e-07
-3.37531e-05
-4.34244e-07
-3.33537e-05
-7.32327e-07
-3.27953e-05
-1.0302e-06
-3.20797e-05
-1.32458e-06
-3.12109e-05
-1.61202e-06
-3.01947e-05
-1.88891e-06
-2.90387e-05
-2.15161e-06
-2.77526e-05
-2.39642e-06
-2.63477e-05
-2.61973e-06
-2.48374e-05
-2.81808e-06
-2.32366e-05
-2.98819e-06
-2.15618e-05
-3.12712e-06
-1.98308e-05
-3.23224e-06
-1.80627e-05
-3.30141e-06
-1.62772e-05
-3.33295e-06
-1.44946e-05
-3.32577e-06
-1.27356e-05
-3.27938e-06
-1.10207e-05
-3.19392e-06
-9.36995e-06
-3.07021e-06
-7.8026e-06
-2.90976e-06
-6.33673e-06
-2.71479e-06
-4.98886e-06
-2.48821e-06
-3.77357e-06
-2.23366e-06
-2.7031e-06
-1.95554e-06
-1.78689e-06
-1.65901e-06
-1.0312e-06
-1.35013e-06
-4.38508e-07
-1.03597e-06
-6.91821e-09
-7.24863e-07
2.70592e-07
-4.26786e-07
4.07054e-07
-1.53859e-07
4.22643e-07
7.8884e-08
3.45907e-07
2.52661e-07
2.14955e-07
3.44133e-07
7.83946e-08
3.25292e-07
1.65133e-07
1.75521e-09
-1.27213e-07
-7.93648e-08
-3.62039e-08
-2.98243e-07
2.64368e-07
-6.88481e-07
6.84985e-07
-1.26829e-06
1.16666e-06
-2.04391e-06
1.66818e-06
-3.0125e-06
2.16152e-06
-4.16482e-06
2.62851e-06
-5.4873e-06
3.05795e-06
-6.96361e-06
3.44351e-06
-8.57597e-06
3.78219e-06
-1.03059e-05
4.07327e-06
-1.2135e-05
4.31745e-06
-1.4045e-05
4.51631e-06
-1.60185e-05
4.6719e-06
-1.80386e-05
4.7864e-06
-2.00891e-05
4.86193e-06
-2.21545e-05
4.90044e-06
-2.422e-05
4.9036e-06
-2.62711e-05
4.87276e-06
-2.8294e-05
4.80898e-06
-3.02748e-05
4.713e-06
-3.22002e-05
4.58534e-06
-3.40568e-05
4.42631e-06
-3.58316e-05
4.2361e-06
-3.75114e-05
4.01485e-06
-3.90833e-05
3.76272e-06
-4.05347e-05
3.47999e-06
-4.1853e-05
3.16711e-06
-4.30262e-05
2.82477e-06
-4.40427e-05
2.45399e-06
-4.48914e-05
2.05617e-06
-4.55622e-05
1.63312e-06
-4.60461e-05
1.18712e-06
-4.63349e-05
7.20934e-07
-4.64221e-05
2.37837e-07
-4.63027e-05
-2.58401e-07
-4.59734e-05
-7.63515e-07
-4.54329e-05
-1.27278e-06
-4.46821e-05
-1.78104e-06
-4.37239e-05
-2.2828e-06
-4.25636e-05
-2.77225e-06
-4.12092e-05
-3.24339e-06
-3.96707e-05
-3.6901e-06
-3.79608e-05
-4.10627e-06
-3.60947e-05
-4.48589e-06
-3.40895e-05
-4.8232e-06
-3.19649e-05
-5.11281e-06
-2.97422e-05
-5.34981e-06
-2.74446e-05
-5.5299e-06
-2.50964e-05
-5.64951e-06
-2.27235e-05
-5.70592e-06
-2.03519e-05
-5.69732e-06
-1.80084e-05
-5.62292e-06
-1.57193e-05
-5.48301e-06
-1.35105e-05
-5.27898e-06
-1.14069e-05
-5.01341e-06
-9.43164e-06
-4.69003e-06
-7.60605e-06
-4.31379e-06
-5.94884e-06
-3.89088e-06
-4.47569e-06
-3.42869e-06
-3.1987e-06
-2.936e-06
-2.12584e-06
-2.42299e-06
-1.26032e-06
-1.90149e-06
-5.99934e-07
-1.38525e-06
-1.36268e-07
-8.9045e-07
1.4611e-07
-4.36237e-07
2.70592e-07
-4.56e-08
2.69552e-07
2.537e-07
1.85382e-07
4.28304e-07
7.19227e-08
4.38753e-07
2.37056e-07
-4.21532e-08
-8.50571e-08
-2.30202e-07
1.51842e-07
-6.06584e-07
6.40747e-07
-1.19777e-06
1.27617e-06
-2.01743e-06
1.98632e-06
-3.0687e-06
2.71944e-06
-4.34636e-06
3.43918e-06
-5.839e-06
4.12115e-06
-7.53078e-06
4.74973e-06
-9.40292e-06
5.31565e-06
-1.14349e-05
5.81418e-06
-1.36054e-05
6.24373e-06
-1.58927e-05
6.60479e-06
-1.82755e-05
6.89916e-06
-2.0733e-05
7.12939e-06
-2.32449e-05
7.2983e-06
-2.57917e-05
7.4087e-06
-2.83545e-05
7.46323e-06
-3.09151e-05
7.46416e-06
-3.34557e-05
7.4134e-06
-3.59591e-05
7.31243e-06
-3.84085e-05
7.16237e-06
-4.07871e-05
6.96398e-06
-4.30787e-05
6.71782e-06
-4.52668e-05
6.42425e-06
-4.73356e-05
6.08361e-06
-4.92691e-05
5.69629e-06
-5.1052e-05
5.26285e-06
-5.2669e-05
4.78413e-06
-5.41056e-05
4.26133e-06
-5.53477e-05
3.69616e-06
-5.63824e-05
3.09083e-06
-5.71975e-05
2.44821e-06
-5.77822e-05
1.77183e-06
-5.81272e-05
1.06594e-06
-5.82249e-05
3.35495e-07
-5.80695e-05
-4.138e-07
-5.76574e-05
-1.17555e-06
-5.69875e-05
-1.94269e-06
-5.6061e-05
-2.70756e-06
-5.48818e-05
-3.462e-06
-5.34567e-05
-4.19742e-06
-5.17951e-05
-4.90496e-06
-4.99096e-05
-5.57561e-06
-4.78155e-05
-6.20039e-06
-4.55309e-05
-6.77048e-06
-4.30766e-05
-7.27744e-06
-4.04761e-05
-7.71334e-06
-3.77549e-05
-8.07101e-06
-3.49406e-05
-8.34416e-06
-3.20626e-05
-8.52757e-06
-2.91512e-05
-8.61725e-06
-2.6238e-05
-8.61058e-06
-2.33545e-05
-8.5064e-06
-2.05324e-05
-8.30516e-06
-1.78024e-05
-8.00896e-06
-1.51942e-05
-7.62161e-06
-1.27355e-05
-7.14868e-06
-1.04518e-05
-6.59751e-06
-8.3654e-06
-5.97727e-06
-6.49511e-06
-5.29898e-06
-4.85551e-06
-4.57561e-06
-3.45632e-06
-3.82217e-06
-2.3018e-06
-3.05601e-06
-1.39001e-06
-2.29704e-06
-7.12154e-07
-1.56831e-06
-2.51817e-07
-8.96575e-07
1.57746e-08
-3.1319e-07
1.24574e-07
1.44901e-07
1.18611e-07
4.34271e-07
5.33698e-08
5.03995e-07
2.90427e-07
-8.94391e-08
4.38104e-09
-3.95151e-07
4.57544e-07
-9.44356e-07
1.18995e-06
-1.75355e-06
2.08537e-06
-2.82948e-06
3.06226e-06
-4.17036e-06
4.06031e-06
-5.76733e-06
5.03616e-06
-7.60603e-06
5.95985e-06
-9.66802e-06
6.81171e-06
-1.1932e-05
7.57966e-06
-1.43751e-05
8.25721e-06
-1.69732e-05
8.84184e-06
-1.97021e-05
9.33372e-06
-2.25377e-05
9.7348e-06
-2.54564e-05
1.0048e-05
-2.84349e-05
1.02768e-05
-3.14508e-05
1.04246e-05
-3.44824e-05
1.04948e-05
-3.75084e-05
1.04901e-05
-4.05081e-05
1.04132e-05
-4.34615e-05
1.02658e-05
-4.63487e-05
1.00495e-05
-4.91501e-05
9.76544e-06
-5.18467e-05
9.41435e-06
-5.44193e-05
8.99688e-06
-5.68493e-05
8.51363e-06
-5.91183e-05
7.96531e-06
-6.12084e-05
7.35287e-06
-6.31019e-05
6.67765e-06
-6.47821e-05
5.94154e-06
-6.6233e-05
5.14704e-06
-6.74396e-05
4.29744e-06
-6.83882e-05
3.39684e-06
-6.90666e-05
2.45026e-06
-6.94644e-05
1.46368e-06
-6.95729e-05
4.44054e-07
-6.9386e-05
-6.0071e-07
-6.88998e-05
-1.66175e-06
-6.81132e-05
-2.72935e-06
-6.70278e-05
-3.79296e-06
-6.56483e-05
-4.84142e-06
-6.39828e-05
-5.86297e-06
-6.20422e-05
-6.84554e-06
-5.9841e-05
-7.77686e-06
-5.73967e-05
-8.64468e-06
-5.47301e-05
-9.43704e-06
-5.18651e-05
-1.01424e-05
-4.88283e-05
-1.07501e-05
-4.56489e-05
-1.12504e-05
-4.23585e-05
-1.16346e-05
-3.89902e-05
-1.18958e-05
-3.5579e-05
-1.20284e-05
-3.21606e-05
-1.2029e-05
-2.87712e-05
-1.18959e-05
-2.54467e-05
-1.16297e-05
-2.22224e-05
-1.12333e-05
-1.91321e-05
-1.07119e-05
-1.62078e-05
-1.0073e-05
-1.34785e-05
-9.32682e-06
-1.097e-05
-8.48577e-06
-8.70405e-06
-7.56491e-06
-6.69774e-06
-6.58191e-06
-4.96276e-06
-5.55715e-06
-3.50477e-06
-4.514e-06
-2.32276e-06
-3.47905e-06
-1.40841e-06
-2.48265e-06
-7.4549e-07
-1.5595e-06
-3.09226e-07
-7.49452e-07
-6.57476e-08
-9.8574e-08
2.8575e-08
3.39951e-07
2.80526e-08
5.04519e-07
3.18481e-07
-1.37523e-07
1.41909e-07
-5.65669e-07
8.85689e-07
-1.29579e-06
1.92008e-06
-2.33292e-06
3.1225e-06
-3.67533e-06
4.40467e-06
-5.31495e-06
5.69993e-06
-7.23818e-06
6.95939e-06
-9.42693e-06
8.14861e-06
-1.18597e-05
9.24448e-06
-1.45125e-05
1.02325e-05
-1.736e-05
1.11046e-05
-2.03756e-05
1.18575e-05
-2.35328e-05
1.24909e-05
-2.6805e-05
1.3007e-05
-3.01661e-05
1.34091e-05
-3.35905e-05
1.37012e-05
-3.70531e-05
1.38873e-05
-4.05297e-05
1.39713e-05
-4.39964e-05
1.39568e-05
-4.74299e-05
1.38467e-05
-5.08076e-05
1.36435e-05
-5.4107e-05
1.33489e-05
-5.73061e-05
1.29646e-05
-6.03832e-05
1.24914e-05
-6.33168e-05
1.19305e-05
-6.60858e-05
1.12827e-05
-6.86696e-05
1.05491e-05
-7.10479e-05
9.73115e-06
-7.32011e-05
8.83087e-06
-7.51105e-05
7.85091e-06
-7.67582e-05
6.79476e-06
-7.81277e-05
5.6669e-06
-7.92037e-05
4.47289e-06
-7.99729e-05
3.21944e-06
-8.04237e-05
1.91449e-06
-8.05468e-05
5.67195e-07
-8.03355e-05
-8.12035e-07
-7.97856e-05
-2.21162e-06
-7.88961e-05
-3.61888e-06
-7.76689e-05
-5.02014e-06
-7.61095e-05
-6.40086e-06
-7.42266e-05
-7.74586e-06
-7.20326e-05
-9.0395e-06
-6.95436e-05
-1.02659e-05
-6.67789e-05
-1.14094e-05
-6.37616e-05
-1.24543e-05
-6.05181e-05
-1.3386e-05
-5.70778e-05
-1.41905e-05
-5.3473e-05
-1.48552e-05
-4.97385e-05
-1.53691e-05
-4.59112e-05
-1.5723e-05
-4.20297e-05
-1.59099e-05
-3.81336e-05
-1.59251e-05
-3.42631e-05
-1.57664e-05
-3.04581e-05
-1.54347e-05
-2.67579e-05
-1.49334e-05
-2.32004e-05
-1.42694e-05
-1.9821e-05
-1.34524e-05
-1.66526e-05
-1.24952e-05
-1.37243e-05
-1.14141e-05
-1.10607e-05
-1.02285e-05
-8.68159e-06
-8.96102e-06
-6.60088e-06
-7.63786e-06
-4.82613e-06
-6.28875e-06
-3.35787e-06
-4.94732e-06
-2.18902e-06
-3.6515e-06
-1.30445e-06
-2.44406e-06
-6.80518e-07
-1.37339e-06
-2.84672e-07
-4.94418e-07
-7.51845e-08
1.30463e-07
-7.90937e-10
4.30127e-07
3.1769e-07
-1.85163e-07
3.27069e-07
-7.369e-07
1.43743e-06
-1.65117e-06
2.83434e-06
-2.92095e-06
4.39228e-06
-4.53515e-06
6.01887e-06
-6.47849e-06
7.64327e-06
-8.73175e-06
9.21265e-06
-1.12725e-05
1.06893e-05
-1.40756e-05
1.20476e-05
-1.71142e-05
1.32711e-05
-2.03602e-05
1.43506e-05
-2.37848e-05
1.52821e-05
-2.73592e-05
1.60653e-05
-3.10546e-05
1.67024e-05
-3.48427e-05
1.71972e-05
-3.86957e-05
1.75541e-05
-4.25863e-05
1.77779e-05
-4.6488e-05
1.7873e-05
-5.03748e-05
1.78436e-05
-5.42211e-05
1.76931e-05
-5.80019e-05
1.74243e-05
-6.16926e-05
1.70396e-05
-6.52689e-05
1.65408e-05
-6.87068e-05
1.59293e-05
-7.19827e-05
1.52064e-05
-7.50733e-05
1.43733e-05
-7.79561e-05
1.34318e-05
-8.06086e-05
1.23837e-05
-8.30096e-05
1.12319e-05
-8.51385e-05
9.97977e-06
-8.69758e-05
8.63206e-06
-8.85035e-05
7.19457e-06
-8.9705e-05
5.67445e-06
-9.05659e-05
4.08029e-06
-9.10735e-05
2.42216e-06
-9.1218e-05
7.11644e-07
-9.09919e-05
-1.03816e-06
-9.03908e-05
-2.81271e-06
-8.94135e-05
-4.59615e-06
-8.80623e-05
-6.37138e-06
-8.63428e-05
-8.12029e-06
-8.42647e-05
-9.82396e-06
-8.18413e-05
-1.14629e-05
-7.90897e-05
-1.30175e-05
-7.6031e-05
-1.4468e-05
-7.26901e-05
-1.57952e-05
-6.90953e-05
-1.69807e-05
-6.52786e-05
-1.80072e-05
-6.12748e-05
-1.8859e-05
-5.71218e-05
-1.95222e-05
-5.28594e-05
-1.99854e-05
-4.85297e-05
-2.02396e-05
-4.41758e-05
-2.0279e-05
-3.98415e-05
-2.01008e-05
-3.55704e-05
-1.97057e-05
-3.14057e-05
-1.90981e-05
-2.7389e-05
-1.82862e-05
-2.35594e-05
-1.72819e-05
-1.99533e-05
-1.61013e-05
-1.66031e-05
-1.47643e-05
-1.35367e-05
-1.32949e-05
-1.07767e-05
-1.1721e-05
-8.33973e-06
-1.00749e-05
-6.23556e-06
-8.39292e-06
-4.46686e-06
-6.71601e-06
-3.02853e-06
-5.08983e-06
-1.90731e-06
-3.56529e-06
-1.08149e-06
-2.1992e-06
-5.20817e-07
-1.05509e-06
-1.86454e-07
-2.03902e-07
-3.12122e-08
2.74886e-07
2.86476e-07
-2.31723e-07
5.58793e-07
-9.06108e-07
2.11181e-06
-2.00453e-06
3.93277e-06
-3.50794e-06
5.89569e-06
-5.3955e-06
7.90643e-06
-7.64409e-06
9.89186e-06
-1.02283e-05
1.17969e-05
-1.31208e-05
1.35818e-05
-1.62925e-05
1.52193e-05
-1.97133e-05
1.66919e-05
-2.33522e-05
1.79895e-05
-2.71782e-05
1.91081e-05
-3.11601e-05
2.00472e-05
-3.52672e-05
2.08095e-05
-3.9469e-05
2.13991e-05
-4.3736e-05
2.18211e-05
-4.80389e-05
2.20808e-05
-5.23493e-05
2.21833e-05
-5.6639e-05
2.21333e-05
-6.08807e-05
2.19348e-05
-6.50473e-05
2.15909e-05
-6.91123e-05
2.11046e-05
-7.30493e-05
2.04778e-05
-7.68324e-05
1.97124e-05
-8.04362e-05
1.88101e-05
-8.38355e-05
1.77726e-05
-8.70057e-05
1.6602e-05
-8.9923e-05
1.5301e-05
-9.25642e-05
1.38731e-05
-9.49072e-05
1.23227e-05
-9.69311e-05
1.06559e-05
-9.86163e-05
8.87986e-06
-9.99454e-05
7.00346e-06
-0.000100902
5.03731e-06
-0.000101474
2.99377e-06
-0.000101649
8.87008e-07
-0.00010142
-1.26701e-06
-0.000100783
-3.45064e-06
-9.97341e-05
-5.6446e-06
-9.82773e-05
-7.82819e-06
-9.64181e-05
-9.97951e-06
-9.41664e-05
-1.20757e-05
-9.15361e-05
-1.40932e-05
-8.85455e-05
-1.60082e-05
-8.52166e-05
-1.77969e-05
-8.15758e-05
-1.9436e-05
-7.76532e-05
-2.09033e-05
-7.34827e-05
-2.21778e-05
-6.91015e-05
-2.32402e-05
-6.45498e-05
-2.40739e-05
-5.98705e-05
-2.46646e-05
-5.51085e-05
-2.50016e-05
-5.03103e-05
-2.50772e-05
-4.55231e-05
-2.4888e-05
-4.07942e-05
-2.44346e-05
-3.61704e-05
-2.3722e-05
-3.16968e-05
-2.27597e-05
-2.74166e-05
-2.15622e-05
-2.33697e-05
-2.01483e-05
-1.9592e-05
-1.8542e-05
-1.61149e-05
-1.6772e-05
-1.29641e-05
-1.48718e-05
-1.01593e-05
-1.28797e-05
-7.71308e-06
-1.08391e-05
-5.63087e-06
-8.79823e-06
-3.91004e-06
-6.81065e-06
-2.53987e-06
-4.93547e-06
-1.50127e-06
-3.2378e-06
-7.66911e-07
-1.78946e-06
-3.01432e-07
-6.69383e-07
-6.21129e-08
3.55652e-08
2.24362e-07
-2.76934e-07
8.3573e-07
-1.07177e-06
2.90665e-06
-2.35227e-06
5.21326e-06
-4.08765e-06
7.63108e-06
-6.24727e-06
1.0066e-05
-8.7999e-06
1.24445e-05
-1.17136e-05
1.47106e-05
-1.49556e-05
1.68239e-05
-1.84927e-05
1.87564e-05
-2.22911e-05
2.04903e-05
-2.6317e-05
2.20155e-05
-3.05369e-05
2.3328e-05
-3.49175e-05
2.44278e-05
-3.94259e-05
2.53179e-05
-4.40301e-05
2.60033e-05
-4.86985e-05
2.64895e-05
-5.34003e-05
2.67826e-05
-5.81053e-05
2.68883e-05
-6.27837e-05
2.68118e-05
-6.74065e-05
2.65575e-05
-7.19448e-05
2.61293e-05
-7.63703e-05
2.55301e-05
-8.06552e-05
2.47627e-05
-8.47717e-05
2.3829e-05
-8.86927e-05
2.27312e-05
-9.23915e-05
2.14714e-05
-9.58418e-05
2.00523e-05
-9.90181e-05
1.84774e-05
-0.000101896
1.67508e-05
-0.000104451
1.48783e-05
-0.000106663
1.28671e-05
-0.000108509
1.07258e-05
-0.000109971
8.46535e-06
-0.000111031
6.09829e-06
-0.000111677
3.63943e-06
-0.000111896
1.10562e-06
-0.000111679
-1.48418e-06
-0.00011102
-4.10904e-06
-0.000109919
-6.74615e-06
-0.000108376
-9.37105e-06
-0.000106397
-1.19578e-05
-0.000103994
-1.44795e-05
-0.000101179
-1.69081e-05
-9.79713e-05
-1.92156e-05
-9.43942e-05
-2.13739e-05
-9.0475e-05
-2.33553e-05
-8.62451e-05
-2.51333e-05
-8.17399e-05
-2.66829e-05
-7.69987e-05
-2.79814e-05
-7.2064e-05
-2.90086e-05
-6.69811e-05
-2.97475e-05
-6.17979e-05
-3.01848e-05
-5.65639e-05
-3.03112e-05
-5.13295e-05
-3.01223e-05
-4.61458e-05
-2.96183e-05
-4.10631e-05
-2.88047e-05
-3.61305e-05
-2.76923e-05
-3.13949e-05
-2.62978e-05
-2.69e-05
-2.46431e-05
-2.26858e-05
-2.27562e-05
-1.87872e-05
-2.06706e-05
-1.52337e-05
-1.84253e-05
-1.20484e-05
-1.60651e-05
-9.2472e-06
-1.36403e-05
-6.83871e-06
-1.12067e-05
-4.82341e-06
-8.82594e-06
-3.19363e-06
-6.56525e-06
-1.93341e-06
-4.49802e-06
-1.01874e-06
-2.70413e-06
-4.18017e-07
-1.27011e-06
-9.29421e-08
-2.89512e-07
1.31421e-07
-3.20686e-07
1.15642e-06
-1.23305e-06
3.81901e-06
-2.69216e-06
6.67238e-06
-4.656e-06
9.59493e-06
-7.08422e-06
1.24943e-05
-9.93746e-06
1.52977e-05
-1.3177e-05
1.79501e-05
-1.67645e-05
2.04114e-05
-2.06623e-05
2.26541e-05
-2.48328e-05
2.46608e-05
-2.92393e-05
2.6422e-05
-3.38455e-05
2.79342e-05
-3.86161e-05
2.91984e-05
-4.35164e-05
3.02182e-05
-4.85125e-05
3.09994e-05
-5.35713e-05
3.15483e-05
-5.86604e-05
3.18717e-05
-6.3748e-05
3.1976e-05
-6.88031e-05
3.18669e-05
-7.37951e-05
3.15494e-05
-7.86937e-05
3.10278e-05
-8.34691e-05
3.03056e-05
-8.80919e-05
2.93855e-05
-9.2533e-05
2.82701e-05
-9.67639e-05
2.6962e-05
-0.000100756
2.54637e-05
-0.000104482
2.37785e-05
-0.000107916
2.19105e-05
-0.00011103
1.98649e-05
-0.0001138
1.76485e-05
-0.000116202
1.52697e-05
-0.000118216
1.27389e-05
-0.000119819
1.00688e-05
-0.000120995
7.27406e-06
-0.000121727
4.37207e-06
-0.000122004
1.3824e-06
-0.000121815
-1.67291e-06
-0.000121155
-4.76958e-06
-0.00012002
-7.88114e-06
-0.000118412
-1.09792e-05
-0.000116336
-1.40337e-05
-0.000113802
-1.70134e-05
-0.000110824
-1.98858e-05
-0.000107422
-2.26183e-05
-0.000103617
-2.51781e-05
-9.94395e-05
-2.75331e-05
-9.49206e-05
-2.96521e-05
-9.00975e-05
-3.15061e-05
-8.50109e-05
-3.3068e-05
-7.97054e-05
-3.43141e-05
-7.42288e-05
-3.52241e-05
-6.86314e-05
-3.57821e-05
-6.29658e-05
-3.59768e-05
-5.72859e-05
-3.58023e-05
-5.16461e-05
-3.52581e-05
-4.61006e-05
-3.43502e-05
-4.07025e-05
-3.30904e-05
-3.55028e-05
-3.14975e-05
-3.05495e-05
-2.95964e-05
-2.58866e-05
-2.74191e-05
-2.15534e-05
-2.50038e-05
-1.75832e-05
-2.23954e-05
-1.40032e-05
-1.96451e-05
-1.08332e-05
-1.68103e-05
-8.08536e-06
-1.39545e-05
-5.76386e-06
-1.11474e-05
-3.86448e-06
-8.46462e-06
-2.37478e-06
-5.98772e-06
-1.27432e-06
-3.80459e-06
-5.3529e-07
-2.00914e-06
-1.23499e-07
-7.01304e-07
7.92398e-09
-3.6294e-07
1.51936e-06
-1.38947e-06
4.84554e-06
-3.02282e-06
8.30573e-06
-5.21026e-06
1.17824e-05
-7.90201e-06
1.5186e-05
-1.10506e-05
1.84464e-05
-1.46106e-05
2.15101e-05
-1.8538e-05
2.43388e-05
-2.27903e-05
2.69064e-05
-2.73263e-05
2.91968e-05
-3.21061e-05
3.12017e-05
-3.70908e-05
3.2919e-05
-4.22429e-05
3.43505e-05
-4.75259e-05
3.55012e-05
-5.29041e-05
3.63776e-05
-5.83431e-05
3.69873e-05
-6.38091e-05
3.73377e-05
-6.92691e-05
3.7436e-05
-7.46907e-05
3.72884e-05
-8.0042e-05
3.69007e-05
-8.52916e-05
3.62774e-05
-9.04084e-05
3.54224e-05
-9.53618e-05
3.43389e-05
-0.000100121
3.30298e-05
-0.000104658
3.1498e-05
-0.00010894
2.97466e-05
-0.000112941
2.77794e-05
-0.000116632
2.56013e-05
-0.000119985
2.32182e-05
-0.000122975
2.06382e-05
-0.000125576
1.78709e-05
-0.000127766
1.49284e-05
-0.000129522
1.18251e-05
-0.000130826
8.57818e-06
-0.000131661
5.20722e-06
-0.000132014
1.73469e-06
-0.000131872
-1.81428e-06
-0.00013123
-5.41195e-06
-0.000130083
-9.02815e-06
-0.000128432
-1.26305e-05
-0.000126281
-1.61846e-05
-0.000123639
-1.96548e-05
-0.000120521
-2.3004e-05
-0.000116945
-2.61946e-05
-0.000112934
-2.91891e-05
-0.000108516
-3.19504e-05
-0.000103726
-3.44427e-05
-9.85999e-05
-3.66321e-05
-9.31806e-05
-3.84873e-05
-8.75143e-05
-3.99804e-05
-8.16509e-05
-4.10875e-05
-7.56435e-05
-4.17896e-05
-6.95475e-05
-4.20729e-05
-6.34201e-05
-4.19297e-05
-5.73195e-05
-4.13587e-05
-5.13039e-05
-4.03658e-05
-4.54305e-05
-3.89638e-05
-3.97549e-05
-3.71731e-05
-3.43295e-05
-3.50219e-05
-2.9203e-05
-3.25456e-05
-2.44192e-05
-2.97876e-05
-2.00163e-05
-2.67983e-05
-1.60257e-05
-2.36356e-05
-1.24717e-05
-2.03643e-05
-9.37069e-06
-1.70555e-05
-6.73078e-06
-1.37874e-05
-4.55169e-06
-1.06437e-05
-2.82478e-06
-7.71463e-06
-1.53331e-06
-5.09606e-06
-6.5315e-07
-2.8893e-06
-1.5381e-07
-1.20065e-06
-1.45887e-07
-4.03682e-07
1.92304e-06
-1.54075e-06
5.9826e-06
-3.34333e-06
1.01083e-05
-5.74851e-06
1.41876e-05
-8.69744e-06
1.81349e-05
-1.21348e-05
2.18837e-05
-1.60083e-05
2.53836e-05
-2.02685e-05
2.85989e-05
-2.4868e-05
3.15059e-05
-2.97617e-05
3.40906e-05
-3.49067e-05
3.63467e-05
-4.02614e-05
3.82737e-05
-4.57862e-05
3.98752e-05
-5.14426e-05
4.11576e-05
-5.71936e-05
4.21287e-05
-6.30033e-05
4.2797e-05
-6.88368e-05
4.31712e-05
-7.46598e-05
4.3259e-05
-8.04389e-05
4.30675e-05
-8.61412e-05
4.2603e-05
-9.17342e-05
4.18704e-05
-9.71859e-05
4.08741e-05
-0.000102465
3.96175e-05
-0.000107539
3.81041e-05
-0.000112378
3.63368e-05
-0.00011695
3.43195e-05
-0.000121227
3.20563e-05
-0.000125179
2.95528e-05
-0.000128777
2.6816e-05
-0.000131993
2.38548e-05
-0.000134803
2.06803e-05
-0.00013718
1.73061e-05
-0.000139104
1.37485e-05
-0.000140552
1.00267e-05
-0.000141508
6.16277e-06
-0.000141955
2.18207e-06
-0.000141882
-1.88721e-06
-0.00014128
-6.01389e-06
-0.000140144
-1.0164e-05
-0.000138474
-1.43012e-05
-0.000136272
-1.83866e-05
-0.000133547
-2.238e-05
-0.000130311
-2.62394e-05
-0.000126583
-2.99224e-05
-0.000122386
-3.33861e-05
-0.000117748
-3.65884e-05
-0.000112703
-3.94882e-05
-0.000107288
-4.20468e-05
-0.000101548
-4.42278e-05
-9.55291e-05
-4.59989e-05
-8.92844e-05
-4.73322e-05
-8.2869e-05
-4.82049e-05
-7.63414e-05
-4.86004e-05
-6.97623e-05
-4.85088e-05
-6.31935e-05
-4.79275e-05
-5.66975e-05
-4.68618e-05
-5.03362e-05
-4.53251e-05
-4.41698e-05
-4.33395e-05
-3.82558e-05
-4.09358e-05
-3.26481e-05
-3.81533e-05
-2.73957e-05
-3.504e-05
-2.25417e-05
-3.16523e-05
-1.81227e-05
-2.80546e-05
-1.41679e-05
-2.4319e-05
-1.06984e-05
-2.05251e-05
-7.72681e-06
-1.6759e-05
-5.25711e-06
-1.31134e-05
-3.28467e-06
-9.68708e-06
-1.79653e-06
-6.5842e-06
-7.72072e-07
-3.91376e-06
-1.84056e-07
-1.78866e-06
-3.29946e-07
-4.42904e-07
2.36594e-06
-1.68667e-06
7.22638e-06
-3.65299e-06
1.20746e-05
-6.26928e-06
1.68038e-05
-9.46803e-06
2.13337e-05
-1.31863e-05
2.5602e-05
-1.73652e-05
2.95626e-05
-2.19496e-05
3.31834e-05
-2.68877e-05
3.64439e-05
-3.21304e-05
3.93333e-05
-3.76316e-05
4.18478e-05
-4.33471e-05
4.39893e-05
-4.92352e-05
4.57633e-05
-5.52557e-05
4.71781e-05
-6.13701e-05
4.82431e-05
-6.75413e-05
4.89682e-05
-7.37331e-05
4.9363e-05
-7.99106e-05
4.94364e-05
-8.60392e-05
4.91962e-05
-9.20853e-05
4.86491e-05
-9.80155e-05
4.78006e-05
-0.000103797
4.66555e-05
-0.000109397
4.52176e-05
-0.000114783
4.34905e-05
-0.000119924
4.14778e-05
-0.000124788
3.91834e-05
-0.000129344
3.66123e-05
-0.000133562
3.37704e-05
-0.000137412
3.06657e-05
-0.000140865
2.73081e-05
-0.000143894
2.37099e-05
-0.000146474
1.98861e-05
-0.000148581
1.5855e-05
-0.000150192
1.16376e-05
-0.000151288
7.25874e-06
-0.000151852
2.7462e-06
-0.000151871
-1.86865e-06
-0.000151333
-6.55121e-06
-0.000150234
-1.12638e-05
-0.000148569
-1.59658e-05
-0.000146341
-2.06142e-05
-0.000143557
-2.51638e-05
-0.000140229
-2.95678e-05
-0.000136373
-3.37785e-05
-0.000132011
-3.77476e-05
-0.000127172
-4.14275e-05
-0.000121889
-4.47717e-05
-0.0001162
-4.77358e-05
-0.000110149
-5.02784e-05
-0.000103786
-5.23619e-05
-9.71645e-05
-5.39538e-05
-9.03421e-05
-5.50273e-05
-8.33803e-05
-5.55622e-05
-7.63433e-05
-5.55459e-05
-6.9297e-05
-5.49738e-05
-6.23084e-05
-5.38504e-05
-5.54441e-05
-5.21893e-05
-4.87698e-05
-5.00139e-05
-4.23484e-05
-4.73572e-05
-3.62394e-05
-4.42623e-05
-3.04975e-05
-4.07819e-05
-2.51718e-05
-3.6978e-05
-2.03045e-05
-3.29219e-05
-1.59302e-05
-2.86934e-05
-1.20752e-05
-2.43801e-05
-8.75709e-06
-2.0077e-05
-5.98453e-06
-1.5886e-05
-3.75709e-06
-1.19145e-05
-2.06564e-06
-8.27566e-06
-8.92928e-07
-5.08648e-06
-2.14516e-07
-2.46707e-06
-5.44463e-07
-4.80586e-07
2.84653e-06
-1.82705e-06
8.57284e-06
-3.9512e-06
1.41988e-05
-6.77134e-06
1.9624e-05
-1.02117e-05
2.4774e-05
-1.42019e-05
2.95922e-05
-1.86769e-05
3.40375e-05
-2.3576e-05
3.80825e-05
-2.88429e-05
4.17108e-05
-3.44246e-05
4.49151e-05
-4.0272e-05
4.76952e-05
-4.63384e-05
5.00556e-05
-5.25798e-05
5.20048e-05
-5.89546e-05
5.35529e-05
-6.54228e-05
5.47113e-05
-7.19461e-05
5.54915e-05
-7.84876e-05
5.59045e-05
-8.50112e-05
5.596e-05
-9.14819e-05
5.56669e-05
-9.78651e-05
5.50323e-05
-0.000104127
5.40625e-05
-0.000110234
5.27624e-05
-0.000116153
5.11363e-05
-0.00012185
4.91881e-05
-0.000127294
4.69216e-05
-0.000132452
4.43411e-05
-0.000137291
4.1452e-05
-0.000141782
3.82609e-05
-0.000145893
3.47764e-05
-0.000149594
3.10093e-05
-0.000152857
2.69731e-05
-0.000155655
2.26842e-05
-0.000157963
1.81625e-05
-0.000159756
1.34311e-05
-0.000161014
8.51696e-06
-0.000161719
3.4506e-06
-0.000161854
-1.73367e-06
-0.000161407
-6.99788e-06
-0.00016037
-1.23006e-05
-0.000158739
-1.75973e-05
-0.000156513
-2.28402e-05
-0.000153697
-2.79796e-05
-0.000150302
-3.29634e-05
-0.000146342
-3.77384e-05
-0.000141838
-4.22509e-05
-0.000136819
-4.64473e-05
-0.000131315
-5.02752e-05
-0.000125367
-5.36843e-05
-0.000119018
-5.66273e-05
-0.000112319
-5.90612e-05
-0.000105324
-6.0948e-05
-9.80956e-05
-6.22562e-05
-9.06963e-05
-6.29615e-05
-8.31944e-05
-6.30478e-05
-7.56599e-05
-6.25082e-05
-6.81648e-05
-6.13456e-05
-6.07808e-05
-5.95732e-05
-5.35794e-05
-5.72154e-05
-4.66295e-05
-5.43071e-05
-3.99968e-05
-5.08949e-05
-3.37427e-05
-4.7036e-05
-2.79224e-05
-4.27983e-05
-2.25844e-05
-3.82599e-05
-1.77696e-05
-3.35082e-05
-1.351e-05
-2.86397e-05
-9.82864e-06
-2.37583e-05
-6.73921e-06
-1.89754e-05
-4.24572e-06
-1.4408e-05
-2.34295e-06
-1.01784e-05
-1.01687e-06
-6.41255e-06
-2.45536e-07
-3.23841e-06
-7.89996e-07
-5.16694e-07
3.36322e-06
-1.96165e-06
1.00178e-05
-4.23738e-06
1.64745e-05
-7.25351e-06
2.26401e-05
-1.09264e-05
2.84469e-05
-1.51789e-05
3.38447e-05
-1.99395e-05
3.87982e-05
-2.51427e-05
4.32856e-05
-3.07273e-05
4.72954e-05
-3.66372e-05
5.0825e-05
-4.28198e-05
5.38777e-05
-4.92261e-05
5.6462e-05
-5.58103e-05
5.85889e-05
-6.25289e-05
6.02715e-05
-6.93408e-05
6.15232e-05
-7.62067e-05
6.23574e-05
-8.30888e-05
6.27865e-05
-8.99504e-05
6.28216e-05
-9.67557e-05
6.24722e-05
-0.00010347
6.17465e-05
-0.000110058
6.0651e-05
-0.000116487
5.91912e-05
-0.000122722
5.73716e-05
-0.000128731
5.51964e-05
-0.000134479
5.26697e-05
-0.000139934
4.97961e-05
-0.000145063
4.65812e-05
-0.000149834
4.30321e-05
-0.000154216
3.91582e-05
-0.000158178
3.49709e-05
-0.000161689
3.04848e-05
-0.000164723
2.57175e-05
-0.000167251
2.06904e-05
-0.000169248
1.54285e-05
-0.000170692
9.96081e-06
-0.000171562
4.32034e-06
-0.00017184
-1.45571e-06
-0.000171511
-7.32618e-06
-0.000170566
-1.3246e-05
-0.000168997
-1.91665e-05
-0.000166801
-2.50356e-05
-0.000163982
-3.07986e-05
-0.000160547
-3.63982e-05
-0.00015651
-4.17756e-05
-0.00015189
-4.68713e-05
-0.000146712
-5.16253e-05
-0.000141008
-5.59791e-05
-0.000134816
-5.98757e-05
-0.000128182
-6.32616e-05
-0.000121156
-6.60875e-05
-0.000113794
-6.83095e-05
-0.00010616
-6.98906e-05
-9.83199e-05
-7.08014e-05
-9.03458e-05
-7.10219e-05
-8.23121e-05
-7.05419e-05
-7.42956e-05
-6.93621e-05
-6.6374e-05
-6.74948e-05
-5.86248e-05
-6.49647e-05
-5.11235e-05
-6.18084e-05
-4.39429e-05
-5.80755e-05
-3.71513e-05
-5.38277e-05
-3.08111e-05
-4.91385e-05
-2.49778e-05
-4.40931e-05
-1.96991e-05
-3.8787e-05
-1.50135e-05
-3.33253e-05
-1.09499e-05
-2.78219e-05
-7.52746e-06
-2.23978e-05
-4.75495e-06
-1.71805e-05
-2.63116e-06
-1.23022e-05
-1.14526e-06
-7.89845e-06
-2.77505e-07
-4.10616e-06
-1.0675e-06
-5.51174e-07
3.9144e-06
-2.09024e-06
1.15569e-05
-4.51089e-06
1.88952e-05
-7.71462e-06
2.58438e-05
-1.16104e-05
3.23427e-05
-1.61143e-05
3.83486e-05
-2.11493e-05
4.38333e-05
-2.66447e-05
4.87809e-05
-3.25353e-05
5.3186e-05
-3.87611e-05
5.70508e-05
-4.5267e-05
6.03836e-05
-5.20015e-05
6.31965e-05
-5.89168e-05
6.55042e-05
-6.5968e-05
6.73228e-05
-7.3113e-05
6.86682e-05
-8.03113e-05
6.95558e-05
-8.75246e-05
6.99998e-05
-9.47156e-05
7.00125e-05
-0.000101848
6.96047e-05