/*--------------------------------*- C++ -*----------------------------------*\
  =========                 |
  \\      /  F ield         | OpenFOAM: The Open Source CFD Toolbox
   \\    /   O peration     | Website:  https://openfoam.org
    \\  /    A nd           | Version:  dev
     \\/     M anipulation  |
\*---------------------------------------------------------------------------*/
FoamFile
{
    format      ascii;
    class       volVectorField;
    location    "14.85";
    object      U;
}
// * * * * * * * * * * * * * * * * * * * * * * * * * * * * * * * * * * * * * //

dimensions      [0 1 -1 0 0 0 0];

internalField   nonuniform List<vector> 
5184
(
(1.25146e-05 -1.24777e-05 0)
(4.53629e-05 -2.06952e-05 0)
(8.01996e-05 -1.71174e-05 0)
(9.55978e-05 -8.10129e-06 0)
(8.16007e-05 2.7358e-06 0)
(3.57968e-05 1.36589e-05 0)
(-4.12551e-05 2.38684e-05 0)
(-0.000147541 3.30488e-05 0)
(-0.00028028 4.10877e-05 0)
(-0.000436417 4.79895e-05 0)
(-0.000612837 5.38159e-05 0)
(-0.000806511 5.86523e-05 0)
(-0.00101458 6.25896e-05 0)
(-0.00123438 6.57204e-05 0)
(-0.00146346 6.81278e-05 0)
(-0.00169957 6.98871e-05 0)
(-0.00194063 7.10635e-05 0)
(-0.00218474 7.17084e-05 0)
(-0.00243011 7.1863e-05 0)
(-0.00267507 7.15569e-05 0)
(-0.00291801 7.0809e-05 0)
(-0.00315737 6.96298e-05 0)
(-0.00339162 6.80223e-05 0)
(-0.00361926 6.59839e-05 0)
(-0.00383874 6.35069e-05 0)
(-0.00404854 6.05821e-05 0)
(-0.0042471 5.71987e-05 0)
(-0.00443286 5.33475e-05 0)
(-0.00460423 4.90222e-05 0)
(-0.00475965 4.42195e-05 0)
(-0.00489755 3.89411e-05 0)
(-0.00501642 3.31961e-05 0)
(-0.00511481 2.70018e-05 0)
(-0.00519133 2.03842e-05 0)
(-0.00524473 1.33793e-05 0)
(-0.00527389 6.03267e-06 0)
(-0.00527788 -1.59966e-06 0)
(-0.00525597 -9.45153e-06 0)
(-0.00520766 -1.74466e-05 0)
(-0.00513272 -2.54995e-05 0)
(-0.00503122 -3.35163e-05 0)
(-0.00490351 -4.13953e-05 0)
(-0.00475033 -4.90296e-05 0)
(-0.0045727 -5.63085e-05 0)
(-0.00437203 -6.31198e-05 0)
(-0.00415007 -6.9352e-05 0)
(-0.0039089 -7.48965e-05 0)
(-0.00365096 -7.96506e-05 0)
(-0.00337896 -8.35196e-05 0)
(-0.00309589 -8.64198e-05 0)
(-0.00280498 -8.82809e-05 0)
(-0.00250967 -8.90478e-05 0)
(-0.0022135 -8.86823e-05 0)
(-0.00192012 -8.71642e-05 0)
(-0.0016332 -8.44933e-05 0)
(-0.00135638 -8.06889e-05 0)
(-0.00109318 -7.57899e-05 0)
(-0.000846967 -6.98552e-05 0)
(-0.000620889 -6.29621e-05 0)
(-0.000417792 -5.52057e-05 0)
(-0.000240168 -4.67e-05 0)
(-9.0095e-05 -3.75777e-05 0)
(3.08398e-05 -2.79934e-05 0)
(0.00012162 -1.8129e-05 0)
(0.000181909 -8.20914e-06 0)
(0.000212205 1.47171e-06 0)
(0.000214087 1.04927e-05 0)
(0.000190595 1.82171e-05 0)
(0.000146737 2.36351e-05 0)
(9.05856e-05 2.5059e-05 0)
(3.65699e-05 1.98079e-05 0)
(6.22659e-06 6.24293e-06 0)
(2.09098e-05 -4.54516e-05 0)
(6.55823e-05 -6.51957e-05 0)
(9.43102e-05 -4.01149e-05 0)
(7.20633e-05 7.98522e-06 0)
(-1.99177e-05 6.59172e-05 0)
(-0.000188408 0.000126106 0)
(-0.000433982 0.000184288 0)
(-0.00075341 0.000238215 0)
(-0.00114116 0.000286752 0)
(-0.00159047 0.000329461 0)
(-0.00209399 0.000366303 0)
(-0.0026443 0.000397467 0)
(-0.00323409 0.000423264 0)
(-0.0038564 0.000444062 0)
(-0.00450463 0.000460233 0)
(-0.0051726 0.000472138 0)
(-0.00585451 0.000480098 0)
(-0.00654493 0.000484386 0)
(-0.00723875 0.000485227 0)
(-0.00793107 0.000482793 0)
(-0.00861722 0.000477203 0)
(-0.00929264 0.000468535 0)
(-0.00995288 0.000456827 0)
(-0.0105935 0.00044209 0)
(-0.0112102 0.000424309 0)
(-0.0117984 0.000403465 0)
(-0.0123539 0.00037953 0)
(-0.0128721 0.000352489 0)
(-0.0133488 0.000322344 0)
(-0.0137796 0.000289121 0)
(-0.0141603 0.000252881 0)
(-0.0144867 0.000213725 0)
(-0.0147551 0.000171802 0)
(-0.0149617 0.000127315 0)
(-0.0151033 8.05237e-05 0)
(-0.0151771 3.17461e-05 0)
(-0.0151807 -1.86399e-05 0)
(-0.0151123 -7.01975e-05 0)
(-0.0149709 -0.000122433 0)
(-0.014756 -0.0001748 0)
(-0.014468 -0.000226708 0)
(-0.0141082 -0.000277526 0)
(-0.0136786 -0.000326593 0)
(-0.0131824 -0.000373232 0)
(-0.0126233 -0.000416762 0)
(-0.0120063 -0.000456508 0)
(-0.0113372 -0.000491819 0)
(-0.0106224 -0.000522082 0)
(-0.00986946 -0.000546737 0)
(-0.00908635 -0.000565289 0)
(-0.00828178 -0.000577327 0)
(-0.00746491 -0.00058253 0)
(-0.00664525 -0.000580684 0)
(-0.00583251 -0.000571684 0)
(-0.00503647 -0.000555546 0)
(-0.00426676 -0.000532407 0)
(-0.00353276 -0.00050253 0)
(-0.00284337 -0.000466303 0)
(-0.00220686 -0.00042424 0)
(-0.00163069 -0.000376977 0)
(-0.00112133 -0.000325281 0)
(-0.000684091 -0.000270054 0)
(-0.000322872 -0.000212355 0)
(-3.99654e-05 -0.000153432 0)
(0.000164249 -9.47915e-05 0)
(0.000291683 -3.83096e-05 0)
(0.000347061 1.35664e-05 0)
(0.000338622 5.75346e-05 0)
(0.00027882 8.90127e-05 0)
(0.000185459 0.000101517 0)
(8.61391e-05 8.62911e-05 0)
(1.96394e-05 3.64279e-05 0)
(1.76096e-05 -8.08565e-05 0)
(4.11329e-05 -9.42554e-05 0)
(1.91016e-05 -1.83497e-05 0)
(-8.47626e-05 0.000106555 0)
(-0.000291137 0.000255023 0)
(-0.000608723 0.000410655 0)
(-0.00103875 0.000563174 0)
(-0.00157739 0.000706459 0)
(-0.0022175 0.000837077 0)
(-0.0029499 0.000953327 0)
(-0.00376433 0.00105462 0)
(-0.0046501 0.00114105 0)
(-0.00559651 0.00121312 0)
(-0.00659312 0.00127157 0)
(-0.00762989 0.00131722 0)
(-0.00869729 0.00135088 0)
(-0.00978625 0.00137332 0)
(-0.0108882 0.00138522 0)
(-0.0119949 0.00138713 0)
(-0.0130986 0.0013795 0)
(-0.0141916 0.00136266 0)
(-0.0152667 0.00133683 0)
(-0.0163166 0.00130214 0)
(-0.0173342 0.00125865 0)
(-0.0183125 0.00120638 0)
(-0.0192443 0.00114532 0)
(-0.0201228 0.00107545 0)
(-0.0209409 0.000996783 0)
(-0.0216917 0.000909394 0)
(-0.0223687 0.000813418 0)
(-0.0229651 0.000709086 0)
(-0.0234747 0.000596742 0)
(-0.0238916 0.000476859 0)
(-0.0242104 0.000350048 0)
(-0.024426 0.000217075 0)
(-0.0245345 7.88594e-05 0)
(-0.0245323 -6.35207e-05 0)
(-0.0244169 -0.000208833 0)
(-0.0241869 -0.000355699 0)
(-0.0238418 -0.000502605 0)
(-0.0233826 -0.00064792 0)
(-0.0228114 -0.000789917 0)
(-0.0221316 -0.000926797 0)
(-0.0213481 -0.00105672 0)
(-0.020467 -0.00117785 0)
(-0.019496 -0.00128836 0)
(-0.0184441 -0.0013865 0)
(-0.0173213 -0.00147063 0)
(-0.016139 -0.00153925 0)
(-0.0149097 -0.00159106 0)
(-0.0136466 -0.00162495 0)
(-0.0123637 -0.00164007 0)
(-0.0110756 -0.00163588 0)
(-0.00979695 -0.00161211 0)
(-0.00854274 -0.00156883 0)
(-0.00732761 -0.00150644 0)
(-0.00616578 -0.00142568 0)
(-0.00507074 -0.00132765 0)
(-0.00405504 -0.00121378 0)
(-0.00312992 -0.00108589 0)
(-0.00230512 -0.000946141 0)
(-0.00158851 -0.000797085 0)
(-0.000985848 -0.000641727 0)
(-0.000500362 -0.00048359 0)
(-0.000132383 -0.00032686 0)
(0.000121144 -0.000176614 0)
(0.000267282 -3.9153e-05 0)
(0.000317829 7.75241e-05 0)
(0.000289869 0.000163141 0)
(0.000206567 0.000204558 0)
(0.000102104 0.000185686 0)
(2.49064e-05 9.01756e-05 0)
(8.78906e-06 -9.71962e-05 0)
(-7.21621e-06 -7.2131e-05 0)
(-0.000107972 8.58006e-05 0)
(-0.000322825 0.000319097 0)
(-0.000669934 0.000590372 0)
(-0.00115765 0.000874085 0)
(-0.00178668 0.00115326 0)
(-0.00255228 0.00141714 0)
(-0.00344588 0.00165929 0)
(-0.00445649 0.00187619 0)
(-0.00557165 0.00206628 0)
(-0.00677818 0.00222932 0)
(-0.00806269 0.00236587 0)
(-0.00941196 0.00247696 0)
(-0.0108131 0.00256387 0)
(-0.0122537 0.00262791 0)
(-0.013722 0.00267037 0)
(-0.0152064 0.0026924 0)
(-0.0166962 0.00269497 0)
(-0.0181807 0.00267888 0)
(-0.0196498 0.00264472 0)
(-0.0210935 0.00259291 0)
(-0.0225022 0.00252374 0)
(-0.0238661 0.00243735 0)
(-0.0251757 0.00233383 0)
(-0.0264217 0.00221322 0)
(-0.0275946 0.00207559 0)
(-0.0286852 0.00192103 0)
(-0.0296845 0.00174975 0)
(-0.0305836 0.00156211 0)
(-0.0313739 0.00135863 0)
(-0.0320472 0.00114004 0)
(-0.032596 0.000907311 0)
(-0.0330132 0.00066168 0)
(-0.0332926 0.000404657 0)
(-0.033429 0.000138039 0)
(-0.0334182 -0.000136091 0)
(-0.0332571 -0.00041537 0)
(-0.032944 -0.00069717 0)
(-0.0324788 -0.000978621 0)
(-0.0318628 -0.00125665 0)
(-0.0310989 -0.001528 0)
(-0.030192 -0.0017893 0)
(-0.0291485 -0.00203713 0)
(-0.0279766 -0.00226805 0)
(-0.0266864 -0.00247868 0)
(-0.0252894 -0.00266576 0)
(-0.0237991 -0.00282627 0)
(-0.0222301 -0.00295743 0)
(-0.0205985 -0.00305681 0)
(-0.0189215 -0.0031224 0)
(-0.0172173 -0.00315266 0)
(-0.0155046 -0.00314657 0)
(-0.0138024 -0.00310366 0)
(-0.01213 -0.00302409 0)
(-0.0105063 -0.00290864 0)
(-0.0089495 -0.00275873 0)
(-0.00747713 -0.00257646 0)
(-0.00610526 -0.00236457 0)
(-0.00484838 -0.0021265 0)
(-0.00371896 -0.0018664 0)
(-0.0027271 -0.00158914 0)
(-0.00188014 -0.00130043 0)
(-0.00118222 -0.00100691 0)
(-0.000633808 -0.000716392 0)
(-0.000231241 -0.00043812 0)
(3.39248e-05 -0.000183218 0)
(0.000175532 3.47385e-05 0)
(0.000213247 0.000199066 0)
(0.000173165 0.00028941 0)
(9.26292e-05 0.000281511 0)
(2.39442e-05 0.000146858 0)
(-2.16993e-06 -8.37524e-05 0)
(-6.74155e-05 2.20486e-05 0)
(-0.000264226 0.000296503 0)
(-0.000609676 0.000668595 0)
(-0.00111618 0.00109067 0)
(-0.00178992 0.00152891 0)
(-0.00262987 0.00195997 0)
(-0.00362966 0.00236841 0)
(-0.00477916 0.00274456 0)
(-0.0060657 0.0030828 0)
(-0.00747495 0.00338038 0)
(-0.00899168 0.00363647 0)
(-0.0106003 0.00385154 0)
(-0.0122854 0.00402682 0)
(-0.0140316 0.00416399 0)
(-0.0158241 0.00426484 0)
(-0.0176487 0.00433116 0)
(-0.0194915 0.00436461 0)
(-0.0213391 0.0043666 0)
(-0.0231786 0.0043383 0)
(-0.0249976 0.00428063 0)
(-0.0267836 0.00419424 0)
(-0.0285247 0.00407959 0)
(-0.0302088 0.00393697 0)
(-0.0318244 0.00376659 0)
(-0.0333597 0.00356859 0)
(-0.0348034 0.00334316 0)
(-0.036144 0.00309059 0)
(-0.0373707 0.0028113 0)
(-0.0384725 0.00250597 0)
(-0.0394393 0.00217554 0)
(-0.0402612 0.00182127 0)
(-0.0409291 0.00144481 0)
(-0.0414349 0.0010482 0)
(-0.0417711 0.000633925 0)
(-0.0419316 0.000204892 0)
(-0.0419117 -0.000235549 0)
(-0.0417078 -0.000683619 0)
(-0.0413183 -0.00113514 0)
(-0.0407431 -0.00158557 0)
(-0.0399841 -0.00203006 0)
(-0.0390451 -0.00246351 0)
(-0.0379319 -0.00288062 0)
(-0.0366524 -0.00327603 0)
(-0.0352168 -0.00364438 0)
(-0.0336369 -0.0039804 0)
(-0.031927 -0.00427904 0)
(-0.0301029 -0.00453557 0)
(-0.0281823 -0.00474569 0)
(-0.0261845 -0.00490565 0)
(-0.0241299 -0.00501232 0)
(-0.0220402 -0.00506332 0)
(-0.0199377 -0.00505706 0)
(-0.0178452 -0.00499287 0)
(-0.0157856 -0.00487101 0)
(-0.0137814 -0.00469271 0)
(-0.0118546 -0.00446025 0)
(-0.0100257 -0.00417693 0)
(-0.0083142 -0.00384712 0)
(-0.00673726 -0.00347626 0)
(-0.00530986 -0.00307091 0)
(-0.0040441 -0.00263879 0)
(-0.00294886 -0.00218885 0)
(-0.00202929 -0.0017315 0)
(-0.00128635 -0.00127874 0)
(-0.000716295 -0.000844599 0)
(-0.000310183 -0.000445525 0)
(-5.32933e-05 -0.000101036 0)
(7.51855e-05 0.00016558 0)
(0.000102682 0.000326643 0)
(6.71082e-05 0.000349471 0)
(1.9581e-05 0.000193492 0)
(-1.37171e-05 -3.68205e-05 0)
(-0.000132816 0.000198485 0)
(-0.000435549 0.000627717 0)
(-0.000923798 0.00117039 0)
(-0.00160214 0.00177072 0)
(-0.00247311 0.00238798 0)
(-0.00353286 0.00299321 0)
(-0.00477268 0.00356669 0)
(-0.00618051 0.0040956 0)
(-0.00774186 0.00457223 0)
(-0.00944062 0.00499251 0)
(-0.0112598 0.00535495 0)
(-0.0131818 0.0056598 0)
(-0.0151894 0.00590843 0)
(-0.0172651 0.00610281 0)
(-0.0193922 0.00624519 0)
(-0.0215542 0.00633787 0)
(-0.0237351 0.00638295 0)
(-0.0259196 0.00638232 0)
(-0.0280925 0.00633754 0)
(-0.0302392 0.00624983 0)
(-0.0323454 0.00612014 0)
(-0.0343967 0.00594912 0)
(-0.0363795 0.00573726 0)
(-0.0382797 0.00548491 0)
(-0.040084 0.00519238 0)
(-0.0417789 0.00486007 0)
(-0.0433514 0.00448849 0)
(-0.0447885 0.00407841 0)
(-0.046078 0.00363091 0)
(-0.047208 0.00314749 0)
(-0.0481672 0.00263008 0)
(-0.0489454 0.00208117 0)
(-0.0495332 0.00150379 0)
(-0.0499223 0.000901577 0)
(-0.0501059 0.000278774 0)
(-0.0500786 -0.000359768 0)
(-0.0498367 -0.00100861 0)
(-0.0493784 -0.00166177 0)
(-0.0487039 -0.00231275 0)
(-0.0478154 -0.00295464 0)
(-0.0467175 -0.0035802 0)
(-0.045417 -0.00418195 0)
(-0.0439231 -0.00475228 0)
(-0.0422473 -0.00528361 0)
(-0.0404034 -0.00576853 0)
(-0.0384075 -0.00619991 0)
(-0.0362778 -0.0065711 0)
(-0.0340346 -0.00687604 0)
(-0.0316996 -0.00710944 0)
(-0.0292964 -0.00726691 0)
(-0.0268495 -0.00734509 0)
(-0.0243844 -0.00734176 0)
(-0.0219271 -0.00725598 0)
(-0.0195037 -0.00708811 0)
(-0.01714 -0.00683993 0)
(-0.0148608 -0.00651467 0)
(-0.0126901 -0.00611702 0)
(-0.0106499 -0.00565321 0)
(-0.00875997 -0.00513099 0)
(-0.00703768 -0.00455967 0)
(-0.00549708 -0.00395021 0)
(-0.00414863 -0.00331527 0)
(-0.00299871 -0.00266942 0)
(-0.00204911 -0.00202934 0)
(-0.00129659 -0.00141418 0)
(-0.000732405 -0.00084603 0)
(-0.000341892 -0.000350514 0)
(-0.000104155 4.2454e-05 0)
(8.35914e-06 0.000298001 0)
(3.21398e-05 0.000375386 0)
(1.35433e-05 0.000223664 0)
(-2.51787e-05 4.47696e-05 0)
(-0.000199816 0.000462136 0)
(-0.000613321 0.0010873 0)
(-0.00125117 0.00183381 0)
(-0.00210887 0.00263998 0)
(-0.00318424 0.00345974 0)
(-0.00446974 0.00425955 0)
(-0.00595365 0.00501606 0)
(-0.0076215 0.00571371 0)
(-0.00945678 0.00634285 0)
(-0.0114415 0.00689819 0)
(-0.013557 0.00737756 0)
(-0.015784 0.00778099 0)
(-0.0181033 0.0081099 0)
(-0.020496 0.00836656 0)
(-0.0229433 0.00855363 0)
(-0.0254271 0.00867383 0)
(-0.0279295 0.00872977 0)
(-0.0304333 0.00872374 0)
(-0.0329215 0.00865769 0)
(-0.0353776 0.0085332 0)
(-0.0377854 0.00835148 0)
(-0.0401288 0.00811342 0)
(-0.0423921 0.00781972 0)
(-0.0445597 0.00747094 0)
(-0.0466164 0.0070676 0)
(-0.0485471 0.00661035 0)
(-0.050337 0.00610003 0)
(-0.0519718 0.00553782 0)
(-0.0534376 0.00492534 0)
(-0.0547213 0.00426472 0)
(-0.0558103 0.00355872 0)
(-0.0566932 0.00281079 0)
(-0.0573598 0.00202514 0)
(-0.0578008 0.00120671 0)
(-0.0580089 0.000361282 0)
(-0.0579781 -0.000504599 0)
(-0.0577045 -0.00138362 0)
(-0.0571862 -0.00226776 0)
(-0.0564235 -0.00314835 0)
(-0.0554191 -0.00401619 0)
(-0.0541779 -0.00486164 0)
(-0.0527077 -0.00567477 0)
(-0.0510187 -0.00644551 0)
(-0.0491235 -0.00716381 0)
(-0.0470376 -0.00781987 0)
(-0.0447787 -0.00840426 0)
(-0.042367 -0.00890817 0)
(-0.0398247 -0.00932359 0)
(-0.0371761 -0.00964353 0)
(-0.0344471 -0.00986215 0)
(-0.031665 -0.00997501 0)
(-0.0288579 -0.00997916 0)
(-0.0260547 -0.0098733 0)
(-0.0232844 -0.00965793 0)
(-0.0205757 -0.00933536 0)
(-0.0179563 -0.00890987 0)
(-0.0154529 -0.00838768 0)
(-0.0130901 -0.00777705 0)
(-0.0108905 -0.00708825 0)
(-0.00887335 -0.00633363 0)
(-0.00705494 -0.00552767 0)
(-0.00544744 -0.00468707 0)
(-0.00405872 -0.00383088 0)
(-0.00289179 -0.00298074 0)
(-0.00194438 -0.00216119 0)
(-0.0012086 -0.0014001 0)
(-0.000670551 -0.000729248 0)
(-0.000310093 -0.000185048 0)
(-0.00010047 0.000190775 0)
(-8.00304e-06 0.000350195 0)
(6.79488e-06 0.000233958 0)
(-3.6299e-05 0.000160999 0)
(-0.000266542 0.000814841 0)
(-0.000792448 0.001679 0)
(-0.0015829 0.00266381 0)
(-0.00262372 0.00370379 0)
(-0.00390738 0.00474906 0)
(-0.00542191 0.00576271 0)
(-0.00715206 0.00671856 0)
(-0.00908054 0.00759887 0)
(-0.0111885 0.00839241 0)
(-0.0134561 0.00909288 0)
(-0.0158627 0.00969755 0)
(-0.0183876 0.0102063 0)
(-0.0210098 0.0106205 0)
(-0.0237089 0.0109429 0)
(-0.0264647 0.0111764 0)
(-0.0292572 0.0113241 0)
(-0.0320672 0.0113892 0)
(-0.0348757 0.0113744 0)
(-0.0376641 0.0112819 0)
(-0.0404144 0.0111138 0)
(-0.0431085 0.0108714 0)
(-0.0457289 0.0105559 0)
(-0.0482583 0.0101683 0)
(-0.0506795 0.00970936 0)
(-0.0529756 0.00917986 0)
(-0.05513 0.00858076 0)
(-0.0571266 0.00791329 0)
(-0.0589497 0.00717913 0)
(-0.060584 0.00638049 0)
(-0.0620152 0.00552028 0)
(-0.0632297 0.00460219 0)
(-0.064215 0.00363077 0)
(-0.0649599 0.00261149 0)
(-0.0654546 0.00155082 0)
(-0.0656909 0.000456181 0)
(-0.0656625 -0.000663995 0)
(-0.0653652 -0.00180035 0)
(-0.0647969 -0.00294263 0)
(-0.0639579 -0.0040798 0)
(-0.0628511 -0.00520017 0)
(-0.0614819 -0.0062915 0)
(-0.0598586 -0.00734119 0)
(-0.0579922 -0.00833649 0)
(-0.0558964 -0.0092647 0)
(-0.0535877 -0.0101134 0)
(-0.0510855 -0.0108706 0)
(-0.0484114 -0.0115252 0)
(-0.0455895 -0.012067 0)
(-0.042646 -0.0124871 0)
(-0.0396091 -0.0127782 0)
(-0.0365084 -0.0129344 0)
(-0.0333745 -0.0129522 0)
(-0.0302389 -0.0128296 0)
(-0.0271331 -0.0125673 0)
(-0.0240887 -0.0121682 0)
(-0.0211361 -0.0116376 0)
(-0.0183046 -0.0109833 0)
(-0.0156216 -0.0102157 0)
(-0.0131119 -0.00934784 0)
(-0.0107974 -0.00839524 0)
(-0.00869634 -0.00737614 0)
(-0.00682302 -0.00631148 0)
(-0.00518703 -0.00522504 0)
(-0.00379299 -0.00414362 0)
(-0.00264007 -0.00309728 0)
(-0.00172174 -0.00211976 0)
(-0.00102548 -0.00124893 0)
(-0.000532517 -0.000527503 0)
(-0.000217584 -3.59785e-06 0)
(-5.0661e-05 0.000268357 0)
(-1.35071e-07 0.000222679 0)
(-4.69828e-05 0.000311224 0)
(-0.000332021 0.00125649 0)
(-0.000969955 0.00240375 0)
(-0.0019134 0.00366223 0)
(-0.00313836 0.00496442 0)
(-0.00463152 0.00625815 0)
(-0.00637609 0.0075043 0)
(-0.00835282 0.00867477 0)
(-0.0105413 0.00975029 0)
(-0.0129201 0.0107185 0)
(-0.0154671 0.0115725 0)
(-0.0181601 0.0123091 0)
(-0.0209765 0.0129282 0)
(-0.0238941 0.0134314 0)
(-0.0268907 0.0138215 0)
(-0.0299448 0.014102 0)
(-0.0330351 0.0142764 0)
(-0.036141 0.0143483 0)
(-0.039242 0.0143208 0)
(-0.0423182 0.0141965 0)
(-0.04535 0.0139777 0)
(-0.0483182 0.0136662 0)
(-0.0512036 0.0132633 0)
(-0.0539874 0.0127704 0)
(-0.0566513 0.0121883 0)
(-0.0591768 0.0115183 0)
(-0.0615463 0.0107615 0)
(-0.063742 0.00991983 0)
(-0.0657471 0.00899534 0)
(-0.0675453 0.00799099 0)
(-0.069121 0.00691053 0)
(-0.0704596 0.00575866 0)
(-0.0715477 0.00454114 0)
(-0.0723733 0.00326485 0)
(-0.0729258 0.00193784 0)
(-0.0731964 0.000569374 0)
(-0.0731782 -0.000830134 0)
(-0.0728668 -0.00224912 0)
(-0.0722596 -0.00367495 0)
(-0.071357 -0.00509408 0)
(-0.0701618 -0.00649212 0)
(-0.0686797 -0.00785407 0)
(-0.0669193 -0.00916449 0)
(-0.0648921 -0.0104078 0)
(-0.0626128 -0.0115683 0)
(-0.0600986 -0.0126308 0)
(-0.0573701 -0.0135807 0)
(-0.0544502 -0.0144043 0)
(-0.0513646 -0.015089 0)
(-0.0481412 -0.015624 0)
(-0.0448102 -0.0159999 0)
(-0.0414032 -0.0162098 0)
(-0.0379531 -0.0162489 0)
(-0.0344939 -0.0161148 0)
(-0.0310597 -0.0158083 0)
(-0.0276844 -0.0153326 0)
(-0.0244014 -0.0146941 0)
(-0.0212426 -0.0139023 0)
(-0.018238 -0.0129699 0)
(-0.0154151 -0.0119125 0)
(-0.0127982 -0.0107492 0)
(-0.010408 -0.00950204 0)
(-0.00826107 -0.00819637 0)
(-0.00636906 -0.00686088 0)
(-0.00473856 -0.00552764 0)
(-0.00337062 -0.00423235 0)
(-0.00226051 -0.00301461 0)
(-0.00139757 -0.00191836 0)
(-0.000764879 -0.000992337 0)
(-0.000339094 -0.000290611 0)
(-9.42812e-05 0.000126785 0)
(-6.97748e-06 0.000189185 0)
(-5.72197e-05 0.000494537 0)
(-0.000395778 0.00178582 0)
(-0.00114412 0.00326064 0)
(-0.00223917 0.00482867 0)
(-0.00364725 0.00642184 0)
(-0.00534907 0.00798704 0)
(-0.00732275 0.00948405 0)
(-0.00954479 0.0108838 0)
(-0.0119913 0.0121662 0)
(-0.0146382 0.0133184 0)
(-0.017461 0.014333 0)
(-0.0204355 0.015207 0)
(-0.0235376 0.0159403 0)
(-0.0267435 0.0165348 0)
(-0.0300298 0.0169937 0)
(-0.0333736 0.0173209 0)
(-0.0367523 0.0175204 0)
(-0.0401442 0.0175962 0)
(-0.0435275 0.0175517 0)
(-0.0468811 0.01739 0)
(-0.0501842 0.0171138 0)
(-0.0534163 0.0167249 0)
(-0.0565571 0.0162253 0)
(-0.0595865 0.0156161 0)
(-0.0624849 0.0148989 0)
(-0.0652327 0.0140749 0)
(-0.067811 0.013146 0)
(-0.0702011 0.0121143 0)
(-0.0723849 0.0109825 0)
(-0.074345 0.00975445 0)
(-0.0760649 0.00843471 0)
(-0.0775291 0.00702909 0)
(-0.0787231 0.00554462 0)
(-0.0796341 0.00398968 0)
(-0.0802509 0.00237402 0)
(-0.0805638 0.00070879 0)
(-0.0805656 -0.000993466 0)
(-0.0802511 -0.00271887 0)
(-0.0796175 -0.00445231 0)
(-0.0786648 -0.00617754 0)
(-0.0773957 -0.00787738 0)
(-0.075816 -0.00953391 0)
(-0.0739343 -0.0111287 0)
(-0.0717625 -0.012643 0)
(-0.0693155 -0.0140582 0)
(-0.0666116 -0.0153561 0)
(-0.0636719 -0.0165191 0)
(-0.0605205 -0.0175307 0)
(-0.0571845 -0.018376 0)
(-0.0536933 -0.0190415 0)
(-0.0500786 -0.0195163 0)
(-0.0463741 -0.0197916 0)
(-0.0426149 -0.0198616 0)
(-0.0388372 -0.0197232 0)
(-0.0350776 -0.0193769 0)
(-0.0313727 -0.0188266 0)
(-0.0277586 -0.0180795 0)
(-0.0242699 -0.0171468 0)
(-0.0209394 -0.0160433 0)
(-0.0177973 -0.0147877 0)
(-0.0148709 -0.0134023 0)
(-0.0121834 -0.0119132 0)
(-0.0097539 -0.0103504 0)
(-0.00759651 -0.00874751 0)
(-0.0057202 -0.00714198 0)
(-0.00412824 -0.00557523 0)
(-0.00281811 -0.00409275 0)
(-0.00178138 -0.00274443 0)
(-0.00100333 -0.0015849 0)
(-0.000462796 -0.000673785 0)
(-0.000138051 -7.61216e-05 0)
(-1.36173e-05 0.0001334 0)
(-6.70291e-05 0.000709903 0)
(-0.000457591 0.00240094 0)
(-0.00131395 0.00424759 0)
(-0.00255804 0.00616114 0)
(-0.00414671 0.00807423 0)
(-0.00605474 0.00993394 0)
(-0.00825503 0.0117 0)
(-0.0107197 0.0133433 0)
(-0.0134211 0.0148437 0)
(-0.0163324 0.0161883 0)
(-0.0194267 0.0173699 0)
(-0.0226777 0.0183858 0)
(-0.0260597 0.0192362 0)
(-0.0295474 0.0199236 0)
(-0.0331162 0.0204516 0)
(-0.0367418 0.0208246 0)
(-0.0404008 0.0210471 0)
(-0.0440701 0.0211235 0)
(-0.0477271 0.0210578 0)
(-0.0513495 0.0208533 0)
(-0.0549155 0.0205129 0)
(-0.0584035 0.020039 0)
(-0.0617921 0.0194336 0)
(-0.0650603 0.0186982 0)
(-0.0681874 0.0178346 0)
(-0.0711527 0.0168445 0)
(-0.0739363 0.01573 0)
(-0.0765184 0.0144938 0)
(-0.07888 0.0131394 0)
(-0.0810027 0.0116711 0)
(-0.082869 0.0100947 0)
(-0.0844624 0.00841696 0)
(-0.0857678 0.00664635 0)
(-0.0867713 0.00479275 0)
(-0.0874608 0.00286768 0)
(-0.0878262 0.000884267 0)
(-0.0878593 -0.00114276 0)
(-0.0875544 -0.00319712 0)
(-0.0869081 -0.00526111 0)
(-0.08592 -0.00731572 0)
(-0.0845923 -0.00934082 0)
(-0.0829306 -0.0113154 0)
(-0.0809435 -0.0132179 0)
(-0.0786427 -0.0150265 0)
(-0.0760436 -0.0167191 0)
(-0.0731646 -0.0182744 0)
(-0.0700276 -0.0196718 0)
(-0.0666575 -0.0208917 0)
(-0.0630824 -0.0219163 0)
(-0.059333 -0.02273 0)
(-0.0554426 -0.0233192 0)
(-0.0514467 -0.0236736 0)
(-0.0473825 -0.0237859 0)
(-0.0432884 -0.0236523 0)
(-0.0392035 -0.0232728 0)
(-0.0351672 -0.0226517 0)
(-0.0312181 -0.021797 0)
(-0.027394 -0.0207216 0)
(-0.0237307 -0.0194425 0)
(-0.0202613 -0.017981 0)
(-0.0170162 -0.0163631 0)
(-0.0140214 -0.0146191 0)
(-0.0112991 -0.0127833 0)
(-0.0088662 -0.0108945 0)
(-0.00673429 -0.00899582 0)
(-0.00490931 -0.00713432 0)
(-0.00339127 -0.00536145 0)
(-0.00217427 -0.00373301 0)
(-0.00124603 -0.00230938 0)
(-0.000587687 -0.00115555 0)
(-0.000181646 -0.000341191 0)
(-2.00285e-05 5.54947e-05 0)
(-7.64354e-05 0.000956244 0)
(-0.00051736 0.00309953 0)
(-0.00147887 0.00536169 0)
(-0.00286856 0.00765656 0)
(-0.00463422 0.00991845 0)
(-0.00674475 0.0120957 0)
(-0.00916787 0.014149 0)
(-0.0118711 0.0160499 0)
(-0.0148234 0.0177789 0)
(-0.0179945 0.0193239 0)
(-0.0213552 0.0206784 0)
(-0.0248773 0.0218401 0)
(-0.0285333 0.02281 0)
(-0.0322964 0.0235912 0)
(-0.0361408 0.0241881 0)
(-0.0400411 0.0246056 0)
(-0.043973 0.0248487 0)
(-0.0479122 0.0249224 0)
(-0.0518354 0.0248311 0)
(-0.0557193 0.0245785 0)
(-0.0595412 0.0241678 0)
(-0.0632787 0.0236016 0)
(-0.0669095 0.0228822 0)
(-0.0704116 0.0220114 0)
(-0.0737634 0.0209913 0)
(-0.0769435 0.019824 0)
(-0.0799308 0.0185118 0)
(-0.0827048 0.0170581 0)
(-0.0852454 0.0154669 0)
(-0.0875335 0.0137436 0)
(-0.0895505 0.0118945 0)
(-0.0912791 0.00992799 0)
(-0.0927033 0.00785361 0)
(-0.0938082 0.00568288 0)
(-0.0945811 0.00342911 0)
(-0.0950108 0.00110744 0)
(-0.0950883 -0.00126516 0)
(-0.0948072 -0.00366996 0)
(-0.0941633 -0.00608659 0)
(-0.0931554 -0.00849319 0)
(-0.0917854 -0.0108666 0)
(-0.0900581 -0.0131827 0)
(-0.0879817 -0.0154165 0)
(-0.0855679 -0.0175428 0)
(-0.0828319 -0.0195362 0)
(-0.0797922 -0.021372 0)
(-0.0764709 -0.0230262 0)
(-0.0728938 -0.024476 0)
(-0.0690895 -0.0257005 0)
(-0.0650901 -0.0266814 0)
(-0.0609302 -0.0274027 0)
(-0.056647 -0.0278518 0)
(-0.0522796 -0.02802 0)
(-0.0478689 -0.0279023 0)
(-0.0434563 -0.0274983 0)
(-0.0390841 -0.026812 0)
(-0.0347939 -0.0258527 0)
(-0.0306266 -0.0246343 0)
(-0.0266211 -0.0231761 0)
(-0.022814 -0.0215023 0)
(-0.019239 -0.0196422 0)
(-0.0159255 -0.0176303 0)
(-0.0128988 -0.0155056 0)
(-0.010179 -0.0133123 0)
(-0.00778098 -0.0110988 0)
(-0.00571349 -0.00891815 0)
(-0.00397945 -0.00682781 0)
(-0.00257571 -0.00488954 0)
(-0.00149261 -0.00316948 0)
(-0.000713617 -0.0017379 0)
(-0.000225072 -0.000668982 0)
(-2.6238e-05 -4.43133e-05 0)
(-8.54604e-05 0.00123247 0)
(-0.000575037 0.00387907 0)
(-0.00163849 0.00659955 0)
(-0.00316979 0.00931101 0)
(-0.00510799 0.0119503 0)
(-0.00741633 0.0144679 0)
(-0.0100574 0.0168264 0)
(-0.0129942 0.0189988 0)
(-0.016192 0.020967 0)
(-0.0196175 0.0227202 0)
(-0.0232391 0.0242528 0)
(-0.0270263 0.0255639 0)
(-0.03095 0.0266553 0)
(-0.034982 0.0275311 0)
(-0.0390952 0.0281963 0)
(-0.0432635 0.0286568 0)
(-0.0474613 0.0289182 0)
(-0.0516637 0.0289859 0)
(-0.0558464 0.0288649 0)
(-0.0599856 0.0285592 0)
(-0.0640578 0.0280724 0)
(-0.0680396 0.0274073 0)
(-0.0719082 0.0265665 0)
(-0.0756409 0.0255522 0)
(-0.0792151 0.0243666 0)
(-0.0826088 0.023012 0)
(-0.0858 0.0214914 0)
(-0.0887674 0.0198086 0)
(-0.0914902 0.0179682 0)
(-0.0939482 0.0159763 0)
(-0.0961221 0.0138405 0)
(-0.0979937 0.0115699 0)
(-0.099546 0.00917563 0)
(-0.100763 0.00667077 0)
(-0.101632 0.00407039 0)
(-0.102139 0.00139165 0)
(-0.102276 -0.00134623 0)
(-0.102034 -0.00412205 0)
(-0.101409 -0.00691271 0)
(-0.100398 -0.00969346 0)
(-0.0990032 -0.012438 0)
(-0.0972275 -0.015119 0)
(-0.0950789 -0.017708 0)
(-0.0925684 -0.0201762 0)
(-0.0897109 -0.0224948 0)
(-0.0865248 -0.0246353 0)
(-0.0830323 -0.0265701 0)
(-0.0792593 -0.0282731 0)
(-0.0752352 -0.02972 0)
(-0.070993 -0.0308893 0)
(-0.0665686 -0.0317624 0)
(-0.0620007 -0.0323242 0)
(-0.0573306 -0.0325641 0)
(-0.0526011 -0.0324757 0)
(-0.0478567 -0.0320577 0)
(-0.0431422 -0.0313141 0)
(-0.0385026 -0.0302547 0)
(-0.0339821 -0.0288946 0)
(-0.0296231 -0.0272551 0)
(-0.025466 -0.0253632 0)
(-0.021548 -0.0232517 0)
(-0.0179025 -0.0209592 0)
(-0.0145583 -0.0185297 0)
(-0.0115392 -0.0160123 0)
(-0.00886337 -0.0134613 0)
(-0.00654303 -0.0109358 0)
(-0.00458422 -0.00849928 0)
(-0.0029868 -0.0062197 0)
(-0.00174381 -0.00416903 0)
(-0.00084104 -0.0024229 0)
(-0.00026855 -0.00106014 0)
(-3.2305e-05 -0.000165891 0)
(-9.41194e-05 0.0015375 0)
(-0.000630588 0.00473685 0)
(-0.00179255 0.00795736 0)
(-0.00346098 0.01112 0)
(-0.00556664 0.0141649 0)
(-0.00806727 0.0170455 0)
(-0.0109205 0.0197269 0)
(-0.0140849 0.0221844 0)
(-0.0175221 0.0244022 0)
(-0.0211958 0.026371 0)
(-0.0250717 0.0280871 0)
(-0.0291174 0.0295509 0)
(-0.0333021 0.0307657 0)
(-0.0375963 0.0317365 0)
(-0.0419717 0.0324696 0)
(-0.0464011 0.0329716 0)
(-0.0508582 0.0332489 0)
(-0.0553175 0.0333076 0)
(-0.0597538 0.0331531 0)
(-0.0641427 0.0327898 0)
(-0.0684602 0.0322218 0)
(-0.0726822 0.0314521 0)
(-0.0767854 0.0304835 0)
(-0.0807463 0.0293184 0)
(-0.0845419 0.0279593 0)
(-0.0881493 0.0264089 0)
(-0.091546 0.0246705 0)
(-0.0947099 0.0227484 0)
(-0.0976194 0.0206478 0)
(-0.100253 0.0183756 0)
(-0.102592 0.0159402 0)
(-0.104616 0.013352 0)
(-0.106307 0.0106233 0)
(-0.107649 0.00776877 0)
(-0.108627 0.0048052 0)
(-0.109227 0.00175176 0)
(-0.109439 -0.00137008 0)
(-0.109254 -0.00453665 0)
(-0.108665 -0.00772215 0)
(-0.10767 -0.0108989 0)
(-0.106268 -0.0140374 0)
(-0.104462 -0.0171068 0)
(-0.102259 -0.0200754 0)
(-0.0996695 -0.0229106 0)
(-0.0967067 -0.0255798 0)
(-0.0933889 -0.0280506 0)
(-0.0897383 -0.0302917 0)
(-0.0857808 -0.032273 0)
(-0.0815461 -0.0339668 0)
(-0.077068 -0.035348 0)
(-0.0723836 -0.036395 0)
(-0.067533 -0.0370899 0)
(-0.0625595 -0.0374197 0)
(-0.0575082 -0.0373763 0)
(-0.0524263 -0.0369573 0)
(-0.0473617 -0.0361662 0)
(-0.0423628 -0.035013 0)
(-0.0374773 -0.0335139 0)
(-0.0327518 -0.0316922 0)
(-0.0282305 -0.0295774 0)
(-0.0239549 -0.0272057 0)
(-0.0199623 -0.02462 0)
(-0.0162859 -0.0218689 0)
(-0.0129534 -0.0190072 0)
(-0.00998684 -0.0160949 0)
(-0.00740213 -0.0131972 0)
(-0.00520876 -0.0103841 0)
(-0.00340981 -0.00772981 0)
(-0.00200116 -0.00531236 0)
(-0.000970835 -0.00321304 0)
(-0.000312453 -0.00151564 0)
(-3.83077e-05 -0.000309275 0)
(-0.000102421 0.00187021 0)
(-0.000683971 0.00567005 0)
(-0.0019408 0.009431 0)
(-0.00374153 0.0130784 0)
(-0.00600898 0.0165565 0)
(-0.0086957 0.0198222 0)
(-0.0117545 0.022844 0)
(-0.0151397 0.0256003 0)
(-0.0188093 0.0280778 0)
(-0.022724 0.0302697 0)
(-0.0268471 0.0321744 0)
(-0.0311442 0.0337943 0)
(-0.0355827 0.0351342 0)
(-0.040132 0.0362006 0)
(-0.0447625 0.0370011 0)
(-0.0494462 0.0375433 0)
(-0.0541561 0.0378345 0)
(-0.058866 0.0378815 0)
(-0.0635502 0.0376901 0)
(-0.0681838 0.0372655 0)
(-0.0727421 0.0366119 0)
(-0.0772009 0.0357326 0)
(-0.0815361 0.0346307 0)
(-0.0857239 0.0333088 0)
(-0.0897407 0.0317696 0)
(-0.093563 0.0300161 0)
(-0.0971677 0.0280521 0)
(-0.100532 0.025882 0)
(-0.103634 0.0235118 0)
(-0.106452 0.0209491 0)
(-0.108964 0.0182031 0)
(-0.11115 0.0152852 0)
(-0.112993 0.012209 0)
(-0.114473 0.00899068 0)
(-0.115575 0.00564867 0)
(-0.116285 0.0022041 0)
(-0.11659 -0.00131939 0)
(-0.116479 -0.00489568 0)
(-0.115946 -0.00849626 0)
(-0.114986 -0.0120905 0)
(-0.113597 -0.0156456 0)
(-0.111781 -0.0191276 0)
(-0.109542 -0.0225008 0)
(-0.106891 -0.0257289 0)
(-0.10384 -0.0287753 0)
(-0.100406 -0.0316036 0)
(-0.0966117 -0.0341783 0)
(-0.0924815 -0.0364652 0)
(-0.088046 -0.0384328 0)
(-0.0833391 -0.0400519 0)
(-0.0783992 -0.0412974 0)
(-0.0732677 -0.0421484 0)
(-0.0679897 -0.042589 0)
(-0.0626129 -0.0426089 0)
(-0.0571871 -0.0422043 0)
(-0.0517635 -0.0413777 0)
(-0.0463941 -0.0401391 0)
(-0.0411308 -0.0385056 0)
(-0.0360241 -0.0365019 0)
(-0.031123 -0.0341601 0)
(-0.0264732 -0.03152 0)
(-0.0221171 -0.0286282 0)
(-0.018092 -0.0255386 0)
(-0.0144304 -0.0223113 0)
(-0.0111586 -0.0190125 0)
(-0.00829652 -0.0157138 0)
(-0.00585745 -0.0124917 0)
(-0.00384793 -0.00942718 0)
(-0.00226674 -0.00660467 0)
(-0.00110418 -0.00411155 0)
(-0.000357253 -0.00203698 0)
(-4.43357e-05 -0.00047473 0)
(-0.000110366 0.0022295 0)
(-0.000735128 0.00667571 0)
(-0.00208299 0.0110161 0)
(-0.00401082 0.0151809 0)
(-0.00643394 0.0191189 0)
(-0.00929991 0.0227914 0)
(-0.0125569 0.0261708 0)
(-0.0161553 0.0292392 0)
(-0.0200495 0.0319864 0)
(-0.0241973 0.0344088 0)
(-0.0285598 0.0365073 0)
(-0.0331003 0.0382865 0)
(-0.037785 0.0397534 0)
(-0.0425816 0.0409162 0)
(-0.0474598 0.0417838 0)
(-0.0523908 0.0423652 0)
(-0.0573468 0.0426686 0)
(-0.062301 0.0427017 0)
(-0.0672275 0.0424708 0)
(-0.0721008 0.0419817 0)
(-0.0768959 0.0412389 0)
(-0.0815883 0.0402461 0)
(-0.0861534 0.0390065 0)
(-0.0905671 0.0375229 0)
(-0.0948054 0.0357984 0)