/*--------------------------------*- C++ -*----------------------------------*\
  =========                 |
  \\      /  F ield         | OpenFOAM: The Open Source CFD Toolbox
   \\    /   O peration     | Website:  https://openfoam.org
    \\  /    A nd           | Version:  dev
     \\/     M anipulation  |
\*---------------------------------------------------------------------------*/
FoamFile
{
    format      ascii;
    class       volTensorField;
    location    "0.3";
    object      grad(U);
}
// * * * * * * * * * * * * * * * * * * * * * * * * * * * * * * * * * * * * * //

dimensions      [0 0 -1 0 0 0 0];

internalField   nonuniform List<tensor> 
400
(
(0.039458 -0.013895 0 0.0175925 -0.0419696 0 0 0 0)
(-0.143027 0.0814943 0 -0.147023 0.175615 0 0 0 0)
(-0.362203 0.0773466 0 -0.686934 0.418158 0 0 0 0)
(-0.520005 0.0481052 0 -1.51987 0.591931 0 0 0 0)
(-0.598783 0.0176739 0 -2.52678 0.678837 0 0 0 0)
(-0.602496 -0.0087856 0 -3.58675 0.682138 0 0 0 0)
(-0.541504 -0.0301276 0 -4.58686 0.612901 0 0 0 0)
(-0.42862 -0.0463156 0 -5.43076 0.485255 0 0 0 0)
(-0.27731 -0.0575818 0 -6.04289 0.314204 0 0 0 0)
(-0.10126 -0.0639849 0 -6.37006 0.115142 0 0 0 0)
(0.08531 -0.0652867 0 -6.38269 -0.0958385 0 0 0 0)
(0.26718 -0.0610096 0 -6.0762 -0.301517 0 0 0 0)
(0.42795 -0.0505861 0 -5.47274 -0.483366 0 0 0 0)
(0.550321 -0.0335753 0 -4.62247 -0.621889 0 0 0 0)
(0.616966 -0.0099738 0 -3.60374 -0.697724 0 0 0 0)
(0.612526 0.0193045 0 -2.52079 -0.693837 0 0 0 0)
(0.526815 0.0517565 0 -1.49664 -0.599247 0 0 0 0)
(0.359682 0.0807682 0 -0.659937 -0.414555 0 0 0 0)
(0.135422 0.0818709 0 -0.129662 -0.164943 0 0 0 0)
(-0.046422 -0.0171981 0 0.0225249 0.0489771 0 0 0 0)
(-0.168889 0.147541 0 -0.0781953 0.134195 0 0 0 0)
(-0.561499 0.378633 0 -0.385233 0.562445 0 0 0 0)
(-1.01065 0.338969 0 -0.941131 0.965914 0 0 0 0)
(-1.31985 0.212574 0 -1.65096 1.25218 0 0 0 0)
(-1.46809 0.072533 0 -2.43859 1.38995 0 0 0 0)
(-1.45758 -0.05715 0 -3.23508 1.37761 0 0 0 0)
(-1.30251 -0.166755 0 -3.97145 1.22969 0 0 0 0)
(-1.02741 -0.252382 0 -4.58566 0.969504 0 0 0 0)
(-0.66199 -0.312532 0 -5.02771 0.624692 0 0 0 0)
(-0.23854 -0.346057 0 -5.26215 0.225418 0 0 0 0)
(0.20855 -0.351372 0 -5.26956 -0.196107 0 0 0 0)
(0.64277 -0.326518 0 -5.04765 -0.60566 0 0 0 0)
(1.02578 -0.269786 0 -4.61198 -0.967305 0 0 0 0)
(1.31868 -0.180783 0 -3.99612 -1.24459 0 0 0 0)
(1.48471 -0.061974 0 -3.25089 -1.40313 0 0 0 0)
(1.49457 0.079172 0 -2.44176 -1.41507 0 0 0 0)
(1.33404 0.227525 0 -1.64275 -1.2657 0 0 0 0)
(1.0073 0.353536 0 -0.927661 -0.962194 0 0 0 0)
(0.54704 0.381662 0 -0.374472 -0.546038 0 0 0 0)
(0.153559 0.133164 0 -0.0744655 -0.121115 0 0 0 0)
(-0.42397 0.682744 0 -0.0850702 0.364891 0 0 0 0)
(-1.00596 0.913214 0 -0.40797 1.05751 0 0 0 0)
(-1.62793 0.767082 0 -0.960845 1.63033 0 0 0 0)
(-2.01746 0.47214 0 -1.61973 2.01616 0 0 0 0)
(-2.18291 0.1431 0 -2.3092 2.18522 0 0 0 0)
(-2.13536 -0.16904 0 -2.9777 2.13758 0 0 0 0)
(-1.89208 -0.43823 0 -3.57814 1.89359 0 0 0 0)
(-1.48488 -0.651318 0 -4.06972 1.48603 0 0 0 0)
(-0.9538 -0.801667 0 -4.42024 0.954726 0 0 0 0)
(-0.34311 -0.884784 0 -4.60698 0.343797 0 0 0 0)
(0.29981 -0.896365 0 -4.61721 -0.299447 0 0 0 0)
(0.92476 -0.832208 0 -4.4487 -0.924875 0 0 0 0)
(1.47948 -0.689518 0 -4.11021 -1.48024 0 0 0 0)
(1.91141 -0.4694 0 -3.62187 -1.91298 0 0 0 0)
(2.17133 -0.18045 0 -3.01545 -2.17396 0 0 0 0)
(2.22067 0.15673 0 -2.33392 -2.22353 0 0 0 0)
(2.04091 0.50463 0 -1.62892 -2.04016 0 0 0 0)
(1.62796 0.800435 0 -0.957992 -1.63012 0 0 0 0)
(0.988618 0.92295 0 -0.401175 -1.03679 0 0 0 0)
(0.402515 0.649955 0 -0.0818973 -0.34521 0 0 0 0)
(-0.661929 1.56994 0 -0.0750281 0.578575 0 0 0 0)
(-1.43727 1.64407 0 -0.382449 1.52163 0 0 0 0)
(-2.22241 1.29762 0 -0.92156 2.22844 0 0 0 0)
(-2.6682 0.76747 0 -1.55426 2.66937 0 0 0 0)
(-2.82606 0.19395 0 -2.1978 2.83421 0 0 0 0)
(-2.72652 -0.34878 0 -2.80356 2.73521 0 0 0 0)
(-2.39453 -0.8183 0 -3.33428 2.40202 0 0 0 0)
(-1.86951 -1.19125 0 -3.76155 1.87556 0 0 0 0)
(-1.19925 -1.45477 0 -4.06498 1.20345 0 0 0 0)
(-0.43551 -1.60023 0 -4.23047 0.437464 0 0 0 0)
(0.36683 -1.62004 0 -4.24957 -0.36735 0 0 0 0)
(1.14977 -1.50731 0 -4.11888 -1.15284 0 0 0 0)
(1.85261 -1.25789 0 -3.84089 -1.85808 0 0 0 0)
(2.41344 -0.8745 0 -3.42499 -2.42099 0 0 0 0)
(2.77266 -0.37253 0 -2.88979 -2.78196 0 0 0 0)
(2.8811 0.21297 0 -2.26558 -2.89013 0 0 0 0)
(2.70997 0.82094 0 -1.59551 -2.7121 0 0 0 0)
(2.23504 1.3569 0 -0.93712 -2.24121 0 0 0 0)
(1.42313 1.66657 0 -0.382192 -1.50386 0 0 0 0)
(0.636632 1.51517 0 -0.0726798 -0.554896 0 0 0 0)
(-0.881447 2.78295 0 -0.0679279 0.77352 0 0 0 0)
(-1.85249 2.56308 0 -0.362645 1.96526 0 0 0 0)
(-2.79974 1.91482 0 -0.89072 2.80282 0 0 0 0)
(-3.2937 1.07791 0 -1.50855 3.28719 0 0 0 0)
(-3.43221 0.20894 0 -2.12713 3.43377 0 0 0 0)
(-3.27184 -0.60123 0 -2.69734 3.27413 0 0 0 0)
(-2.85007 -1.29788 0 -3.18719 2.85173 0 0 0 0)
(-2.21558 -1.84989 0 -3.57659 2.21704 0 0 0 0)
(-1.42272 -2.23976 0 -3.85388 1.42406 0 0 0 0)
(-0.5277 -2.45558 0 -4.01174 0.528754 0 0 0 0)
(0.4114 -2.48667 0 -4.04457 -0.410791 0 0 0 0)
(1.33344 -2.32294 0 -3.94717 -1.33344 0 0 0 0)
(2.17337 -1.95767 0 -3.71604 -2.17411 0 0 0 0)
(2.86251 -1.39328 0 -3.35098 -2.86409 0 0 0 0)
(3.33074 -0.64959 0 -2.85991 -3.33361 0 0 0 0)
(3.51495 0.22659 0 -2.26402 -3.51758 0 0 0 0)
(3.36937 1.15355 0 -1.60284 -3.3642 0 0 0 0)
(2.84127 2.00868 0 -0.93837 -2.84508 0 0 0 0)
(1.85306 2.60926 0 -0.374914 -1.96286 0 0 0 0)
(0.857387 2.70871 0 -0.0676124 -0.750322 0 0 0 0)
(-1.0925 4.30872 0 -0.066111 0.959859 0 0 0 0)
(-2.26007 3.67337 0 -0.358518 2.40189 0 0 0 0)
(-3.36831 2.61955 0 -0.88454 3.37206 0 0 0 0)
(-3.90461 1.39842 0 -1.49447 3.89534 0 0 0 0)
(-4.01485 0.18089 0 -2.09411 4.01531 0 0 0 0)
(-3.78658 -0.93082 0 -2.63446 3.78785 0 0 0 0)
(-3.27378 -1.87539 0 -3.08878 3.27444 0 0 0 0)
(-2.5362 -2.61892 0 -3.44532 2.53699 0 0 0 0)
(-1.6344 -3.14305 0 -3.701 1.63533 0 0 0 0)
(-0.6262 -3.43508 0 -3.8552 0.627063 0 0 0 0)
(0.4314 -3.48224 0 -3.9051 -0.430558 0 0 0 0)
(1.4783 -3.27063 0 -3.844 -1.47766 0 0 0 0)
(2.4488 -2.78854 0 -3.66184 -2.44863 0 0 0 0)
(3.26957 -2.034 0 -3.34827 -3.27016 0 0 0 0)
(3.85962 -1.02602 0 -2.89962 -3.86174 0 0 0 0)
(4.13817 0.18238 0 -2.32705 -4.14009 0 0 0 0)
(4.03562 1.49344 0 -1.66551 -4.02822 0 0 0 0)
(3.46297 2.75824 0 -0.98095 -3.46823 0 0 0 0)
(2.29389 3.76133 0 -0.391295 -2.43474 0 0 0 0)
(1.07916 4.22835 0 -0.069638 -0.945284 0 0 0 0)
(-1.30608 6.1447 0 -0.069251 1.14786 0 0 0 0)
(-2.67092 4.97528 0 -0.370702 2.84244 0 0 0 0)
(-3.93569 3.40827 0 -0.90416 3.94092 0 0 0 0)
(-4.50327 1.72116 0 -1.5077 4.49211 0 0 0 0)
(-4.5722 0.10145 0 -2.08175 4.57253 0 0 0 0)
(-4.26651 -1.3421 0 -2.58008 4.26772 0 0 0 0)
(-3.66093 -2.54874 0 -2.9843 3.66133 0 0 0 0)
(-2.8278 -3.489 0 -3.2942 2.82831 0 0 0 0)
(-1.8326 -4.14969 0 -3.5179 1.83334 0 0 0 0)
(-0.7318 -4.52147 0 -3.6631 0.732662 0 0 0 0)
(0.4226 -4.59139 0 -3.7313 -0.421669 0 0 0 0)
(1.5767 -4.34101 0 -3.7149 -1.57598 0 0 0 0)
(2.6691 -3.75017 0 -3.5964 -2.66874 0 0 0 0)
(3.62473 -2.80639 0 -3.3536 -3.62513 0 0 0 0)
(4.35196 -1.51952 0 -2.96737 -4.35432 0 0 0 0)
(4.74906 0.06011 0 -2.43402 -4.75134 0 0 0 0)
(4.71547 1.82541 0 -1.77851 -4.7068 0 0 0 0)
(4.11549 3.60216 0 -1.06706 -4.12328 0 0 0 0)
(2.76437 5.13221 0 -0.43315 -2.93903 0 0 0 0)
(1.31832 6.08873 0 -0.078858 -1.15484 0 0 0 0)
(-1.53246 8.29902 0 -0.077162 1.34692 0 0 0 0)
(-3.09498 6.46643 0 -0.39868 3.29806 0 0 0 0)
(-4.50531 4.26922 0 -0.94647 4.51203 0 0 0 0)
(-5.0822 2.03003 0 -1.53691 5.06872 0 0 0 0)
(-5.08723 -0.0435 0 -2.06426 5.08677 0 0 0 0)
(-4.68913 -1.84202 0 -2.48963 4.68967 0 0 0 0)
(-3.9879 -3.3148 0 -2.8093 3.98757 0 0 0 0)
(-3.0698 -4.44691 0 -3.04 3.06951 0 0 0 0)
(-2.0033 -5.2387 0 -3.2058 2.00343 0 0 0 0)
(-0.8396 -5.69009 0 -3.3267 0.8402 0 0 0 0)
(0.3796 -5.79088 0 -3.411 -0.37878 0 0 0 0)
(1.6132 -5.5177 0 -3.4508 -1.61228 0 0 0 0)
(2.8101 -4.83769 0 -3.4215 -2.80919 0 0 0 0)
(3.8986 -3.71958 0 -3.2859 -3.89844 0 0 0 0)
(4.7792 -2.15223 0 -3.00393 -4.78136 0 0 0 0)
(5.32703 -0.1701 0 -2.54846 -5.32932 0 0 0 0)
(5.40258 2.1215 0 -1.92498 -5.39207 0 0 0 0)
(4.80833 4.52601 0 -1.19223 -4.81903 0 0 0 0)
(3.28209 6.72977 0 -0.50045 -3.49543 0 0 0 0)
(1.59117 8.32222 0 -0.095463 -1.39374 0 0 0 0)
(-1.78192 10.7897 0 -0.090768 1.5664 0 0 0 0)
(-3.54023 8.14039 0 -0.44415 3.7787 0 0 0 0)
(-5.07392 5.17893 0 -1.0091 5.08233 0 0 0 0)
(-5.62106 2.2959 0 -1.56783 5.6047 0 0 0 0)
(-5.52492 -0.2776 0 -2.00873 5.5233 0 0 0 0)
(-5.01155 -2.4413 0 -2.3081 5.0109 0 0 0 0)
(-4.2113 -4.1689 0 -2.4861 4.20952 0 0 0 0)
(-3.2243 -5.47314 0 -2.5848 3.2228 0 0 0 0)
(-2.1193 -6.379 0 -2.6505 2.11851 0 0 0 0)
(-0.937 -6.90368 0 -2.7204 0.93695 0 0 0 0)
(0.2985 -7.04387 0 -2.8127 -0.29788 0 0 0 0)
(1.5662 -6.77142 0 -2.9216 -1.56512 0 0 0 0)
(2.834 -6.03633 0 -3.0155 -2.83262 0 0 0 0)
(4.0423 -4.77856 0 -3.04 -4.04143 0 0 0 0)
(5.0894 -2.9504 0 -2.9275 -5.0909 0 0 0 0)
(5.82801 -0.5506 0 -2.6164 -5.8299 0 0 0 0)
(6.0717 2.3357 0 -2.07763 -6.0588 0 0 0 0)
(5.54002 5.4988 0 -1.34884 -5.5543 0 0 0 0)
(3.86114 8.5575 0 -0.59431 -4.12091 0 0 0 0)
(1.91423 10.9779 0 -0.120727 -1.67691 0 0 0 0)
(-2.06737 13.6441 0 -0.11324 1.81813 0 0 0 0)
(-4.01331 9.98236 0 -0.51387 4.29363 0 0 0 0)
(-5.62899 6.09522 0 -1.0933 5.6395 0 0 0 0)
(-6.08183 2.471 0 -1.58402 6.0615 0 0 0 0)
(-5.8275 -0.6373 0 -1.87295 5.8239 0 0 0 0)
(-5.1665 -3.1558 0 -1.9651 5.164 0 0 0 0)
(-4.2646 -5.1029 0 -1.9183 4.2609 0 0 0 0)
(-3.2342 -6.53792 0 -1.8101 3.231 0 0 0 0)
(-2.1389 -7.52455 0 -1.7165 2.13675 0 0 0 0)
(-1.0018 -8.10648 0 -1.696 1.00073 0 0 0 0)
(0.1784 -8.29295 0 -1.7805 -0.17839 0 0 0 0)
(1.4104 -8.05244 0 -1.9694 -1.40933 0 0 0 0)
(2.6917 -7.314 0 -2.2259 -2.68966 0 0 0 0)
(3.9866 -5.97786 0 -2.4781 -3.9846 0 0 0 0)
(5.2028 -3.9407 0 -2.6256 -5.2033 0 0 0 0)
(6.1769 -1.138 0 -2.5597 -6.1777 0 0 0 0)
(6.67014 2.3971 0 -2.19564 -6.6536 0 0 0 0)
(6.29165 6.4639 0 -1.52671 -6.3103 0 0 0 0)
(4.51021 10.6072 0 -0.71921 -4.8277 0 0 0 0)
(2.3062 14.12 0 -0.15809 -2.02145 0 0 0 0)
(-2.40903 16.9014 0 -0.151781 2.12116 0 0 0 0)
(-4.52029 11.9618 0 -0.6229 4.85282 0 0 0 0)
(-6.14407 6.9468 0 -1.20432 6.1567 0 0 0 0)
(-6.40071 2.4803 0 -1.56221 6.3745 0 0 0 0)
(-5.906 -1.1751 0 -1.5965 5.8991 0 0 0 0)
(-5.0569 -4.0043 0 -1.3648 5.0516 0 0 0 0)
(-4.0563 -6.1019 0 -0.981 4.0499 0 0 0 0)
(-3.0225 -7.59729 0 -0.5698 3.017 0 0 0 0)
(-2.0052 -8.60927 0 -0.242 2.00124 0 0 0 0)
(-1.001 -9.21882 0 -0.0802 0.99869 0 0 0 0)
(0.0251 -9.45393 0 -0.1322 -0.02579 0 0 0 0)
(1.1208 -9.28269 0 -0.4058 -1.11978 0 0 0 0)
(2.3253 -8.6116 0 -0.8641 -2.32246 0 0 0 0)
(3.6426 -7.2922 0 -1.4212 -3.6389 0 0 0 0)
(5.0078 -5.1435 0 -1.9434 -5.0065 0 0 0 0)
(6.25797 -2.0009 0 -2.2631 -6.2564 0 0 0 0)
(7.10469 2.2031 0 -2.2152 -7.0822 0 0 0 0)
(7.01645 7.3247 0 -1.70985 -7.0401 0 0 0 0)
(5.22976 12.8463 0 -0.88494 -5.6208 0 0 0 0)
(2.79153 17.8271 0 -0.214858 -2.45048 0 0 0 0)
(-2.84205 20.6181 0 -0.220772 2.51001 0 0 0 0)
(-5.06585 14.0179 0 -0.79801 5.467 0 0 0 0)
(-6.5683 7.6169 0 -1.34633 6.582 0 0 0 0)
(-6.47401 2.2134 0 -1.45725 6.4382 0 0 0 0)
(-5.63009 -1.9602 0 -1.0806 5.6175 0 0 0 0)
(-4.551 -5.005 0 -0.3655 4.5413 0 0 0 0)
(-3.4696 -7.1375 0 0.4947 3.4596 0 0 0 0)
(-2.4952 -8.58658 0 1.3197 2.487 0 0 0 0)
(-1.6493 -9.54286 0 1.964 1.64343 0 0 0 0)
(-0.892 -10.1335 0 2.3237 0.88848 0 0 0 0)
(-0.1472 -10.4114 0 2.3366 0.14601 0 0 0 0)
(0.6785 -10.3491 0 1.9839 -0.67713 0 0 0 0)
(1.6763 -9.83312 0 1.2949 -1.6721 0 0 0 0)
(2.9073 -8.6619 0 0.3583 -2.9011 0 0 0 0)
(4.3609 -6.5582 0 -0.6675 -4.3559 0 0 0 0)
(5.9051 -3.2137 0 -1.5539 -5.8982 0 0 0 0)
(7.22339 1.6134 0 -2.02947 -7.1906 0 0 0 0)
(7.62191 7.9253 0 -1.8661 -7.6494 0 0 0 0)
(6.0052 15.1968 0 -1.10768 -6.4918 0 0 0 0)
(3.406 22.1913 0 -0.305081 -2.99999 0 0 0 0)
(-3.42781 24.8785 0 -0.346677 3.04758 0 0 0 0)
(-5.64585 16.0338 0 -1.07883 6.1404 0 0 0 0)
(-6.80331 7.918 0 -1.50301 6.813 0 0 0 0)
(-6.13498 1.5158 0 -1.16479 6.0818 0 0 0 0)
(-4.81425 -3.072 0 -0.1455 4.7921 0 0 0 0)
(-3.4816 -6.1622 0 1.2566 3.4654 0 0 0 0)
(-2.3711 -8.1562 0 2.7465 2.3566 0 0 0 0)
(-1.5532 -9.41346 0 4.0905 1.5424 0 0 0 0)
(-1.0012 -10.2078 0 5.1211 0.99399 0 0 0 0)
(-0.6284 -10.7162 0 5.7265 0.62432 0 0 0 0)
(-0.3147 -11.0195 0 5.8388 0.31371 0 0 0 0)
(0.0791 -11.1008 0 5.4277 -0.07651 0 0 0 0)
(0.6997 -10.8356 0 4.5045 -0.6929 0 0 0 0)
(1.6802 -9.976 0 3.1401 -1.6693 0 0 0 0)
(3.0956 -8.1406 0 1.4923 -3.0838 0 0 0 0)
(4.896 -4.8356 0 -0.1679 -4.8787 0 0 0 0)
(6.79249 0.4519 0 -1.45 -6.7402 0 0 0 0)
(7.93824 8.0235 0 -1.92032 -7.9635 0 0 0 0)
(6.79078 17.4958 0 -1.4063 -7.401 0 0 0 0)
(4.20429 27.3188 0 -0.453399 -3.72848 0 0 0 0)
(-4.26756 29.8061 0 -0.57159 3.84075 0 0 0 0)
(-6.22218 17.7833 0 -1.5034 6.84 0 0 0 0)
(-6.65426 7.5583 0 -1.57888 6.6465 0 0 0 0)
(-5.1165 0.1925 0 -0.43715 5.0349 0 0 0 0)
(-3.2087 -4.5766 0 1.5505 3.1732 0 0 0 0)
(-1.659 -7.4405 0 3.8666 1.6358 0 0 0 0)
(-0.6357 -9.0605 0 6.11403 0.6176 0 0 0 0)
(-0.1206 -9.94919 0 8.0335 0.1089 0 0 0 0)
(-0.0133 -10.4609 0 9.46993 0.00678 0 0 0 0)
(-0.1743 -10.8138 0 10.3332 0.1716 0 0 0 0)
(-0.446 -11.1123 0 10.5681 0.44691 0 0 0 0)
(-0.6558 -11.3557 0 10.1374 0.66087 0 0 0 0)
(-0.6113 -11.4259 0 9.02312 0.6219 0 0 0 0)
(-0.1049 -11.0528 0 7.2481 0.1221 0 0 0 0)
(1.0529 -9.7676 0 4.9208 -1.0314 0 0 0 0)
(2.9628 -6.8701 0 2.301 -2.9297 0 0 0 0)
(5.47097 -1.4714 0 -0.1327 -5.3869 0 0 0 0)
(7.66561 7.2645 0 -1.68737 -7.6729 0 0 0 0)
(7.47212 19.4318 0 -1.77596 -8.2314 0 0 0 0)
(5.2657 33.3208 0 -0.694406 -4.72436 0 0 0 0)
(-5.5028 35.5592 0 -0.935719 5.06132 0 0 0 0)
(-6.65314 18.8395 0 -2.02817 7.4127 0 0 0 0)
(-5.73706 6.1129 0 -1.23737 5.6837 0 0 0 0)
(-3.0056 -1.9575 0 1.2943 2.887 0 0 0 0)
(-0.5105 -6.4711 0 4.64667 0.4648 0 0 0 0)
(1.08193 -8.7178 0 8.05171 -1.1067 0 0 0 0)
(1.7958 -9.6831 0 11.0705 -1.8114 0 0 0 0)
(1.8027 -10.0243 0 13.4949 -1.8096 0 0 0 0)
(1.29846 -10.1451 0 15.2466 -1.29954 0 0 0 0)
(0.46978 -10.2761 0 16.3035 -0.46724 0 0 0 0)
(-0.5105 -10.5303 0 16.6509 0.51589 0 0 0 0)
(-1.46589 -10.9258 0 16.2563 1.47472 0 0 0 0)
(-2.18956 -11.3743 0 15.0649 2.204 0 0 0 0)
(-2.42212 -11.6293 0 13.0173 2.4447 0 0 0 0)
(-1.8515 -11.1924 0 10.1034 1.8819 0 0 0 0)
(-0.1575 -9.1911 0 6.46587 0.2083 0 0 0 0)
(2.80412 -4.2913 0 2.55479 -2.6769 0 0 0 0)
(6.29498 5.179 0 -0.71278 -6.2526 0 0 0 0)
(7.78374 20.4443 0 -2.08401 -8.6919 0 0 0 0)
(6.67466 40.2746 0 -1.04176 -6.1138 0 0 0 0)
(-7.23145 42.2801 0 -1.36822 7.0077 0 0 0 0)
(-6.52383 18.4057 0 -2.25146 7.3812 0 0 0 0)
(-3.33179 3.0326 0 0.49648 3.1331 0 0 0 0)
(0.76754 -5.0264 0 5.25519 -0.9689 0 0 0 0)
(3.54871 -8.5703 0 10.2774 -3.6245 0 0 0 0)
(4.76478 -9.7167 0 14.695 -4.7999 0 0 0 0)
(4.80744 -9.7634 0 18.2183 -4.8232 0 0 0 0)
(4.05557 -9.43733 0 20.8308 -4.0576 0 0 0 0)
(2.79536 -9.11858 0 22.6204 -2.78968 0 0 0 0)
(1.22995 -8.99836 0 23.6833 -1.22032 0 0 0 0)
(-0.49321 -9.17029 0 24.0745 0.505669 0 0 0 0)
(-2.24177 -9.66761 0 23.7827 2.25813 0 0 0 0)
(-3.85028 -10.4559 0 22.7196 3.87413 0 0 0 0)
(-5.06636 -11.3749 0 20.7229 5.1037 0 0 0 0)
(-5.49855 -12.004 0 17.5949 5.5555 0 0 0 0)
(-4.58585 -11.4289 0 13.2111 4.6858 0 0 0 0)
(-1.70768 -7.9323 0 7.74337 1.9315 0 0 0 0)
(3.02681 1.2495 0 2.05871 -2.8352 0 0 0 0)
(7.14314 19.5706 0 -1.77398 -8.1207 0 0 0 0)
(8.39147 48.1265 0 -1.34819 -8.1028 0 0 0 0)
(-9.12248 49.9481 0 -1.20996 9.8518 0 0 0 0)
(-4.78844 14.9649 0 -0.60764 5.3624 0 0 0 0)
(1.76959 -2.2372 0 6.08446 -2.4213 0 0 0 0)
(6.77528 -8.7151 0 13.8623 -7.2343 0 0 0 0)
(8.92933 -10.3021 0 20.2682 -9.1504 0 0 0 0)
(9.02291 -9.9165 0 24.96 -9.1378 0 0 0 0)
(7.93158 -8.9408 0 28.1796 -7.98866 0 0 0 0)
(6.20473 -7.99076 0 30.2766 -6.22822 0 0 0 0)
(4.151 -7.30781 0 31.5728 -4.15562 0 0 0 0)
(1.9239 -6.98076 0 32.3029 -1.91679 0 0 0 0)
(-0.4111 -7.05182 0 32.5979 0.427894 0 0 0 0)
(-2.8208 -7.55735 0 32.4796 2.84922 0 0 0 0)
(-5.2494 -8.52877 0 31.849 5.29623 0 0 0 0)
(-7.54684 -9.94793 0 30.4641 7.62692 0 0 0 0)
(-9.36327 -11.6103 0 27.9259 9.5054 0 0 0 0)
(-10.009 -12.8151 0 23.7166 10.2688 0 0 0 0)
(-8.3483 -11.8123 0 17.3448 8.8357 0 0 0 0)
(-3.22237 -4.8732 0 8.88741 3.8544 0 0 0 0)
(4.37684 15.1767 0 0.8611 -4.9319 0 0 0 0)
(9.79683 56.4981 0 -0.78257 -10.5645 0 0 0 0)
(-9.04905 57.4943 0 3.35329 10.015 0 0 0 0)
(0.77059 6.1326 0 8.5558 -2.2798 0 0 0 0)
(11.1382 -9.5641 0 21.24 -12.0388 0 0 0 0)
(14.9513 -11.7555 0 31.2538 -15.1922 0 0 0 0)
(14.6464 -10.4738 0 36.9947 -14.7024 0 0 0 0)
(12.6762 -8.55496 0 39.9148 -12.66 0 0 0 0)
(10.1241 -6.85382 0 41.2092 -10.0807 0 0 0 0)
(7.4487 -5.60429 0 41.634 -7.40835 0 0 0 0)
(4.8216 -4.80715 0 41.6747 -4.79378 0 0 0 0)
(2.2551 -4.41485 0 41.6261 -2.24062 0 0 0 0)
(-0.3165 -4.40428 0 41.6442 0.317719 0 0 0 0)
(-2.9907 -4.79927 0 41.7762 2.97823 0 0 0 0)
(-5.8658 -5.67823 0 41.9578 5.83981 0 0 0 0)
(-8.9895 -7.16573 0 41.9696 8.95806 0 0 0 0)
(-12.246 -9.36212 0 41.3516 12.2465 0 0 0 0)
(-15.167 -12.0986 0 39.2733 15.2635 0 0 0 0)
(-16.5369 -14.3467 0 34.3007 16.8134 0 0 0 0)
(-13.4569 -12.5181 0 24.5097 14.3755 0 0 0 0)
(-2.52684 5.1517 0 11.1228 4.4952 0 0 0 0)
(8.31294 63.6229 0 4.63425 -9.1621 0 0 0 0)
(2.78661 57.6833 0 32.9253 -9.3085 0 0 0 0)
(13.0983 -7.0889 0 45.7113 -20.8264 0 0 0 0)
(24.4676 -15.1496 0 57.9363 -22.4413 0 0 0 0)
(22.53 -11.3787 0 62.3947 -19.6403 0 0 0 0)
(17.5903 -7.76992 0 61.6318 -15.7375 0 0 0 0)
(13.2374 -5.29484 0 59.0148 -12.0146 0 0 0 0)
(9.6508 -3.68913 0 56.1152 -8.81852 0 0 0 0)
(6.6702 -2.70383 0 53.5709 -6.13405 0 0 0 0)
(4.1431 -2.14008 0 51.6564 -3.83274 0 0 0 0)
(1.8934 -1.86926 0 50.4908 -1.7629 0 0 0 0)
(-0.261 -1.83297 0 50.1294 0.22946 0 0 0 0)
(-2.5072 -2.03526 0 50.6084 2.30495 0 0 0 0)
(-5.056 -2.54894 0 51.9535 4.64482 0 0 0 0)
(-8.153 -3.54124 0 54.1501 7.46228 0 0 0 0)
(-12.0596 -5.30491 0 57.0509 10.9912 0 0 0 0)
(-17.0599 -8.2482 0 60.1442 15.3895 0 0 0 0)
(-23.1119 -12.7002 0 61.921 20.4147 0 0 0 0)
(-26.4003 -17.1914 0 58.7143 24.6475 0 0 0 0)
(-15.4986 -8.3609 0 47.0497 24.0743 0 0 0 0)
(-5.9602 61.165 0 33.7278 11.815 0 0 0 0)
(69.5876 27.3594 0 169.231 -42.7952 0 0 0 0)
(25.7816 -7.00015 0 158.394 -42.2475 0 0 0 0)
(27.8215 -8.37798 0 130.351 -28.7061 0 0 0 0)
(18.6468 -5.05175 0 106.105 -18.7199 0 0 0 0)
(11.2665 -2.84811 0 89.1746 -12.2757 0 0 0 0)
(7.1596 -1.63598 0 77.2486 -8.10189 0 0 0 0)
(4.6802 -0.973278 0 68.7776 -5.34491 0 0 0 0)
(2.9899 -0.618509 0 62.9176 -3.43948 0 0 0 0)
(1.7415 -0.435999 0 59.1175 -2.02257 0 0 0 0)
(0.7281 -0.352649 0 57.033 -0.863401 0 0 0 0)
(-0.1989 -0.336433 0 56.496 0.199338 0 0 0 0)
(-1.1666 -0.383911 0 57.4929 1.306 0 0 0 0)
(-2.3241 -0.520898 0 60.1698 2.61851 0 0 0 0)
(-3.8921 -0.819363 0 64.873 4.37584 0 0 0 0)
(-6.2519 -1.43487 0 72.2149 6.97911 0 0 0 0)
(-10.2969 -2.67507 0 83.1845 11.1156 0 0 0 0)
(-17.9668 -5.08874 0 99.5717 17.9024 0 0 0 0)
(-28.3281 -8.85852 0 124.263 28.9046 0 0 0 0)
(-27.5133 -7.68079 0 154.3 43.9523 0 0 0 0)
(-72.4646 27.7336 0 167.275 44.9463 0 0 0 0)
)
;

boundaryField
{
    movingWall
    {
        type            extrapolatedCalculated;
        value           nonuniform List<tensor> 
20
(
(69.5876 27.3594 0 280.158 -58.4364 0 0 0 0)
(25.7816 -7.00015 0 241.491 -51.0012 0 0 0 0)
(27.8215 -8.37798 0 177.032 -30.4358 0 0 0 0)
(18.6468 -5.05175 0 130.205 -17.4893 0 0 0 0)
(11.2665 -2.84811 0 102.445 -10.2288 0 0 0 0)
(7.1596 -1.63598 0 85.1392 -6.09684 0 0 0 0)
(4.6802 -0.973278 0 73.8064 -3.68489 0 0 0 0)
(2.9899 -0.618509 0 66.4184 -2.20373 0 0 0 0)
(1.7415 -0.435999 0 61.8468 -1.21085 0 0 0 0)
(0.7281 -0.352649 0 59.4524 -0.459732 0 0 0 0)
(-0.1989 -0.336433 0 58.9344 0.199742 0 0 0 0)
(-1.1666 -0.383911 0 60.248 0.886 0 0 0 0)
(-2.3241 -0.520898 0 63.6008 1.73539 0 0 0 0)
(-3.8921 -0.819363 0 69.5444 2.96959 0 0 0 0)
(-6.2519 -1.43487 0 79.1692 5.01284 0 0 0 0)
(-10.2969 -2.67507 0 94.552 8.70908 0 0 0 0)
(-17.9668 -5.08874 0 120.357 15.7131 0 0 0 0)
(-28.3281 -8.85852 0 166.419 29.064 0 0 0 0)
(-27.5133 -7.68079 0 233.669 51.1472 0 0 0 0)
(-72.4646 27.7336 0 276.472 59.7872 0 0 0 0)
)
;
    }
    fixedWalls
    {
        type            extrapolatedCalculated;
        value           nonuniform List<tensor> 
60
(
(0.101354 -0.100154 0 0.0175925 -0.0419696 0 0 0 0)
(-0.0309836 -0.0677244 0 -0.0781953 0.134195 0 0 0 0)
(-0.211428 0.436624 0 -0.0850702 0.364891 0 0 0 0)
(-0.371264 1.39184 0 -0.0750281 0.578575 0 0 0 0)
(-0.51154 2.75092 0 -0.0679279 0.77352 0 0 0 0)
(-0.642976 4.48592 0 -0.066111 0.959859 0 0 0 0)
(-0.775984 6.59036 0 -0.069251 1.14786 0 0 0 0)
(-0.91998 9.07736 0 -0.077162 1.34692 0 0 0 0)
(-1.08463 11.978 0 -0.090768 1.5664 0 0 0 0)
(-1.28305 15.343 0 -0.11324 1.81813 0 0 0 0)
(-1.53759 19.2506 0 -0.151781 2.12116 0 0 0 0)
(-1.89018 23.8276 0 -0.220772 2.51001 0 0 0 0)
(-2.42068 29.2906 0 -0.346677 3.04758 0 0 0 0)
(-3.27688 36.0179 0 -0.57159 3.84075 0 0 0 0)
(-4.70704 44.6536 0 -0.935719 5.06132 0 0 0 0)
(-7.01976 56.2632 0 -1.36822 7.0077 0 0 0 0)
(-10.1799 72.6844 0 -1.20996 9.8518 0 0 0 0)
(-11.8596 95.6704 0 3.35329 10.015 0 0 0 0)
(3.23325 112.744 0 32.9253 -9.3085 0 0 0 0)
(119.842 58.4364 0 169.231 -42.7952 0 0 0 0)
(-0.107133 -0.104942 0 0.0225249 0.0489771 0 0 0 0)
(0.0170334 -0.0909668 0 -0.0744655 -0.121115 0 0 0 0)
(0.190729 0.379519 0 -0.0818973 -0.34521 0 0 0 0)
(0.344622 1.28987 0 -0.0726798 -0.554896 0 0 0 0)
(0.481448 2.5991 0 -0.0676124 -0.750322 0 0 0 0)
(0.615072 4.29116 0 -0.069638 -0.945284 0 0 0 0)
(0.76 6.38024 0 -0.078858 -1.15484 0 0 0 0)
(0.930504 8.91052 0 -0.095463 -1.39374 0 0 0 0)
(1.14185 11.9552 0 -0.120727 -1.67691 0 0 0 0)
(1.41341 15.6182 0 -0.15809 -2.02145 0 0 0 0)
(1.77421 20.041 0 -0.214858 -2.45048 0 0 0 0)
(2.27284 25.4201 0 -0.305081 -2.99999 0 0 0 0)
(2.99454 32.041 0 -0.453399 -3.72848 0 0 0 0)
(4.08644 40.334 0 -0.694406 -4.72436 0 0 0 0)
(5.77216 50.9384 0 -1.04176 -6.1138 0 0 0 0)
(8.25348 64.7892 0 -1.34819 -8.1028 0 0 0 0)
(11.1649 83.3496 0 -0.78257 -10.5645 0 0 0 0)
(11.3838 107.047 0 4.63425 -9.1621 0 0 0 0)
(-7.37208 119.998 0 33.7278 11.815 0 0 0 0)
(-123.528 59.7872 0 167.275 44.9463 0 0 0 0)
(0.039458 -0.013895 0 0.101354 -0.100154 0 0 0 0)
(-0.143027 0.0814943 0 0.0564784 0.044574 0 0 0 0)
(-0.362203 0.0773466 0 -0.470756 0.225823 0 0 0 0)
(-0.520005 0.0481052 0 -1.39233 0.35396 0 0 0 0)
(-0.598783 0.0176739 0 -2.55078 0.418244 0 0 0 0)
(-0.602496 -0.0087856 0 -3.78746 0.424656 0 0 0 0)
(-0.541504 -0.0301276 0 -4.96076 0.383102 0 0 0 0)
(-0.42862 -0.0463156 0 -5.95348 0.304146 0 0 0 0)
(-0.27731 -0.0575818 0 -6.67524 0.197839 0 0 0 0)
(-0.10126 -0.0639849 0 -7.06272 0.0738184 0 0 0 0)
(0.08531 -0.0652867 0 -7.08028 -0.0581004 0 0 0 0)
(0.26718 -0.0610096 0 -6.72148 -0.187328 0 0 0 0)
(0.42795 -0.0505861 0 -6.01156 -0.302139 0 0 0 0)
(0.550321 -0.0335753 0 -5.00968 -0.389673 0 0 0 0)
(0.616966 -0.0099738 0 -3.81028 -0.43644 0 0 0 0)
(0.612526 0.0193045 0 -2.54182 -0.429568 0 0 0 0)
(0.526815 0.0517565 0 -1.36017 -0.359222 0 0 0 0)
(0.359682 0.0807682 0 -0.434556 -0.222542 0 0 0 0)
(0.135422 0.0818709 0 0.0785548 -0.0361491 0 0 0 0)
(-0.046422 -0.0171981 0 0.107133 0.104942 0 0 0 0)
)
;
    }
    frontAndBack
    {
        type            empty;
    }
}


// ************************************************************************* //
