/*--------------------------------*- C++ -*----------------------------------*\
  =========                 |
  \\      /  F ield         | OpenFOAM: The Open Source CFD Toolbox
   \\    /   O peration     | Website:  https://openfoam.org
    \\  /    A nd           | Version:  dev
     \\/     M anipulation  |
\*---------------------------------------------------------------------------*/
FoamFile
{
    format      ascii;
    class       volScalarField;
    location    "20.7";
    object      p;
}
// * * * * * * * * * * * * * * * * * * * * * * * * * * * * * * * * * * * * * //

dimensions      [0 2 -2 0 0 0 0];

internalField   nonuniform List<scalar> 
5184
(
3.47548e-07
-1.19948e-05
-9.79764e-05
-0.000250748
-0.000449967
-0.000678387
-0.00092177
-0.00116819
-0.00140849
-0.00163554
-0.00184393
-0.00202964
-0.00218974
-0.00232214
-0.00242536
-0.00249839
-0.00254057
-0.00255146
-0.00253078
-0.00247837
-0.00239414
-0.00227808
-0.00213024
-0.00195076
-0.00173989
-0.00149799
-0.00122562
-0.00092352
-0.00059269
-0.000234398
0.000149771
0.000557894
0.000987679
0.00143645
0.00190116
0.00237836
0.00286423
0.00335461
0.00384504
0.00433077
0.00480688
0.00526828
0.00570987
0.00612657
0.00651342
0.00686573
0.00717913
0.00744971
0.00767407
0.0078495
0.00797399
0.00804632
0.00806616
0.00803406
0.00795152
0.00782099
0.00764584
0.0074304
0.00717985
0.00690025
0.00659846
0.00628208
0.0059594
0.00563938
0.00533157
0.00504603
0.00479327
0.00458389
0.00442786
0.00433364
0.0043067
0.00433394
1.31274e-05
5.25252e-07
-7.40543e-05
-0.000201716
-0.000366813
-0.000556875
-0.00076098
-0.000969538
-0.00117463
-0.00136988
-0.00155024
-0.00171182
-0.00185163
-0.00196747
-0.00205768
-0.00212107
-0.00215679
-0.00216422
-0.00214295
-0.00209269
-0.00201326
-0.00190459
-0.00176668
-0.00159963
-0.00140368
-0.00117919
-0.0009267
-0.00064693
-0.000340845
-9.66266e-06
0.000345113
0.000721665
0.00111785
0.00153116
0.00195878
0.00239752
0.00284386
0.00329398
0.00374381
0.00418901
0.0046251
0.00504748
0.00545151
0.00583261
0.00618634
0.00650846
0.00679509
0.00704274
0.00724843
0.00740977
0.00752505
0.00759327
0.00761423
0.00758857
0.00751774
0.00740407
0.00725075
0.00706177
0.00684193
0.00659678
0.00633255
0.00605612
0.00577492
0.00549686
0.00523024
0.00498365
0.00476573
0.00458485
0.0044483
0.00436204
0.00433347
0.00436105
9.959e-05
7.48671e-05
-4.24067e-07
-0.000117864
-0.000265425
-0.000433475
-0.000613311
-0.000797109
-0.000978174
-0.00115096
-0.00131095
-0.00145458
-0.00157903
-0.00168214
-0.00176227
-0.00181816
-0.0018489
-0.0018538
-0.00183236
-0.00178422
-0.00170915
-0.001607
-0.00147774
-0.00132144
-0.00113828
-0.000928582
-0.000692851
-0.000431763
-0.000146217
0.000162645
0.00049341
0.000844379
0.00121354
0.00159857
0.00199682
0.00240532
0.0028208
0.00323971
0.00365825
0.00407241
0.00447802
0.00487082
0.00524652
0.00560088
0.0059298
0.00622939
0.00649606
0.00672662
0.00691835
0.0070691
0.00717732
0.00724217
0.00726353
0.00724205
0.00717917
0.00707711
0.00693889
0.00676827
0.00656974
0.00634844
0.00611013
0.0058611
0.00560811
0.00535827
0.00511894
0.00489757
0.00470164
0.00453821
0.00441328
0.00433209
0.00430428
0.00433487
0.000254465
0.000203078
0.00011534
-3.50023e-06
-0.000145783
-0.000303734
-0.000470234
-0.000638918
-0.000804255
-0.000961562
-0.00110697
-0.00123735
-0.0013502
-0.00144355
-0.00151588
-0.001566
-0.00159302
-0.00159625
-0.00157516
-0.00152935
-0.00145855
-0.00136258
-0.00124135
-0.00109486
-0.000923265
-0.000726821
-0.000505954
-0.000261274
6.40545e-06
0.000296038
0.000606323
0.000935682
0.00128225
0.00164384
0.00201799
0.00240192
0.00279255
0.00318655
0.00358034
0.00397013
0.00435201
0.00472195
0.00507589
0.00540984
0.00571992
0.00600245
0.00625405
0.00647172
0.0066529
0.00679556
0.00689827
0.00696025
0.00698144
0.00696247
0.00690474
0.00681039
0.0066823
0.00652404
0.00633984
0.00613454
0.00591352
0.0056826
0.005448
0.00521621
0.00499386
0.00478763
0.00460412
0.00444962
0.00432956
0.00424897
0.00421791
0.00424309
0.00045899
0.000370442
0.000261938
0.000134368
-9.82045e-06
-0.000164469
-0.000323811
-0.000482851
-0.000637183
-0.000783014
-0.000917166
-0.00103703
-0.00114049
-0.00122588
-0.00129185
-0.00133735
-0.00136157
-0.00136384
-0.00134367
-0.00130063
-0.00123443
-0.00114485
-0.00103173
-0.000895049
-0.000734859
-0.000551353
-0.000344872
-0.000115929
0.000134764
0.000406275
0.000697428
0.00100678
0.00133261
0.0016729
0.00202534
0.00238733
0.00275597
0.00312812
0.00350038
0.00386918
0.00423076
0.0045813
0.00491692
0.00523379
0.0055282
0.00579663
0.00603582
0.00624289
0.00641539
0.00655135
0.00664942
0.00670884
0.00672955
0.00671217
0.00665805
0.00656924
0.00644848
0.00629918
0.00612536
0.00593159
0.0057229
0.00550475
0.00528287
0.00506322
0.00485185
0.00465477
0.00447788
0.00432681
0.00420653
0.0041218
0.00408139
0.00409115
0.000697016
0.000565089
0.000430048
0.000288162
0.000136419
-2.04128e-05
-0.000177732
-0.0003318
-0.000479287
-0.000617271
-0.000743281
-0.000855271
-0.00095157
-0.00103083
-0.00109197
-0.00113411
-0.00115655
-0.00115871
-0.00114013
-0.00110039
-0.00103919
-0.000956247
-0.000851388
-0.000724497
-0.00057556
-0.000404677
-0.000212088
1.80377e-06
0.000236406
0.000490915
0.00076429
0.00105524
0.00136218
0.00168327
0.00201634
0.00235896
0.00270841
0.00306168
0.00341556
0.00376661
0.00411122
0.00444572
0.00476634
0.00506938
0.00535123
0.00560844
0.00583784
0.0060366
0.0062023
0.00633303
0.00642743
0.00648474
0.00650487
0.0064884
0.00643662
0.00635148
0.00623561
0.00609227
0.00592529
0.00573902
0.00553821
0.00532799
0.00511371
0.00490088
0.00469504
0.00450169
0.00432613
0.00417343
0.00404814
0.00395467
0.00389948
0.00388634
0.000954762
0.000776152
0.000610777
0.000450416
0.000286704
0.000123242
-3.63493e-05
-0.000189474
-0.0003338
-0.000467241
-0.000588028
-0.000694688
-0.000786017
-0.000861032
-0.000918933
-0.000959057
-0.000980853
-0.000983844
-0.000967612
-0.000931785
-0.000876029
-0.000800055
-0.000703617
-0.000586534
-0.000448703
-0.000290123
-0.000110919
8.86269e-05
0.000308057
0.000546707
0.000803684
0.00107784
0.00136777
0.00167176
0.00198781
0.00231364
0.00264665
0.00298402
0.00332262
0.00365915
0.00399011
0.00431189
0.00462084
0.00491329
0.00518567
0.00543458
0.00565686
0.00584967
0.0060106
0.00613769
0.00622956
0.0062854
0.00630507
0.00628909
0.00623864
0.00615561
0.00604252
0.00590248
0.00573917
0.00555675
0.00535975
0.00515303
0.00494164
0.00473072
0.00452542
0.00433079
0.00415169
0.00399267
0.00385797
0.00375164
0.00367734
0.00363628
0.00122012
0.000993503
0.000795539
0.000613851
0.000434966
0.00026152
9.63019e-05
-5.91196e-05
-0.000203337
-0.000335053
-0.000453174
-0.000556798
-0.000645192
-0.000717754
-0.000773983
-0.000813451
-0.000835772
-0.000840589
-0.000827553
-0.000796324
-0.000746567
-0.000677958
-0.0005902
-0.000483031
-0.000356252
-0.000209752
-4.35305e-05
0.000142266
0.000347324
0.000571129
0.000812944
0.00107178
0.00134638
0.0016352
0.00193638
0.00224777
0.00256693
0.00289111
0.00321733
0.00354235
0.00386275
0.00417497
0.00447537
0.00476032
0.00502623
0.00526967
0.00548746
0.0056767
0.0058349
0.00596006
0.00605069
0.00610592
0.00612552
0.0061099
0.00606017
0.00597811
0.00586612
0.0057272
0.00556491
0.00538324
0.00518656
0.0049795
0.00476688
0.00455357
0.00434442
0.00414412
0.00395716
0.00378771
0.00363977
0.00351706
0.00342032
0.00334812
0.00148285
0.001208
0.000976283
0.000771436
0.000575157
0.000389278
0.000215882
5.56087e-05
-9.0984e-05
-0.000223338
-0.000341004
-0.000443632
-0.000530952
-0.000602745
-0.000658817
-0.000698977
-0.000723019
-0.000730708
-0.000721774
-0.000695911
-0.000652783
-0.000592035
-0.000513308
-0.000416257
-0.000300581
-0.000166046
-1.25188e-05
0.000160002
0.000351355
0.000561187
0.000788925
0.00103374
0.00129454
0.00156993
0.00185819
0.00215732
0.00246497
0.00277852
0.00309504
0.00341138
0.00372413
0.00402976
0.00432462
0.00460505
0.0048674
0.00510818
0.00532411
0.00551219
0.00566983
0.0057949
0.00588579
0.00594152
0.00596171
0.00594669
0.00589742
0.00581559
0.00570348
0.005564
0.00540057
0.00521707
0.00501773
0.00480704
0.00458964
0.00437019
0.00415333
0.0039435
0.00374491
0.00356143
0.00339691
0.0032549
0.0031332
0.00302787
0.00173396
0.00141139
0.00114552
0.000916448
0.000701314
0.00050127
0.000317794
0.000150684
-2.86572e-07
-0.000135248
-0.000254358
-0.000357795
-0.000445738
-0.00051834
-0.00057571
-0.000617894
-0.000644865
-0.000656511
-0.00065264
-0.000632981
-0.000597194
-0.000544889
-0.000475641
-0.000389016
-0.000284599
-0.000162028
-2.10261e-05
0.000138565
0.000316747
0.000513338
0.000727933
0.000959876
0.00120823
0.00147175
0.00174888
0.00203773
0.00233606
0.00264133
0.00295069
0.00326101
0.0035689
0.00387082
0.00416306
0.00444189
0.00470358
0.00494452
0.00516128
0.00535074
0.00551012
0.00563715
0.00573004
0.00578764
0.00580943
0.00579557
0.00574691
0.00566498
0.00555198
0.00541069
0.00524444
0.005057
0.00485253
0.00463539
0.00441011
0.00418125
0.00395328
0.00373052
0.00351696
0.00331629
0.00313235
0.00296857
0.00282
0.00268032
0.00196554
0.00159618
0.00129628
0.00104249
0.000807624
0.000592252
0.000397324
0.000221866
6.4927e-05
-7.42661e-05
-0.000196441
-0.000302277
-0.000392381
-0.000467263
-0.000527323
-0.000572837
-0.000603949
-0.000620668
-0.000622873
-0.000610323
-0.00058267
-0.000539483
-0.000480263
-0.000404479
-0.000311597
-0.000201115
-7.26012e-05
7.42662e-05
0.000239664
0.000423587
0.00062581
0.000845851
0.00108294
0.001336
0.00160359
0.00188396
0.00217499
0.00247419
0.00277877
0.00308561
0.00339132
0.0036923
0.00398479
0.00426494
0.00452888
0.00477286
0.00499327
0.00518677
0.00535041
0.00548166
0.00557856
0.00563973
0.00566446
0.00565272
0.0056052
0.00552329
0.00540904
0.00526514
0.00509484
0.00490182
0.00469017
0.00446422
0.00422843
0.00398729
0.00374525
0.00350652
0.00327505
0.0030544
0.00284851
0.00266086
0.00248389
0.00230904
0.00217044
0.00175551
0.00142205
0.00114347
0.000888446
0.000657032
0.000449706
0.00026478
0.000100628
-4.41244e-05
-0.00017074
-0.000280372
-0.000374029
-0.00045256
-0.000516641
-0.000566763
-0.000603232
-0.000626166
-0.000635509
-0.000631041
-0.0006124
-0.0005791
-0.000530567
-0.000466161
-0.000385217
-0.000287086
-0.000171173
-3.69799e-05
0.000115854
0.000287511
0.000477953
0.000686882
0.000913703
0.00115749
0.00141697
0.0016905
0.00197605
0.00227123
0.00257326
0.00287904
0.00318515
0.00348793
0.0037835
0.00406789
0.00433707
0.00458706
0.00481405
0.00501446
0.00518508
0.00532312
0.00542635
0.00549314
0.00552252
0.00551427
0.00546885
0.00538749
0.00527211
0.00512526
0.00495011
0.00475031
0.00452989
0.00429316
0.00404461
0.00378873
0.00352998
0.00327262
0.00302058
0.00277745
0.00254737
0.00233398
0.00212728
0.00191659
0.00234214
0.00188299
0.00151672
0.00121359
0.000938319
0.000690497
0.000470166
0.000274968
0.000102644
-4.87464e-05
-0.000180971
-0.000295626
-0.0003941
-0.000477559
-0.000546935
-0.00060292
-0.000645964
-0.000676285
-0.00069388
-0.000698538
-0.000689871
-0.000667335
-0.000630263
-0.0005779
-0.000509442
-0.00042408
-0.000321044
-0.00019965
-5.93427e-05
0.000100258
0.000279313
0.000477716
0.000695057
0.00093058
0.00118316
0.00145128
0.00173302
0.00202605
0.00232763
0.00263466
0.00294367
0.00325092
0.00355241
0.00384399
0.00412144
0.00438056
0.00461725
0.00482766
0.00500825
0.00515594
0.00526817
0.005343
0.00537919
0.00537621
0.00533432
0.00525452
0.00513856
0.00498888
0.00480856
0.0046012
0.00437082
0.00412178
0.00385859
0.00358584
0.00330807
0.00302967
0.00275468
0.00248679
0.00223044
0.00198959
0.00175186
0.00150461
0.00247454
0.00197269
0.00157453
0.00124731
0.000951964
0.000687636
0.000453959
0.00024794
6.67147e-05
-9.21894e-05
-0.000231018
-0.000351784
-0.000456231
-0.000545821
-0.00062172
-0.000684803
-0.000735651
-0.000774565
-0.000801579
-0.000816483
-0.000818849
-0.000808063
-0.000783356
-0.000743846
-0.000688577
-0.000616571
-0.000526873
-0.000418598
-0.000290984
-0.000143442
2.43989e-05
0.00021264
0.000421064
0.000649098
0.000895779
0.00115972
0.00143912
0.0017317
0.00203478
0.00234524
0.00265957
0.00297392
0.00328416
0.00358595
0.00387483
0.00414632
0.00439604
0.00461977
0.00481364
0.00497419
0.00509848
0.00518421
0.00522979
0.00523436
0.0051979
0.00512115
0.00500567
0.00485377
0.00466841
0.00445316
0.00421207
0.00394954
0.00367019
0.00337876
0.00307996
0.00277836
0.00247821
0.00218342
0.00189884
0.00162882
0.00135875
0.00107403
0.00256196
0.00201898
0.00159
0.00123934
0.000924285
0.000643562
0.000396405
0.000179211
-1.14607e-05
-0.000178592
-0.000324881
-0.000452732
-0.000564221
-0.000661083
-0.000744701
-0.000816111
-0.000876008
-0.00092476
-0.000962424
-0.000988777
-0.00100334
-0.00100541
-0.000994113
-0.000968422
-0.000927222
-0.000869349
-0.000793651
-0.000699031
-0.000584507
-0.000449264
-0.000292707
-0.000114515
8.53066e-05
0.000306381
0.000547918
0.000808687
0.00108699
0.00138065
0.00168702
0.00200297
0.00232494
0.00264898
0.00297081
0.00328586
0.00358943
0.00387673
0.00414301
0.00438369
0.00459448
0.00477148
0.00491133
0.00501128
0.00506933
0.00508424
0.00505564
0.00498397
0.00487056
0.00471754
0.00452776
0.00430477
0.00405262
0.00377582
0.00347914
0.00316752
0.00284591
0.00251917
0.00219182
0.00186808
0.00155334
0.00125242
0.000948533
0.000625165
0.00259898
0.00201656
0.00155793
0.0011846
0.000850369
0.000553522
0.000292912
6.4342e-05
-0.000136181
-0.000312127
-0.000466624
-0.000602446
-0.000721982
-0.000827216
-0.000919728
-0.0010007
-0.00107092
-0.0011308
-0.00118042
-0.00121952
-0.00124755
-0.00126372
-0.00126703
-0.0012563
-0.00123024
-0.00118748
-0.00112667
-0.00104648
-0.000945699
-0.00082326
-0.000678331
-0.000510351
-0.000319097
-0.000104731
0.000132152
0.000390488
0.000668717
0.00096476
0.00127602
0.00159937
0.00193121
0.00226748
0.00260371
0.00293515
0.00325679
0.00356349
0.00385014
0.00411169
0.0043434
0.00454087
0.00470023
0.00481824
0.00489239
0.004921
0.00490326
0.00483929
0.0047301
0.00457762
0.00438458
0.00415446
0.00389137
0.00359993
0.00328509
0.00295206
0.0026061
0.00225243
0.00189596
0.0015413
0.00119443
0.000860809
0.000521427
0.000157857
0.00258047
0.00196037
0.00147337
0.00107827
0.000725498
0.000412919
0.000139001
-0.000101029
-0.000311701
-0.000496955
-0.000660328
-0.000804946
-0.000933487
-0.00104817
-0.00115074
-0.00124252
-0.00132437
-0.00139675
-0.0014597
-0.00151294
-0.00155585
-0.00158751
-0.0016068
-0.00161236
-0.00160271
-0.00157629
-0.0015315
-0.00146678
-0.00138067
-0.00127183
-0.00113917
-0.000981878
-0.000799471
-0.000591872
-0.000359459
-0.000103102
0.000175796
0.000475276
0.000792811
0.0011253
0.0014691
0.00182005
0.00217352
0.0025245
0.0028677
0.0031976
0.00350865
0.00379533
0.00405235
0.00427476
0.00445811
0.00459856
0.00469303
0.00473931
0.00473609
0.00468306
0.00458088
0.00443121
0.00423662
0.00400053
0.00372708
0.00342103
0.00308758
0.00273222
0.00236061
0.0019784
0.00159096
0.0012034
0.000822417
0.000454137
7.73397e-05
-0.000328381
0.00250153
0.00184562
0.00133162
0.000915733
0.00054515
0.000217325
-6.96642e-05
-0.000321154
-0.000542196
-0.000737182
-0.000910044
-0.00106424
-0.00120272
-0.00132791
-0.00144173
-0.0015456
-0.00164044
-0.00172673
-0.0018045
-0.0018734
-0.00193272
-0.00198143
-0.00201823
-0.00204161
-0.00204989
-0.00204127
-0.00201391
-0.00196599
-0.00189578
-0.00180166
-0.00168226
-0.00153647
-0.00136354
-0.00116311
-0.000935326
-0.000680828
-0.00040083
-9.71431e-05
0.000227804
0.000570956
0.000928646
0.00129662
0.00167009
0.00204381
0.00241215
0.00276921
0.00310896
0.00342535
0.00371249
0.00396479
0.00417714
0.00434502
0.0044647
0.0045333
0.00454894
0.0045108
0.0044191
0.00427518
0.00408139
0.00384107
0.00355838
0.00323823
0.00288608
0.00250778
0.00210945
0.00169724
0.00127707
0.000854646
0.000437453
3.24064e-05
-0.000384013
-0.00083427
0.00235752
0.00166776
0.00112821
0.000692597
0.000305017
-3.7495e-05
-0.000337252
-0.00060014
-0.000831718
-0.00103682
-0.00121975
-0.00138428
-0.00153362
-0.0016704
-0.00179667
-0.00191395
-0.0020232
-0.0021249
-0.00221907
-0.00230526
-0.00238268
-0.00245016
-0.00250623
-0.00254919
-0.00257714
-0.00258805
-0.00257982
-0.00255035
-0.00249761
-0.00241968
-0.00231489
-0.0021818
-0.00201935
-0.0018269
-0.00160429
-0.0013519
-0.00107073
-0.000762405
-0.000429214
-7.41387e-05
0.000299158
0.000686355
0.00108251
0.00148214
0.00187928
0.00226762
0.00264061
0.00299162
0.00331411
0.00360176
0.00384871
0.00404966
0.00420011
0.00429643
0.00433605
0.00431752
0.00424055
0.00410605
0.00391613
0.00367396
0.00338373
0.00305049
0.00267998
0.00227848
0.00185261
0.0014091
0.000954525
0.000495236
3.96445e-05
-0.000404462
-0.000863018
-0.00136066
0.00214403
0.0014225
0.000858947
0.000404724
1.02026e-06
-0.000355566
-0.000667737
-0.000941919
-0.00118417
-0.00139973
-0.00159329
-0.00176891
-0.00193005
-0.0020795
-0.00221946
-0.00235151
-0.00247666
-0.00259538
-0.00270763
-0.0028129
-0.00291026
-0.0029984
-0.00307569
-0.00314022
-0.00318986
-0.00322232
-0.00323522
-0.00322618
-0.00319284
-0.00313297
-0.00304453
-0.00292575
-0.00277523
-0.00259198
-0.00237552
-0.00212593
-0.00184393
-0.00153092
-0.00118901
-0.000821067
-0.000430712
-2.23055e-05
0.000399084
0.000827738
0.00125737
0.00168122
0.00209222
0.00248309
0.00284657
0.00317554
0.00346328
0.00370363
0.00389117
0.00402142
0.00409097
0.00409763
0.00404048
0.00391993
0.0037377
0.0034968
0.00320138
0.00285664
0.00246861
0.00204403
0.00159007
0.00111415
0.000623556
0.0001254
-0.000370889
-0.000856548
-0.00136008
-0.00190843
0.00185691
0.0011058
0.000519868
4.82321e-05
-0.000370671
-0.000740673
-0.00106487
-0.00135021
-0.00160324
-0.00182962
-0.00203436
-0.00222183
-0.00239571
-0.00255895
-0.00271388
-0.00286213
-0.00300475
-0.00314217
-0.00327431
-0.00340056
-0.00351987
-0.00363077
-0.00373145
-0.00381977
-0.00389338
-0.00394971
-0.00398609
-0.00399981
-0.00398819
-0.00394863
-0.00387872
-0.00377632
-0.00363964
-0.0034673
-0.00325844
-0.00301281
-0.00273079
-0.0024135
-0.00206282
-0.00168145
-0.00127292
-0.000841588
-0.000392621
6.80554e-05
0.000533832
0.000997515
0.00145146
0.00188771
0.00229822
0.00267499
0.00301036
0.00329713
0.00352889
0.00370013
0.00380649
0.00384486
0.00381357
0.0037124
0.00354261
0.00330692
0.00300941
0.0026554
0.00225123
0.00180411
0.00132185
0.000812617
0.000284494
-0.000254546
-0.000793941
-0.00132385
-0.00187552
-0.0024784
0.0014923
0.000713919
0.000107319
-0.000380481
-0.000813613
-0.00119634
-0.00153215
-0.00182851
-0.00209242
-0.00232994
-0.00254643
-0.00274653
-0.0029341
-0.0031123
-0.00328351
-0.00344946
-0.00361118
-0.00376909
-0.00392304
-0.00407232
-0.00421575
-0.0043517
-0.00447815
-0.00459275
-0.00469288
-0.00477571
-0.00483825
-0.00487744
-0.00489025
-0.0048737
-0.00482496
-0.00474149
-0.00462105
-0.00446184
-0.00426258
-0.00402259
-0.00374189
-0.00342124
-0.00306222
-0.00266732
-0.00223991
-0.00178429
-0.00130569
-0.000810187
-0.000304708
0.000203118
0.000705065
0.00119247
0.00165643
0.00208798
0.0024784
0.00281938
0.00310332
0.00332354
0.00347454
0.00355218
0.00355384
0.00347851
0.00332687
0.00310126
0.00280562
0.00244532
0.00202702
0.00155843
0.00104803
0.00050483
-6.22024e-05
-0.000644135
-0.00122915
-0.0018062
-0.00240952
-0.00307122
0.00104663
0.000243422
-0.000382053
-0.000884715
-0.00133106
-0.00172579
-0.00207278
-0.00238
-0.00265489
-0.00290391
-0.00313272
-0.00334622
-0.0035485
-0.00374283
-0.00393171
-0.00411689
-0.00429944
-0.00447972
-0.00465752
-0.00483202
-0.0050019
-0.00516536
-0.00532018
-0.00546378
-0.00559328
-0.00570554
-0.00579726
-0.00586502
-0.00590538
-0.00591497
-0.00589053
-0.00582902
-0.00572777
-0.00558447
-0.00539736
-0.0051653
-0.00488784
-0.00456533
-0.00419899
-0.00379099
-0.00334448
-0.00286366
-0.00235372
-0.00182089
-0.00127234
-0.000716134
-0.000161079
0.00038342
0.000907553
0.00140133
0.00185485
0.00225853
0.00260345
0.0028816
0.00308615
0.00321172
0.00325454
0.00321266
0.00308601
0.00287641
0.00258754
0.0022248
0.00179511
0.0013067
0.000768792
0.000191273
-0.000415883
-0.00104268
-0.0016759
-0.00230319
-0.00296199
-0.00368732
0.000516696
-0.00030879
-0.00095127
-0.00146744
-0.00192596
-0.00233195
-0.00268968
-0.00300759
-0.00329357
-0.00355442
-0.00379614
-0.00402385
-0.00424184
-0.00445352
-0.00466148
-0.00486751
-0.00507266
-0.00527728
-0.00548107
-0.0056831
-0.00588191
-0.00607553
-0.00626153
-0.0064371
-0.00659907
-0.00674401
-0.00686827
-0.00696806
-0.00703953
-0.00707885
-0.0070823
-0.00704634
-0.00696777
-0.00684375
-0.00667197
-0.00645074
-0.00617908
-0.00585686
-0.00548483
-0.00506478
-0.00459956
-0.00409314
-0.00355066
-0.00297838
-0.0023837
-0.00177507
-0.00116186
-0.000554238
3.704e-05
0.000600871
0.00112607
0.00160167
0.00201726
0.00236329
0.00263139
0.00281471
0.00290815
0.00290859
0.00281499
0.0026285
0.00235242
0.00199205
0.00155457
0.00104869
0.000484421
-0.000127381
-0.000775649
-0.00144921
-0.00213329
-0.00281408
-0.00353252
-0.00432676
-0.000100363
-0.000945454
-0.00160299
-0.00213127
-0.00260089
-0.00301738
-0.00338539
-0.00371383
-0.00401099
-0.00428404
-0.00453924
-0.00478199
-0.00501673
-0.005247
-0.00547548
-0.005704
-0.0059336
-0.00616459
-0.00639658
-0.00662857
-0.00685892
-0.00708551
-0.00730569
-0.00751641
-0.00771422
-0.00789537
-0.00805586
-0.00819151
-0.00829803
-0.00837113
-0.00840656
-0.00840027
-0.00834844
-0.00824767
-0.00809503
-0.0078882
-0.00762561
-0.00730653
-0.00693117
-0.00650082
-0.00601794
-0.0054862
-0.00491053
-0.00429721
-0.00365375
-0.00298896
-0.00231273
-0.001636
-0.000970478
-0.000328459
0.000277504
0.00083491
0.00133167
0.00175651
0.0020993
0.00235146
0.00250631
0.00255927
0.00250815
0.00235319
0.00209713
0.00174509
0.00130437
0.000784201
0.00019537
-0.000450217
-0.0011403
-0.00186239
-0.00260001
-0.00333772
-0.00412026
-0.00498919
-0.000806996
-0.00166891
-0.0023395
-0.00287845
-0.00335807
-0.00378428
-0.0041621
-0.00450089
-0.00480933
-0.00509492
-0.0053642
-0.0056228
-0.00587532
-0.00612543
-0.00637589
-0.00662856
-0.00688449
-0.00714393
-0.00740643
-0.00767087
-0.0079355
-0.00819799
-0.00845551
-0.00870475
-0.00894198
-0.00916314
-0.00936386
-0.00953954
-0.00968546
-0.0097968
-0.0098688
-0.00989679
-0.00987635
-0.00980342
-0.00967439
-0.00948624
-0.0092367
-0.00892436
-0.00854879
-0.00811069
-0.00761198
-0.00705591
-0.00644715
-0.00579182
-0.00509752
-0.00437327
-0.00362949
-0.00287783
-0.00213098
-0.00140245
-0.000706267
-5.65968e-05
0.00053264
0.0010482
0.00147795
0.00181134
0.00203975
0.00215692
0.00215918
0.00204563
0.00181822
0.00148171
0.00104346
0.000513113
-9.77198e-05
-0.000776027
-0.00150825
-0.00228046
-0.00307427
-0.00387244
-0.00472384
-0.00567371
-0.00160522
-0.0024811
-0.00316266
-0.00371081
-0.0041993
-0.00463444
-0.0050216
-0.00537056
-0.00569036
-0.00598882
-0.00627275
-0.00654799
-0.00681931
-0.00709051
-0.0073644
-0.00764289
-0.00792701
-0.008217
-0.00851234
-0.00881179
-0.00911348
-0.00941491
-0.00971305
-0.0100043
-0.0102848
-0.01055
-0.0107952
-0.0110154
-0.0112054
-0.0113598
-0.0114734
-0.0115408
-0.011557
-0.0115171
-0.0114168
-0.0112523
-0.0110205
-0.0107194
-0.0103475
-0.00990505
-0.00939318
-0.00881466
-0.00817371
-0.0074762
-0.00672968
-0.00594332
-0.00512794
-0.00429586
-0.00346076
-0.00263739
-0.00184129
-0.00108843
-0.000394733
0.000224375
0.000754496
0.00118277
0.00149838
0.00169298
0.00176112
0.00170044
0.00151185
0.00119952
0.0007707
0.000235404
-0.000393974
-0.00110326
-0.00187747
-0.00270112
-0.0035537
-0.00441596
-0.00534125
-0.00637876
-0.00249658
-0.00338348
-0.00407391
-0.00462977
-0.00512599
-0.00556924
-0.00596525
-0.00632416
-0.00665538
-0.00696702
-0.00726615
-0.00755879
-0.0078499
-0.00814336
-0.00844209
-0.00874802
-0.00906219
-0.00938481
-0.0097153
-0.0100523
-0.0103939
-0.0107374
-0.0110795
-0.0114164
-0.011744
-0.0120574
-0.0123516
-0.012621
-0.0128601
-0.0130629
-0.0132235
-0.0133359
-0.0133944
-0.0133933
-0.0133275
-0.0131923
-0.0129839
-0.0126991
-0.0123358
-0.0118932
-0.0113718
-0.0107736
-0.0101024
-0.00936342
-0.00856415
-0.0077138
-0.00682345
-0.00590603
-0.00497612
-0.00404972
-0.00314396
-0.00227668
-0.00146598
-0.000729685
-8.47409e-05
0.000453374
0.000871253
0.00115813
0.00130634
0.00131172
0.00117381
0.000895902
0.000484938
-4.88242e-05
-0.00069224
-0.00142993
-0.00224543
-0.00312148
-0.00403525
-0.00496528
-0.00596973
-0.00710205
-0.00348215
-0.00437708
-0.00507424
-0.00563629
-0.00613908
-0.00658962
-0.00699396
-0.0073626
-0.00770526
-0.00803034
-0.00834514
-0.00865588
-0.00896767
-0.00928452
-0.00960941
-0.00994433
-0.0102903
-0.0106476
-0.0110155
-0.0113926
-0.0117768
-0.0121654
-0.0125548
-0.0129412
-0.0133198
-0.0136858
-0.0140335
-0.0143572
-0.0146505
-0.0149072
-0.0151206
-0.015284
-0.015391
-0.015435
-0.0154101
-0.0153106
-0.0151317
-0.0148693
-0.0145202
-0.0140828
-0.0135564
-0.0129424
-0.0122437
-0.0114651
-0.0106136
-0.00969831
-0.0087305
-0.00772354
-0.00669286
-0.00565565
-0.00463063
-0.00363761
-0.002697
-0.00182922
-0.00105405
-0.000389937
0.000146743
0.000542351
0.000786604
0.000873075
0.000799525
0.00056805
0.000185003
-0.000339296
-0.000991029
-0.00175361
-0.00260896
-0.00353793
-0.00451511
-0.00551654
-0.00660564
-0.00784035
-0.00456248
-0.00546242
-0.00616416
-0.00673089
-0.00723909
-0.00769607
-0.0081082
-0.00848629
-0.00884036
-0.00917906
-0.00950992
-0.00983936
-0.0101726
-0.0105139
-0.0108661
-0.0112314
-0.0116109
-0.0120047
-0.0124121
-0.0128318
-0.0132614
-0.013698
-0.0141381
-0.0145775
-0.0150112
-0.015434
-0.01584
-0.0162229
-0.0165759
-0.0168922
-0.0171644
-0.0173851
-0.0175471
-0.017643
-0.0176659
-0.0176091
-0.0174666
-0.0172334
-0.0169052
-0.016479
-0.0159533
-0.0153284
-0.0146062
-0.0137908
-0.0128888
-0.0119088
-0.0108621
-0.00976236
-0.00862576
-0.0074706
-0.00631715
-0.00518723
-0.00410365
-0.00308964
-0.00216808
-0.00136072
-0.000687333
-0.000164904
0.000193163
0.000377676
0.000384143
0.00021303
-0.000130234
-0.000635512
-0.00128844
-0.00207125
-0.00296418
-0.00394601
-0.00498849
-0.00606492
-0.00724429
-0.00858939
-0.00573758
-0.00663955
-0.00734373
-0.00791364
-0.00842608
-0.00888865
-0.00930798
-0.00969518
-0.0100605
-0.0104129
-0.0107601
-0.0111087
-0.0114641
-0.0118306
-0.0122112
-0.0126082
-0.0130226
-0.0134546
-0.0139035
-0.0143679
-0.0148454
-0.015333
-0.0158269
-0.0163228
-0.0168155
-0.0172994
-0.0177683
-0.0182154
-0.0186336
-0.0190153
-0.0193525
-0.0196371
-0.019861
-0.0200159
-0.0200939
-0.0200872
-0.0199888
-0.0197923
-0.0194922
-0.0190843
-0.018566
-0.0179361
-0.0171956
-0.0163477
-0.015398
-0.0143548
-0.013229
-0.0120345
-0.0107879
-0.00950861
-0.00821827
-0.00694072
-0.00570127
-0.0045261
-0.00344143
-0.00247268
-0.00164345
-0.000974563
-0.000483112
-0.000181626
-7.74169e-05
-0.000172163
-0.000461791
-0.000936671
-0.0015821
-0.00237917
-0.00330639
-0.00434033
-0.0054496
-0.00660444
-0.00787982
-0.00934369
-0.00700694
-0.007908
-0.00861254
-0.00918414
-0.00969966
-0.0101669
-0.0105928
-0.0109887
-0.0113652
-0.0117312
-0.0120949
-0.0124629
-0.0128409
-0.0132331
-0.0136429
-0.0140725
-0.014523
-0.0149947
-0.0154868
-0.0159979
-0.0165256
-0.0170667
-0.0176174
-0.0181731
-0.0187285
-0.0192777
-0.019814
-0.0203303
-0.020819
-0.0212718
-0.0216802
-0.0220354
-0.0223282
-0.0225495
-0.0226902
-0.0227416
-0.0226953
-0.0225436
-0.0222797
-0.0218981
-0.0213946
-0.0207669
-0.0200145
-0.0191395
-0.0181465
-0.0170429
-0.0158393
-0.0145494
-0.0131901
-0.0117816
-0.0103469
-0.00891184
-0.00750411
-0.00615297
-0.00488824
-0.0037393
-0.00273404
-0.00189764
-0.0012515
-0.000812128
-0.000590314
-0.000590492
-0.000810481
-0.00124158
-0.00186901
-0.00267288
-0.00362993
-0.00471438
-0.00589139
-0.00712781
-0.00850501
-0.0100964
-0.00836952
-0.00926683
-0.00996971
-0.0105415
-0.011059
-0.0115301
-0.0119619
-0.012366
-0.0127531
-0.0131326
-0.0135126
-0.0139001
-0.0143008
-0.0147192
-0.0151587
-0.0156215
-0.016109
-0.0166215
-0.0171581
-0.0177176
-0.0182973
-0.0188943
-0.0195044
-0.0201229
-0.0207443
-0.0213625
-0.0219705
-0.0225608
-0.0231251
-0.0236548
-0.0241406
-0.0245728
-0.0249415
-0.0252366
-0.025448
-0.0255656
-0.0255798
-0.0254815
-0.0252626
-0.0249159
-0.0244358
-0.0238182
-0.0230615
-0.0221661
-0.0211354
-0.0199759
-0.0186973
-0.017313
-0.0158399
-0.0142987
-0.0127136
-0.0111122
-0.00952456
-0.00798317
-0.00652153
-0.00517329
-0.00397103
-0.00294487
-0.00212113
-0.00152104
-0.00115959
-0.00104472
-0.00117677
-0.00154851
-0.00214548
-0.00294697
-0.00392803
-0.00506036
-0.0063054
-0.00762624
-0.00911106
-0.0108389
-0.00982373
-0.0107146
-0.0114139
-0.0119846
-0.0125029
-0.0129768
-0.0134137
-0.0138254
-0.0142228
-0.0146153
-0.0150113
-0.015418
-0.0158412
-0.0162857
-0.0167549
-0.0172513
-0.0177763
-0.0183301
-0.0189123
-0.0195212
-0.0201546
-0.0208091
-0.0214808
-0.0221648
-0.0228553
-0.0235459
-0.0242295
-0.0248981
-0.0255429
-0.0261548
-0.0267238
-0.0272394
-0.027691
-0.0280673
-0.0283571
-0.0285492
-0.0286325
-0.0285967
-0.0284318
-0.0281292
-0.0276816
-0.0270833
-0.0263308
-0.025423
-0.0243618
-0.0231523
-0.0218032
-0.0203272
-0.0187408
-0.0170652
-0.0153253
-0.0135502
-0.0117724
-0.0100274
-0.00835254
-0.00678596
-0.00536533
-0.00412623
-0.0031006
-0.00231515
-0.00178993
-0.00153718
-0.00156059
-0.00185505
-0.00240689
-0.00319494
-0.00419261
-0.00536903
-0.00668159
-0.00808925
-0.00968738
-0.0115609
-0.0113675
-0.0122495
-0.0129434
-0.0135117
-0.0140296
-0.0145055
-0.0149467
-0.0153652
-0.015772
-0.0161768
-0.0165882
-0.0170135
-0.0174587
-0.0179288
-0.0184274
-0.0189572
-0.0195195
-0.0201149
-0.0207429
-0.021402
-0.0220899
-0.0228034
-0.0235383
-0.0242897
-0.0250518
-0.0258178
-0.0265803
-0.027331
-0.0280608
-0.0287598
-0.0294174
-0.0300226
-0.0305635
-0.0310281
-0.031404
-0.0316787
-0.0318398
-0.0318754
-0.031774
-0.0315252
-0.0311199
-0.0305506
-0.0298118
-0.0289007
-0.0278174
-0.0265654
-0.025152
-0.0235888
-0.0218918
-0.0200819
-0.0181848
-0.0162306
-0.014254
-0.0122934
-0.0103899
-0.00858651
-0.00692613
-0.00545038
-0.00419747
-0.00320043
-0.00248528
-0.00206953
-0.00196112
-0.00215787
-0.00264758
-0.003409
-0.00441413
-0.00562945
-0.00700806
-0.00850436
-0.0102213
-0.0122501
-0.0129982
-0.0138691
-0.0145561
-0.0151207
-0.0156373
-0.0161141
-0.0165587
-0.0169831
-0.0173984
-0.0178145
-0.0182402
-0.018683
-0.0191492
-0.019644
-0.0201711
-0.0207333
-0.0213324
-0.0219689
-0.0226425
-0.0233518
-0.0240946
-0.0248676
-0.0256667