/*--------------------------------*- C++ -*----------------------------------*\
  =========                 |
  \\      /  F ield         | OpenFOAM: The Open Source CFD Toolbox
   \\    /   O peration     | Website:  https://openfoam.org
    \\  /    A nd           | Version:  dev
     \\/     M anipulation  |
\*---------------------------------------------------------------------------*/
FoamFile
{
    format      ascii;
    class       surfaceScalarField;
    location    "20.7";
    object      phi;
}
// * * * * * * * * * * * * * * * * * * * * * * * * * * * * * * * * * * * * * //

dimensions      [0 3 -1 0 0 0 0];

internalField   nonuniform List<scalar> 
10224
(
3.41938e-08
-3.4423e-08
8.79607e-08
-5.37664e-08
1.24347e-07
-3.63849e-08
1.252e-07
-8.51841e-10
8.35199e-08
4.16806e-08
-1.97377e-09
8.54935e-08
-1.29462e-07
1.27488e-07
-2.95642e-07
1.66179e-07
-4.96455e-07
2.00813e-07
-7.27606e-07
2.31149e-07
-9.84827e-07
2.57221e-07
-1.26403e-06
2.79204e-07
-1.56138e-06
2.97351e-07
-1.87333e-06
3.11947e-07
-2.19661e-06
3.23275e-07
-2.52821e-06
3.31601e-07
-2.86537e-06
3.37162e-07
-3.20553e-06
3.40159e-07
-3.54628e-06
3.40753e-07
-3.88535e-06
3.39065e-07
-4.22053e-06
3.35182e-07
-4.54969e-06
3.29157e-07
-4.8707e-06
3.21013e-07
-5.18146e-06
3.10754e-07
-5.47983e-06
2.98369e-07
-5.76366e-06
2.83835e-07
-6.03079e-06
2.67132e-07
-6.27904e-06
2.48242e-07
-6.5062e-06
2.27162e-07
-6.7101e-06
2.03904e-07
-6.88861e-06
1.78508e-07
-7.03966e-06
1.51041e-07
-7.16126e-06
1.21605e-07
-7.2516e-06
9.03384e-08
-7.30902e-06
5.74224e-08
-7.3321e-06
2.30788e-08
-7.31967e-06
-1.2427e-08
-7.27089e-06
-4.87871e-08
-7.18524e-06
-8.56525e-08
-7.0626e-06
-1.22636e-07
-6.90328e-06
-1.59318e-07
-6.70803e-06
-1.9525e-07
-6.47807e-06
-2.29963e-07
-6.2151e-06
-2.62973e-07
-5.9213e-06
-2.93794e-07
-5.59936e-06
-3.21945e-07
-5.2524e-06
-3.46959e-07
-4.884e-06
-3.68399e-07
-4.49814e-06
-3.85862e-07
-4.09914e-06
-3.98996e-07
-3.69164e-06
-4.07505e-07
-3.28048e-06
-4.11159e-07
-2.87068e-06
-4.09802e-07
-2.46732e-06
-4.0336e-07
-2.07548e-06
-3.9184e-07
-1.70014e-06
-3.7534e-07
-1.34609e-06
-3.54044e-07
-1.01787e-06
-3.28225e-07
-7.19625e-07
-2.98244e-07
-4.55074e-07
-2.6455e-07
-2.27394e-07
-2.2768e-07
-3.91282e-08
-1.88265e-07
1.07916e-07
-1.47044e-07
2.12799e-07
-1.04883e-07
2.75633e-07
-6.28337e-08
2.97846e-07
-2.22131e-08
2.82609e-07
1.52355e-08
2.35509e-07
4.70975e-08
1.65595e-07
6.9913e-08
8.71469e-08
7.84539e-08
2.2526e-08
6.46347e-08
2.25386e-08
5.40553e-08
-8.84766e-08
1.12453e-07
-1.12161e-07
1.18092e-07
-4.2022e-08
3.86776e-08
7.85636e-08
-1.42169e-07
2.22527e-07
-4.29756e-07
3.7308e-07
-8.22314e-07
5.20045e-07
-1.3137e-06
6.57568e-07
-1.89537e-06
7.82476e-07
-2.5575e-06
8.93283e-07
-3.28984e-06
9.89557e-07
-4.08214e-06
1.0715e-06
-4.92449e-06
1.1397e-06
-5.80746e-06
1.19491e-06
-6.72217e-06
1.23798e-06
-7.66029e-06
1.26972e-06
-8.61403e-06
1.2909e-06
-9.57606e-06
1.30218e-06
-1.05394e-05
1.30411e-06
-1.14975e-05
1.29711e-06
-1.24438e-05
1.28149e-06
-1.33721e-05
1.25747e-06
-1.42762e-05
1.22517e-06
-1.51501e-05
1.18462e-06
-1.59876e-05
1.13583e-06
-1.67825e-05
1.07878e-06
-1.75288e-05
1.01345e-06
-1.82204e-05
9.39821e-07
-1.88512e-05
8.5795e-07
-1.94153e-05
7.67949e-07
-1.99068e-05
6.7002e-07
-2.03202e-05
5.64474e-07
-2.06503e-05
4.51744e-07
-2.08924e-05
3.32399e-07
-2.10421e-05
2.0715e-07
-2.10959e-05
7.68611e-08
-2.10509e-05
-5.74536e-08
-2.0905e-05
-1.94631e-07
-2.06573e-05
-3.33365e-07
-2.03077e-05
-4.72221e-07
-1.98574e-05
-6.09648e-07
-1.93087e-05
-7.44001e-07
-1.86651e-05
-8.73567e-07
-1.79314e-05
-9.96593e-07
-1.71139e-05
-1.11132e-06
-1.62199e-05
-1.216e-06
-1.52579e-05
-1.30897e-06
-1.42376e-05
-1.38865e-06
-1.31698e-05
-1.45362e-06
-1.20662e-05
-1.5026e-06
-1.09392e-05
-1.53456e-06
-9.80166e-06
-1.54868e-06
-8.66705e-06
-1.54441e-06
-7.54889e-06
-1.52152e-06
-6.46068e-06
-1.48005e-06
-5.41563e-06
-1.42039e-06
-4.42644e-06
-1.34323e-06
-3.50505e-06
-1.24961e-06
-2.66239e-06
-1.1409e-06
-1.90816e-06
-1.01878e-06
-1.25052e-06
-8.85317e-07
-6.95881e-07
-7.42909e-07
-2.48537e-07
-5.94388e-07
8.96559e-08
-4.43078e-07
3.19769e-07
-2.92947e-07
4.46394e-07
-1.48837e-07
4.7851e-07
-1.68763e-08
4.30573e-07
9.50362e-08
3.23999e-07
1.76479e-07
1.88767e-07
2.13664e-07
6.43036e-08
1.89069e-07
8.68516e-08
3.73661e-08
-1.25841e-07
4.32855e-08
-1.18078e-07
-4.33889e-08
4.4653e-08
-2.58857e-07
2.94031e-07
-6.22689e-07
5.86359e-07
-1.14198e-06
8.92368e-07
-1.81498e-06
1.19305e-06
-2.63404e-06
1.47663e-06
-3.5878e-06
1.73623e-06
-4.66275e-06
1.96823e-06
-5.84432e-06
2.17113e-06
-7.11764e-06
2.34483e-06
-8.46802e-06
2.49008e-06
-9.88123e-06
2.60812e-06
-1.13437e-05
2.7004e-06
-1.28424e-05
2.76843e-06
-1.43651e-05
2.81363e-06
-1.59002e-05
2.83727e-06
-1.74365e-05
2.84042e-06
-1.89633e-05
2.82394e-06
-2.04703e-05
2.78848e-06
-2.19473e-05
2.73448e-06
-2.33844e-05
2.66223e-06
-2.47717e-05
2.57188e-06
-2.60993e-05
2.46349e-06
-2.73576e-05
2.33708e-06
-2.85369e-05
2.19269e-06
-2.96274e-05
2.0304e-06
-3.06199e-05
1.8504e-06
-3.1505e-05
1.65302e-06
-3.22737e-05
1.4388e-06
-3.29177e-05
1.20848e-06
-3.34291e-05
9.63066e-07
-3.38005e-05
7.03846e-07
-3.40258e-05
4.32401e-07
-3.40995e-05
1.50623e-07
-3.40177e-05
-1.39287e-07
-3.37775e-05
-4.34826e-07
-3.33777e-05
-7.33203e-07
-3.28185e-05
-1.03137e-06
-3.21021e-05
-1.32603e-06
-3.12324e-05
-1.61374e-06
-3.02151e-05
-1.89089e-06
-2.90578e-05
-2.15382e-06
-2.77703e-05
-2.39883e-06
-2.6364e-05
-2.62232e-06
-2.48522e-05
-2.8208e-06
-2.32498e-05
-2.99102e-06
-2.15734e-05
-3.13e-06
-1.98409e-05
-3.23514e-06
-1.80712e-05
-3.30429e-06
-1.62841e-05
-3.33577e-06
-1.45e-05
-3.32848e-06
-1.27396e-05
-3.28195e-06
-1.10233e-05
-3.1963e-06
-9.37136e-06
-3.07237e-06
-7.80292e-06
-2.91168e-06
-6.3361e-06
-2.71643e-06
-4.98745e-06
-2.48955e-06
-3.77154e-06
-2.23469e-06
-2.7006e-06
-1.95625e-06
-1.78412e-06
-1.65939e-06
-1.02831e-06
-1.35019e-06
-4.35665e-07
-1.03573e-06
-4.26971e-09
-7.24344e-07
2.72923e-07
-4.26033e-07
4.0897e-07
-1.52922e-07
4.24085e-07
7.99297e-08
3.46863e-07
2.53715e-07
2.15463e-07
3.4507e-07
7.85452e-08
3.25971e-07
1.65399e-07
1.90211e-09
-1.27742e-07
-7.89636e-08
-3.72121e-08
-2.97626e-07
2.63315e-07
-6.87757e-07
6.84162e-07
-1.26763e-06
1.16624e-06
-2.04351e-06
1.66824e-06
-3.01258e-06
2.16212e-06
-4.16559e-06
2.62964e-06
-5.48896e-06
3.0596e-06
-6.96635e-06
3.44562e-06
-8.57996e-06
3.78473e-06
-1.03113e-05
4.07617e-06
-1.21419e-05
4.32067e-06
-1.40536e-05
4.51981e-06
-1.60288e-05
4.67562e-06
-1.80507e-05
4.79029e-06
-2.0103e-05
4.86596e-06
-2.21703e-05
4.90457e-06
-2.42377e-05
4.90779e-06
-2.62907e-05
4.87697e-06
-2.83154e-05
4.81318e-06
-3.02981e-05
4.71716e-06
-3.22253e-05
4.58942e-06
-3.40837e-05
4.43027e-06
-3.58601e-05
4.23991e-06
-3.75415e-05
4.01847e-06
-3.91149e-05
3.76611e-06
-4.05676e-05
3.48312e-06
-4.18871e-05
3.16994e-06
-4.30614e-05
2.82726e-06
-4.40787e-05
2.45612e-06
-4.49281e-05
2.0579e-06
-4.55995e-05
1.63443e-06
-4.60836e-05
1.18797e-06
-4.63725e-05
7.21315e-07
-4.64596e-05
2.37724e-07
-4.63399e-05
-2.5902e-07
-4.60101e-05
-7.64648e-07
-4.54689e-05
-1.27442e-06
-4.4717e-05
-1.7832e-06
-4.37576e-05
-2.28545e-06
-4.2596e-05
-2.77537e-06
-4.12399e-05
-3.24694e-06
-3.96997e-05
-3.69405e-06
-3.7988e-05
-4.11056e-06
-3.61198e-05
-4.49048e-06
-3.41126e-05
-4.82803e-06
-3.19858e-05
-5.11782e-06
-2.97609e-05
-5.35492e-06
-2.7461e-05
-5.53505e-06
-2.51106e-05
-5.65463e-06
-2.27354e-05
-5.71093e-06
-2.03618e-05
-5.70216e-06
-1.80162e-05
-5.62751e-06
-1.57252e-05
-5.48729e-06
-1.35147e-05
-5.2829e-06
-1.14095e-05
-5.01691e-06
-9.43283e-06
-4.69307e-06
-7.60605e-06
-4.31634e-06
-5.94786e-06
-3.89289e-06
-4.47394e-06
-3.43017e-06
-3.19641e-06
-2.93693e-06
-2.12322e-06
-2.42338e-06
-1.25759e-06
-1.90136e-06
-5.97275e-07
-1.38466e-06
-1.33854e-07
-8.89457e-07
1.48145e-07
-4.34927e-07
2.72155e-07
-4.40865e-08
2.70607e-07
2.55266e-07
1.85955e-07
4.29733e-07
7.21037e-08
4.3982e-07
2.37502e-07
-4.20474e-08
-8.56946e-08
-2.2996e-07
1.507e-07
-6.06307e-07
6.39662e-07
-1.19764e-06
1.27549e-06
-2.01766e-06
1.98626e-06
-3.06954e-06
2.72012e-06
-4.34808e-06
3.44065e-06
-5.84184e-06
4.12341e-06
-7.53498e-06
4.75273e-06
-9.4087e-06
5.31934e-06
-1.14425e-05
5.8185e-06
-1.36149e-05
6.24859e-06
-1.59043e-05
6.61011e-06
-1.82894e-05
6.90488e-06
-2.07492e-05
7.13543e-06
-2.32635e-05
7.30459e-06
-2.58127e-05
7.41518e-06
-2.8378e-05
7.46984e-06
-3.09411e-05
7.47084e-06
-3.34842e-05
7.4201e-06
-3.59901e-05
7.31909e-06
-3.84419e-05
7.16893e-06
-4.08228e-05
6.97039e-06
-4.31166e-05
6.72402e-06
-4.53069e-05
6.43019e-06
-4.73776e-05
6.08923e-06
-4.9313e-05
5.70153e-06
-5.10976e-05
5.26766e-06
-5.27161e-05
4.78845e-06
-5.4154e-05
4.26512e-06
-5.53972e-05
3.69935e-06
-5.64327e-05
3.09339e-06
-5.72484e-05
2.4501e-06
-5.78334e-05
1.77302e-06
-5.81785e-05
1.06638e-06
-5.82759e-05
3.35172e-07
-5.812e-05
-4.14905e-07
-5.77072e-05
-1.17744e-06
-5.70363e-05
-1.94537e-06
-5.61085e-05
-2.71102e-06
-5.49277e-05
-3.46621e-06
-5.35007e-05
-4.20234e-06
-5.18372e-05
-4.91054e-06
-4.99494e-05
-5.5818e-06
-4.78529e-05
-6.2071e-06
-4.55657e-05
-6.77764e-06
-4.31088e-05
-7.28496e-06
-4.05055e-05
-7.72113e-06
-3.77814e-05
-8.07896e-06
-3.49643e-05
-8.35217e-06
-3.20834e-05
-8.53554e-06
-2.91692e-05
-8.62507e-06
-2.62533e-05
-8.61814e-06
-2.33672e-05
-8.51361e-06
-2.05425e-05
-8.31192e-06
-1.78103e-05
-8.01518e-06
-1.51999e-05
-7.62722e-06
-1.27394e-05
-7.1536e-06
-1.04541e-05
-6.60169e-06
-8.36627e-06
-5.98067e-06
-6.49485e-06
-5.30158e-06
-4.85438e-06
-4.5774e-06
-3.45459e-06
-3.82317e-06
-2.29972e-06
-3.05624e-06
-1.38781e-06
-2.29657e-06
-7.10032e-07
-1.56723e-06
-2.49953e-07
-8.95007e-07
1.725e-08
-3.11295e-07
1.25591e-07
1.4692e-07
1.1917e-07
4.36158e-07
5.3552e-08
5.0544e-07
2.91053e-07
-8.9401e-08
3.70615e-09
-3.95144e-07
4.56441e-07
-9.44567e-07
1.18908e-06
-1.75423e-06
2.08515e-06
-2.8309e-06
3.06293e-06
-4.17282e-06
4.06203e-06
-5.77113e-06
5.03896e-06
-7.61146e-06
5.96373e-06
-9.67534e-06
6.81661e-06
-1.19415e-05
7.5855e-06
-1.43869e-05
8.26389e-06
-1.69876e-05
8.84925e-06
-1.97192e-05
9.34176e-06
-2.25577e-05
9.74336e-06
-2.54793e-05
1.0057e-05
-2.84608e-05
1.02861e-05
-3.14798e-05
1.04342e-05
-3.45145e-05
1.05045e-05
-3.75436e-05
1.04999e-05
-4.05464e-05
1.04229e-05
-4.35028e-05
1.02755e-05
-4.6393e-05
1.0059e-05
-4.91973e-05
9.7747e-06
-5.18965e-05
9.42328e-06
-5.44717e-05
9.00539e-06
-5.69042e-05
8.52165e-06
-5.91754e-05
7.97276e-06
-6.12674e-05
7.35967e-06
-6.31627e-05
6.68373e-06
-6.48444e-05
5.94683e-06
-6.62965e-05
5.15147e-06
-6.75041e-05
4.30095e-06
-6.84533e-05
3.39937e-06
-6.91321e-05
2.45177e-06
-6.95298e-05
1.46413e-06
-6.96381e-05
4.43406e-07
-6.94505e-05
-6.02471e-07
-6.89633e-05
-1.66463e-06
-6.81754e-05
-2.73334e-06
-6.70883e-05
-3.79805e-06
-6.5707e-05
-4.84755e-06
-6.40392e-05
-5.87011e-06
-6.20962e-05
-6.8536e-06
-5.98922e-05
-7.78576e-06
-5.7445e-05
-8.65432e-06
-5.47753e-05
-9.4473e-06
-5.19071e-05
-1.01532e-05
-4.88669e-05
-1.07613e-05
-4.56841e-05
-1.12618e-05
-4.23901e-05
-1.16461e-05
-3.90184e-05
-1.19072e-05
-3.56038e-05
-1.20397e-05
-3.21821e-05
-1.20399e-05
-2.87895e-05
-1.19063e-05
-2.54619e-05
-1.16395e-05
-2.22347e-05
-1.12423e-05
-1.91419e-05
-1.07201e-05
-1.62151e-05
-1.00803e-05
-1.34837e-05
-9.33313e-06
-1.09734e-05
-8.49101e-06
-8.70588e-06
-7.56905e-06
-6.69834e-06
-6.58494e-06
-4.96242e-06
-5.55909e-06
-3.50377e-06
-4.51488e-06
-2.32138e-06
-3.47896e-06
-1.40689e-06
-2.48171e-06
-7.44038e-07
-1.55786e-06
-3.08011e-07
-7.47322e-07
-6.48791e-08
-9.62158e-08
2.9065e-08
3.42214e-07
2.82153e-08
5.06292e-07
3.19267e-07
-1.37566e-07
1.41271e-07
-5.65954e-07
8.84827e-07
-1.2966e-06
1.91973e-06
-2.33457e-06
3.12312e-06
-3.67816e-06
4.40653e-06
-5.31931e-06
5.70318e-06
-7.24441e-06
6.96406e-06
-9.43535e-06
8.15468e-06
-1.18706e-05
9.25187e-06
-1.45262e-05
1.02411e-05
-1.73766e-05
1.11143e-05
-2.03954e-05
1.18681e-05
-2.3556e-05
1.25023e-05
-2.68317e-05
1.30191e-05
-3.01964e-05
1.34217e-05
-3.36244e-05
1.37142e-05
-3.70908e-05
1.39005e-05
-4.0571e-05
1.39848e-05
-4.40414e-05
1.39703e-05
-4.74786e-05
1.38602e-05
-5.08599e-05
1.36568e-05
-5.41628e-05
1.33619e-05
-5.73653e-05
1.29772e-05
-6.04455e-05
1.25035e-05
-6.33821e-05
1.1942e-05
-6.61539e-05
1.12935e-05
-6.87403e-05
1.05591e-05
-7.11208e-05
9.74024e-06
-7.3276e-05
8.83896e-06
-7.51871e-05
7.85789e-06
-7.68362e-05
6.80056e-06
-7.82067e-05
5.67144e-06
-7.92834e-05
4.4761e-06
-8.00529e-05
3.22126e-06
-8.05037e-05
1.91487e-06
-8.06264e-05
5.66101e-07
-8.04142e-05
-8.14623e-07
-7.98631e-05
-2.21571e-06
-7.8972e-05
-3.62445e-06
-7.77429e-05
-5.02715e-06
-7.61812e-05
-6.40927e-06
-7.42957e-05
-7.75559e-06
-7.20989e-05
-9.05046e-06
-6.96066e-05
-1.0278e-05
-6.68385e-05
-1.14224e-05
-6.38176e-05
-1.24682e-05
-6.05703e-05
-1.34005e-05
-5.71261e-05
-1.42055e-05
-5.35173e-05
-1.48706e-05
-4.97787e-05
-1.53847e-05
-4.59474e-05
-1.57385e-05
-4.20619e-05
-1.59252e-05
-3.81619e-05
-1.59399e-05
-3.42876e-05
-1.57806e-05
-3.0479e-05
-1.54481e-05
-2.67754e-05
-1.49459e-05
-2.32146e-05
-1.42808e-05
-1.98324e-05
-1.34626e-05
-1.66614e-05
-1.25041e-05
-1.37307e-05
-1.14217e-05
-1.10651e-05
-1.02346e-05
-8.68436e-06
-8.96571e-06
-6.60232e-06
-7.64112e-06
-4.82657e-06
-6.29064e-06
-3.3576e-06
-4.94793e-06
-2.18834e-06
-3.65097e-06
-1.3036e-06
-2.44259e-06
-6.797e-07
-1.37122e-06
-2.84036e-07
-4.91881e-07
-7.48058e-08
1.32982e-07
-6.61054e-10
4.32147e-07
3.18606e-07
-1.85296e-07
3.26566e-07
-7.37509e-07
1.43704e-06
-1.65263e-06
2.83485e-06
-2.92367e-06
4.39415e-06
-4.53954e-06
6.0224e-06
-6.48494e-06
7.64857e-06
-8.74065e-06
9.21976e-06
-1.12842e-05
1.06982e-05
-1.40904e-05
1.20581e-05
-1.71324e-05
1.32831e-05
-2.0382e-05
1.43639e-05
-2.38105e-05
1.52965e-05
-2.73889e-05
1.60807e-05
-3.10884e-05
1.67186e-05
-3.48808e-05
1.7214e-05
-3.8738e-05
1.75714e-05
-4.2633e-05
1.77955e-05
-4.6539e-05
1.78908e-05
-5.04301e-05
1.78614e-05
-5.42806e-05
1.77107e-05
-5.80656e-05
1.74417e-05
-6.17603e-05
1.70566e-05
-6.53403e-05
1.65572e-05
-6.87818e-05
1.5945e-05
-7.20611e-05
1.52213e-05
-7.51549e-05
1.43873e-05
-7.80405e-05
1.34446e-05
-8.06956e-05
1.23954e-05
-8.30989e-05
1.12422e-05
-8.52296e-05
9.98862e-06
-8.70684e-05
8.63936e-06
-8.85972e-05
7.20022e-06
-8.97994e-05
5.67836e-06
-9.06606e-05
4.08239e-06
-9.11681e-05
2.4224e-06
-9.1312e-05
7.09983e-07
-9.10849e-05
-1.04174e-06
-9.04824e-05
-2.81821e-06
-8.95033e-05
-4.60355e-06
-8.81498e-05
-6.38062e-06
-8.64278e-05
-8.13131e-06
-8.43467e-05
-9.83666e-06
-8.19199e-05
-1.14772e-05
-7.91648e-05
-1.30332e-05
-7.61022e-05
-1.44849e-05
-7.27572e-05
-1.58132e-05
-6.91581e-05
-1.69996e-05
-6.53369e-05
-1.80267e-05
-6.13286e-05
-1.88789e-05
-5.7171e-05
-1.95423e-05
-5.2904e-05
-2.00055e-05
-4.85698e-05
-2.02594e-05
-4.42113e-05
-2.02983e-05
-3.98726e-05
-2.01193e-05
-3.55974e-05
-1.97233e-05
-3.14287e-05
-1.91146e-05
-2.74082e-05
-1.83013e-05
-2.35752e-05
-1.72956e-05
-1.99659e-05
-1.61134e-05
-1.66129e-05
-1.47747e-05
-1.35441e-05
-1.33034e-05
-1.0782e-05
-1.17278e-05
-8.34327e-06
-1.00799e-05
-6.2377e-06
-8.39621e-06
-4.46795e-06
-6.71768e-06
-3.02888e-06
-5.09004e-06
-1.9072e-06
-3.56427e-06
-1.08117e-06
-2.19725e-06
-5.20478e-07
-1.05258e-06
-1.86218e-07
-2.0128e-07
-3.11227e-08
2.77051e-07
2.87483e-07
-2.31956e-07
5.58521e-07
-9.0706e-07
2.11214e-06
-2.0067e-06
3.93449e-06
-3.51182e-06
5.89927e-06
-5.40155e-06
7.91213e-06
-7.65277e-06
9.89979e-06
-1.02401e-05
1.1807e-05
-1.3136e-05
1.35941e-05
-1.63114e-05
1.52335e-05
-1.97362e-05
1.67079e-05
-2.33794e-05
1.80071e-05
-2.72099e-05
1.9127e-05
-3.11965e-05
2.00673e-05
-3.53083e-05
2.08305e-05
-3.95151e-05
2.14208e-05
-4.3787e-05
2.18433e-05
-4.80949e-05
2.21034e-05
-5.24101e-05
2.2206e-05
-5.67047e-05
2.2156e-05
-6.09511e-05
2.19572e-05
-6.51224e-05
2.1613e-05
-6.91918e-05
2.1126e-05
-7.31331e-05
2.04985e-05
-7.69202e-05
1.97322e-05
-8.05278e-05
1.88288e-05
-8.39306e-05
1.77901e-05
-8.7104e-05
1.66181e-05
-9.00241e-05
1.53155e-05
-9.26677e-05
1.38858e-05
-9.50127e-05
1.23336e-05
-9.70381e-05
1.06648e-05
-9.87246e-05
8.88667e-06
-0.000100054
7.00809e-06
-0.000101012
5.03966e-06
-0.000101583
2.99379e-06
-0.000101758
8.84667e-07
-0.000101528
-1.27174e-06
-0.000100888
-3.45775e-06
-9.98376e-05
-5.65405e-06
-9.83783e-05
-7.83993e-06
-9.65162e-05
-9.99345e-06
-9.42612e-05
-1.20917e-05
-9.16273e-05
-1.41111e-05
-8.86326e-05
-1.60278e-05
-8.52995e-05
-1.78181e-05
-8.16541e-05
-1.94586e-05
-7.77268e-05
-2.09269e-05
-7.35513e-05
-2.22022e-05
-6.9165e-05
-2.32652e-05
-6.46082e-05
-2.40992e-05
-5.99238e-05
-2.46899e-05
-5.51567e-05
-2.50265e-05
-5.03535e-05
-2.51015e-05
-4.55613e-05
-2.49115e-05
-4.08277e-05
-2.4457e-05
-3.61993e-05
-2.3743e-05
-3.17215e-05
-2.27792e-05
-2.74373e-05
-2.15798e-05
-2.33866e-05
-2.0164e-05
-1.96056e-05
-1.85557e-05
-1.61255e-05
-1.67835e-05
-1.29722e-05
-1.48811e-05
-1.01651e-05
-1.28869e-05
-7.71714e-06
-1.08442e-05
-5.63348e-06
-8.80134e-06
-3.91156e-06
-6.81196e-06
-2.54061e-06
-4.93522e-06
-1.50153e-06
-3.23633e-06
-7.66916e-07
-1.78719e-06
-3.01361e-07
-6.66836e-07
-6.2069e-08
3.77594e-08
2.25414e-07
-2.77267e-07
8.35788e-07
-1.07307e-06
2.90795e-06
-2.35516e-06
5.21657e-06
-4.09271e-06
7.63683e-06
-6.25503e-06
1.00744e-05
-8.81086e-06
1.24556e-05
-1.17282e-05
1.47244e-05
-1.49743e-05
1.68402e-05
-1.85158e-05
1.8775e-05
-2.23188e-05
2.0511e-05
-2.63497e-05
2.2038e-05
-3.05748e-05
2.33521e-05
-3.49606e-05
2.44532e-05
-3.94745e-05
2.53444e-05
-4.40842e-05
2.60305e-05
-4.87582e-05
2.65173e-05
-5.34655e-05
2.68107e-05
-5.8176e-05
2.69165e-05
-6.28598e-05
2.68398e-05
-6.74878e-05
2.65852e-05
-7.20312e-05
2.61564e-05
-7.64617e-05
2.55565e-05
-8.07512e-05
2.4788e-05
-8.48722e-05
2.38532e-05
-8.87973e-05
2.27539e-05
-9.24998e-05
2.14926e-05
-9.59535e-05
2.00718e-05
-9.91329e-05
1.84948e-05
-0.000102013
1.67661e-05
-0.000104571
1.48914e-05
-0.000106784
1.28777e-05
-0.000108631
1.07339e-05
-0.000110094
8.47071e-06
-0.000111155
6.10088e-06
-0.0001118
3.63918e-06
-0.000112018
1.1025e-06
-0.0001118
-1.49019e-06
-0.00011114
-4.11793e-06
-0.000110036
-6.75788e-06
-0.00010849
-9.38553e-06
-0.000106509
-1.19749e-05
-0.000104101
-1.44991e-05
-0.000101282
-1.69301e-05
-9.80704e-05
-1.92397e-05
-9.44888e-05
-2.13998e-05
-9.05646e-05
-2.33828e-05
-8.63294e-05
-2.51621e-05
-8.18189e-05
-2.67128e-05
-7.70721e-05
-2.8012e-05
-7.21318e-05
-2.90395e-05
-6.70433e-05
-2.97784e-05
-6.18544e-05
-3.02153e-05
-5.66148e-05
-3.03412e-05
-5.1375e-05
-3.01513e-05
-4.6186e-05
-2.9646e-05
-4.10982e-05
-2.88308e-05
-3.61607e-05
-2.77166e-05
-3.14205e-05
-2.632e-05
-2.69215e-05
-2.46631e-05
-2.27034e-05
-2.27738e-05
-1.88013e-05
-2.06856e-05
-1.52448e-05
-1.84377e-05
-1.20567e-05
-1.60749e-05
-9.25332e-06
-1.36476e-05
-6.84297e-06
-1.12117e-05
-4.8262e-06
-8.82873e-06
-3.1953e-06
-6.56612e-06
-1.93429e-06
-4.49734e-06
-1.01912e-06
-2.70236e-06
-4.18126e-07
-1.26783e-06
-9.29475e-08
-2.87419e-07
1.32467e-07
-3.21118e-07
1.15691e-06
-1.23471e-06
3.82154e-06
-2.69578e-06
6.67764e-06
-4.66225e-06
9.6033e-06
-7.09371e-06
1.25059e-05
-9.95073e-06
1.53126e-05
-1.31945e-05
1.79682e-05
-1.67868e-05
2.04324e-05
-2.06895e-05
2.26778e-05
-2.48654e-05
2.46868e-05
-2.92775e-05
2.64501e-05
-3.38895e-05
2.79641e-05
-3.86661e-05
2.92297e-05
-4.35725e-05
3.02507e-05
-4.85746e-05
3.10327e-05
-5.36395e-05
3.15822e-05
-5.87347e-05
3.19059e-05
-6.38284e-05
3.20102e-05
-6.88894e-05
3.19008e-05
-7.38871e-05
3.15829e-05
-7.87913e-05
3.10605e-05
-8.3572e-05
3.03372e-05
-8.81999e-05
2.94159e-05
-9.26458e-05
2.82991e-05
-9.68811e-05
2.69892e-05
-0.000100878
2.5489e-05
-0.000104607
2.38016e-05
-0.000108044
2.19312e-05
-0.000111161
1.9883e-05
-0.000113933
1.76638e-05
-0.000116338
1.52821e-05
-0.000118352
1.27482e-05
-0.000119956
1.00749e-05
-0.000121132
7.27687e-06
-0.000121864
4.37149e-06
-0.00012214
1.37841e-06
-0.00012195
-1.68034e-06
-0.000121288
-4.78041e-06
-0.00012015
-7.89531e-06
-0.000118539
-1.09966e-05
-0.00011646
-1.40543e-05
-0.000113922
-1.70369e-05
-0.00011094
-1.9912e-05
-0.000107533
-2.2647e-05
-0.000103723
-2.52091e-05
-9.95402e-05
-2.75659e-05
-9.50157e-05
-2.96865e-05
-9.01868e-05
-3.15417e-05
-8.50943e-05
-3.31045e-05
-7.97827e-05
-3.43511e-05
-7.42999e-05
-3.52612e-05
-6.86964e-05
-3.58189e-05
-6.30247e-05
-3.60129e-05
-5.73388e-05
-3.58372e-05
-5.16931e-05
-3.52916e-05
-4.6142e-05
-3.43819e-05
-4.07385e-05
-3.31201e-05
-3.55338e-05
-3.15248e-05
-3.05757e-05
-2.96212e-05
-2.59084e-05
-2.74411e-05
-2.15711e-05
-2.50229e-05
-1.75974e-05
-2.24115e-05
-1.40142e-05
-1.96581e-05
-1.08415e-05
-1.68204e-05
-8.09137e-06
-1.39618e-05
-5.76799e-06
-1.11521e-05
-3.86713e-06
-8.46698e-06
-2.37633e-06
-5.98815e-06
-1.2751e-06
-3.80359e-06
-5.35587e-07
-2.00734e-06
-1.23556e-07
-6.99451e-07
8.91021e-09
-3.63469e-07
1.52037e-06
-1.39148e-06
4.84955e-06
-3.02716e-06
8.31332e-06
-5.21769e-06
1.17938e-05
-7.9132e-06
1.52014e-05
-1.10662e-05
1.84656e-05
-1.4631e-05
2.1533e-05
-1.85637e-05
2.43651e-05
-2.28217e-05
2.69358e-05
-2.73637e-05
2.92288e-05
-3.21497e-05
3.12361e-05
-3.71409e-05
3.29553e-05
-4.22996e-05
3.43884e-05
-4.75892e-05
3.55403e-05
-5.29741e-05
3.64177e-05
-5.84198e-05
3.70279e-05
-6.38924e-05
3.73785e-05
-6.93589e-05
3.74767e-05
-7.47869e-05
3.73288e-05
-8.01444e-05
3.69404e-05
-8.53999e-05
3.63161e-05
-9.05225e-05
3.54598e-05
-9.54813e-05
3.43748e-05
-0.000100246
3.30639e-05
-0.000104787
3.153e-05
-0.000109074
2.97762e-05
-0.000113079
2.78064e-05
-0.000116773
2.56254e-05
-0.000120129
2.32393e-05
-0.000123121
2.06559e-05
-0.000125724
1.78852e-05
-0.000127915
1.4939e-05
-0.000129672
1.1832e-05
-0.000130977
8.58119e-06
-0.000131811
5.20627e-06
-0.000132163
1.72975e-06
-0.00013202
-1.82321e-06
-0.000131375
-5.42484e-06
-0.000130226
-9.04493e-06
-0.000128571
-1.2651e-05
-0.000126417
-1.62088e-05
-0.000123771
-1.96824e-05
-0.000120649
-2.30347e-05
-0.000117067
-2.62283e-05
-0.000113051
-2.92254e-05
-0.000108628
-3.19889e-05
-0.000103832
-3.44831e-05
-9.86994e-05
-3.66739e-05
-9.32738e-05
-3.85301e-05
-8.7601e-05
-4.00238e-05
-8.17311e-05
-4.11311e-05
-7.5717e-05
-4.18329e-05
-6.96144e-05
-4.21155e-05
-6.34805e-05
-4.19711e-05
-5.73736e-05
-4.13986e-05
-5.13518e-05
-4.04037e-05
-4.54725e-05
-3.89994e-05
-3.97912e-05
-3.72061e-05
-3.43605e-05
-3.50519e-05
-2.9229e-05
-3.25725e-05
-2.44408e-05
-2.98111e-05
-2.00337e-05
-2.68185e-05
-1.60395e-05
-2.36524e-05
-1.24823e-05
-2.03776e-05
-9.3785e-06
-1.70656e-05
-6.73629e-06
-1.37943e-05
-4.55536e-06
-1.06479e-05
-2.82701e-06
-7.7165e-06
-1.53449e-06
-5.09611e-06
-6.53641e-07
-2.88819e-06
-1.53921e-07
-1.19917e-06
-1.45011e-07
-4.04305e-07
1.92468e-06
-1.5431e-06
5.98834e-06
-3.34837e-06
1.01186e-05
-5.75708e-06
1.42026e-05
-8.7103e-06
1.81546e-05
-1.21526e-05
2.19079e-05
-1.60316e-05
2.5412e-05
-2.02976e-05
2.86312e-05
-2.49034e-05
3.15415e-05
-2.98038e-05
3.41292e-05
-3.49556e-05
3.63879e-05
-4.03174e-05
3.83171e-05
-4.58492e-05
3.99203e-05
-5.15129e-05
4.12039e-05
-5.72712e-05
4.21759e-05
-6.30881e-05
4.28448e-05
-6.89286e-05
4.32191e-05
-7.47586e-05
4.33067e-05
-8.05446e-05
4.31147e-05
-8.62535e-05
4.26493e-05
-9.18529e-05
4.19155e-05
-9.73107e-05
4.09176e-05
-0.000102595
3.96592e-05
-0.000107675
3.81435e-05
-0.000112518
3.63738e-05
-0.000117096
3.43536e-05
-0.000121377
3.20873e-05
-0.000125332
2.95805e-05
-0.000128933
2.68401e-05
-0.000132152
2.38751e-05
-0.000134963
2.06966e-05
-0.000137342
1.73181e-05
-0.000139267
1.37562e-05
-0.000140715
1.00299e-05
-0.00014167
6.16144e-06
-0.000142117
2.17615e-06
-0.000142042
-1.89772e-06
-0.000141438
-6.02893e-06
-0.0001403
-1.01835e-05
-0.000138626
-1.4325e-05
-0.00013642
-1.84146e-05
-0.000133691
-2.24119e-05
-0.00013045
-2.62749e-05
-0.000126717
-2.99612e-05
-0.000122515
-3.34279e-05
-0.000117871
-3.66328e-05
-0.000112819
-3.95349e-05
-0.000107398
-4.20951e-05
-0.000101651
-4.42774e-05
-9.56252e-05
-4.60493e-05
-8.93734e-05
-4.73828e-05
-8.2951e-05
-4.82553e-05
-7.64164e-05
-4.86501e-05
-6.98302e-05
-4.85573e-05
-6.32546e-05
-4.79743e-05
-5.67519e-05
-4.69064e-05
-5.03842e-05
-4.53671e-05
-4.42116e-05
-4.33787e-05
-3.82918e-05
-4.09717e-05
-3.26786e-05
-3.81857e-05
-2.7421e-05
-3.50687e-05
-2.25624e-05
-3.16771e-05
-1.81392e-05
-2.80755e-05
-1.41808e-05
-2.4336e-05
-1.0708e-05
-2.05383e-05
-7.73374e-06
-1.67686e-05
-5.26181e-06
-1.31198e-05
-3.28759e-06
-9.69071e-06
-1.79812e-06
-6.58558e-06
-7.72756e-07
-3.91356e-06
-1.8422e-07
-1.78771e-06
-3.29232e-07
-4.43617e-07
2.3683e-06
-1.68934e-06
7.23407e-06
-3.65869e-06
1.20879e-05
-6.27896e-06
1.68228e-05
-9.48248e-06
2.13581e-05
-1.32062e-05
2.56316e-05
-1.73911e-05
2.9597e-05
-2.1982e-05
3.32221e-05
-2.6927e-05
3.64865e-05
-3.21769e-05
3.93792e-05
-3.76855e-05
4.18965e-05
-4.34086e-05
4.40402e-05
-4.93044e-05
4.58161e-05
-5.53326e-05
4.72322e-05
-6.14548e-05
4.82981e-05
-6.76336e-05
4.90237e-05
-7.38331e-05
4.94185e-05
-8.00179e-05
4.94915e-05
-8.61538e-05
4.92506e-05
-9.22069e-05
4.87023e-05
-9.81438e-05
4.78524e-05
-0.000103932
4.67054e-05
-0.000109538
4.52653e-05
-0.00011493
4.35356e-05
-0.000120076
4.15199e-05
-0.000124945
3.92223e-05
-0.000129505
3.66476e-05
-0.000133726
3.38019e-05
-0.000137579
3.0693e-05
-0.000141035
2.7331e-05
-0.000144067
2.37282e-05
-0.000146648
1.98996e-05
-0.000148756
1.58635e-05
-0.000150367
1.16411e-05
-0.000151462
7.25702e-06
-0.000152025
2.73928e-06
-0.000152042
-1.88076e-06
-0.000151503
-6.56846e-06
-0.0001504
-1.12861e-05
-0.000148732
-1.5993e-05
-0.000146501
-2.06461e-05
-0.000143713
-2.52001e-05
-0.000140379
-2.96083e-05
-0.000136518
-3.38227e-05
-0.00013215
-3.77952e-05
-0.000127305
-4.14781e-05
-0.000122015
-4.48249e-05
-0.000116319
-4.7791e-05
-0.000110262
-5.0335e-05
-0.000103891
-5.24195e-05
-9.72624e-05
-5.40119e-05
-9.04325e-05
-5.50852e-05
-8.34632e-05
-5.56194e-05
-7.64187e-05
-5.56018e-05
-6.93651e-05
-5.50279e-05
-6.23693e-05
-5.39022e-05
-5.54981e-05
-5.22384e-05
-4.8817e-05
-5.00597e-05
-4.23892e-05
-4.73995e-05
-3.62742e-05
-4.43007e-05
-3.05267e-05
-4.08161e-05
-2.51959e-05
-3.7008e-05
-2.03239e-05
-3.29475e-05
-1.59454e-05
-2.87146e-05
-1.20867e-05
-2.4397e-05
-8.76545e-06
-2.00899e-05
-5.99027e-06
-1.5895e-05
-3.76071e-06
-1.19203e-05
-2.06765e-06
-8.27864e-06
-8.93806e-07
-5.0874e-06
-2.14731e-07
-2.46678e-06
-5.43964e-07
-4.81384e-07
2.84968e-06
-1.83002e-06
8.58271e-06
-3.95754e-06
1.42155e-05
-6.78205e-06
1.96473e-05
-1.02276e-05
2.48037e-05
-1.42238e-05
2.96278e-05
-1.87054e-05
3.40785e-05
-2.36115e-05
3.81282e-05
-2.88858e-05
4.17607e-05
-3.44753e-05
4.49687e-05
-4.03306e-05
4.77518e-05
-4.64051e-05
5.01147e-05
-5.26547e-05
5.20657e-05
-5.90377e-05
5.36152e-05
-6.55142e-05
5.47745e-05
-7.20456e-05
5.55551e-05
-7.8595e-05
5.5968e-05
-8.51265e-05
5.6023e-05
-9.16047e-05
5.57288e-05
-9.79953e-05
5.50929e-05
-0.000104264
5.41213e-05
-0.000110378
5.2819e-05
-0.000116303
5.11903e-05
-0.000122006
4.92391e-05
-0.000127456
4.69692e-05
-0.000132618
4.4385e-05
-0.000137462
4.14918e-05
-0.000141957
3.82963e-05
-0.000146071
3.4807e-05
-0.000149775
3.1035e-05
-0.00015304
2.69935e-05
-0.00015584
2.26993e-05
-0.000158148
1.81719e-05
-0.000159942
1.34348e-05
-0.0001612
8.51488e-06
-0.000161903
3.44268e-06
-0.000162037
-1.7474e-06
-0.000161588
-7.01737e-06
-0.000160548
-1.23258e-05
-0.000158913
-1.76279e-05
-0.000156683
-2.28761e-05
-0.000153863
-2.80204e-05
-0.000150462
-3.30088e-05
-0.000146497
-3.77881e-05
-0.000141988
-4.23045e-05
-0.000136962
-4.65043e-05
-0.000131451
-5.03351e-05
-0.000125496
-5.37465e-05
-0.00011914
-5.66913e-05
-0.000112433
-5.91263e-05
-0.000105431
-6.10137e-05
-9.81942e-05
-6.23219e-05
-9.0787e-05
-6.30265e-05
-8.32772e-05
-6.31116e-05
-7.5735e-05
-6.25701e-05
-6.82321e-05
-6.14051e-05
-6.08407e-05
-5.96298e-05
-5.3632e-05
-5.72684e-05
-4.66752e-05
-5.43563e-05
-4.00361e-05
-5.09399e-05
-3.37758e-05
-4.70764e-05
-2.79498e-05
-4.2834e-05
-2.26066e-05
-3.82907e-05
-1.77871e-05
-3.35341e-05
-1.35233e-05
-2.86607e-05
-9.83843e-06
-2.37748e-05
-6.74598e-06
-1.89875e-05
-4.25003e-06
-1.44162e-05
-2.34536e-06
-1.01833e-05
-1.01794e-06
-6.41482e-06
-2.45801e-07
-3.23893e-06
-7.89765e-07
-5.17571e-07
3.36725e-06
-1.96491e-06
1.00301e-05
-4.2443e-06
1.64948e-05
-7.26518e-06
2.26682e-05
-1.09438e-05
2.84823e-05
-1.52026e-05
3.38867e-05
-1.99703e-05
3.88462e-05
-2.5181e-05
4.33389e-05
-3.07736e-05
4.73533e-05
-3.66917e-05
5.08868e-05
-4.28827e-05
5.39428e-05
-4.92977e-05
5.65296e-05
-5.58905e-05
5.86585e-05
-6.26177e-05
6.03425e-05
-6.94383e-05
6.1595e-05
-7.63127e-05
6.24295e-05
-8.32031e-05
6.28584e-05
-9.00728e-05
6.28927e-05
-9.68861e-05
6.25421e-05
-0.000103608
6.18147e-05
-0.000110204
6.07171e-05
-0.000116639
5.92547e-05
-0.000122881
5.74321e-05
-0.000128896
5.52535e-05
-0.000134649
5.27229e-05
-0.000140109
4.9845e-05
-0.000145243
4.66255e-05
-0.000150018
4.30715e-05
-0.000154404
3.91923e-05
-0.000158368
3.49994e-05
-0.000161882
3.05075e-05
-0.000164917
2.57342e-05
-0.000167446
2.07008e-05
-0.000169444
1.54326e-05
-0.000170887
9.9584e-06
-0.000171756
4.31147e-06
-0.000172032
-1.47104e-06
-0.000171702
-7.34789e-06
-0.000170754
-1.3274e-05
-0.000169181
-1.92005e-05
-0.000166981
-2.50755e-05
-0.000164158
-3.0844e-05
-0.000160718
-3.64488e-05
-0.000156675
-4.1831e-05
-0.000152049
-4.69309e-05
-0.000146864
-5.16888e-05
-0.000141153
-5.60458e-05
-0.000134955
-5.99452e-05
-0.000128313
-6.33332e-05
-0.000121279
-6.61605e-05
-0.000113909
-6.83833e-05
-0.000106266
-6.99644e-05
-9.84183e-05
-7.08747e-05
-9.04359e-05
-7.1094e-05
-8.2394e-05
-7.0612e-05
-7.43694e-05
-6.94297e-05
-6.64398e-05
-6.75593e-05
-5.86828e-05
-6.50254e-05
-5.11741e-05
-6.1865e-05
-4.39865e-05
-5.81275e-05
-3.71882e-05
-5.38747e-05
-3.08418e-05
-4.91804e-05
-2.50028e-05
-4.41296e-05
-1.97189e-05
-3.8818e-05
-1.50287e-05
-3.3351e-05
-1.09611e-05
-2.78423e-05
-7.53527e-06
-2.24134e-05
-4.75995e-06
-1.71915e-05
-2.63398e-06
-1.23093e-05
-1.14652e-06
-7.90228e-06
-2.77821e-07
-4.10762e-06
-1.06759e-06
-5.52122e-07
3.91937e-06
-2.09376e-06
1.15717e-05
-4.51835e-06
1.89194e-05
-7.72717e-06
2.5877e-05
-1.1629e-05
3.23841e-05
-1.61397e-05
3.83974e-05
-2.11823e-05
4.38887e-05
-2.66856e-05
4.88422e-05
-3.25845e-05
5.32523e-05
-3.88191e-05
5.71213e-05
-4.53338e-05
6.04575e-05
-5.20773e-05
6.32731e-05
-5.90017e-05
6.55829e-05
-6.6062e-05
6.74028e-05
-7.32159e-05
6.8749e-05
-8.04231e-05
6.96368e-05
-8.76451e-05
7.00803e-05
-9.48445e-05
7.00921e-05
-0.000101985
6.96828e-05
-0.000109032