/*--------------------------------*- C++ -*----------------------------------*\
  =========                 |
  \\      /  F ield         | OpenFOAM: The Open Source CFD Toolbox
   \\    /   O peration     | Website:  https://openfoam.org
    \\  /    A nd           | Version:  dev
     \\/     M anipulation  |
\*---------------------------------------------------------------------------*/
FoamFile
{
    format      ascii;
    class       volVectorField;
    location    "20.7";
    object      U;
}
// * * * * * * * * * * * * * * * * * * * * * * * * * * * * * * * * * * * * * //

dimensions      [0 1 -1 0 0 0 0];

internalField   nonuniform List<vector> 
5184
(
(1.24775e-05 -1.25377e-05 0)
(4.53653e-05 -2.07672e-05 0)
(8.03476e-05 -1.7178e-05 0)
(9.58904e-05 -8.15454e-06 0)
(8.2005e-05 2.69285e-06 0)
(3.62888e-05 1.3627e-05 0)
(-4.07126e-05 2.38444e-05 0)
(-0.000146983 3.30361e-05 0)
(-0.000279734 4.10843e-05 0)
(-0.000435912 4.79946e-05 0)
(-0.000612398 5.38287e-05 0)
(-0.00080616 5.8671e-05 0)
(-0.00101434 6.2614e-05 0)
(-0.00123426 6.57487e-05 0)
(-0.00146348 6.81598e-05 0)
(-0.00169973 6.99227e-05 0)
(-0.00194095 7.11016e-05 0)
(-0.00218522 7.17488e-05 0)
(-0.00243076 7.19051e-05 0)
(-0.0026759 7.16001e-05 0)
(-0.00291901 7.08532e-05 0)
(-0.00315855 6.96749e-05 0)
(-0.00339298 6.80681e-05 0)
(-0.00362079 6.60299e-05 0)
(-0.00384045 6.3553e-05 0)
(-0.00405042 6.06277e-05 0)
(-0.00424915 5.72437e-05 0)
(-0.00443506 5.33912e-05 0)
(-0.00460658 4.90633e-05 0)
(-0.00476213 4.42568e-05 0)
(-0.00490015 3.89744e-05 0)
(-0.00501913 3.32253e-05 0)
(-0.0051176 2.70266e-05 0)
(-0.00519419 2.04043e-05 0)
(-0.00524764 1.3394e-05 0)
(-0.00527683 6.04139e-06 0)
(-0.00528082 -1.59757e-06 0)
(-0.00525889 -9.4565e-06 0)
(-0.00521053 -1.7459e-05 0)
(-0.00513552 -2.55192e-05 0)
(-0.00503392 -3.35429e-05 0)
(-0.0049061 -4.14288e-05 0)
(-0.00475276 -4.90697e-05 0)
(-0.00457497 -5.63549e-05 0)
(-0.00437411 -6.31717e-05 0)
(-0.00415195 -6.94085e-05 0)
(-0.00391058 -7.49566e-05 0)
(-0.00365241 -7.97132e-05 0)
(-0.00338017 -8.35837e-05 0)
(-0.00309687 -8.64844e-05 0)
(-0.00280573 -8.83449e-05 0)
(-0.00251018 -8.91099e-05 0)
(-0.00221379 -8.87412e-05 0)
(-0.00192019 -8.72191e-05 0)
(-0.00163308 -8.45432e-05 0)
(-0.00135608 -8.07326e-05 0)
(-0.00109272 -7.58266e-05 0)
(-0.000846378 -6.98838e-05 0)
(-0.000620194 -6.29818e-05 0)
(-0.000417018 -5.52165e-05 0)
(-0.000239345 -4.67015e-05 0)
(-8.92539e-05 -3.75698e-05 0)
(3.16681e-05 -2.7976e-05 0)
(0.000122406 -1.81023e-05 0)
(0.000182626 -8.17393e-06 0)
(0.000212828 1.5141e-06 0)
(0.000214597 1.05395e-05 0)
(0.000190975 1.8266e-05 0)
(0.000146985 2.36833e-05 0)
(9.07096e-05 2.51016e-05 0)
(3.66005e-05 1.98357e-05 0)
(6.22471e-06 6.24504e-06 0)
(2.09198e-05 -4.55925e-05 0)
(6.57114e-05 -6.54327e-05 0)
(9.46776e-05 -4.03581e-05 0)
(7.26635e-05 7.76374e-06 0)
(-1.91241e-05 6.57408e-05 0)
(-0.000187493 0.000125987 0)
(-0.000433019 0.00018423 0)
(-0.000752487 0.000238217 0)
(-0.00114036 0.000286812 0)
(-0.00158985 0.000329574 0)
(-0.00209363 0.000366462 0)
(-0.00264425 0.000397667 0)
(-0.00323442 0.000423498 0)
(-0.00385714 0.000444323 0)
(-0.00450581 0.000460519 0)
(-0.00517426 0.000472444 0)
(-0.00585667 0.000480419 0)
(-0.00654761 0.000484721 0)
(-0.00724196 0.000485572 0)
(-0.00793483 0.000483144 0)
(-0.00862153 0.000477559 0)
(-0.0092975 0.000468892 0)
(-0.00995829 0.000457182 0)
(-0.0105995 0.000442439 0)
(-0.0112166 0.000424651 0)
(-0.0118054 0.000403795 0)
(-0.0123613 0.000379846 0)
(-0.01288 0.000352788 0)
(-0.0133572 0.000322621 0)
(-0.0137883 0.000289372 0)
(-0.0141693 0.000253101 0)
(-0.014496 0.000213911 0)
(-0.0147646 0.000171952 0)
(-0.0149714 0.000127426 0)
(-0.0151131 8.0593e-05 0)
(-0.0151869 3.17705e-05 0)
(-0.0151905 -1.86626e-05 0)
(-0.0151221 -7.02689e-05 0)
(-0.0149805 -0.000122554 0)
(-0.0147653 -0.000174971 0)
(-0.014477 -0.000226927 0)
(-0.0141168 -0.000277791 0)
(-0.0136868 -0.000326902 0)
(-0.0131901 -0.000373581 0)
(-0.0126305 -0.000417147 0)
(-0.0120129 -0.000456923 0)
(-0.0113431 -0.000492258 0)
(-0.0106277 -0.000522539 0)
(-0.00987404 -0.000547203 0)
(-0.00909024 -0.000565759 0)
(-0.00828497 -0.000577792 0)
(-0.00746741 -0.000582984 0)
(-0.00664709 -0.000581118 0)
(-0.00583372 -0.000572092 0)
(-0.00503709 -0.000555921 0)
(-0.00426684 -0.000532743 0)
(-0.00353236 -0.000502822 0)
(-0.00284255 -0.000466545 0)
(-0.00220569 -0.000424427 0)
(-0.00162924 -0.000377107 0)
(-0.0011197 -0.000325353 0)
(-0.000682346 -0.000270067 0)
(-0.000321097 -0.000212309 0)
(-3.82381e-05 -0.00015333 0)
(0.000165857 -9.4639e-05 0)
(0.000293106 -3.81131e-05 0)
(0.000348249 1.37931e-05 0)
(0.00033954 5.77761e-05 0)
(0.000279454 8.92489e-05 0)
(0.000185819 0.000101723 0)
(8.62736e-05 8.64321e-05 0)
(1.96601e-05 3.64667e-05 0)
(1.7652e-05 -8.10821e-05 0)
(4.13333e-05 -9.46992e-05 0)
(1.95396e-05 -1.88418e-05 0)
(-8.41004e-05 0.000106115 0)
(-0.000290325 0.000254695 0)
(-0.000607858 0.000410474 0)
(-0.00103795 0.000563154 0)
(-0.00157678 0.000706602 0)
(-0.0022172 0.000837374 0)
(-0.00295002 0.000953767 0)
(-0.00376496 0.00105518 0)
(-0.00465134 0.00114172 0)
(-0.00559844 0.0012139 0)
(-0.0065958 0.00127243 0)
(-0.00763338 0.00131814 0)
(-0.00870163 0.00135185 0)
(-0.00979148 0.00137434 0)
(-0.0108943 0.00138627 0)
(-0.012002 0.0013882 0)
(-0.0131066 0.00138059 0)
(-0.0142006 0.00136376 0)
(-0.0152766 0.00133792 0)
(-0.0163275 0.00130322 0)
(-0.017346 0.00125971 0)
(-0.0183251 0.00120741 0)
(-0.0192578 0.0011463 0)
(-0.020137 0.00107637 0)
(-0.0209559 0.000997649 0)
(-0.0217074 0.000910187 0)
(-0.022385 0.000814128 0)
(-0.0229819 0.000709703 0)
(-0.0234919 0.000597257 0)
(-0.0239092 0.000477261 0)
(-0.0242282 0.000350331 0)
(-0.024444 0.000217231 0)
(-0.0245525 7.88818e-05 0)
(-0.0245502 -6.36366e-05 0)
(-0.0244346 -0.000209091 0)
(-0.0242043 -0.0003561 0)
(-0.0238588 -0.000503148 0)
(-0.0233991 -0.000648602 0)
(-0.0228272 -0.000790731 0)
(-0.0221467 -0.000927736 0)
(-0.0213623 -0.00105777 0)
(-0.0204803 -0.001179 0)
(-0.0195083 -0.00128959 0)
(-0.0184553 -0.0013878 0)
(-0.0173314 -0.00147198 0)
(-0.016148 -0.00154064 0)
(-0.0149175 -0.00159245 0)
(-0.0136532 -0.00162633 0)
(-0.0123692 -0.00164142 0)
(-0.01108 -0.00163718 0)
(-0.0098003 -0.00161334 0)
(-0.0085451 -0.00156996 0)
(-0.00732904 -0.00150746 0)
(-0.00616637 -0.00142658 0)
(-0.00507061 -0.00132841 0)
(-0.00405427 -0.0012144 0)
(-0.00312865 -0.00108635 0)
(-0.00230346 -0.000946437 0)
(-0.00158659 -0.000797219 0)
(-0.000983781 -0.000641702 0)
(-0.000498271 -0.000483413 0)
(-0.000130379 -0.000326546 0)
(0.00012296 -0.000176182 0)
(0.000268826 -3.86318e-05 0)
(0.000319045 7.80939e-05 0)
(0.00029073 0.000163707 0)
(0.00020708 0.000205055 0)
(0.000102316 0.00018604 0)
(2.49475e-05 9.03067e-05 0)
(8.83634e-06 -9.75262e-05 0)
(-7.02454e-06 -7.27824e-05 0)
(-0.000107593 8.50978e-05 0)
(-0.000322318 0.000318506 0)
(-0.000669402 0.000589997 0)
(-0.00115723 0.000873982 0)
(-0.00178653 0.00115345 0)
(-0.00255255 0.00141764 0)
(-0.00344672 0.00166008 0)
(-0.00445805 0.00187724 0)
(-0.00557404 0.00206757 0)
(-0.00678153 0.00223082 0)
(-0.00806709 0.00236754 0)
(-0.0094175 0.00247879 0)
(-0.0108199 0.00256581 0)
(-0.0122618 0.00262996 0)
(-0.0137313 0.0026725 0)
(-0.0152171 0.00269458 0)
(-0.0167082 0.0026972 0)
(-0.0181941 0.00268112 0)
(-0.0196645 0.00264696 0)
(-0.0211096 0.00259514 0)
(-0.0225196 0.00252593 0)
(-0.0238848 0.00243948 0)
(-0.0251956 0.00233589 0)
(-0.0264428 0.00221519 0)
(-0.0276168 0.00207743 0)
(-0.0287085 0.00192273 0)
(-0.0297087 0.0017513 0)
(-0.0306086 0.00156349 0)
(-0.0313995 0.00135981 0)
(-0.0320735 0.00114101 0)
(-0.0326227 0.000908052 0)
(-0.0330402 0.000662179 0)
(-0.0333198 0.0004049 0)
(-0.0334561 0.000138015 0)
(-0.0334451 -0.000136391 0)
(-0.0332837 -0.00041595 0)
(-0.0329702 -0.00069803 0)
(-0.0325043 -0.000979759 0)
(-0.0318875 -0.00125805 0)
(-0.0311227 -0.00152966 0)
(-0.0302148 -0.00179121 0)
(-0.0291701 -0.00203926 0)
(-0.0279969 -0.00227037 0)
(-0.0267052 -0.00248116 0)
(-0.0253068 -0.00266838 0)
(-0.0238149 -0.00282898 0)
(-0.0222443 -0.00296019 0)
(-0.0206111 -0.00305959 0)
(-0.0189325 -0.00312517 0)
(-0.0172267 -0.00315537 0)
(-0.0155124 -0.00314917 0)
(-0.0138088 -0.00310613 0)
(-0.0121349 -0.00302639 0)
(-0.0105099 -0.00291073 0)
(-0.00895191 -0.00276059 0)
(-0.00747846 -0.00257806 0)
(-0.00610566 -0.00236589 0)
(-0.00484799 -0.00212753 0)
(-0.00371794 -0.00186712 0)
(-0.00272561 -0.00158955 0)
(-0.00187834 -0.00130054 0)
(-0.00118026 -0.00100674 0)
(-0.000631835 -0.000715964 0)
(-0.000229387 -0.00043747 0)
(3.55471e-05 -0.000182394 0)
(0.000176839 3.56685e-05 0)
(0.000214191 0.000200013 0)
(0.000173737 0.000290261 0)
(9.28751e-05 0.000282137 0)
(2.39951e-05 0.000147113 0)
(-2.13009e-06 -8.41819e-05 0)
(-6.72811e-05 2.12491e-05 0)
(-0.000264016 0.000295694 0)
(-0.000609491 0.000668002 0)
(-0.00111618 0.00109043 0)
(-0.00179026 0.00152911 0)
(-0.00263074 0.00196063 0)
(-0.00363125 0.00236955 0)
(-0.00478166 0.00274614 0)
(-0.00606926 0.0030848 0)
(-0.00747972 0.00338274 0)
(-0.0089978 0.00363916 0)
(-0.0106079 0.00385451 0)
(-0.0122945 0.00403003 0)
(-0.0140424 0.00416739 0)
(-0.0158366 0.00426839 0)
(-0.0176629 0.00433483 0)
(-0.0195075 0.00436836 0)
(-0.0213569 0.00437041 0)
(-0.0231983 0.00434213 0)
(-0.025019 0.00428444 0)
(-0.0268068 0.004198 0)
(-0.0285495 0.00408327 0)
(-0.0302354 0.00394054 0)
(-0.0318525 0.00377001 0)
(-0.0333893 0.00357184 0)
(-0.0348344 0.0033462 0)
(-0.0361763 0.00309339 0)
(-0.0374041 0.00281383 0)
(-0.0385069 0.00250819 0)
(-0.0394745 0.00217742 0)
(-0.0402971 0.00182279 0)
(-0.0409656 0.00144595 0)
(-0.0414716 0.00104893 0)
(-0.041808 0.000634231 0)
(-0.0419685 0.000204755 0)
(-0.0419483 -0.000236139 0)
(-0.041744 -0.000684669 0)
(-0.0413538 -0.00113665 0)
(-0.0407778 -0.00158754 0)
(-0.0400177 -0.00203246 0)
(-0.0390775 -0.00246632 0)
(-0.0379629 -0.00288382 0)
(-0.0366819 -0.00327959 0)
(-0.0352446 -0.00364825 0)
(-0.033663 -0.00398453 0)
(-0.0319511 -0.00428338 0)
(-0.0301251 -0.00454006 0)
(-0.0282025 -0.00475028 0)
(-0.0262025 -0.00491028 0)
(-0.0241459 -0.00501692 0)
(-0.0220541 -0.00506782 0)
(-0.0199497 -0.00506141 0)
(-0.0178553 -0.00499701 0)
(-0.0157938 -0.00487488 0)
(-0.0137879 -0.00469627 0)
(-0.0118594 -0.00446344 0)
(-0.0100292 -0.00417971 0)
(-0.00831637 -0.00384946 0)
(-0.00673834 -0.00347814 0)
(-0.00531003 -0.00307231 0)
(-0.00404356 -0.0026397 0)
(-0.00294779 -0.00218929 0)
(-0.00202788 -0.00173148 0)
(-0.00128476 -0.00127832 0)
(-0.000714703 -0.000843817 0)
(-0.000308721 -0.000444461 0)
(-5.2073e-05 -9.97871e-05 0)
(7.60892e-05 0.000166886 0)
(0.00010324 0.000327847 0)
(6.7352e-05 0.00035038 0)
(1.9633e-05 0.00019388 0)
(-1.36943e-05 -3.73067e-05 0)
(-0.000132775 0.000197643 0)
(-0.000435584 0.000626964 0)
(-0.00092407 0.00117 0)
(-0.00160284 0.00177087 0)
(-0.00247445 0.00238876 0)
(-0.00353506 0.00299466 0)
(-0.00477595 0.0035688 0)
(-0.00618506 0.00409835 0)
(-0.00774787 0.00457556 0)
(-0.00944826 0.00499636 0)
(-0.0112692 0.00535926 0)
(-0.0131932 0.0056645 0)
(-0.0152027 0.00591346 0)
(-0.0172805 0.0061081 0)
(-0.0194098 0.0062507 0)
(-0.0215739 0.00634353 0)
(-0.0237571 0.00638872 0)
(-0.0259438 0.00638814 0)
(-0.028119 0.00634336 0)
(-0.0302679 0.00625562 0)
(-0.0323762 0.00612583 0)
(-0.0344297 0.00595467 0)
(-0.0364144 0.00574262 0)
(-0.0383166 0.00549003 0)
(-0.0401227 0.00519722 0)
(-0.0418193 0.00486458 0)
(-0.0433932 0.00449262 0)
(-0.0448317 0.00408211 0)
(-0.0461224 0.00363414 0)
(-0.0472533 0.00315021 0)
(-0.0482134 0.00263225 0)
(-0.0489922 0.00208276 0)
(-0.0495803 0.00150476 0)
(-0.0499695 0.000901909 0)
(-0.050153 0.000278447 0)
(-0.0501253 -0.000360768 0)
(-0.0498828 -0.00101029 0)
(-0.0494237 -0.00166412 0)
(-0.0487482 -0.00231576 0)
(-0.0478584 -0.0029583 0)
(-0.046759 -0.00358447 0)
(-0.0454568 -0.00418678 0)
(-0.043961 -0.00475762 0)
(-0.0422831 -0.00528941 0)
(-0.0404371 -0.00577471 0)
(-0.0384389 -0.0062064 0)
(-0.0363069 -0.00657781 0)
(-0.0340611 -0.0068829 0)
(-0.0317237 -0.00711635 0)
(-0.029318 -0.00727378 0)
(-0.0268686 -0.00735184 0)
(-0.0244011 -0.0073483 0)
(-0.0219414 -0.00726222 0)
(-0.0195157 -0.00709397 0)
(-0.0171498 -0.00684534 0)
(-0.0148687 -0.00651955 0)
(-0.0126962 -0.00612133 0)
(-0.0106543 -0.0056569 0)
(-0.00876301 -0.00513402 0)
(-0.0070395 -0.00456202 0)
(-0.0054979 -0.00395187 0)
(-0.00414867 -0.00331626 0)
(-0.00299817 -0.00266976 0)
(-0.00204821 -0.00202909 0)
(-0.0012955 -0.00141341 0)
(-0.000731301 -0.000844836 0)
(-0.000340907 -0.000349033 0)
(-0.000103392 4.40549e-05 0)
(8.84498e-06 0.000299513 0)
(3.23569e-05 0.000376556 0)
(1.35906e-05 0.000224176 0)
(-2.51759e-05 4.42814e-05 0)
(-0.000199889 0.00046139 0)
(-0.000613657 0.00108681 0)
(-0.00125199 0.00183388 0)
(-0.00211041 0.00264081 0)
(-0.00318677 0.00346143 0)
(-0.00447349 0.00426215 0)
(-0.00595886 0.00501954 0)
(-0.0076284 0.00571803 0)
(-0.00946557 0.00634793 0)
(-0.0114524 0.00690395 0)
(-0.0135701 0.00738393 0)
(-0.0157995 0.00778787 0)
(-0.0181213 0.00811721 0)
(-0.0205165 0.00837421 0)
(-0.0229664 0.00856155 0)
(-0.0254528 0.00868194 0)
(-0.027958 0.00873799 0)
(-0.0304644 0.00873201 0)
(-0.0329553 0.00866594 0)
(-0.035414 0.00854137 0)
(-0.0378243 0.00835948 0)
(-0.0401702 0.00812121 0)
(-0.0424358 0.00782722 0)
(-0.0446057 0.00747808 0)
(-0.0466645 0.00707431 0)
(-0.0485971 0.00661657 0)
(-0.0503888 0.0061057 0)
(-0.0520251 0.00554288 0)
(-0.0534923 0.00492972 0)
(-0.054777 0.00426838 0)
(-0.0558669 0.0035616 0)
(-0.0567505 0.00281286 0)
(-0.0574173 0.00202634 0)
(-0.0578585 0.00120702 0)
(-0.0580663 0.000360678 0)
(-0.0580351 -0.000506133 0)
(-0.0577608 -0.00138609 0)
(-0.0572415 -0.00227115 0)
(-0.0564776 -0.00315265 0)
(-0.0554716 -0.00402137 0)
(-0.0542287 -0.00486764 0)
(-0.0527565 -0.00568154 0)
(-0.0510652 -0.00645297 0)
(-0.0491677 -0.0071719 0)
(-0.0470792 -0.00782848 0)
(-0.0448177 -0.00841329 0)
(-0.0424032 -0.00891751 0)
(-0.039858 -0.00933313 0)
(-0.0372066 -0.00965315 0)
(-0.0344747 -0.00987174 0)
(-0.0316896 -0.00998444 0)
(-0.0288797 -0.00998831 0)
(-0.0260737 -0.00988206 0)
(-0.0233007 -0.00966619 0)
(-0.0205894 -0.00934303 0)
(-0.0179677 -0.00891685 0)
(-0.015462 -0.0083939 0)
(-0.0130973 -0.00778244 0)
(-0.0108959 -0.00709277 0)
(-0.0088772 -0.00633724 0)
(-0.00705747 -0.00553037 0)
(-0.0054489 -0.00468887 0)
(-0.00405934 -0.00383182 0)
(-0.0028918 -0.00298087 0)
(-0.00194399 -0.00216061 0)
(-0.00120801 -0.00139893 0)
(-0.000669919 -0.000727662 0)
(-0.00030955 -0.000183253 0)
(-0.0001001 0.000192521 0)
(-7.82992e-06 0.000351576 0)
(6.83412e-06 0.000234577 0)
(-3.63177e-05 0.000160573 0)
(-0.000266743 0.000814348 0)
(-0.000793121 0.001679 0)
(-0.00158433 0.00266463 0)
(-0.00262621 0.00370564 0)
(-0.00391121 0.00475204 0)
(-0.00542737 0.00576685 0)
(-0.0071594 0.00672383 0)
(-0.00909001 0.0076052 0)
(-0.0112003 0.0083997 0)
(-0.0134704 0.00910102 0)
(-0.0158798 0.00970644 0)
(-0.0184074 0.0102158 0)
(-0.0210326 0.0106306 0)
(-0.0237348 0.0109534 0)
(-0.0264936 0.0111872 0)
(-0.0292892 0.0113351 0)
(-0.0321023 0.0114004 0)
(-0.0349139 0.0113856 0)
(-0.0377055 0.011293 0)
(-0.0404587 0.0111247 0)
(-0.0431558 0.0108821 0)
(-0.045779 0.0105663 0)
(-0.0483111 0.0101783 0)
(-0.0507348 0.00971881 0)
(-0.0530332 0.00918872 0)
(-0.0551899 0.00858894 0)
(-0.0571884 0.00792071 0)
(-0.0590132 0.00718571 0)
(-0.060649 0.00638616 0)
(-0.0620814 0.00552498 0)
(-0.0632968 0.00460585 0)
(-0.0642828 0.00363333 0)
(-0.065028 0.00261291 0)
(-0.0655228 0.00155105 0)
(-0.0657588 0.000455211 0)
(-0.0657299 -0.000666185 0)
(-0.0654318 -0.00180376 0)
(-0.0648623 -0.00294725 0)
(-0.0640218 -0.0040856 0)
(-0.0629133 -0.00520711 0)
(-0.0615421 -0.00629951 0)
(-0.0599165 -0.0073502 0)
(-0.0580476 -0.00834641 0)
(-0.0559491 -0.00927541 0)
(-0.0536376 -0.0101248 0)
(-0.0511323 -0.0108825 0)
(-0.048455 -0.0115375 0)
(-0.0456299 -0.0120796 0)
(-0.0426831 -0.0124999 0)
(-0.0396429 -0.0127909 0)
(-0.0365389 -0.012947 0)
(-0.0334017 -0.0129643 0)
(-0.0302629 -0.0128413 0)
(-0.027154 -0.0125784 0)
(-0.0241066 -0.0121785 0)
(-0.0211513 -0.011647 0)
(-0.0183172 -0.0109918 0)
(-0.0156318 -0.0102232 0)
(-0.0131199 -0.0093542 0)
(-0.0108035 -0.00840045 0)
(-0.00870084 -0.00738019 0)
(-0.00682613 -0.00631438 0)
(-0.00518901 -0.00522683 0)
(-0.00379409 -0.00414437 0)
(-0.00264053 -0.00309711 0)
(-0.00172178 -0.00211881 0)
(-0.00102528 -0.0012474 0)
(-0.000532252 -0.000525645 0)
(-0.000217363 -1.71745e-06 0)
(-5.05438e-05 0.000269883 0)
(-1.05681e-07 0.000223379 0)
(-4.70249e-05 0.000310928 0)
(-0.000332358 0.00125642 0)
(-0.000970986 0.00240449 0)
(-0.00191548 0.00366412 0)
(-0.00314185 0.00496765 0)
(-0.00463674 0.00626282 0)
(-0.00638336 0.00751041 0)
(-0.00836242 0.00868226 0)
(-0.0105535 0.00975907 0)
(-0.0129351 0.0107285 0)
(-0.0154851 0.0115835 0)
(-0.0181813 0.012321 0)
(-0.021001 0.0129409 0)
(-0.0239219 0.0134447 0)
(-0.0269221 0.0138353 0)
(-0.0299797 0.0141161 0)
(-0.0330736 0.0142908 0)
(-0.036183 0.0143628 0)
(-0.0392876 0.0143352 0)
(-0.0423672 0.0142108 0)
(-0.0454025 0.0139918 0)
(-0.0483739 0.0136799 0)
(-0.0512624 0.0132766 0)
(-0.0540493 0.0127831 0)
(-0.0567159 0.0122003 0)
(-0.0592441 0.0115295 0)
(-0.0616159 0.0107719 0)
(-0.0638138 0.00992918 0)
(-0.0658208 0.0090036 0)
(-0.0676206 0.00799807 0)
(-0.0691976 0.00691634 0)
(-0.0705372 0.00576313 0)
(-0.071626 0.00454421 0)
(-0.0724519 0.00326646 0)
(-0.0730044 0.00193795 0)
(-0.0732747 0.000567954 0)
(-0.0732559 -0.000833097 0)
(-0.0729434 -0.00225362 0)
(-0.072335 -0.00368098 0)
(-0.0714307 -0.00510159 0)
(-0.0702335 -0.00650105 0)
(-0.0687492 -0.00786434 0)
(-0.0669863 -0.00917601 0)
(-0.0649564 -0.0104204 0)
(-0.062674 -0.0115819 0)
(-0.0601567 -0.0126453 0)
(-0.0574248 -0.0135959 0)
(-0.0545014 -0.01442 0)
(-0.0514122 -0.0151051 0)
(-0.0481852 -0.0156402 0)
(-0.0448504 -0.0160162 0)
(-0.0414397 -0.0162258 0)
(-0.037986 -0.0162645 0)
(-0.0345232 -0.0161299 0)
(-0.0310854 -0.0158226 0)
(-0.0277068 -0.015346 0)
(-0.0244207 -0.0147064 0)
(-0.0212589 -0.0139135 0)
(-0.0182515 -0.0129798 0)
(-0.015426 -0.0119211 0)
(-0.0128069 -0.0107564 0)
(-0.0104147 -0.00950778 0)
(-0.00826603 -0.00820069 0)
(-0.00637257 -0.00686382 0)
(-0.00474089 -0.00552929 0)
(-0.00337204 -0.00423283 0)
(-0.00226127 -0.0030141 0)
(-0.00139788 -0.00191707 0)
(-0.000764935 -0.000990572 0)
(-0.000339045 -0.000288717 0)
(-9.42281e-05 0.000128377 0)
(-6.95901e-06 0.000189935 0)
(-5.72861e-05 0.000494443 0)
(-0.000396254 0.00178637 0)
(-0.00114552 0.00326239 0)
(-0.00224194 0.00483195 0)
(-0.00365177 0.00642683 0)
(-0.00535573 0.00799379 0)
(-0.00733188 0.00949256 0)
(-0.0095567 0.010894 0)
(-0.0120063 0.0121779 0)
(-0.0146564 0.0133315 0)
(-0.0174827 0.0143473 0)
(-0.0204609 0.0152224 0)
(-0.0235668 0.0159565 0)
(-0.0267765 0.0165517 0)
(-0.0300668 0.0170112 0)
(-0.0334145 0.0173388 0)
(-0.0367973 0.0175385 0)
(-0.0401931 0.0176144 0)
(-0.0435803 0.0175698 0)
(-0.0469378 0.017408 0)
(-0.0502447 0.0171314 0)
(-0.0534804 0.0167421 0)
(-0.0566246 0.0162418 0)
(-0.0596573 0.0156319 0)
(-0.0625587 0.0149137 0)
(-0.0653094 0.0140888 0)
(-0.0678903 0.0131587 0)
(-0.0702828 0.0121257 0)
(-0.0724686 0.0109926 0)
(-0.0744304 0.00976304 0)
(-0.0761517 0.00844172 0)
(-0.0776169 0.00703443 0)
(-0.0788117 0.00554822 0)
(-0.0797231 0.00399147 0)
(-0.0803398 0.00237395 0)
(-0.0806524 0.00070684 0)
(-0.0806534 -0.00099731 0)
(-0.0803377 -0.0027246 0)
(-0.0797027 -0.0044599 0)
(-0.0787482 -0.00618694 0)
(-0.077477 -0.00788851 0)
(-0.0758948 -0.00954667 0)
(-0.0740103 -0.011143 0)
(-0.0718355 -0.0126586 0)
(-0.0693853 -0.0140751 0)
(-0.0666779 -0.015374 0)
(-0.0637345 -0.0165379 0)
(-0.0605794 -0.0175502 0)
(-0.0572394 -0.0183959 0)
(-0.0537442 -0.0190617 0)
(-0.0501254 -0.0195364 0)
(-0.0464168 -0.0198115 0)
(-0.0426536 -0.019881 0)
(-0.0388719 -0.019742 0)
(-0.0351084 -0.0193949 0)
(-0.0313998 -0.0188434 0)
(-0.0277821 -0.0180951 0)
(-0.02429 -0.0171611 0)
(-0.0209563 -0.0160561 0)
(-0.0178113 -0.0147989 0)
(-0.0148823 -0.0134118 0)
(-0.0121924 -0.011921 0)
(-0.00976083 -0.0103565 0)
(-0.00760167 -0.00875192 0)
(-0.00572386 -0.00714482 0)
(-0.00413071 -0.00557663 0)
(-0.00281966 -0.00409292 0)
(-0.00178224 -0.00274361 0)
(-0.00100374 -0.00158341 0)
(-0.000462935 -0.000672013 0)
(-0.000138067 -7.45549e-05 0)
(-1.36105e-05 0.000134163 0)
(-6.71193e-05 0.000710083 0)
(-0.000458206 0.00240227 0)
(-0.00131572 0.0042506 0)
(-0.00256147 0.00616614 0)
(-0.00415227 0.00808136 0)
(-0.00606284 0.00994321 0)
(-0.00826604 0.0117114 0)
(-0.0107339 0.0133567 0)
(-0.0134389 0.0148588 0)
(-0.0163539 0.016205 0)
(-0.0194521 0.0173881 0)
(-0.0227073 0.0184051 0)
(-0.0260935 0.0192566 0)
(-0.0295856 0.0199447 0)
(-0.0331587 0.0204733 0)
(-0.0367888 0.0208467 0)
(-0.0404522 0.0210694 0)
(-0.0441258 0.0211459 0)
(-0.0477871 0.02108 0)
(-0.0514137 0.0208752 0)
(-0.0549838 0.0205344 0)
(-0.0584757 0.0200599 0)
(-0.0618681 0.0194536 0)
(-0.0651399 0.0187173 0)
(-0.0682702 0.0178526 0)
(-0.0712386 0.0168612 0)
(-0.074025 0.0157453 0)
(-0.0766096 0.0145075 0)
(-0.0789734 0.0131514 0)
(-0.0810979 0.0116813 0)
(-0.0829657 0.0101029 0)
(-0.0845602 0.0084232 0)
(-0.0858663 0.00665047 0)
(-0.0868701 0.0047947 0)
(-0.0875596 0.00286739 0)
(-0.0879246 0.000881718 0)
(-0.0879569 -0.00114758 0)
(-0.0876507 -0.0032042 0)
(-0.0870029 -0.00527041 0)
(-0.0860128 -0.00732716 0)
(-0.0846829 -0.00935433 0)
(-0.0830185 -0.0113309 0)
(-0.0810284 -0.0132352 0)
(-0.0787244 -0.0150454 0)
(-0.0761218 -0.0167395 0)
(-0.0732391 -0.0182961 0)
(-0.0700982 -0.0196945 0)
(-0.066724 -0.0209152 0)
(-0.0631446 -0.0219404 0)
(-0.0593908 -0.0227543 0)
(-0.055496 -0.0233436 0)
(-0.0514957 -0.0236978 0)
(-0.0474271 -0.0238095 0)
(-0.0433286 -0.0236752 0)
(-0.0392395 -0.0232948 0)
(-0.035199 -0.0226724 0)
(-0.031246 -0.0218164 0)
(-0.0274181 -0.0207394 0)
(-0.0237512 -0.0194585 0)
(-0.0202785 -0.0179952 0)
(-0.0170303 -0.0163753 0)
(-0.0140329 -0.0146292 0)
(-0.0113081 -0.0127914 0)
(-0.00887309 -0.0109007 0)
(-0.00673937 -0.00900016 0)
(-0.00491288 -0.00713694 0)
(-0.00339364 -0.00536255 0)
(-0.00217571 -0.00373286 0)
(-0.0012468 -0.00230834 0)
(-0.000588025 -0.00115404 0)
(-0.000181736 -0.000339746 0)
(-2.00338e-05 5.6235e-05 0)
(-7.65487e-05 0.000956769 0)
(-0.000518112 0.00310185 0)
(-0.001481 0.00536626 0)
(-0.00287267 0.00766362 0)
(-0.00464081 0.00992809 0)
(-0.00675428 0.0121079 0)
(-0.00918073 0.0141636 0)
(-0.0118877 0.0160668 0)
(-0.0148439 0.0177979 0)
(-0.0180192 0.0193447 0)
(-0.0213844 0.0207008 0)
(-0.0249111 0.0218638 0)
(-0.0285717 0.0228348 0)
(-0.0323396 0.0236169 0)
(-0.0361887 0.0242144 0)
(-0.0400939 0.0246323 0)
(-0.0440306 0.0248756 0)
(-0.0479746 0.0249493 0)
(-0.0519024 0.0248578 0)
(-0.0557908 0.0246047 0)
(-0.0596172 0.0241934 0)
(-0.0633589 0.0236264 0)
(-0.0669937 0.022906 0)
(-0.0704996 0.0220341 0)
(-0.0738549 0.0210126 0)
(-0.0770383 0.0198437 0)
(-0.0800285 0.0185298 0)
(-0.0828051 0.0170742 0)
(-0.0853481 0.015481 0)
(-0.087638 0.0137554 0)
(-0.0896566 0.0119041 0)
(-0.0913864 0.00993517 0)
(-0.0928113 0.00785828 0)
(-0.0939166 0.00568497 0)
(-0.0946895 0.00342857 0)
(-0.0951187 0.00110424 0)
(-0.0951953 -0.00127103 0)
(-0.0949129 -0.00367848 0)
(-0.0942673 -0.00609771 0)
(-0.0932574 -0.00850683 0)
(-0.0918849 -0.0108827 0)
(-0.0901548 -0.013201 0)
(-0.0880753 -0.0154369 0)
(-0.0856581 -0.0175652 0)
(-0.0829184 -0.0195604 0)
(-0.0798747 -0.0213977 0)
(-0.0765493 -0.023053 0)
(-0.0729678 -0.0245038 0)
(-0.069159 -0.025729 0)
(-0.0651549 -0.0267103 0)
(-0.0609903 -0.0274316 0)
(-0.0567023 -0.0278806 0)
(-0.0523302 -0.0280482 0)
(-0.0479147 -0.0279297 0)
(-0.0434975 -0.0275246 0)
(-0.0391208 -0.026837 0)
(-0.0348262 -0.0258761 0)
(-0.0306547 -0.0246559 0)
(-0.0266453 -0.0231957 0)
(-0.0228345 -0.0215197 0)
(-0.019256 -0.0196575 0)
(-0.0159394 -0.0176432 0)
(-0.0129099 -0.0155163 0)
(-0.0101877 -0.0133206 0)
(-0.00778751 -0.0111049 0)
(-0.00571821 -0.00892226 0)
(-0.00398267 -0.0068301 0)
(-0.00257776 -0.00489031 0)
(-0.00149377 -0.0031691 0)
(-0.000714158 -0.00173681 0)
(-0.000225236 -0.000667759 0)
(-2.62556e-05 -4.36339e-05 0)
(-8.5596e-05 0.00123341 0)
(-0.000575921 0.00388254 0)
(-0.00164098 0.00660593 0)
(-0.00317455 0.00932046 0)
(-0.00511558 0.0119629 0)
(-0.00742725 0.0144835 0)
(-0.0100721 0.0168448 0)
(-0.013013 0.0190198 0)
(-0.0162152 0.0209903 0)
(-0.0196454 0.0227455 0)
(-0.0232718 0.0242799 0)
(-0.027064 0.0255925 0)
(-0.0309928 0.0266851 0)
(-0.03503 0.0275618 0)
(-0.0391485 0.0282277 0)
(-0.0433219 0.0286885 0)
(-0.0475249 0.02895 0)
(-0.0517324 0.0290177 0)
(-0.0559201 0.0288963 0)
(-0.0600642 0.02859 0)
(-0.064141 0.0281024 0)
(-0.0681273 0.0274364 0)
(-0.0720002 0.0265944 0)
(-0.0757368 0.0255786 0)
(-0.0793148 0.0243913 0)
(-0.0827119 0.0230349 0)
(-0.0859062 0.0215123 0)
(-0.0888764 0.0198272 0)
(-0.0916016 0.0179844 0)
(-0.0940616 0.01599 0)
(-0.0962372 0.0138514 0)
(-0.09811 0.011578 0)
(-0.099663 0.00918086 0)
(-0.100881 0.00667301 0)
(-0.101749 0.00406957 0)
(-0.102256 0.00138775 0)
(-0.102392 -0.00135322 0)
(-0.102149 -0.00413209 0)
(-0.101522 -0.00692575 0)
(-0.100509 -0.00970941 0)
(-0.0991113 -0.0124568 0)
(-0.0973327 -0.0151403 0)
(-0.0951809 -0.0177318 0)
(-0.0926668 -0.0202023 0)
(-0.0898054 -0.0225229 0)
(-0.0866152 -0.0246651 0)
(-0.0831182 -0.0266014 0)
(-0.0793406 -0.0283055 0)
(-0.0753118 -0.0297533 0)
(-0.0710647 -0.030923 0)
(-0.0666352 -0.0317962 0)
(-0.0620623 -0.0323579 0)
(-0.0573871 -0.0325972 0)
(-0.0526526 -0.032508 0)
(-0.0479031 -0.0320888 0)
(-0.0431838 -0.0313438 0)
(-0.0385394 -0.0302825 0)
(-0.0340143 -0.0289204 0)
(-0.029651 -0.0272787 0)
(-0.0254898 -0.0253844 0)
(-0.021568 -0.0232704 0)
(-0.017919 -0.0209753 0)
(-0.0145716 -0.0185431 0)
(-0.0115497 -0.0160231 0)
(-0.00887138 -0.0134696 0)
(-0.00654891 -0.0109417 0)
(-0.00458831 -0.00850305 0)
(-0.00298946 -0.00622162 0)
(-0.00174536 -0.00416949 0)
(-0.000841785 -0.00242239 0)
(-0.000268788 -0.00105924 0)
(-3.23344e-05 -0.000165309 0)
(-9.42765e-05 0.00153892 0)
(-0.000631599 0.00474164 0)
(-0.00179537 0.0079658 0)
(-0.00346636 0.0111321 0)
(-0.00557519 0.0141807 0)
(-0.00807952 0.0170647 0)
(-0.0109369 0.0197494 0)
(-0.0141059 0.0222099 0)
(-0.0175479 0.0244303 0)
(-0.0212266 0.0264013 0)
(-0.0251078 0.0281194 0)
(-0.029159 0.0295848 0)
(-0.0333492 0.0308008 0)
(-0.0376489 0.0317726 0)
(-0.0420299 0.0325063 0)
(-0.0464649 0.0330087 0)
(-0.0509275 0.0332861 0)
(-0.0553921 0.0333446 0)
(-0.0598337 0.0331895 0)
(-0.0642278 0.0328256 0)
(-0.0685502 0.0322566 0)
(-0.072777 0.0314856 0)
(-0.0768846 0.0305156 0)
(-0.0808498 0.0293488 0)
(-0.0846493 0.0279877 0)
(-0.0882603 0.0264351 0)
(-0.0916602 0.0246944 0)
(-0.094827 0.0227696 0)
(-0.097739 0.0206663 0)
(-0.100375 0.0183911 0)
(-0.102715 0.0159526 0)
(-0.104741 0.0133612 0)
(-0.106433 0.0106291 0)
(-0.107775 0.00777116 0)
(-0.108753 0.0048041 0)
(-0.109353 0.00174714 0)
(-0.109564 -0.00137822 0)
(-0.109377 -0.00454827 0)
(-0.108787 -0.00773718 0)
(-0.107789 -0.0109172 0)
(-0.106385 -0.0140589 0)
(-0.104576 -0.0171313 0)
(-0.102369 -0.0201027 0)
(-0.0997758 -0.0229405 0)
(-0.096809 -0.025612 0)
(-0.0934869 -0.0280848 0)
(-0.0898317 -0.0303275 0)
(-0.0858693 -0.0323102 0)
(-0.0816297 -0.034005 0)
(-0.0771465 -0.0353869 0)
(-0.0724567 -0.036434 0)
(-0.0676008 -0.0371288 0)
(-0.0626218 -0.037458 0)
(-0.0575652 -0.0374137 0)
(-0.0524779 -0.0369935 0)
(-0.0474081 -0.0362008 0)
(-0.0424041 -0.0350457 0)
(-0.0375137 -0.0335444 0)
(-0.0327834 -0.0317202 0)
(-0.0282577 -0.0296027 0)
(-0.0239779 -0.0272283 0)
(-0.0199814 -0.0246396 0)
(-0.0163015 -0.0218856 0)
(-0.0129657 -0.0190208 0)
(-0.00999636 -0.0161056 0)
(-0.00740919 -0.0132052 0)
(-0.00521374 -0.0103896 0)
(-0.00341309 -0.00773313 0)
(-0.00200309 -0.00531388 0)
(-0.000971784 -0.00321327 0)
(-0.000312764 -0.00151517 0)
(-3.83484e-05 -0.000308829 0)
(-0.000102598 0.00187218 0)
(-0.000685101 0.00567633 0)
(-0.00194394 0.00944175 0)
(-0.00374749 0.0130936 0)
(-0.00601843 0.0165759 0)
(-0.0087092 0.0198456 0)
(-0.0117725 0.0228711 0)
(-0.0151626 0.0256307 0)
(-0.0188374 0.028111 0)
(-0.0227576 0.0303054 0)
(-0.0268864 0.0322122 0)
(-0.0311893 0.0338338 0)
(-0.0356337 0.035175 0)
(-0.0401889 0.0362425 0)
(-0.0448253 0.0370436 0)
(-0.0495149 0.0375861 0)
(-0.0542307 0.0378773 0)
(-0.0589462 0.0379239 0)
(-0.063636 0.037732 0)
(-0.0682749 0.0373065 0)
(-0.0728385 0.0366516 0)
(-0.0773022 0.0357709 0)
(-0.0816421 0.0346672 0)
(-0.0858343 0.0333433 0)
(-0.0898551 0.0318019 0)
(-0.0936811 0.0300459 0)
(-0.0972893 0.0280791 0)
(-0.100657 0.025906 0)
(-0.103761 0.0235327 0)
(-0.106581 0.0209666 0)
(-0.109095 0.018217 0)
(-0.111283 0.0152954 0)
(-0.113126 0.0122155 0)
(-0.114607 0.00899325 0)
(-0.115709 0.0056473 0)
(-0.116418 0.00219875 0)
(-0.116722 -0.0013287 0)
(-0.11661 -0.0049089 0)
(-0.116075 -0.00851332 0)
(-0.115113 -0.0121112 0)
(-0.113721 -0.01567 0)
(-0.111902 -0.0191553 0)
(-0.10966 -0.0225317 0)
(-0.107005 -0.0257627 0)
(-0.10395 -0.0288117 0)
(-0.100512 -0.0316423 0)
(-0.0967122 -0.0342189 0)
(-0.092577 -0.0365075 0)
(-0.0881363 -0.0384761 0)
(-0.0834241 -0.0400961 0)
(-0.0784786 -0.0413419 0)
(-0.0733415 -0.0421928 0)
(-0.0680579 -0.0426329 0)
(-0.0626754 -0.0426519 0)
(-0.0572439 -0.042246 0)
(-0.0518147 -0.0414177 0)
(-0.0464399 -0.040177 0)
(-0.0411713 -0.0385411 0)
(-0.0360595 -0.0365347 0)
(-0.0311535 -0.03419 0)
(-0.0264992 -0.0315467 0)
(-0.0221387 -0.0286517 0)
(-0.0181098 -0.0255588 0)
(-0.0144446 -0.0223281 0)
(-0.0111696 -0.0190261 0)
(-0.00830476 -0.0157242 0)
(-0.00586332 -0.0124993 0)
(-0.00385182 -0.00943214 0)
(-0.00226906 -0.00660746 0)
(-0.00110534 -0.00411266 0)
(-0.000357636 -0.00203704 0)
(-4.43875e-05 -0.000474458 0)
(-0.000110561 0.00223207 0)
(-0.000736368 0.00668364 0)
(-0.00208643 0.0110294 0)
(-0.00401734 0.0151994 0)
(-0.00644423 0.0191423 0)
(-0.00931457 0.0228193 0)
(-0.0125765 0.0262028 0)
(-0.0161801 0.0292747 0)
(-0.0200799 0.0320252 0)
(-0.0242336 0.0344502 0)
(-0.028602 0.036551 0)
(-0.0331487 0.038332 0)
(-0.0378396 0.0398003 0)
(-0.0426424 0.0409641 0)
(-0.0475269 0.0418324 0)
(-0.0524641 0.042414 0)
(-0.0574261 0.0427173 0)
(-0.0623863 0.0427499 0)
(-0.0673186 0.0425183 0)
(-0.0721975 0.0420281 0)
(-0.076998 0.0412838 0)
(-0.0816955 0.0402893 0)
(-0.0862655 0.0390476 0)
(-0.0906837 0.0375618 0)
(-0.0949262 0.0358346 0)