/*--------------------------------*- C++ -*----------------------------------*\
  =========                 |
  \\      /  F ield         | OpenFOAM: The Open Source CFD Toolbox
   \\    /   O peration     | Website:  https://openfoam.org
    \\  /    A nd           | Version:  dev
     \\/     M anipulation  |
\*---------------------------------------------------------------------------*/
FoamFile
{
    format      ascii;
    class       volScalarField;
    location    "20.7";
    object      Ux;
}
// * * * * * * * * * * * * * * * * * * * * * * * * * * * * * * * * * * * * * //

dimensions      [0 1 -1 0 0 0 0];

internalField   nonuniform List<scalar> 
5184
(
1.24775e-05
4.53653e-05
8.03476e-05
9.58904e-05
8.2005e-05
3.62888e-05
-4.07126e-05
-0.000146983
-0.000279734
-0.000435912
-0.000612398
-0.00080616
-0.00101434
-0.00123426
-0.00146348
-0.00169973
-0.00194095
-0.00218522
-0.00243076
-0.0026759
-0.00291901
-0.00315855
-0.00339298
-0.00362079
-0.00384045
-0.00405042
-0.00424915
-0.00443506
-0.00460658
-0.00476213
-0.00490015
-0.00501913
-0.0051176
-0.00519419
-0.00524764
-0.00527683
-0.00528082
-0.00525889
-0.00521053
-0.00513552
-0.00503392
-0.0049061
-0.00475276
-0.00457497
-0.00437411
-0.00415195
-0.00391058
-0.00365241
-0.00338017
-0.00309687
-0.00280573
-0.00251018
-0.00221379
-0.00192019
-0.00163308
-0.00135608
-0.00109272
-0.000846378
-0.000620194
-0.000417018
-0.000239345
-8.92539e-05
3.16681e-05
0.000122406
0.000182626
0.000212828
0.000214597
0.000190975
0.000146985
9.07096e-05
3.66005e-05
6.22471e-06
2.09198e-05
6.57114e-05
9.46776e-05
7.26635e-05
-1.91241e-05
-0.000187493
-0.000433019
-0.000752487
-0.00114036
-0.00158985
-0.00209363
-0.00264425
-0.00323442
-0.00385714
-0.00450581
-0.00517426
-0.00585667
-0.00654761
-0.00724196
-0.00793483
-0.00862153
-0.0092975
-0.00995829
-0.0105995
-0.0112166
-0.0118054
-0.0123613
-0.01288
-0.0133572
-0.0137883
-0.0141693
-0.014496
-0.0147646
-0.0149714
-0.0151131
-0.0151869
-0.0151905
-0.0151221
-0.0149805
-0.0147653
-0.014477
-0.0141168
-0.0136868
-0.0131901
-0.0126305
-0.0120129
-0.0113431
-0.0106277
-0.00987404
-0.00909024
-0.00828497
-0.00746741
-0.00664709
-0.00583372
-0.00503709
-0.00426684
-0.00353236
-0.00284255
-0.00220569
-0.00162924
-0.0011197
-0.000682346
-0.000321097
-3.82381e-05
0.000165857
0.000293106
0.000348249
0.00033954
0.000279454
0.000185819
8.62736e-05
1.96601e-05
1.7652e-05
4.13333e-05
1.95396e-05
-8.41004e-05
-0.000290325
-0.000607858
-0.00103795
-0.00157678
-0.0022172
-0.00295002
-0.00376496
-0.00465134
-0.00559844
-0.0065958
-0.00763338
-0.00870163
-0.00979148
-0.0108943
-0.012002
-0.0131066
-0.0142006
-0.0152766
-0.0163275
-0.017346
-0.0183251
-0.0192578
-0.020137
-0.0209559
-0.0217074
-0.022385
-0.0229819
-0.0234919
-0.0239092
-0.0242282
-0.024444
-0.0245525
-0.0245502
-0.0244346
-0.0242043
-0.0238588
-0.0233991
-0.0228272
-0.0221467
-0.0213623
-0.0204803
-0.0195083
-0.0184553
-0.0173314
-0.016148
-0.0149175
-0.0136532
-0.0123692
-0.01108
-0.0098003
-0.0085451
-0.00732904
-0.00616637
-0.00507061
-0.00405427
-0.00312865
-0.00230346
-0.00158659
-0.000983781
-0.000498271
-0.000130379
0.00012296
0.000268826
0.000319045
0.00029073
0.00020708
0.000102316
2.49475e-05
8.83634e-06
-7.02454e-06
-0.000107593
-0.000322318
-0.000669402
-0.00115723
-0.00178653
-0.00255255
-0.00344672
-0.00445805
-0.00557404
-0.00678153
-0.00806709
-0.0094175
-0.0108199
-0.0122618
-0.0137313
-0.0152171
-0.0167082
-0.0181941
-0.0196645
-0.0211096
-0.0225196
-0.0238848
-0.0251956
-0.0264428
-0.0276168
-0.0287085
-0.0297087
-0.0306086
-0.0313995
-0.0320735
-0.0326227
-0.0330402
-0.0333198
-0.0334561
-0.0334451
-0.0332837
-0.0329702
-0.0325043
-0.0318875
-0.0311227
-0.0302148
-0.0291701
-0.0279969
-0.0267052
-0.0253068
-0.0238149
-0.0222443
-0.0206111
-0.0189325
-0.0172267
-0.0155124
-0.0138088
-0.0121349
-0.0105099
-0.00895191
-0.00747846
-0.00610566
-0.00484799
-0.00371794
-0.00272561
-0.00187834
-0.00118026
-0.000631835
-0.000229387
3.55471e-05
0.000176839
0.000214191
0.000173737
9.28751e-05
2.39951e-05
-2.13009e-06
-6.72811e-05
-0.000264016
-0.000609491
-0.00111618
-0.00179026
-0.00263074
-0.00363125
-0.00478166
-0.00606926
-0.00747972
-0.0089978
-0.0106079
-0.0122945
-0.0140424
-0.0158366
-0.0176629
-0.0195075
-0.0213569
-0.0231983
-0.025019
-0.0268068
-0.0285495
-0.0302354
-0.0318525
-0.0333893
-0.0348344
-0.0361763
-0.0374041
-0.0385069
-0.0394745
-0.0402971
-0.0409656
-0.0414716
-0.041808
-0.0419685
-0.0419483
-0.041744
-0.0413538
-0.0407778
-0.0400177
-0.0390775
-0.0379629
-0.0366819
-0.0352446
-0.033663
-0.0319511
-0.0301251
-0.0282025
-0.0262025
-0.0241459
-0.0220541
-0.0199497
-0.0178553
-0.0157938
-0.0137879
-0.0118594
-0.0100292
-0.00831637
-0.00673834
-0.00531003
-0.00404356
-0.00294779
-0.00202788
-0.00128476
-0.000714703
-0.000308721
-5.2073e-05
7.60892e-05
0.00010324
6.7352e-05
1.9633e-05
-1.36943e-05
-0.000132775
-0.000435584
-0.00092407
-0.00160284
-0.00247445
-0.00353506
-0.00477595
-0.00618506
-0.00774787
-0.00944826
-0.0112692
-0.0131932
-0.0152027
-0.0172805
-0.0194098
-0.0215739
-0.0237571
-0.0259438
-0.028119
-0.0302679
-0.0323762
-0.0344297
-0.0364144
-0.0383166
-0.0401227
-0.0418193
-0.0433932
-0.0448317
-0.0461224
-0.0472533
-0.0482134
-0.0489922
-0.0495803
-0.0499695
-0.050153
-0.0501253
-0.0498828
-0.0494237
-0.0487482
-0.0478584
-0.046759
-0.0454568
-0.043961
-0.0422831
-0.0404371
-0.0384389
-0.0363069
-0.0340611
-0.0317237
-0.029318
-0.0268686
-0.0244011
-0.0219414
-0.0195157
-0.0171498
-0.0148687
-0.0126962
-0.0106543
-0.00876301
-0.0070395
-0.0054979
-0.00414867
-0.00299817
-0.00204821
-0.0012955
-0.000731301
-0.000340907
-0.000103392
8.84498e-06
3.23569e-05
1.35906e-05
-2.51759e-05
-0.000199889
-0.000613657
-0.00125199
-0.00211041
-0.00318677
-0.00447349
-0.00595886
-0.0076284
-0.00946557
-0.0114524
-0.0135701
-0.0157995
-0.0181213
-0.0205165
-0.0229664
-0.0254528
-0.027958
-0.0304644
-0.0329553
-0.035414
-0.0378243
-0.0401702
-0.0424358
-0.0446057
-0.0466645
-0.0485971
-0.0503888
-0.0520251
-0.0534923
-0.054777
-0.0558669
-0.0567505
-0.0574173
-0.0578585
-0.0580663
-0.0580351
-0.0577608
-0.0572415
-0.0564776
-0.0554716
-0.0542287
-0.0527565
-0.0510652
-0.0491677
-0.0470792
-0.0448177
-0.0424032
-0.039858
-0.0372066
-0.0344747
-0.0316896
-0.0288797
-0.0260737
-0.0233007
-0.0205894
-0.0179677
-0.015462
-0.0130973
-0.0108959
-0.0088772
-0.00705747
-0.0054489
-0.00405934
-0.0028918
-0.00194399
-0.00120801
-0.000669919
-0.00030955
-0.0001001
-7.82992e-06
6.83412e-06
-3.63177e-05
-0.000266743
-0.000793121
-0.00158433
-0.00262621
-0.00391121
-0.00542737
-0.0071594
-0.00909001
-0.0112003
-0.0134704
-0.0158798
-0.0184074
-0.0210326
-0.0237348
-0.0264936
-0.0292892
-0.0321023
-0.0349139
-0.0377055
-0.0404587
-0.0431558
-0.045779
-0.0483111
-0.0507348
-0.0530332
-0.0551899
-0.0571884
-0.0590132
-0.060649
-0.0620814
-0.0632968
-0.0642828
-0.065028
-0.0655228
-0.0657588
-0.0657299
-0.0654318
-0.0648623
-0.0640218
-0.0629133
-0.0615421
-0.0599165
-0.0580476
-0.0559491
-0.0536376
-0.0511323
-0.048455
-0.0456299
-0.0426831
-0.0396429
-0.0365389
-0.0334017
-0.0302629
-0.027154
-0.0241066
-0.0211513
-0.0183172
-0.0156318
-0.0131199
-0.0108035
-0.00870084
-0.00682613
-0.00518901
-0.00379409
-0.00264053
-0.00172178
-0.00102528
-0.000532252
-0.000217363
-5.05438e-05
-1.05681e-07
-4.70249e-05
-0.000332358
-0.000970986
-0.00191548
-0.00314185
-0.00463674
-0.00638336
-0.00836242
-0.0105535
-0.0129351
-0.0154851
-0.0181813
-0.021001
-0.0239219
-0.0269221
-0.0299797
-0.0330736
-0.036183
-0.0392876
-0.0423672
-0.0454025
-0.0483739
-0.0512624
-0.0540493
-0.0567159
-0.0592441
-0.0616159
-0.0638138
-0.0658208
-0.0676206
-0.0691976
-0.0705372
-0.071626
-0.0724519
-0.0730044
-0.0732747
-0.0732559
-0.0729434
-0.072335
-0.0714307
-0.0702335
-0.0687492
-0.0669863
-0.0649564
-0.062674
-0.0601567
-0.0574248
-0.0545014
-0.0514122
-0.0481852
-0.0448504
-0.0414397
-0.037986
-0.0345232
-0.0310854
-0.0277068
-0.0244207
-0.0212589
-0.0182515
-0.015426
-0.0128069
-0.0104147
-0.00826603
-0.00637257
-0.00474089
-0.00337204
-0.00226127
-0.00139788
-0.000764935
-0.000339045
-9.42281e-05
-6.95901e-06
-5.72861e-05
-0.000396254
-0.00114552
-0.00224194
-0.00365177
-0.00535573
-0.00733188
-0.0095567
-0.0120063
-0.0146564
-0.0174827
-0.0204609
-0.0235668
-0.0267765
-0.0300668
-0.0334145
-0.0367973
-0.0401931
-0.0435803
-0.0469378
-0.0502447
-0.0534804
-0.0566246
-0.0596573
-0.0625587
-0.0653094
-0.0678903
-0.0702828
-0.0724686
-0.0744304
-0.0761517
-0.0776169
-0.0788117
-0.0797231
-0.0803398
-0.0806524
-0.0806534
-0.0803377
-0.0797027
-0.0787482
-0.077477
-0.0758948
-0.0740103
-0.0718355
-0.0693853
-0.0666779
-0.0637345
-0.0605794
-0.0572394
-0.0537442
-0.0501254
-0.0464168
-0.0426536
-0.0388719
-0.0351084
-0.0313998
-0.0277821
-0.02429
-0.0209563
-0.0178113
-0.0148823
-0.0121924
-0.00976083
-0.00760167
-0.00572386
-0.00413071
-0.00281966
-0.00178224
-0.00100374
-0.000462935
-0.000138067
-1.36105e-05
-6.71193e-05
-0.000458206
-0.00131572
-0.00256147
-0.00415227
-0.00606284
-0.00826604
-0.0107339
-0.0134389
-0.0163539
-0.0194521
-0.0227073
-0.0260935
-0.0295856
-0.0331587
-0.0367888
-0.0404522
-0.0441258
-0.0477871
-0.0514137
-0.0549838
-0.0584757
-0.0618681
-0.0651399
-0.0682702
-0.0712386
-0.074025
-0.0766096
-0.0789734
-0.0810979
-0.0829657
-0.0845602
-0.0858663
-0.0868701
-0.0875596
-0.0879246
-0.0879569
-0.0876507
-0.0870029
-0.0860128
-0.0846829
-0.0830185
-0.0810284
-0.0787244
-0.0761218
-0.0732391
-0.0700982
-0.066724
-0.0631446
-0.0593908
-0.055496
-0.0514957
-0.0474271
-0.0433286
-0.0392395
-0.035199
-0.031246
-0.0274181
-0.0237512
-0.0202785
-0.0170303
-0.0140329
-0.0113081
-0.00887309
-0.00673937
-0.00491288
-0.00339364
-0.00217571
-0.0012468
-0.000588025
-0.000181736
-2.00338e-05
-7.65487e-05
-0.000518112
-0.001481
-0.00287267
-0.00464081
-0.00675428
-0.00918073
-0.0118877
-0.0148439
-0.0180192
-0.0213844
-0.0249111
-0.0285717
-0.0323396
-0.0361887
-0.0400939
-0.0440306
-0.0479746
-0.0519024
-0.0557908
-0.0596172
-0.0633589
-0.0669937
-0.0704996
-0.0738549
-0.0770383
-0.0800285
-0.0828051
-0.0853481
-0.087638
-0.0896566
-0.0913864
-0.0928113
-0.0939166
-0.0946895
-0.0951187
-0.0951953
-0.0949129
-0.0942673
-0.0932574
-0.0918849
-0.0901548
-0.0880753
-0.0856581
-0.0829184
-0.0798747
-0.0765493
-0.0729678
-0.069159
-0.0651549
-0.0609903
-0.0567023
-0.0523302
-0.0479147
-0.0434975
-0.0391208
-0.0348262
-0.0306547
-0.0266453
-0.0228345
-0.019256
-0.0159394
-0.0129099
-0.0101877
-0.00778751
-0.00571821
-0.00398267
-0.00257776
-0.00149377
-0.000714158
-0.000225236
-2.62556e-05
-8.5596e-05
-0.000575921
-0.00164098
-0.00317455
-0.00511558
-0.00742725
-0.0100721
-0.013013
-0.0162152
-0.0196454
-0.0232718
-0.027064
-0.0309928
-0.03503
-0.0391485
-0.0433219
-0.0475249
-0.0517324
-0.0559201
-0.0600642
-0.064141
-0.0681273
-0.0720002
-0.0757368
-0.0793148
-0.0827119
-0.0859062
-0.0888764
-0.0916016
-0.0940616
-0.0962372
-0.09811
-0.099663
-0.100881
-0.101749
-0.102256
-0.102392
-0.102149
-0.101522
-0.100509
-0.0991113
-0.0973327
-0.0951809
-0.0926668
-0.0898054
-0.0866152
-0.0831182
-0.0793406
-0.0753118
-0.0710647
-0.0666352
-0.0620623
-0.0573871
-0.0526526
-0.0479031
-0.0431838
-0.0385394
-0.0340143
-0.029651
-0.0254898
-0.021568
-0.017919
-0.0145716
-0.0115497
-0.00887138
-0.00654891
-0.00458831
-0.00298946
-0.00174536
-0.000841785
-0.000268788
-3.23344e-05
-9.42765e-05
-0.000631599
-0.00179537
-0.00346636
-0.00557519
-0.00807952
-0.0109369
-0.0141059
-0.0175479
-0.0212266
-0.0251078
-0.029159
-0.0333492
-0.0376489
-0.0420299
-0.0464649
-0.0509275
-0.0553921
-0.0598337
-0.0642278
-0.0685502
-0.072777
-0.0768846
-0.0808498
-0.0846493
-0.0882603
-0.0916602
-0.094827
-0.097739
-0.100375
-0.102715
-0.104741
-0.106433
-0.107775
-0.108753
-0.109353
-0.109564
-0.109377
-0.108787
-0.107789
-0.106385
-0.104576
-0.102369
-0.0997758
-0.096809
-0.0934869
-0.0898317
-0.0858693
-0.0816297
-0.0771465
-0.0724567
-0.0676008
-0.0626218
-0.0575652
-0.0524779
-0.0474081
-0.0424041
-0.0375137
-0.0327834
-0.0282577
-0.0239779
-0.0199814
-0.0163015
-0.0129657
-0.00999636
-0.00740919
-0.00521374
-0.00341309
-0.00200309
-0.000971784
-0.000312764
-3.83484e-05
-0.000102598
-0.000685101
-0.00194394
-0.00374749
-0.00601843
-0.0087092
-0.0117725
-0.0151626
-0.0188374
-0.0227576
-0.0268864
-0.0311893
-0.0356337
-0.0401889
-0.0448253
-0.0495149
-0.0542307
-0.0589462
-0.063636
-0.0682749
-0.0728385
-0.0773022
-0.0816421
-0.0858343
-0.0898551
-0.0936811
-0.0972893
-0.100657
-0.103761
-0.106581
-0.109095
-0.111283
-0.113126
-0.114607
-0.115709
-0.116418
-0.116722
-0.11661
-0.116075
-0.115113
-0.113721
-0.111902
-0.10966
-0.107005
-0.10395
-0.100512
-0.0967122
-0.092577
-0.0881363
-0.0834241
-0.0784786
-0.0733415
-0.0680579
-0.0626754
-0.0572439
-0.0518147
-0.0464399
-0.0411713
-0.0360595
-0.0311535
-0.0264992
-0.0221387
-0.0181098
-0.0144446
-0.0111696
-0.00830476
-0.00586332
-0.00385182
-0.00226906
-0.00110534
-0.000357636
-4.43875e-05
-0.000110561
-0.000736368
-0.00208643
-0.00401734
-0.00644423
-0.00931457
-0.0125765
-0.0161801
-0.0200799
-0.0242336
-0.028602
-0.0331487
-0.0378396
-0.0426424
-0.0475269
-0.0524641
-0.0574261
-0.0623863
-0.0673186
-0.0721975
-0.076998
-0.0816955
-0.0862655
-0.0906837
-0.0949262
-0.0989691
-0.102789
-0.106362
-0.109665
-0.112676
-0.115374
-0.117736
-0.119744
-0.121378
-0.122621
-0.123457
-0.123872
-0.123854
-0.123396
-0.122489
-0.121131
-0.119322
-0.117065
-0.114368
-0.111243
-0.107706
-0.103777
-0.0994826
-0.0948514
-0.0899183
-0.0847222
-0.0793063
-0.0737172
-0.068005
-0.0622227
-0.0564249
-0.0506674
-0.0450064
-0.0394974
-0.034194
-0.0291473
-0.0244045
-0.0200085
-0.0159965
-0.0123997
-0.00924249
-0.00654234
-0.00430948
-0.00254579
-0.00124384
-0.000403947
-5.05497e-05
-0.000118159
-0.000785319
-0.00222255
-0.00427527
-0.00685148
-0.00989396
-0.0133464
-0.0171552
-0.0212713
-0.0256498
-0.0302492
-0.0350311
-0.0399599
-0.0450022
-0.0501268
-0.0553039
-0.0605053
-0.0657036
-0.0708725
-0.0759863
-0.0810196
-0.0859476
-0.0907457
-0.0953893
-0.099854
-0.104116
-0.10815
-0.111934
-0.115443
-0.118655
-0.121546
-0.124095
-0.126281
-0.128083
-0.129484
-0.130465
-0.131011
-0.131109
-0.130747
-0.129919
-0.128617
-0.12684
-0.12459
-0.121873
-0.118698
-0.115081
-0.11104
-0.1066
-0.10179
-0.0966458
-0.0912056
-0.085514
-0.0796195
-0.0735746
-0.067435
-0.0612591
-0.0551068
-0.049039
-0.043116
-0.037397
-0.0319385
-0.0267936
-0.0220108
-0.0176328
-0.0136961
-0.0102301
-0.00725675
-0.00479037
-0.00283609
-0.00138884
-0.000452285
-5.69371e-05
-0.00012538
-0.000831849
-0.00235198
-0.00452062
-0.00723907
-0.0104457
-0.0140801
-0.0180849
-0.0224079
-0.0270017
-0.0318225
-0.0368302
-0.0419877
-0.0472607
-0.0526168
-0.0580258
-0.0634588
-0.0688883
-0.0742876
-0.0796308
-0.0848925
-0.0900477
-0.0950716
-0.0999395
-0.104627
-0.109109
-0.113363
-0.117362
-0.121084
-0.124505
-0.1276
-0.130348
-0.132726
-0.134713
-0.136288
-0.137433
-0.138131
-0.138366
-0.138124
-0.137396
-0.136174
-0.134454
-0.132235
-0.12952
-0.126317
-0.12264
-0.118505
-0.113937
-0.108964
-0.103619
-0.0979428
-0.0919804
-0.085782
-0.0794022
-0.0728998
-0.0663369
-0.0597778
-0.0532882
-0.0469341
-0.0407804
-0.0348897
-0.0293215
-0.0241304
-0.0193654
-0.0150689
-0.0112758
-0.00801296
-0.00529912
-0.00314299
-0.00154198
-0.000503271
-6.36546e-05
-0.000132206
-0.000875834
-0.00247435
-0.00475266
-0.0076058
-0.010968
-0.014775
-0.018966
-0.0234859
-0.0282847
-0.0333166
-0.0385399
-0.0439162
-0.04941
-0.0549883
-0.0606203
-0.0662768
-0.0719298
-0.0775527
-0.0831194
-0.0886045
-0.0939829
-0.0992299
-0.104321
-0.109231
-0.113936
-0.11841
-0.122631
-0.126572
-0.13021
-0.13352
-0.136479
-0.139063
-0.14125
-0.143018
-0.144347
-0.145216
-0.14561
-0.145512
-0.144909
-0.143792
-0.142153
-0.139989
-0.137301
-0.134095
-0.130381
-0.126174
-0.121496
-0.116375
-0.110844
-0.104943
-0.0987167
-0.0922177
-0.0855028
-0.0786335
-0.0716758
-0.0646986
-0.0577728
-0.0509701
-0.044362
-0.0380179
-0.0320039
-0.0263816
-0.021207
-0.0165289
-0.0123883
-0.00881771
-0.00584059
-0.00346964
-0.00170499
-0.000557547
-7.0809e-05
-0.000138615
-0.000917131
-0.00258926
-0.00497063
-0.00795042
-0.011459
-0.0154287
-0.0197953
-0.0245012
-0.0294939
-0.0347259
-0.0401538
-0.045738
-0.0514422
-0.0572326
-0.063078
-0.0689488
-0.074817
-0.0806557
-0.0864391
-0.0921417
-0.0977386
-0.103205
-0.108517
-0.113649
-0.118576
-0.123275
-0.12772
-0.131886
-0.135749
-0.139284
-0.142465
-0.145269
-0.147672
-0.14965
-0.151181
-0.152243
-0.152818
-0.152887
-0.152435
-0.151448
-0.149918
-0.147836
-0.145202
-0.142019
-0.138292
-0.134037
-0.129272
-0.124023
-0.118322
-0.112209
-0.105729
-0.0989356
-0.0918875
-0.0846493
-0.0772907
-0.0698852
-0.0625095
-0.0552414
-0.0481592
-0.0413396
-0.0348563
-0.0287787
-0.0231702
-0.0180869
-0.0135766
-0.00967789
-0.0064198
-0.00381931
-0.00187963
-0.000615768
-7.85077e-05
-0.000144582
-0.000955581
-0.00269627
-0.0051737
-0.00827163
-0.011917
-0.0160387
-0.0205698
-0.02545
-0.0306248
-0.0360449
-0.0416655
-0.0474459
-0.053349
-0.0593405
-0.0653886
-0.0714636
-0.0775376
-0.0835836
-0.0895758
-0.0954891
-0.101299
-0.10698
-0.112509
-0.117861
-0.123011
-0.127935
-0.132607
-0.137003
-0.141098
-0.144865
-0.148279
-0.151316
-0.153948
-0.156153
-0.157905
-0.159182
-0.15996
-0.160221
-0.159944
-0.159115
-0.15772
-0.15575
-0.153198
-0.150065
-0.146355
-0.142078
-0.13725
-0.131896
-0.126045
-0.119737
-0.113017
-0.105939
-0.0985626
-0.0909562
-0.0831929
-0.0753512
-0.0675131
-0.0597635
-0.0521878
-0.0448706
-0.037894
-0.0313357
-0.0252675
-0.0197537
-0.0148495
-0.0106005
-0.00704183
-0.00419531
-0.00206769
-0.000678597
-8.68592e-05
-0.000150078
-0.000991015
-0.00279493
-0.005361
-0.0085681
-0.0123399
-0.0166025
-0.0212861
-0.0263282
-0.0316724
-0.0372678
-0.0430683
-0.0490323
-0.0551219
-0.0613023
-0.0675415
-0.0738097
-0.0800789
-0.0863223
-0.0925143
-0.0986301
-0.104645
-0.110535
-0.116277
-0.121845
-0.127215
-0.132364
-0.137265
-0.141894
-0.146225
-0.150232
-0.153889
-0.157168
-0.160045
-0.162492
-0.164483
-0.165993
-0.166997
-0.167473
-0.167398
-0.166754
-0.165524
-0.163694
-0.161255
-0.158204
-0.15454
-0.15027
-0.145408
-0.139975
-0.133999
-0.127517
-0.120574
-0.113224
-0.105529
-0.0975584
-0.0893897
-0.0811061
-0.0727955
-0.0645497
-0.0564619
-0.0486254
-0.041131
-0.034066
-0.0275112
-0.0215399
-0.0162159
-0.0115926
-0.00771176
-0.00460097
-0.00227097
-0.000746703
-9.59723e-05
-0.000155074
-0.00102326
-0.00288477
-0.00553169
-0.00883846
-0.012726
-0.0171175
-0.0219411
-0.0271319
-0.032632
-0.038389
-0.0443558
-0.0504897
-0.0567524
-0.0631085
-0.0695261
-0.075975
-0.0824275
-0.0888571
-0.0952385
-0.101547
-0.107759
-0.11385
-0.119797
-0.125577
-0.131164
-0.136535
-0.141664
-0.146527
-0.151098
-0.155349
-0.159255
-0.162787
-0.165919
-0.168622
-0.170869
-0.172631
-0.173882
-0.174597
-0.174749
-0.174317
-0.173281
-0.171623
-0.169329
-0.166392
-0.162807
-0.158578
-0.153714
-0.148233
-0.142159
-0.135529
-0.128385
-0.120781
-0.11278
-0.104454
-0.095883
-0.0871553
-0.0783649
-0.0696105
-0.0609936
-0.0526167
-0.0445805
-0.0369822
-0.0299129
-0.023456
-0.0176847
-0.012661
-0.00843469
-0.00503962
-0.0024913
-0.000820757
-0.000105957
-0.000159541
-0.00105214
-0.00296534
-0.0056849
-0.0090814
-0.0130732
-0.0175813
-0.0225314
-0.0278572
-0.0334989
-0.039403
-0.0455213
-0.0518106
-0.0582317
-0.0647494
-0.0713311
-0.0779472
-0.0845698
-0.0911729
-0.0977315
-0.104222
-0.11062
-0.116903
-0.123047
-0.12903
-0.134828
-0.140416
-0.145771
-0.150867
-0.155677
-0.160176
-0.164335
-0.168128
-0.171524
-0.174495
-0.177011
-0.179043
-0.180561
-0.181536
-0.181941
-0.181749
-0.180936
-0.179481
-0.177366
-0.174578
-0.171109
-0.166956
-0.162125
-0.15663
-0.150492
-0.143743
-0.136425
-0.128591
-0.120302
-0.111634
-0.102669
-0.0934991
-0.084225
-0.0749525
-0.0657919
-0.0568551
-0.0482537
-0.0400956
-0.0324836
-0.0255117
-0.0192641
-0.0138125
-0.00921559
-0.00551455
-0.00273047
-0.000901432
-0.000116923
-0.000163449
-0.00107749
-0.00303617
-0.00581982
-0.00929564
-0.0133799
-0.0179914
-0.0230542
-0.0285003
-0.0342685
-0.0403043
-0.0465586
-0.0529875
-0.0595516
-0.0662151
-0.0729457
-0.0797138
-0.0864917
-0.0932539
-0.0999759
-0.106634
-0.113206
-0.119669
-0.126
-0.132177
-0.138177
-0.143976
-0.14955
-0.154874
-0.159922
-0.164668
-0.169083
-0.173139
-0.176806
-0.180054
-0.182852
-0.185168
-0.18697
-0.188227
-0.188908
-0.188983
-0.188423
-0.187204
-0.185302
-0.182699
-0.179383
-0.175345
-0.170587
-0.165117
-0.158952
-0.152121
-0.144662
-0.136625
-0.128074
-0.119083
-0.109736
-0.100132
-0.0903746
-0.0805784
-0.0708623
-0.0613485
-0.0521598
-0.0434163
-0.0352329
-0.0277162
-0.0209621
-0.0150537
-0.0100593
-0.00602901
-0.00299027
-0.000989401
-0.000128983
-0.000166772
-0.00109915
-0.00309687
-0.0059357
-0.00948003
-0.0136443
-0.0183457
-0.0235067
-0.0290577
-0.0349366
-0.0410879
-0.0474617
-0.0540135
-0.0607037
-0.0674963
-0.0743591
-0.0812625
-0.0881794
-0.0950846
-0.101954
-0.108765
-0.115496
-0.122125
-0.128629
-0.134987
-0.141178
-0.147177
-0.152962
-0.158507
-0.163788
-0.168776
-0.173446
-0.177767
-0.181708
-0.18524
-0.188328
-0.19094
-0.193042
-0.194599
-0.195578
-0.195945
-0.195667
-0.194715
-0.193061
-0.190681
-0.187558
-0.183678
-0.179035
-0.173633
-0.167484
-0.160611
-0.153049
-0.144847
-0.136064
-0.126775
-0.117067
-0.10704
-0.0968064
-0.0864856
-0.0762062
-0.0661013
-0.0563055
-0.0469521
-0.0381694
-0.0300777
-0.0227862
-0.0163905
-0.0109706
-0.00658619
-0.00327248
-0.00108533
-0.000142251
-0.000169484
-0.00111698
-0.00314708
-0.00603187
-0.00963354
-0.0138651
-0.0186423
-0.0238862
-0.0295263
-0.0354994
-0.0417491
-0.0482249
-0.054882
-0.0616803
-0.068584
-0.0755607
-0.0825814
-0.0896192
-0.0966494
-0.103649
-0.110595
-0.117468
-0.124245
-0.130907
-0.137432
-0.143799
-0.149985
-0.155968
-0.161724
-0.167227
-0.172452
-0.17737
-0.181953
-0.186169
-0.189986
-0.19337
-0.196287
-0.1987
-0.200573
-0.201869
-0.202551
-0.202583
-0.201929
-0.200558
-0.198441
-0.195552
-0.191873
-0.187392
-0.182105
-0.176019
-0.169152
-0.161533
-0.153206
-0.144229
-0.134675
-0.124633
-0.114205
-0.103506
-0.0926659
-0.0818205
-0.0711143
-0.0606947
-0.0507088
-0.0412999
-0.0326033
-0.0247431
-0.0178289
-0.011954
-0.00718916
-0.00357883
-0.0011899
-0.00015684
-0.000171565
-0.00113088
-0.0031865
-0.00610781
-0.00975535
-0.014041
-0.0188795
-0.0241909
-0.0299036
-0.0359536
-0.0422838
-0.0488434
-0.055587
-0.0624744
-0.0694698
-0.076541
-0.0836591
-0.0907979
-0.0979333
-0.105043
-0.112105
-0.1191
-0.126007
-0.132807
-0.13948
-0.146005
-0.152362
-0.158527
-0.164479
-0.170193
-0.175642
-0.1808
-0.185637
-0.190122
-0.194223
-0.197905
-0.201131
-0.203864
-0.206066
-0.207695
-0.208713
-0.209079
-0.208754
-0.2077
-0.205883
-0.203271
-0.199839
-0.195569
-0.190449
-0.184478
-0.177669
-0.170044
-0.161642
-0.152517
-0.142739
-0.132398
-0.121595
-0.110453
-0.0991045
-0.0876963
-0.0763837
-0.0653274
-0.0546896
-0.0446294
-0.0352989
-0.0268385
-0.0193741
-0.0130136
-0.00784088
-0.00391101
-0.00130376
-0.000172869
-0.000173001
-0.00114076
-0.00321493
-0.00616316
-0.00984488
-0.0141713
-0.0190563
-0.0244191
-0.0301874
-0.0362965
-0.0426889
-0.049313
-0.0561235
-0.0630799
-0.0701463
-0.077291
-0.0844853
-0.0917035
-0.0989221
-0.10612
-0.113275
-0.12037
-0.127385
-0.134302
-0.141101
-0.147764
-0.15427
-0.160599
-0.166729
-0.172636
-0.178294
-0.183678
-0.188758
-0.193503
-0.197881
-0.201856
-0.205392
-0.208449
-0.210987
-0.212963
-0.214335
-0.215057
-0.215088
-0.214384
-0.212904
-0.210612
-0.207475
-0.203466
-0.198567
-0.192769
-0.186075
-0.178502
-0.170082
-0.160863
-0.150911
-0.140314
-0.129174
-0.117616
-0.105779
-0.0938186
-0.0819007
-0.0702
-0.0588945
-0.0481607
-0.0381686
-0.0290774
-0.0210307
-0.0141533
-0.00854416
-0.00427069
-0.00142758
-0.000190456
-0.000173783
-0.00114658
-0.00323228
-0.00619772
-0.00990185
-0.0142554
-0.0191719
-0.0245699
-0.0303765
-0.0365265
-0.0429618
-0.0496307
-0.0564875
-0.0634916
-0.0706074
-0.0778031
-0.0850507
-0.0923249
-0.099603
-0.106864
-0.114089
-0.121259
-0.128357
-0.135366
-0.142267
-0.149043
-0.155675
-0.162144
-0.168428
-0.174506
-0.180354
-0.185945
-0.191251
-0.196242
-0.200886
-0.205147
-0.208987
-0.212367
-0.215245
-0.217576
-0.219314
-0.220412
-0.220823
-0.220499
-0.219393
-0.217463
-0.214667
-0.210973
-0.206352
-0.200787
-0.194273
-0.186816
-0.178441
-0.16919
-0.159123
-0.148323
-0.136892
-0.124956
-0.11266
-0.100165
-0.0876507
-0.0753041
-0.06332
-0.0518936
-0.041215
-0.0314634
-0.0228026
-0.0153766
-0.00930162
-0.00465945
-0.00156201
-0.000209724
-0.000173911
-0.00114835
-0.00323858
-0.00621157
-0.00992634
-0.0142936
-0.0192264
-0.0246431
-0.0304704
-0.0366427
-0.0431014
-0.0497945
-0.0566762
-0.063706
-0.0708481
-0.0780712
-0.0853476
-0.0926527
-0.0999645
-0.107263
-0.11453
-0.121749
-0.128902
-0.135974
-0.142949
-0.14981
-0.15654
-0.163121
-0.169534
-0.175758
-0.18177
-0.187545
-0.193056
-0.198274
-0.203166
-0.207699
-0.211834
-0.215531
-0.218746
-0.221435
-0.223548
-0.225036
-0.225847
-0.22593
-0.225232
-0.223704
-0.221297
-0.21797
-0.213686
-0.208418
-0.20215
-0.194881
-0.186623
-0.177409
-0.167294
-0.156354
-0.14469
-0.132425
-0.119707
-0.106707
-0.0936127
-0.0806259
-0.0679585
-0.0558254
-0.0444382
-0.0339985
-0.0246927
-0.0166865
-0.0101157
-0.00507879
-0.00170768
-0.000230797
-0.000173394
-0.00114614
-0.00323401
-0.00620504
-0.00991884
-0.0142863
-0.0192205
-0.0246395
-0.0304699
-0.0366455
-0.0431076
-0.0498041
-0.0566887
-0.063721
-0.0708654
-0.0780909
-0.0853702
-0.0926794
-0.0999973
-0.107305
-0.114585
-0.121822
-0.129
-0.136105
-0.143122
-0.150037
-0.156834
-0.163496
-0.170006
-0.176345
-0.182492
-0.188422
-0.194112
-0.199532
-0.204651
-0.209436
-0.21385
-0.217851
-0.221397
-0.22444
-0.226932
-0.228819
-0.230046
-0.230558
-0.230298
-0.229209
-0.227237
-0.22433
-0.220442
-0.215537
-0.209587
-0.20258
-0.194516
-0.185419
-0.175333
-0.164327
-0.152496
-0.139961
-0.126873
-0.113407
-0.0997587
-0.0861461
-0.0727979
-0.0599496
-0.047836
-0.0366835
-0.0267032
-0.0180854
-0.0109884
-0.00553011
-0.0018652
-0.000253801
-0.000172251
-0.00114007
-0.00321891
-0.00617877
-0.0098803
-0.0142348
-0.0191557
-0.0245609
-0.0303766
-0.0365367
-0.0429822
-0.0496604
-0.0565253
-0.0635363
-0.0706581
-0.0778599
-0.0851149
-0.0923998
-0.0996944
-0.10698
-0.114242
-0.121465
-0.128635
-0.135739
-0.142764
-0.149698
-0.156526
-0.163234
-0.169807
-0.176226
-0.182474
-0.188527
-0.194363
-0.199955
-0.205274
-0.210286
-0.214956
-0.219244
-0.223106
-0.226496
-0.229362
-0.231651
-0.233305
-0.234264
-0.234467
-0.233851
-0.232354
-0.229918
-0.226486
-0.222011
-0.216453
-0.209786
-0.202001
-0.193107
-0.183136
-0.172147
-0.160228
-0.147496
-0.134099
-0.120216
-0.106053
-0.0918389
-0.0778209
-0.0642559
-0.0514035
-0.0395168
-0.0288348
-0.0195751
-0.0119216
-0.00601469
-0.00203518
-0.000278865
-0.000170511
-0.00113034
-0.00319383
-0.00613373
-0.00981221
-0.0141412
-0.0190344
-0.0244099
-0.0301938
-0.0363196
-0.0427281
-0.0493666
-0.0561887
-0.0631541
-0.0702274
-0.0773782
-0.0845804
-0.0918112
-0.0990512
-0.106284
-0.113493
-0.120667
-0.127793
-0.13486
-0.141856
-0.148771
-0.155592
-0.162307
-0.168903
-0.175364
-0.181674
-0.187812
-0.193758
-0.199487
-0.204971
-0.21018
-0.215079
-0.219628
-0.223787
-0.227507
-0.230739
-0.233426
-0.23551
-0.236927
-0.237613
-0.237499
-0.236516
-0.234598
-0.231679
-0.2277
-0.222608
-0.216365
-0.208947
-0.200347
-0.190586
-0.179708
-0.167791
-0.154945
-0.141315
-0.127079
-0.112451
-0.0976716
-0.0830047
-0.0687298
-0.0551324
-0.042495
-0.0310869
-0.0211565
-0.0129166
-0.00653366
-0.00221818
-0.000306118
-0.000168221
-0.00111722
-0.00315952
-0.00607132
-0.00971666
-0.0140083
-0.0188603
-0.0241908
-0.029926
-0.0359991
-0.0423506
-0.0489276
-0.0556837
-0.0625785
-0.0695768
-0.0766486
-0.0837682
-0.0909138
-0.0980666
-0.105211
-0.112333
-0.119422
-0.126466
-0.133456
-0.140383
-0.147237
-0.15401
-0.16069
-0.167267
-0.173727
-0.180056
-0.186237
-0.192252
-0.198077
-0.203689
-0.209057
-0.21415
-0.218931
-0.223359
-0.227389
-0.230968
-0.234043
-0.236553
-0.238433
-0.239615
-0.240025
-0.239589
-0.238232
-0.235879
-0.23246
-0.227909
-0.222174
-0.215213
-0.207007
-0.197557
-0.186894
-0.17508
-0.162217
-0.148441
-0.13393
-0.1189
-0.103604
-0.0883203
-0.0733518
-0.0590112
-0.045612
-0.0334573
-0.0228296
-0.0139745
-0.00708798
-0.00241472
-0.000335691
-0.000165436
-0.00110108
-0.00311696
-0.00599335
-0.00959639
-0.0138397
-0.0186379
-0.0239091
-0.0295794
-0.0355819
-0.0418567
-0.0483507
-0.0550174
-0.0618164
-0.0687127
-0.0756766
-0.082683
-0.0897109
-0.0967426
-0.103763
-0.110761
-0.117725
-0.124648
-0.13152
-0.138335
-0.145085
-0.151764
-0.158364
-0.164875
-0.171288
-0.177591
-0.183769
-0.189806
-0.195683
-0.201378
-0.206864
-0.212113
-0.217088
-0.221752
-0.226061
-0.229966
-0.23341
-0.236336
-0.238675
-0.240358
-0.241307
-0.241443
-0.240684
-0.238946
-0.236147
-0.232209
-0.227064
-0.220655
-0.212944
-0.203913
-0.193576
-0.181978
-0.169206
-0.155386
-0.140691
-0.125339
-0.109587
-0.0937321
-0.0780974
-0.0630242
-0.0488593
-0.0359422
-0.0245934
-0.0150955
-0.00767839
-0.00262529
-0.000367714
-0.000162232
-0.00108238
-0.00306741
-0.0059021
-0.00945489
-0.0136403
-0.0183731
-0.0235719
-0.0291622
-0.0350769
-0.0412559
-0.0476457
-0.0541997
-0.0608775
-0.0676443
-0.0744709
-0.0813327
-0.0882095
-0.0950846
-0.101945
-0.108779
-0.115579
-0.122337
-0.129048
-0.135706
-0.142307
-0.148846
-0.155317
-0.161714
-0.16803
-0.174256
-0.180381
-0.186391
-0.192271
-0.198001
-0.203559
-0.208917
-0.214044
-0.218905
-0.223458
-0.227656
-0.231445
-0.234766
-0.237554
-0.239734
-0.24123
-0.241956
-0.241824
-0.240742
-0.238617
-0.23536
-0.230887
-0.225123
-0.218009
-0.209511
-0.199618
-0.188358
-0.175797
-0.162049
-0.147277
-0.131694
-0.115565
-0.0991975
-0.0829363
-0.0671516
-0.052225
-0.0385356
-0.0264458
-0.0162797
-0.0083054
-0.0028503
-0.000402319
-0.000158699
-0.0010617
-0.0030124
-0.00580041
-0.00929646
-0.0134158
-0.0180735
-0.0231879
-0.0286843
-0.0344952
-0.04056
-0.046825
-0.0532433
-0.0597744
-0.0663841
-0.0730434
-0.0797284
-0.0864199
-0.0931022
-0.0997634
-0.106394
-0.112987
-0.119538
-0.126042
-0.132497
-0.1389
-0.14525
-0.151542
-0.157774
-0.163941
-0.170038
-0.176057
-0.181987
-0.187817
-0.19353
-0.199107
-0.204525