/*--------------------------------*- C++ -*----------------------------------*\
  =========                 |
  \\      /  F ield         | OpenFOAM: The Open Source CFD Toolbox
   \\    /   O peration     | Website:  https://openfoam.org
    \\  /    A nd           | Version:  dev
     \\/     M anipulation  |
\*---------------------------------------------------------------------------*/
FoamFile
{
    format      ascii;
    class       volScalarField;
    location    "20.7";
    object      Uy;
}
// * * * * * * * * * * * * * * * * * * * * * * * * * * * * * * * * * * * * * //

dimensions      [0 1 -1 0 0 0 0];

internalField   nonuniform List<scalar> 
5184
(
-1.25377e-05
-2.07672e-05
-1.7178e-05
-8.15454e-06
2.69285e-06
1.3627e-05
2.38444e-05
3.30361e-05
4.10843e-05
4.79946e-05
5.38287e-05
5.8671e-05
6.2614e-05
6.57487e-05
6.81598e-05
6.99227e-05
7.11016e-05
7.17488e-05
7.19051e-05
7.16001e-05
7.08532e-05
6.96749e-05
6.80681e-05
6.60299e-05
6.3553e-05
6.06277e-05
5.72437e-05
5.33912e-05
4.90633e-05
4.42568e-05
3.89744e-05
3.32253e-05
2.70266e-05
2.04043e-05
1.3394e-05
6.04139e-06
-1.59757e-06
-9.4565e-06
-1.7459e-05
-2.55192e-05
-3.35429e-05
-4.14288e-05
-4.90697e-05
-5.63549e-05
-6.31717e-05
-6.94085e-05
-7.49566e-05
-7.97132e-05
-8.35837e-05
-8.64844e-05
-8.83449e-05
-8.91099e-05
-8.87412e-05
-8.72191e-05
-8.45432e-05
-8.07326e-05
-7.58266e-05
-6.98838e-05
-6.29818e-05
-5.52165e-05
-4.67015e-05
-3.75698e-05
-2.7976e-05
-1.81023e-05
-8.17393e-06
1.5141e-06
1.05395e-05
1.8266e-05
2.36833e-05
2.51016e-05
1.98357e-05
6.24504e-06
-4.55925e-05
-6.54327e-05
-4.03581e-05
7.76374e-06
6.57408e-05
0.000125987
0.00018423
0.000238217
0.000286812
0.000329574
0.000366462
0.000397667
0.000423498
0.000444323
0.000460519
0.000472444
0.000480419
0.000484721
0.000485572
0.000483144
0.000477559
0.000468892
0.000457182
0.000442439
0.000424651
0.000403795
0.000379846
0.000352788
0.000322621
0.000289372
0.000253101
0.000213911
0.000171952
0.000127426
8.0593e-05
3.17705e-05
-1.86626e-05
-7.02689e-05
-0.000122554
-0.000174971
-0.000226927
-0.000277791
-0.000326902
-0.000373581
-0.000417147
-0.000456923
-0.000492258
-0.000522539
-0.000547203
-0.000565759
-0.000577792
-0.000582984
-0.000581118
-0.000572092
-0.000555921
-0.000532743
-0.000502822
-0.000466545
-0.000424427
-0.000377107
-0.000325353
-0.000270067
-0.000212309
-0.00015333
-9.4639e-05
-3.81131e-05
1.37931e-05
5.77761e-05
8.92489e-05
0.000101723
8.64321e-05
3.64667e-05
-8.10821e-05
-9.46992e-05
-1.88418e-05
0.000106115
0.000254695
0.000410474
0.000563154
0.000706602
0.000837374
0.000953767
0.00105518
0.00114172
0.0012139
0.00127243
0.00131814
0.00135185
0.00137434
0.00138627
0.0013882
0.00138059
0.00136376
0.00133792
0.00130322
0.00125971
0.00120741
0.0011463
0.00107637
0.000997649
0.000910187
0.000814128
0.000709703
0.000597257
0.000477261
0.000350331
0.000217231
7.88818e-05
-6.36366e-05
-0.000209091
-0.0003561
-0.000503148
-0.000648602
-0.000790731
-0.000927736
-0.00105777
-0.001179
-0.00128959
-0.0013878
-0.00147198
-0.00154064
-0.00159245
-0.00162633
-0.00164142
-0.00163718
-0.00161334
-0.00156996
-0.00150746
-0.00142658
-0.00132841
-0.0012144
-0.00108635
-0.000946437
-0.000797219
-0.000641702
-0.000483413
-0.000326546
-0.000176182
-3.86318e-05
7.80939e-05
0.000163707
0.000205055
0.00018604
9.03067e-05
-9.75262e-05
-7.27824e-05
8.50978e-05
0.000318506
0.000589997
0.000873982
0.00115345
0.00141764
0.00166008
0.00187724
0.00206757
0.00223082
0.00236754
0.00247879
0.00256581
0.00262996
0.0026725
0.00269458
0.0026972
0.00268112
0.00264696
0.00259514
0.00252593
0.00243948
0.00233589
0.00221519
0.00207743
0.00192273
0.0017513
0.00156349
0.00135981
0.00114101
0.000908052
0.000662179
0.0004049
0.000138015
-0.000136391
-0.00041595
-0.00069803
-0.000979759
-0.00125805
-0.00152966
-0.00179121
-0.00203926
-0.00227037
-0.00248116
-0.00266838
-0.00282898
-0.00296019
-0.00305959
-0.00312517
-0.00315537
-0.00314917
-0.00310613
-0.00302639
-0.00291073
-0.00276059
-0.00257806
-0.00236589
-0.00212753
-0.00186712
-0.00158955
-0.00130054
-0.00100674
-0.000715964
-0.00043747
-0.000182394
3.56685e-05
0.000200013
0.000290261
0.000282137
0.000147113
-8.41819e-05
2.12491e-05
0.000295694
0.000668002
0.00109043
0.00152911
0.00196063
0.00236955
0.00274614
0.0030848
0.00338274
0.00363916
0.00385451
0.00403003
0.00416739
0.00426839
0.00433483
0.00436836
0.00437041
0.00434213
0.00428444
0.004198
0.00408327
0.00394054
0.00377001
0.00357184
0.0033462
0.00309339
0.00281383
0.00250819
0.00217742
0.00182279
0.00144595
0.00104893
0.000634231
0.000204755
-0.000236139
-0.000684669
-0.00113665
-0.00158754
-0.00203246
-0.00246632
-0.00288382
-0.00327959
-0.00364825
-0.00398453
-0.00428338
-0.00454006
-0.00475028
-0.00491028
-0.00501692
-0.00506782
-0.00506141
-0.00499701
-0.00487488
-0.00469627
-0.00446344
-0.00417971
-0.00384946
-0.00347814
-0.00307231
-0.0026397
-0.00218929
-0.00173148
-0.00127832
-0.000843817
-0.000444461
-9.97871e-05
0.000166886
0.000327847
0.00035038
0.00019388
-3.73067e-05
0.000197643
0.000626964
0.00117
0.00177087
0.00238876
0.00299466
0.0035688
0.00409835
0.00457556
0.00499636
0.00535926
0.0056645
0.00591346
0.0061081
0.0062507
0.00634353
0.00638872
0.00638814
0.00634336
0.00625562
0.00612583
0.00595467
0.00574262
0.00549003
0.00519722
0.00486458
0.00449262
0.00408211
0.00363414
0.00315021
0.00263225
0.00208276
0.00150476
0.000901909
0.000278447
-0.000360768
-0.00101029
-0.00166412
-0.00231576
-0.0029583
-0.00358447
-0.00418678
-0.00475762
-0.00528941
-0.00577471
-0.0062064
-0.00657781
-0.0068829
-0.00711635
-0.00727378
-0.00735184
-0.0073483
-0.00726222
-0.00709397
-0.00684534
-0.00651955
-0.00612133
-0.0056569
-0.00513402
-0.00456202
-0.00395187
-0.00331626
-0.00266976
-0.00202909
-0.00141341
-0.000844836
-0.000349033
4.40549e-05
0.000299513
0.000376556
0.000224176
4.42814e-05
0.00046139
0.00108681
0.00183388
0.00264081
0.00346143
0.00426215
0.00501954
0.00571803
0.00634793
0.00690395
0.00738393
0.00778787
0.00811721
0.00837421
0.00856155
0.00868194
0.00873799
0.00873201
0.00866594
0.00854137
0.00835948
0.00812121
0.00782722
0.00747808
0.00707431
0.00661657
0.0061057
0.00554288
0.00492972
0.00426838
0.0035616
0.00281286
0.00202634
0.00120702
0.000360678
-0.000506133
-0.00138609
-0.00227115
-0.00315265
-0.00402137
-0.00486764
-0.00568154
-0.00645297
-0.0071719
-0.00782848
-0.00841329
-0.00891751
-0.00933313
-0.00965315
-0.00987174
-0.00998444
-0.00998831
-0.00988206
-0.00966619
-0.00934303
-0.00891685
-0.0083939
-0.00778244
-0.00709277
-0.00633724
-0.00553037
-0.00468887
-0.00383182
-0.00298087
-0.00216061
-0.00139893
-0.000727662
-0.000183253
0.000192521
0.000351576
0.000234577
0.000160573
0.000814348
0.001679
0.00266463
0.00370564
0.00475204
0.00576685
0.00672383
0.0076052
0.0083997
0.00910102
0.00970644
0.0102158
0.0106306
0.0109534
0.0111872
0.0113351
0.0114004
0.0113856
0.011293
0.0111247
0.0108821
0.0105663
0.0101783
0.00971881
0.00918872
0.00858894
0.00792071
0.00718571
0.00638616
0.00552498
0.00460585
0.00363333
0.00261291
0.00155105
0.000455211
-0.000666185
-0.00180376
-0.00294725
-0.0040856
-0.00520711
-0.00629951
-0.0073502
-0.00834641
-0.00927541
-0.0101248
-0.0108825
-0.0115375
-0.0120796
-0.0124999
-0.0127909
-0.012947
-0.0129643
-0.0128413
-0.0125784
-0.0121785
-0.011647
-0.0109918
-0.0102232
-0.0093542
-0.00840045
-0.00738019
-0.00631438
-0.00522683
-0.00414437
-0.00309711
-0.00211881
-0.0012474
-0.000525645
-1.71745e-06
0.000269883
0.000223379
0.000310928
0.00125642
0.00240449
0.00366412
0.00496765
0.00626282
0.00751041
0.00868226
0.00975907
0.0107285
0.0115835
0.012321
0.0129409
0.0134447
0.0138353
0.0141161
0.0142908
0.0143628
0.0143352
0.0142108
0.0139918
0.0136799
0.0132766
0.0127831
0.0122003
0.0115295
0.0107719
0.00992918
0.0090036
0.00799807
0.00691634
0.00576313
0.00454421
0.00326646
0.00193795
0.000567954
-0.000833097
-0.00225362
-0.00368098
-0.00510159
-0.00650105
-0.00786434
-0.00917601
-0.0104204
-0.0115819
-0.0126453
-0.0135959
-0.01442
-0.0151051
-0.0156402
-0.0160162
-0.0162258
-0.0162645
-0.0161299
-0.0158226
-0.015346
-0.0147064
-0.0139135
-0.0129798
-0.0119211
-0.0107564
-0.00950778
-0.00820069
-0.00686382
-0.00552929
-0.00423283
-0.0030141
-0.00191707
-0.000990572
-0.000288717
0.000128377
0.000189935
0.000494443
0.00178637
0.00326239
0.00483195
0.00642683
0.00799379
0.00949256
0.010894
0.0121779
0.0133315
0.0143473
0.0152224
0.0159565
0.0165517
0.0170112
0.0173388
0.0175385
0.0176144
0.0175698
0.017408
0.0171314
0.0167421
0.0162418
0.0156319
0.0149137
0.0140888
0.0131587
0.0121257
0.0109926
0.00976304
0.00844172
0.00703443
0.00554822
0.00399147
0.00237395
0.00070684
-0.00099731
-0.0027246
-0.0044599
-0.00618694
-0.00788851
-0.00954667
-0.011143
-0.0126586
-0.0140751
-0.015374
-0.0165379
-0.0175502
-0.0183959
-0.0190617
-0.0195364
-0.0198115
-0.019881
-0.019742
-0.0193949
-0.0188434
-0.0180951
-0.0171611
-0.0160561
-0.0147989
-0.0134118
-0.011921
-0.0103565
-0.00875192
-0.00714482
-0.00557663
-0.00409292
-0.00274361
-0.00158341
-0.000672013
-7.45549e-05
0.000134163
0.000710083
0.00240227
0.0042506
0.00616614
0.00808136
0.00994321
0.0117114
0.0133567
0.0148588
0.016205
0.0173881
0.0184051
0.0192566
0.0199447
0.0204733
0.0208467
0.0210694
0.0211459
0.02108
0.0208752
0.0205344
0.0200599
0.0194536
0.0187173
0.0178526
0.0168612
0.0157453
0.0145075
0.0131514
0.0116813
0.0101029
0.0084232
0.00665047
0.0047947
0.00286739
0.000881718
-0.00114758
-0.0032042
-0.00527041
-0.00732716
-0.00935433
-0.0113309
-0.0132352
-0.0150454
-0.0167395
-0.0182961
-0.0196945
-0.0209152
-0.0219404
-0.0227543
-0.0233436
-0.0236978
-0.0238095
-0.0236752
-0.0232948
-0.0226724
-0.0218164
-0.0207394
-0.0194585
-0.0179952
-0.0163753
-0.0146292
-0.0127914
-0.0109007
-0.00900016
-0.00713694
-0.00536255
-0.00373286
-0.00230834
-0.00115404
-0.000339746
5.6235e-05
0.000956769
0.00310185
0.00536626
0.00766362
0.00992809
0.0121079
0.0141636
0.0160668
0.0177979
0.0193447
0.0207008
0.0218638
0.0228348
0.0236169
0.0242144
0.0246323
0.0248756
0.0249493
0.0248578
0.0246047
0.0241934
0.0236264
0.022906
0.0220341
0.0210126
0.0198437
0.0185298
0.0170742
0.015481
0.0137554
0.0119041
0.00993517
0.00785828
0.00568497
0.00342857
0.00110424
-0.00127103
-0.00367848
-0.00609771
-0.00850683
-0.0108827
-0.013201
-0.0154369
-0.0175652
-0.0195604
-0.0213977
-0.023053
-0.0245038
-0.025729
-0.0267103
-0.0274316
-0.0278806
-0.0280482
-0.0279297
-0.0275246
-0.026837
-0.0258761
-0.0246559
-0.0231957
-0.0215197
-0.0196575
-0.0176432
-0.0155163
-0.0133206
-0.0111049
-0.00892226
-0.0068301
-0.00489031
-0.0031691
-0.00173681
-0.000667759
-4.36339e-05
0.00123341
0.00388254
0.00660593
0.00932046
0.0119629
0.0144835
0.0168448
0.0190198
0.0209903
0.0227455
0.0242799
0.0255925
0.0266851
0.0275618
0.0282277
0.0286885
0.02895
0.0290177
0.0288963
0.02859
0.0281024
0.0274364
0.0265944
0.0255786
0.0243913
0.0230349
0.0215123
0.0198272
0.0179844
0.01599
0.0138514
0.011578
0.00918086
0.00667301
0.00406957
0.00138775
-0.00135322
-0.00413209
-0.00692575
-0.00970941
-0.0124568
-0.0151403
-0.0177318
-0.0202023
-0.0225229
-0.0246651
-0.0266014
-0.0283055
-0.0297533
-0.030923
-0.0317962
-0.0323579
-0.0325972
-0.032508
-0.0320888
-0.0313438
-0.0302825
-0.0289204
-0.0272787
-0.0253844
-0.0232704
-0.0209753
-0.0185431
-0.0160231
-0.0134696
-0.0109417
-0.00850305
-0.00622162
-0.00416949
-0.00242239
-0.00105924
-0.000165309
0.00153892
0.00474164
0.0079658
0.0111321
0.0141807
0.0170647
0.0197494
0.0222099
0.0244303
0.0264013
0.0281194
0.0295848
0.0308008
0.0317726
0.0325063
0.0330087
0.0332861
0.0333446
0.0331895
0.0328256
0.0322566
0.0314856
0.0305156
0.0293488
0.0279877
0.0264351
0.0246944
0.0227696
0.0206663
0.0183911
0.0159526
0.0133612
0.0106291
0.00777116
0.0048041
0.00174714
-0.00137822
-0.00454827
-0.00773718
-0.0109172
-0.0140589
-0.0171313
-0.0201027
-0.0229405
-0.025612
-0.0280848
-0.0303275
-0.0323102
-0.034005
-0.0353869
-0.036434
-0.0371288
-0.037458
-0.0374137
-0.0369935
-0.0362008
-0.0350457
-0.0335444
-0.0317202
-0.0296027
-0.0272283
-0.0246396
-0.0218856
-0.0190208
-0.0161056
-0.0132052
-0.0103896
-0.00773313
-0.00531388
-0.00321327
-0.00151517
-0.000308829
0.00187218
0.00567633
0.00944175
0.0130936
0.0165759
0.0198456
0.0228711
0.0256307
0.028111
0.0303054
0.0322122
0.0338338
0.035175
0.0362425
0.0370436
0.0375861
0.0378773
0.0379239
0.037732
0.0373065
0.0366516
0.0357709
0.0346672
0.0333433
0.0318019
0.0300459
0.0280791
0.025906
0.0235327
0.0209666
0.018217
0.0152954
0.0122155
0.00899325
0.0056473
0.00219875
-0.0013287
-0.0049089
-0.00851332
-0.0121112
-0.01567
-0.0191553
-0.0225317
-0.0257627
-0.0288117
-0.0316423
-0.0342189
-0.0365075
-0.0384761
-0.0400961
-0.0413419
-0.0421928
-0.0426329
-0.0426519
-0.042246
-0.0414177
-0.040177
-0.0385411
-0.0365347
-0.03419
-0.0315467
-0.0286517
-0.0255588
-0.0223281
-0.0190261
-0.0157242
-0.0124993
-0.00943214
-0.00660746
-0.00411266
-0.00203704
-0.000474458
0.00223207
0.00668364
0.0110294
0.0151994
0.0191423
0.0228193
0.0262028
0.0292747
0.0320252
0.0344502
0.036551
0.038332
0.0398003
0.0409641
0.0418324
0.042414
0.0427173
0.0427499
0.0425183
0.0420281
0.0412838
0.0402893
0.0390476
0.0375618
0.0358346
0.0338694
0.03167
0.0292416
0.0265905
0.0237249
0.0206548
0.0173927
0.0139534
0.0103542
0.00661551
0.00276014
-0.00118608
-0.00519459
-0.00923421
-0.0132713
-0.0172699
-0.0211924
-0.0249994
-0.0286506
-0.0321051
-0.0353223
-0.0382621
-0.040886
-0.0431579
-0.0450445
-0.0465166
-0.0475496
-0.0481243
-0.0482278
-0.0478542
-0.0470049
-0.0456892
-0.0439249
-0.041738
-0.0391631
-0.0362431
-0.033029
-0.0295797
-0.025961
-0.0222454
-0.0185115
-0.0148428
-0.0113273
-0.00805657
-0.00512471
-0.002627
-0.000662735
0.00261745
0.00776047
0.012724
0.0174436
0.021873
0.0259783
0.0297366
0.033134
0.0361644
0.0388275
0.0411273
0.0430713
0.0446687
0.0459297
0.0468652
0.0474853
0.0477995
0.0478163
0.0475431
0.0469858
0.0461496
0.0450383
0.0436555
0.0420041
0.0400873
0.0379084
0.0354717
0.0327824
0.0298475
0.0266754
0.0232771
0.0196658
0.0158572
0.0118701
0.00772606
0.00344989
-0.000930654
-0.00538475
-0.00987863
-0.0143757
-0.018837
-0.0232212
-0.0274851
-0.0315843
-0.0354737
-0.0391079
-0.0424422
-0.0454334
-0.0480404
-0.0502252
-0.051954
-0.0531979
-0.0539342
-0.0541465
-0.0538262
-0.0529731
-0.0515955
-0.0497112
-0.0473472
-0.0445402
-0.0413363
-0.0377905
-0.0339668
-0.029937
-0.02578
-0.0215815
-0.0174325
-0.0134286
-0.00966883
-0.00625458
-0.00328793
-0.000874489
0.0030271
0.00890356
0.0145207
0.01982
0.0247608
0.0293147
0.0334639
0.0371995
0.0405196
0.043428
0.0459322
0.0480427
0.0497714
0.051131
0.052134
0.0527924
0.0531169
0.053117
0.0528009
0.0521751
0.0512452
0.0500153
0.0484893
0.0466701
0.0445611
0.0421657
0.0394884
0.0365346
0.0333114
0.0298278
0.0260953
0.0221277
0.0179417
0.0135572
0.00899696
0.00428743
-0.000541817
-0.00545779
-0.0104242
-0.0154018
-0.0203482
-0.0252187
-0.0299663
-0.0345424
-0.0388972
-0.0429806
-0.0467428
-0.0501353
-0.0531119
-0.0556292
-0.0576484
-0.0591357
-0.0600637
-0.0604124
-0.0601698
-0.0593332
-0.0579094
-0.0559158
-0.0533801
-0.0503406
-0.0468465
-0.0429568
-0.0387406
-0.0342757
-0.029648
-0.0249507
-0.0202827
-0.0157478
-0.0114533
-0.00750864
-0.0040235
-0.00111087
0.00345977
0.0101095
0.0164143
0.022322
0.0277979
0.0328199
0.0373757
0.0414617
0.0450811
0.0482419
0.0509557
0.0532364
0.055099
0.0565587
0.0576302
0.0583272
0.0586619
0.0586451
0.0582856
0.0575907
0.0565664
0.0552173
0.0535472
0.0515594
0.0492572
0.0466441
0.0437244
0.040504
0.03699
0.0331917
0.0291208
0.0247918
0.0202221
0.0154323
0.0104466
0.00529266
1.70926e-06
-0.00539125
-0.0108476
-0.0163254
-0.0217792
-0.0271607
-0.0324192
-0.0375015
-0.0423534
-0.0469195
-0.0511449
-0.0549753
-0.0583586
-0.0612459
-0.0635923
-0.0653587
-0.0665124
-0.0670287
-0.0668916
-0.0660952
-0.0646443
-0.062555
-0.0598551
-0.0565846
-0.0527952
-0.0485499
-0.0439229
-0.0389984
-0.0338696
-0.0286374
-0.0234095
-0.0182985
-0.0134207
-0.00889448
-0.00483822
-0.00137334
0.00391413
0.0113747
0.0183992
0.0249423
0.030976
0.0364845
0.0414618
0.0459103
0.0498382
0.0532586
0.0561873
0.0586421
0.0606413
0.062203
0.0633442
0.0640807
0.0644263
0.0643929
0.0639904
0.0632268
0.0621086
0.0606407
0.058827
0.056671
0.0541759
0.0513453
0.0481835
0.0446961
0.0408905
0.036776
0.0323646
0.0276709
0.022713
0.0175122
0.0120935
0.00648571
0.000721586
-0.00516211
-0.0111247
-0.0171215
-0.0231042
-0.0290212
-0.0348176
-0.0404362
-0.0458177
-0.0509016
-0.0556271
-0.059934
-0.063764
-0.0670617
-0.0697757
-0.0718606
-0.0732777
-0.0739966
-0.0739968
-0.0732682
-0.0718126
-0.0696444
-0.0667909
-0.063293
-0.0592047
-0.0545931
-0.0495375
-0.0441284
-0.0384667
-0.0326619
-0.0268308
-0.0210958
-0.0155831
-0.010421
-0.00573749
-0.00166372
0.00438879
0.0126952
0.0204695
0.0276734
0.0342861
0.0402987
0.0457119
0.0505341
0.0547796
0.0584665
0.0616155
0.0642484
0.0663872
0.0680531
0.0692658
0.0700432
0.0704008
0.0703519
0.0699076
0.0690766
0.0678659
0.0662807
0.0643252
0.0620028
0.0593168
0.0562705
0.0528682
0.0491154
0.0450192
0.040589
0.0358367
0.0307772
0.0254287
0.019813
0.0139557
0.00788652
0.00163951
-0.00474707
-0.0112306
-0.0177641
-0.0242964
-0.0307727
-0.0371341
-0.0433191
-0.0492633
-0.054901
-0.0601652
-0.0649895
-0.0693085
-0.0730599
-0.0761852
-0.0786317
-0.0803539
-0.081315
-0.0814884
-0.0808594
-0.0794256
-0.0771989
-0.0742055
-0.0704866
-0.0660982
-0.0611108
-0.0556091
-0.0496903
-0.0434632
-0.0370464
-0.0305667
-0.024157
-0.0179544
-0.0120983
-0.00672756
-0.00198413
0.00488225
0.0140671
0.0226191
0.0305075
0.0377191
0.0442521
0.0501145
0.0553214
0.059893
0.0638533
0.0672278
0.070043
0.0723247
0.0740974
0.0753837
0.0762037
0.0765751
0.0765127
0.0760285
0.0751322
0.0738313
0.0721315
0.0700371
0.0675515
0.0646778
0.0614193
0.0577799
0.0537649
0.0493811
0.0446376
0.0395462
0.0341217
0.0283822
0.0223497
0.0160504
0.00951445
0.00277684
-0.00412289
-0.0111404
-0.0182268
-0.0253282
-0.0323864
-0.0393392
-0.0461205
-0.052661
-0.0588891
-0.0647319
-0.070116
-0.0749688
-0.0792201
-0.0828037
-0.0856588
-0.0877321
-0.0889791
-0.0893666
-0.0888734
-0.0874925
-0.0852322
-0.0821164
-0.0781861
-0.0734987
-0.0681281
-0.062164
-0.0557105
-0.0488847
-0.0418151
-0.034639
-0.0275009
-0.0205502
-0.013938
-0.00781561
-0.00233707
0.00539294
0.0154861
0.0248414
0.0334362
0.0412649
0.0483337
0.0546579
0.0602596
0.0651657
0.0694058
0.0730112
0.0760128
0.0784406
0.0803229
0.0816853
0.0825504
0.0829379
0.0828643
0.0823429
0.0813843
0.0799966
0.0781858
0.0759565
0.0733121
0.0702554
0.0667896
0.0629181
0.0586458
0.0539792
0.0489268
0.0435001
0.0377135
0.0315849
0.0251363
0.0183937
0.0113878
0.00415413
-0.00326683
-0.0108295
-0.0184829
-0.026171
-0.0338327
-0.0414021
-0.0488089
-0.0559788
-0.0628345
-0.0692965
-0.0752844
-0.0807177
-0.0855179
-0.0896101
-0.0929246
-0.0953991
-0.0969806
-0.0976276
-0.0973118
-0.0960199
-0.0937554
-0.0905393
-0.0864112
-0.0814292
-0.0756704
-0.0692291
-0.0622165
-0.0547585
-0.0469938
-0.0390714
-0.0311485
-0.0233874
-0.015953
-0.0090097
-0.00272535
0.00591919
0.0169476
0.0271295
0.0364504
0.0449131
0.0525318
0.0593295
0.0653356
0.0705838
0.0751102
0.0789514
0.0821435
0.0847211
0.086716
0.0881572
0.08907
0.0894764
0.0893946
0.0888392
0.087822
0.0863516
0.0844346
0.0820755
0.0792778
0.0760441
0.0723772
0.0682802
0.0637573
0.0588144
0.0534595
0.0477034
0.0415598
0.0350463
0.0281844
0.0209998
0.0135233
0.00579066
-0.00215714
-0.0102734
-0.0185058
-0.0267963
-0.035081
-0.0432907
-0.0513509
-0.0591826
-0.0667027
-0.073825
-0.0804615
-0.0865237
-0.0919241
-0.0965782
-0.100407
-0.103337
-0.105306
-0.106264
-0.106172
-0.105011
-0.102777
-0.0994879
-0.0951801
-0.089912
-0.0837628
-0.0768317
-0.0692368
-0.061113
-0.0526101
-0.0438896
-0.0351222
-0.026485
-0.0181574
-0.0103188
-0.00315215
0.00645924
0.018447
0.0294762
0.0395411
0.048653
0.0568342
0.064116
0.0705353
0.076133
0.0809514
0.0850334
0.0884201
0.0911509
0.0932615
0.0947845
0.095748
0.0961764
0.0960898
0.0955043
0.0944327
0.0928845
0.0908666
0.0883838
0.0854395
0.082036
0.0781757
0.0738612
0.0690959
0.0638851
0.058236
0.0521583
0.0456652
0.0387733
0.0315034
0.0238808
0.0159357
0.00770387
-0.000773532
-0.00944923
-0.0182698
-0.0271755
-0.0361003
-0.0449718
-0.0537118
-0.0622363
-0.0704566
-0.0782798
-0.0856103
-0.0923509
-0.0984046
-0.103677
-0.108077
-0.111522
-0.113937
-0.115261
-0.115447
-0.114464
-0.112302
-0.108973
-0.104509
-0.0989677
-0.0924301
-0.0849994
-0.0768006
-0.067978
-0.058693
-0.0491206
-0.0394464
-0.0298631
-0.0205667
-0.0117528
-0.00362098
0.00701126
0.0199792
0.0318739
0.0426985
0.052473
0.0612282
0.0690037
0.0758442
0.0817979
0.086914
0.0912412
0.0948265
0.0977138
0.0999433
0.101551
0.102568
0.103022
0.102935
0.102323
0.101202
0.0995815
0.0974688
0.0948691
0.0917857
0.0882206
0.0841758
0.0796531
0.0746553
0.0691866
0.0632533
0.0568641
0.050031
0.0427697
0.0350998
0.0270457
0.0186371
0.00990886
0.000902186
-0.00833555
-0.0177503
-0.0272811
-0.03686
-0.0464121
-0.0558554
-0.0651016
-0.0740563
-0.0826202
-0.0906897
-0.0981587
-0.10492
-0.110869
-0.115902
-0.119924
-0.122849
-0.124602
-0.125123
-0.124373
-0.122331
-0.119
-0.11441
-0.108615
-0.101695
-0.0937589
-0.0849371
-0.0753839
-0.0652727
-0.0547932
-0.0441468
-0.0335437
-0.0231977
-0.0133224
-0.00413569
0.00757332
0.0215392
0.0343148
0.0459127
0.0563613
0.0657006
0.0739782
0.081247
0.0875627
0.0929814
0.0975581
0.101346
0.104393
0.106744
0.10844
0.109514
0.109997
0.109912
0.109279
0.108113
0.106426
0.104225
0.101516
0.0983022
0.0945847
0.0903652
0.0856449
0.0804257
0.0747107
0.0685051
0.0618164
0.0546552
0.0470357
0.0389764
0.0305004
0.0216361
0.0124177
0.00288555
-0.00691328
-0.0169245
-0.0270866
-0.0373301
-0.0475779
-0.057745
-0.0677389
-0.0774601
-0.0868025
-0.0956548
-0.103902
-0.111427
-0.118111
-0.123841
-0.128508
-0.132009
-0.134258
-0.135181
-0.134725
-0.132857
-0.129573
-0.124893
-0.118869
-0.11158
-0.103136
-0.0936752
-0.0833613
-0.0723803
-0.0609371
-0.0492506
-0.0375499
-0.0260683
-0.0150392
-0.00470049
0.00814344
0.0231215
0.0367909
0.0491732
0.0603059
0.0702376
0.0790247
0.086728
0.0934108
0.0991364
0.103966
0.107959
0.111169
0.113645
0.115431
0.116566
0.11708
0.117002
0.116353
0.115148
0.1134
0.111119
0.108308
0.104972
0.101112
0.0967284
0.0918221
0.0863939
0.0804458
0.0739814
0.067007
0.0595315
0.0515677
0.0431322
0.0342467
0.0249381
0.015239
0.00518878
-0.00516628
-0.0157724
-0.0265677
-0.0374821
-0.0484367
-0.059344
-0.070108
-0.0806241
-0.0907802
-0.100457
-0.109531
-0.117874
-0.125355
-0.131848
-0.137228
-0.14138
-0.144198
-0.145594
-0.1455
-0.14387
-0.140687
-0.135962
-0.129741
-0.122101
-0.113154
-0.103043
-0.0919409
-0.0800473
-0.0675832
-0.0547865
-0.0419064
-0.0291978
-0.0169157
-0.00531991
0.00871958
0.0247209
0.039294
0.0524696
0.0642943
0.0748254
0.0841279
0.0922708
0.0993251
0.105361
0.110448
0.114648
0.118023
0.120627
0.122506
0.123703
0.124253
0.124186
0.123523
0.122285
0.120483
0.118127
0.115223
0.111775
0.107782
0.103247
0.0981668
0.0925431
0.086376
0.079668
0.0724234
0.0646497
0.0563575
0.0475618
0.0382822
0.0285436
0.0183771
0.0078202
-0.00308206
-0.0142768
-0.0257027
-0.0372894
-0.0489572
-0.0606165
-0.0721682
-0.0835036
-0.0945048
-0.105045
-0.114992
-0.124206
-0.132546
-0.139869
-0.146035
-0.150912
-0.154378
-0.156326
-0.15667
-0.155349
-0.15233
-0.147615
-0.141238
-0.133274
-0.123834
-0.113066
-0.101152
-0.0883054
-0.0747632
-0.0607838
-0.0466388
-0.0326064
-0.0189652
-0.00599884
0.00929968
0.0263317
0.0418155
0.0557911
0.0683138
0.0794497
0.0892723
0.0978588
0.105288
0.111638
0.116983
0.121393
0.124936
0.127668
0.129642
0.130904
0.131493
0.131439
0.130768
0.129501
0.127651
0.125228
0.122239
0.118687
0.114574
0.109897
0.104657
0.0988522
0.0924816
0.0855462
0.0780488
0.0699946
0.0613925
0.052255
0.0425996
0.0324489
0.0218317
0.0107836
-0.000652354
-0.0124248
-0.0244736
-0.0367288
-0.0491104
-0.0615279
-0.0738798
-0.0860536
-0.0979265
-0.109365
-0.120228
-0.130365
-0.139622
-0.147842
-0.154868
-0.16055
-0.164747
-0.167332
-0.168198
-0.167266
-0.164485
-0.159841
-0.15336
-0.145108
-0.135194
-0.123769
-0.111024
-0.0971856
-0.0825086
-0.0672729
-0.051774
-0.0363155
-0.0212018
-0.00674251
0.00988166
0.0279485
0.0443473
0.0591271
0.0723518
0.0840962
0.0944421
0.103475
0.111281
0.117946
0.123552
0.128174
0.131884
0.134746
0.136817
0.138146
0.138775
0.138738
0.138062
0.136771
0.134878
0.132395
0.129329
0.125684
0.121459
0.116654
0.111267
0.105296
0.0987383
0.0915931
0.0838614
0.0755464
0.0666547
0.0571963
0.0471863
0.0366446
0.0255974
0.0140777
0.00212615
-0.0102081
-0.0228665
-0.0357805
-0.0488708
-0.0620464
-0.0752044
-0.0882297
-0.100995
-0.113361
-0.125178
-0.136286
-0.146517
-0.1557
-0.163661
-0.170231
-0.175245
-0.178557
-0.180037
-0.179582
-0.177122
-0.172625
-0.1661
-0.157606
-0.147246
-0.135172
-0.121583
-0.106718
-0.0908513
-0.0742846
-0.0573395
-0.0403473
-0.0236403
-0.00755647
0.0104634
0.0295657
0.046881
0.0624668
0.0763956
0.0887505
0.0996216
0.109102
0.117287
0.124268
0.130134
0.134968
0.138847
0.141839
0.144007
0.145403
0.146074
0.146055
0.145378
0.144066
0.142136
0.1396
0.136464
0.132734
0.128409
0.123488
0.117968
0.111846
0.105118
0.0977811
0.0898349
0.0812802
0.0721211
0.0623651
0.0520244
0.0411159
0.029663
0.0176956
0.00525131
-0.00762338
-0.0208725
-0.0344296
-0.0482166
-0.0621433
-0.0761063
-0.0899889
-0.10366
-0.116976
-0.12978
-0.141901
-0.15316
-0.16337
-0.17234
-0.179879
-0.185802
-0.189937
-0.192128
-0.192249
-0.190203
-0.185937
-0.179443
-0.170763
-0.159995
-0.14729
-0.132852
-0.116932
-0.0998222
-0.0818499
-0.0633637
-0.044725
-0.0262964
-0.00844661
0.011043
0.0311781
0.0494085
0.0657999
0.0804328
0.0933985
0.104795
0.114724
0.123287
0.130584
0.13671
0.141755
0.145801
0.148923
0.151187
0.152651
0.153363
0.153364
0.152687
0.151358
0.149394
0.14681
0.143612
0.139806
0.135391
0.130365
0.124726
0.118468
0.111587
0.104078
0.0959381
0.0871661
0.0777636
0.0677353
0.0570903
0.0458424
0.0340116
0.0216244
0.008715
-0.0046736
-0.0184886
-0.0326663
-0.0471312
-0.0617945
-0.0765538
-0.0912915
-0.105875
-0.120156
-0.13397
-0.147141
-0.159475
-0.170772
-0.180822
-0.189414
-0.196338
-0.201395
-0.204404
-0.205205
-0.203678
-0.199741
-0.193362
-0.184568
-0.173443
-0.160135
-0.14485
-0.127852
-0.109451
-0.0899994
-0.0698752
-0.0494722
-0.0291863
-0.00941914
0.0116185
0.0327805
0.0519219
0.0691162
0.0844514
0.0980265
0.109947
0.120323
0.129263
0.136874
0.143258
0.148511
0.152722
0.155972
0.15833
0.15986
0.160613
0.160635
0.159959
0.158614
0.15662
0.153992
0.150738
0.146863
0.142368
0.13725
0.131504
0.125126
0.118109
0.110447
0.102135
0.0931693
0.0835487
0.0732752
0.0623547
0.0507976
0.0386202
0.0258451
0.0125027
-0.0013679
-0.0157179
-0.0304873
-0.0456038
-0.0609815
-0.0765195
-0.0921014
-0.107593
-0.122845
-0.137687
-0.151934
-0.165385
-0.177822
-0.18902
-0.198745
-0.206763
-0.212846
-0.216781
-0.218379
-0.217484
-0.213984
-0.207821
-0.198997
-0.18758
-0.173709
-0.157592
-0.139501
-0.119766
-0.0987632
-0.0769028
-0.0546133
-0.0323267
-0.0104806
0.012188
0.0343681
0.0544141
0.0724064
0.0884401
0.102621
0.115064
0.125883
0.135197
0.143118
0.149756
0.155215
0.159588
0.162961
0.165411
0.167003
0.167795
0.167835
0.167159
0.1658
0.163778
0.161109
0.157804
0.153868
0.149301
0.144101
0.138262
0.131779
0.124644
0.116848
0.108386
0.0992501
0.0894379
0.0789479
0.0677827
0.055949
0.0434593
0.0303321
0.0165934
0.00227777
-0.0125705
-0.0278959
-0.0436304
-0.0596918
-0.0759825
-0.092388
-0.108776
-0.124993
-0.140869
-0.156212
-0.170809
-0.184434
-0.19684
-0.207775
-0.216978
-0.224191
-0.229168
-0.231684
-0.231546
-0.228606
-0.222771
-0.214016
-0.202387
-0.188009
-0.171086
-0.151898
-0.130792
-0.10817
-0.0844747
-0.0601728
-0.035735
-0.0116377
0.0127499
0.0359366
0.0568782
0.0756616
0.0923882
0.107171
0.12013
0.131388
0.141071
0.149298
0.156186
0.161844
0.166373
0.169864
0.1724
0.174051
0.174878
0.174933
0.174256
0.17288
0.17083
0.168124
0.164772
0.16078
0.156149
0.150876
0.144956
0.138383
0.131145
0.123236
0.114645
0.105365
0.0953882
0.0847116
0.073334
0.0612587
0.0484938
0.0350536
0.0209593
0.0062405
-0.00906365
-0.0249028
-0.0412142
-0.0579204
-0.0749284
-0.0921272
-0.109386
-0.126555
-0.14346
-0.159905
-0.175671
-0.190518
-0.204187
-0.216402
-0.226877
-0.235323
-0.241459
-0.24502
-0.245773
-0.243526
-0.238149
-0.229579
-0.217834
-0.20302
-0.185333
-0.165056
-0.142551
-0.118246
-0.092619
-0.0661755
-0.039429
-0.0128977
0.0133027
0.037482
0.0593085
0.0788743
0.0962863
0.111664
0.125133
0.136824
0.146869
0.155395
0.162525
0.168375
0.173053
0.176656
0.17927
0.180973
0.181829
0.181894
0.181212
0.179818
0.177739
0.174995
0.171598
0.167555
0.162866
0.15753
0.151541
0.14489
0.137567
0.129563
0.120866
0.111465
0.101352
0.0905194
0.0789633
0.0666831
0.0536826
0.0399715
0.025566
0.0104904
-0.00522185
-0.0215263
-0.0383662
-0.0556703
-0.0733509
-0.0913025
-0.109399
-0.127491
-0.145407
-0.162949
-0.179892
-0.195988
-0.210961
-0.224518
-0.236346
-0.246126
-0.253539
-0.258277
-0.260062
-0.258655
-0.253878
-0.245625
-0.233879
-0.218719
-0.200326
-0.178982
-0.155061
-0.129017
-0.101362
-0.0726459
-0.0434265
-0.0142678
0.0138453
0.0390014
0.0617001
0.0820378
0.100126
0.11609
0.130061
0.142177
0.152576
0.161391
0.168754
0.174787
0.179604
0.183309
0.185993
0.187739
0.188616
0.188684
0.187991
0.186574
0.184464
0.181681
0.17824
0.174148
0.169407
0.164015
0.157966
0.15125
0.143858
0.135778
0.126995
0.117499
0.107278
0.0963208
0.0846209
0.0721738
0.0589791
0.0450417
0.0303727
0.0149907
-0.00107706
-0.0177926
-0.0351059
-0.0529527
-0.0712525
-0.089906
-0.108793
-0.12777
-0.146666
-0.165286
-0.183401
-0.200756
-0.217065
-0.232014
-0.245269
-0.256477
-0.265281
-0.271331
-0.274295
-0.273884
-0.269864
-0.262078
-0.250465
-0.235069
-0.216047
-0.193674
-0.168334
-0.140503
-0.11073
-0.0796081
-0.0477459
-0.0157556
0.0143767
0.0404923
0.0640494
0.0851473
0.103902
0.120441
0.134905
0.147435
0.158176
0.16727
0.174854
0.181058
0.186002
0.189796
0.192539
0.194317
0.195206
0.195267
0.194555
0.193109
0.190963
0.188139
0.184653
0.180514
0.175724
0.170282
0.164181
0.157413
0.149966
0.141827
0.132981
0.123413
0.113111
0.102061
0.090253
0.077678
0.064332
0.050215
0.0353328
0.0196981
0.00333167
-0.0137355
-0.0314609
-0.0497881
-0.0686447