/*--------------------------------*- C++ -*----------------------------------*\
  =========                 |
  \\      /  F ield         | OpenFOAM: The Open Source CFD Toolbox
   \\    /   O peration     | Website:  https://openfoam.org
    \\  /    A nd           | Version:  dev
     \\/     M anipulation  |
\*---------------------------------------------------------------------------*/
FoamFile
{
    format      ascii;
    class       volScalarField;
    location    "34.65";
    object      p;
}
// * * * * * * * * * * * * * * * * * * * * * * * * * * * * * * * * * * * * * //

dimensions      [0 2 -2 0 0 0 0];

internalField   nonuniform List<scalar> 
5184
(
1.40171e-06
-1.01998e-05
-9.60983e-05
-0.000248998
-0.000448423
-0.000677102
-0.000920802
-0.00116755
-0.00140822
-0.00163565
-0.00184443
-0.00203053
-0.00219101
-0.00232379
-0.00242737
-0.00250076
-0.00254328
-0.00255449
-0.00253412
-0.002482
-0.00239805
-0.00228224
-0.00213462
-0.00195534
-0.00174464
-0.00150288
-0.00123061
-0.000928582
-0.000597789
-0.000239501
0.000144698
0.00055288
0.000982753
0.00143164
0.00189649
0.00237385
0.0028599
0.00335048
0.00384111
0.00432704
0.00480334
0.00526493
0.00570668
0.00612352
0.00651048
0.00686286
0.00717628
0.00744684
0.00767114
0.00784646
0.00797078
0.00804291
0.00806249
0.00803008
0.0079472
0.00781627
0.0076407
0.0074248
0.00717378
0.00689371
0.00659144
0.00627459
0.00595147
0.00563104
0.00532285
0.00503699
0.00478396
0.00457439
0.00441824
0.00432396
0.00429703
0.00432432
1.48809e-05
2.39619e-06
-7.2211e-05
-0.000199989
-0.000365256
-0.000555538
-0.000759908
-0.000968765
-0.00117419
-0.00136977
-0.00155049
-0.00171242
-0.00185259
-0.00196878
-0.00205934
-0.00212307
-0.00215912
-0.00216687
-0.0021459
-0.00209593
-0.00201678
-0.00190836
-0.00177067
-0.00160384
-0.00140807
-0.00118373
-0.000931365
-0.000651691
-0.000345669
-1.45203e-05
0.000340251
0.000716825
0.00111305
0.00152645
0.00195416
0.00239301
0.00283949
0.00328976
0.00373974
0.0041851
0.00462134
0.00504385
0.00544801
0.00582921
0.006183
0.00650517
0.0067918
0.00703941
0.00724502
0.00740625
0.00752136
0.00758938
0.0076101
0.00758414
0.00751299
0.00739896
0.00724525
0.00705586
0.00683559
0.00659001
0.00632535
0.0060485
0.0057669
0.00548847
0.00522152
0.00497463
0.00475647
0.00457542
0.00443877
0.00435246
0.0043239
0.00435151
0.000101548
7.68265e-05
1.48215e-06
-0.000116067
-0.000263786
-0.000432038
-0.000612115
-0.000796185
-0.000977549
-0.00115065
-0.00131097
-0.00145494
-0.00157972
-0.00168317
-0.00176363
-0.00181985
-0.00185091
-0.00185612
-0.00183498
-0.00178714
-0.00171234
-0.00161045
-0.00148143
-0.00132534
-0.00114237
-0.000932847
-0.000697259
-0.000436288
-0.00015083
0.000157971
0.000488703
0.000839664
0.00120884
0.00159391
0.00199222
0.0024008
0.00281638
0.0032354
0.00365406
0.00406834
0.00447406
0.00486697
0.00524276
0.00559719
0.00592616
0.00622576
0.00649242
0.00672293
0.00691457
0.00706519
0.00717325
0.0072379
0.00725902
0.00723727
0.00717408
0.00707168
0.0069331
0.00676209
0.00656316
0.00634146
0.00610275
0.00585334
0.00559998
0.0053498
0.00511017
0.00488853
0.00469239
0.00452878
0.00440374
0.0043225
0.00429472
0.00432536
0.000256594
0.000205191
0.000117387
-1.56764e-06
-0.000144008
-0.000302155
-0.000468885
-0.00063783
-0.000803449
-0.000961056
-0.00110678
-0.00123747
-0.00135064
-0.00144432
-0.00151697
-0.00156742
-0.00159475
-0.00159828
-0.00157749
-0.00153198
-0.00146146
-0.00136575
-0.00124476
-0.00109851
-0.000927118
-0.00073086
-0.000510157
-0.000265614
1.95464e-06
0.000291503
0.000601728
0.000931051
0.0012776
0.00163921
0.00201339
0.00239737
0.00278807
0.00318215
0.00357602
0.00396591
0.00434788
0.00471789
0.00507191
0.00540591
0.00571601
0.00599855
0.00625012
0.00646773
0.00664881
0.00679134
0.00689389
0.00695567
0.00697662
0.00695739
0.00689936
0.00680469
0.00667625
0.00651762
0.00633304
0.00612736
0.00590596
0.00567468
0.00543974
0.00520762
0.00498499
0.00477851
0.00459481
0.00444015
0.00431997
0.00423932
0.00420828
0.00423354
0.000461369
0.000372774
0.000264182
0.000136486
-7.86736e-06
-0.000162714
-0.000322283
-0.000481576
-0.00063618
-0.000782299
-0.000916749
-0.00103692
-0.00114069
-0.00122639
-0.00129267
-0.00133849
-0.00136302
-0.0013656
-0.00134573
-0.00130299
-0.00123707
-0.00114776
-0.0010349
-0.000898462
-0.000738495
-0.000555193
-0.000348895
-0.000120113
0.000130445
0.000401846
0.000692913
0.0010022
0.00132799
0.00166827
0.00202071
0.00238272
0.00275141
0.00312361
0.00349593
0.00386479
0.00422644
0.00457704
0.00491271
0.00522962
0.00552404
0.00579246
0.00603161
0.00623861
0.006411
0.00654683
0.00664473
0.00670396
0.00672444
0.0067068
0.00665239
0.00656326
0.00644217
0.00629252
0.00611834
0.0059242
0.00571515
0.00549665
0.00527445
0.00505449
0.00484284
0.00464552
0.00446844
0.00431723
0.00419684
0.00411205
0.00407165
0.00408149
0.000699709
0.000567693
0.000432535
0.000290502
0.000138582
-1.84554e-05
-0.000176004
-0.000330323
-0.000478076
-0.000616339
-0.000742638
-0.000854926
-0.000951528
-0.00103109
-0.00109254
-0.00113499
-0.00115774
-0.00116021
-0.00114193
-0.0011025
-0.00104158
-0.000958929
-0.000854341
-0.000727707
-0.00057901
-0.000408351
-0.000215967
-2.25922e-06
0.000232183
0.000486556
0.00075982
0.00105068
0.00135756
0.0016786
0.00201165
0.00235427
0.00270373
0.00305703
0.00341095
0.00376204
0.00410671
0.00444124
0.0047619
0.00506497
0.00534681
0.005604
0.00583335
0.00603204
0.00619764
0.00632823
0.00642246
0.00647957
0.00649948
0.00648275
0.00643068
0.00634524
0.00622904
0.00608536
0.00591804
0.00573141
0.00553026
0.0053197
0.0051051
0.00489197
0.00468587
0.00449228
0.00431653
0.00416368
0.00403829
0.00394476
0.00388957
0.0038765
0.000957822
0.00077907
0.000613539
0.000453007
0.000289098
0.00012542
-3.44076e-05
-0.000187783
-0.000332372
-0.000466089
-0.000587159
-0.000694112
-0.000785739
-0.000861057
-0.000919263
-0.000959696
-0.000981802
-0.000985104
-0.000969184
-0.000933666
-0.000878216
-0.000802538
-0.000706386
-0.000589577
-0.000452006
-0.00029367
-0.000114696
8.46415e-05
0.000303885
0.000542373
0.000799212
0.00107326
0.00136309
0.00166701
0.00198301
0.00230881
0.00264182
0.00297919
0.00331782
0.00365437
0.00398536
0.00430718
0.00461615
0.00490861
0.00518099
0.00542987
0.0056521
0.00584483
0.00600565
0.00613261
0.0062243
0.00627995
0.0062994
0.00628316
0.00623244
0.00614911
0.0060357
0.00589533
0.00573168
0.00554891
0.00535158
0.00514453
0.00493282
0.00472161
0.00451605
0.00432119
0.00414189
0.00398272
0.00384791
0.00374151
0.0036672
0.00362619
0.00122358
0.00099676
0.000798599
0.000616709
0.000437606
0.000263929
9.8467e-05
-5.72094e-05
-0.000201691
-0.000333681
-0.000452084
-0.000555998
-0.000644688
-0.000717551
-0.000774087
-0.000813865
-0.000836502
-0.000841637
-0.000828922
-0.000798014
-0.000748575
-0.00068028
-0.000592825
-0.000485949
-0.000359452
-0.00021322
-4.72525e-05
0.000138309
0.000343152
0.000566768
0.000808418
0.00106711
0.0013416
0.00163032
0.00193142
0.00224277
0.0025619
0.00288608
0.0032123
0.00353733
0.00385775
0.00416999
0.00447041
0.00475536
0.00502126
0.00526468
0.00548241
0.00567156
0.00582966
0.00595468
0.00604515
0.00610019
0.00611957
0.0061037
0.0060537
0.00597134
0.00585904
0.0057198
0.00555718
0.00537517
0.00517815
0.00497077
0.00475784
0.00454424
0.00433483
0.0041343
0.00394714
0.00377752
0.00362946
0.00350667
0.0034099
0.00333772
0.00148672
0.00121161
0.00097965
0.000774571
0.000578051
0.000391925
0.000218273
5.77386e-05
-8.91227e-05
-0.000221753
-0.0003397
-0.000442619
-0.000530236
-0.000602334
-0.000658716
-0.000699194
-0.000723559
-0.000731576
-0.000722975
-0.000697447
-0.000654655
-0.000594238
-0.000515835
-0.0004191
-0.000303729
-0.000169489
-1.62428e-05
0.000156014
0.000347125
0.000556739
0.000784284
0.00102893
0.00128959
0.00156485
0.00185302
0.00215208
0.00245968
0.00277321
0.00308972
0.00340606
0.00371882
0.00402447
0.00431934
0.00459977
0.00486211
0.00510286
0.00531873
0.00550674
0.00566428
0.00578922
0.00587996
0.0059355
0.00595547
0.0059402
0.00589067
0.00580855
0.00569614
0.00555634
0.00539258
0.00520875
0.00500907
0.00479806
0.00458035
0.00436061
0.00414348
0.00393342
0.00373462
0.00355096
0.00338631
0.0032442
0.00312245
0.00301712
0.00173826
0.00141536
0.0011492
0.000919863
0.000704462
0.000504152
0.000320408
0.000153028
1.78252e-06
-0.000133459
-0.000252855
-0.000356586
-0.000444831
-0.000517744
-0.000575432
-0.000617943
-0.000645247
-0.000657235
-0.000653713
-0.000634407
-0.000598975
-0.000547023
-0.000478123
-0.000391839
-0.000287756
-0.000165508
-2.48164e-05
0.000134481
0.000312391
0.000508734
0.000723107
0.000954854
0.00120304
0.00146642
0.00174343
0.00203218
0.00233045
0.00263568
0.00294503
0.00325533
0.00356323
0.00386516
0.00415741
0.00443624
0.00469793
0.00493884
0.00515556
0.00534494
0.00550424
0.00563114
0.00572388
0.0057813
0.00580288
0.00578879
0.00573987
0.00565766
0.00554435
0.00540275
0.00523617
0.00504841
0.0048436
0.00462614
0.00440055
0.00417139
0.00394316
0.00372015
0.00350638
0.00330551
0.00312141
0.00295751
0.00280887
0.00266915
0.00197026
0.0016005
0.00130026
0.00104618
0.000811018
0.000595361
0.00040015
0.000224411
6.71898e-05
-7.22896e-05
-0.000194757
-0.000300894
-0.000391309
-0.000466511
-0.000526901
-0.000572754
-0.000604215
-0.000621292
-0.000623865
-0.000611689
-0.000584415
-0.000541606
-0.000482762
-0.000407348
-0.000314829
-0.000204702
-7.65306e-05
7.00113e-05
0.000235106
0.00041875
0.000620721
0.000840537
0.00107743
0.00133032
0.00159777
0.00187804
0.00216898
0.00246813
0.00277268
0.0030795
0.00338522
0.00368621
0.00397871
0.00425887
0.00452281
0.00476677
0.00498714
0.00518058
0.00534413
0.00547528
0.00557204
0.00563305
0.00565758
0.00564562
0.00559785
0.00551566
0.00540112
0.00525691
0.00508628
0.00489294
0.00468096
0.00445468
0.00421857
0.00397714
0.00373481
0.00349583
0.00326413
0.00304327
0.00283721
0.00264942
0.00247234
0.00229742
0.00217557
0.00176016
0.00142632
0.00114741
0.000892069
0.000660349
0.000452725
0.000267507
0.000103063
-4.19842e-05
-0.000168902
-0.000278845
-0.000372824
-0.000451689
-0.000516114
-0.000566592
-0.000603428
-0.000626741
-0.000636475
-0.000632407
-0.000614171
-0.000581279
-0.000533151
-0.000469147
-0.0003886
-0.000290859
-0.000175323
-4.149e-05
0.000111007
0.000282353
0.000472512
0.000681186
0.000907782
0.00115138
0.0014107
0.0016841
0.00196956
0.00226467
0.00256667
0.00287243
0.00317854
0.00348133
0.00377692
0.00406133
0.00433051
0.0045805
0.00480746
0.00500783
0.00517837
0.00531632
0.00541943
0.00548607
0.00551528
0.00550681
0.00546116
0.00537953
0.00526386
0.00511671
0.00494125
0.00474112
0.00452037
0.00428332
0.00403444
0.00377826
0.00351921
0.00326158
0.00300929
0.00276594
0.00253566
0.00232212
0.00211527
0.00190447
0.00234763
0.00188796
0.00152126
0.00121776
0.000942147
0.000693997
0.000473353
0.00027785
0.000105222
-4.64743e-05
-0.000179013
-0.000293993
-0.000392804
-0.000476613
-0.000546351
-0.000602712
-0.000646146
-0.000676871
-0.000694882
-0.000699969
-0.000691738
-0.000669643
-0.000633011
-0.000581086
-0.000513062
-0.000428127
-0.000325506
-0.000204509
-6.4575e-05
9.46808e-05
0.00027342
0.000471539
0.000688627
0.000923934
0.00117634
0.00144432
0.00172595
0.0020189
0.00232044
0.00262745
0.00293646
0.00324372
0.00354524
0.00383685
0.00411432
0.00437345
0.00461013
0.00482051
0.00500105
0.00514867
0.0052608
0.0053355
0.00537153
0.00536836
0.00532625
0.00524619
0.00512996
0.00497999
0.00479936
0.00459167
0.00436097
0.0041116
0.00384808
0.00357502
0.00329695
0.00301826
0.002743
0.00247486
0.0022183
0.00197726
0.00173937
0.00149197
0.00248038
0.00197793
0.00157929
0.00125168
0.000955964
0.000691288
0.000457281
0.000250942
6.93993e-05
-8.98249e-05
-0.000228983
-0.00035009
-0.000454892
-0.00054485
-0.000621133
-0.000684616
-0.00073588
-0.000775226
-0.000802688
-0.000818053
-0.00082089
-0.000810581
-0.000786353
-0.000747321
-0.000692527
-0.000620989
-0.000531746
-0.000423909
-0.000296708
-0.000149548
1.79442e-05
0.00020587
0.000414014
0.000641808
0.000888288
0.00115207
0.00143135
0.00172385
0.00202689
0.00233732
0.00265166
0.00296603
0.0032763
0.00357813
0.00386705
0.00413857
0.0043883
0.00461203
0.00480587
0.00496637
0.00509059
0.00517622
0.00522166
0.00522607
0.0051894
0.00511242
0.00499669
0.0048445
0.00465884
0.00444328
0.00420186
0.003939
0.00365932
0.00336756
0.00306845
0.00276655
0.00246611
0.00217105
0.00188623
0.001616
0.00134573
0.00106083
0.00256808
0.00202445
0.00159494
0.00124386
0.000928415
0.000647325
0.000399821
0.00018229
-8.71441e-06
-0.000176182
-0.000322817
-0.000451027
-0.000562892
-0.000660146
-0.000744173
-0.00081601
-0.000876353
-0.00092557
-0.000963716
-0.000990567
-0.00100564
-0.00100823
-0.000997454
-0.000972285
-0.000931603
-0.000874244
-0.000799045
-0.000704906
-0.000590836
-0.000456015
-0.000299844
-0.000121999
7.75142e-05
0.000298322
0.000539639
0.000800233
0.00107841
0.00137198
0.00167829
0.00199422
0.0023162
0.00264027
0.00296214
0.00327725
0.00358088
0.00386823
0.00413456
0.00437527
0.00458606
0.00476305
0.00490285
0.00500274
0.00506068
0.00507545
0.00504667
0.0049748
0.00486115
0.00470786
0.0045178
0.00429449
0.00404203
0.0037649
0.00346789
0.00315593
0.00283399
0.00250692
0.00217927
0.00185525
0.00154023
0.00123908
0.000934964
0.000611373
0.00260533
0.0020222
0.00156301
0.00118923
0.000854582
0.000557347
0.000296371
6.74482e-05
-0.000133424
-0.000309725
-0.000464586
-0.00060079
-0.000720724
-0.000826376
-0.000919325
-0.00100075
-0.00107145
-0.00113184
-0.00118198
-0.00122161
-0.0012502
-0.00126694
-0.00127082
-0.00126066
-0.00123516
-0.00119297
-0.00113271
-0.00105305
-0.000952758
-0.000830783
-0.000686278
-0.000518681
-0.000327766
-0.000113692
0.000122949
0.000381093
0.000659179
0.000955126
0.00126633
0.00158966
0.00192151
0.00225782
0.00259412
0.00292564
0.00324736
0.00355415
0.00384087
0.00410249
0.00433424
0.00453173
0.00469109
0.00480906
0.00488315
0.00491165
0.00489377
0.00482962
0.00472022
0.0045675
0.00437418
0.00414377
0.00388036
0.00358858
0.00327341
0.00294004
0.00259375
0.00223974
0.00188293
0.00152796
0.00118081
0.000846916
0.000507279
0.000143449
0.00258698
0.00196612
0.00147852
0.00108295
0.000729736
0.000416749
0.000142447
-9.79531e-05
-0.000308993
-0.00049462
-0.000658379
-0.000803402
-0.000932367
-0.00104749
-0.00115054
-0.00124281
-0.00132518
-0.00139809
-0.00146161
-0.00151544
-0.00155895
-0.00159123
-0.00161113
-0.00161732
-0.00160829
-0.00158249
-0.0015383
-0.00147416
-0.00138859
-0.00128026
-0.00114807
-0.000991195
-0.000809158
-0.000601879
-0.000369731
-0.000113584
0.000165158
0.000464535
0.000782011
0.00111449
0.00145831
0.00180931
0.00216286
0.00251395
0.00285725
0.00318727
0.00349844
0.00378522
0.00404234
0.00426481
0.0044482
0.00458866
0.00468312
0.00472933
0.00472601
0.00467283
0.00457048
0.00442059
0.00422575
0.00398937
0.00371562
0.00340925
0.00307545
0.00271975
0.00234779
0.00196523
0.00157744
0.00118954
0.000808243
0.00043967
6.25876e-05
-0.000343429
0.00250813
0.00185141
0.00133678
0.000920391
0.000549348
0.000221097
-6.62942e-05
-0.000318172
-0.0005396
-0.00073498
-0.000908251
-0.00106288
-0.00120181
-0.00132748
-0.00144181
-0.0015462
-0.0016416
-0.00172848
-0.00180686
-0.0018764
-0.00193637
-0.00198575
-0.00202323
-0.0020473
-0.00205625
-0.0020483
-0.0020216
-0.00197432
-0.0019047
-0.00181114
-0.00169225
-0.00154692
-0.00137439
-0.00117432
-0.000946823
-0.000692554
-0.000412726
-0.000109151
0.000215736
0.000558876
0.000916596
0.00128464
0.00165821
0.00203206
0.00240055
0.00275777
0.00309767
0.00341422
0.0037015
0.00395393
0.00416637
0.00433432
0.00445402
0.00452261
0.0045382
0.00449995
0.00440811
0.00426401
0.00407
0.00382941
0.00354643
0.00322597
0.00287347
0.00249483
0.00209613
0.00168356
0.00126303
0.000840244
0.000422709
1.73435e-05
-0.000399391
-0.000849982
0.00236412
0.00167351
0.0011333
0.00069716
0.000309101
-3.38546e-05
-0.000334029
-0.000597322
-0.000829306
-0.00103482
-0.00121818
-0.00138318
-0.001533
-0.00167029
-0.0017971
-0.00191495
-0.00202481
-0.00212715
-0.00222198
-0.00230887
-0.002387
-0.00245521
-0.00251202
-0.00255572
-0.00258441
-0.00259605
-0.00258854
-0.00255976
-0.00250767
-0.00243036
-0.00232612
-0.00219354
-0.00203153
-0.00183947
-0.00161717
-0.00136504
-0.00108405
-0.000775847
-0.000442719
-8.7653e-05
0.000285685
0.000672969
0.00106925
0.00146904
0.00186637
0.00225491
0.00262811
0.00297933
0.00330202
0.00358985
0.00383695
0.00403803
0.00418857
0.00428494
0.00432456
0.00430598
0.00422891
0.00409427
0.00390416
0.00366175
0.00337125
0.0030377
0.00266687
0.00226502
0.00183877
0.00139489
0.000939932
0.000480266
2.43097e-05
-0.000420143
-0.000879045
-0.00137706
0.00215052
0.00142811
0.000863874
0.00040911
4.9103e-06
-0.000352134
-0.000664738
-0.000939342
-0.00118201
-0.00139802
-0.00159204
-0.00176815
-0.0019298
-0.0020798
-0.00222034
-0.00235301
-0.00247882
-0.00259823
-0.0027112
-0.00281722
-0.00291535
-0.00300429
-0.00308239
-0.00314773
-0.00319817
-0.00323143
-0.00324512
-0.00323683
-0.0032042
-0.003145
-0.00305716
-0.00293894
-0.0027889
-0.00260607
-0.00238996
-0.00214065
-0.00185885
-0.00154597
-0.00120413
-0.000836192
-0.000445785
-3.72713e-05
0.000384273
0.000813121
0.00124298
0.00166708
0.00207834
0.00246948
0.00283322
0.00316244
0.00345042
0.00369096
0.00387866
0.00400902
0.00407864
0.00408531
0.00402812
0.00390747
0.0037251
0.003484
0.00318833
0.0028433
0.00245495
0.00203002
0.00157568
0.00109938
0.000608392
0.000109841
-0.000386835
-0.000872866
-0.00137677
-0.00192553
0.0018632
0.00111118
0.000524544
5.23511e-05
-0.00036706
-0.000737534
-0.00106218
-0.00134796
-0.00160143
-0.00182827
-0.0020335
-0.00222149
-0.00239592
-0.00255975
-0.00271531
-0.00286423
-0.00300755
-0.00314572
-0.00327864
-0.00340571
-0.00352586
-0.00363762
-0.00373918
-0.00382838
-0.00390287
-0.00396007
-0.0039973
-0.00401184
-0.004001
-0.00396216
-0.00389292
-0.00379112
-0.00365497
-0.00348308
-0.00327461
-0.00302928
-0.00274749
-0.00243034
-0.00207974
-0.00169837
-0.00128977
-0.000858317
-0.000409166
5.17425e-05
0.000517791
0.000981776
0.00143604
0.00187263
0.00228347
0.00266057
0.00299624
0.00328329
0.00351529
0.00368672
0.00379321
0.00383167
0.00380041
0.0036992
0.0035293
0.00329345
0.00299573
0.00264146
0.00223698
0.00178952
0.00130689
0.000797265
0.000268735
-0.000270716
-0.000810518
-0.00134082
-0.0018929
-0.00249622
0.00149827
0.000718958
0.000111645
-0.000376724
-0.000810374
-0.00119358
-0.00152985
-0.00182667
-0.00209104
-0.00232905
-0.00254606
-0.0027467
-0.00293487
-0.00311369
-0.00328558
-0.00345225
-0.00361474
-0.00377346
-0.00392825
-0.00407842
-0.00422276
-0.00435964
-0.00448704
-0.0046026
-0.00470369
-0.00478746
-0.00485092
-0.00489101
-0.00490466
-0.00488889
-0.00484088
-0.00475806
-0.00463819
-0.00447948
-0.00428065
-0.004041
-0.00376054
-0.00344006
-0.00308113
-0.00268623
-0.00225874
-0.00180297
-0.00132415
-0.000828382
-0.000322582
0.000185602
0.000687936
0.00117575
0.00164011
0.00207208
0.00246289
0.00280423
0.00308849
0.00330899
0.00346021
0.00353802
0.00353977
0.00346447
0.0033128
0.00308708
0.00279126
0.00243073
0.00201215
0.00154323
0.00103247
0.000488872
-7.8576e-05
-0.000660934
-0.00124637
-0.00182384
-0.0024276
-0.00308979
0.00105217
0.000248016
-0.000378182
-0.000881418
-0.00132829
-0.00172351
-0.00207098
-0.00237866
-0.00265404
-0.00290357
-0.00313292
-0.00334701
-0.00354991
-0.00374492
-0.00393452
-0.00412049
-0.00430385
-0.00448501
-0.00466372
-0.00483918
-0.00501004
-0.00517451
-0.00533036
-0.005475
-0.00560553
-0.00571881
-0.00581153
-0.00588025
-0.00592153
-0.00593198
-0.00590832
-0.00584753
-0.0057469
-0.00560415
-0.00541751
-0.00518582
-0.00490863
-0.0045863
-0.00422006
-0.00381206
-0.00336547
-0.00288448
-0.00237429
-0.00184115
-0.00129223
-0.000735609
-0.000180099
0.00036488
0.000889507
0.00138378
0.00183778
0.00224192
0.00258727
0.0028658
0.00307067
0.00319648
0.00323948
0.00319772
0.00307109
0.00286145
0.00257245
0.00220952
0.00177958
0.00129086
0.000752595
0.000174684
-0.000432892
-0.00106013
-0.00169379
-0.00232152
-0.00298078
-0.00370663
0.000521684
-0.000304754
-0.00094796
-0.00146471
-0.00192376
-0.00233025
-0.00268846
-0.00300685
-0.00329333
-0.00355472
-0.00379701
-0.00402534
-0.004244
-0.00445641
-0.00466514
-0.00487201
-0.00507805
-0.00528361
-0.00548838
-0.00569144
-0.00589131
-0.00608602
-0.00627314
-0.00644982
-0.00661291
-0.00675895
-0.00688428
-0.00698511
-0.00705757
-0.00709782
-0.00710211
-0.00706694
-0.00698905
-0.00686562
-0.00669435
-0.00647353
-0.00620218
-0.00588017
-0.00550825
-0.0050882
-0.00462289
-0.00411629
-0.00357353
-0.00300089
-0.00240579
-0.00179668
-0.00118295
-0.000574769
1.70904e-05
0.000581512
0.0011073
0.00158347
0.00199958
0.00234609
0.00261461
0.00279829
0.00289201
0.00289264
0.00279915
0.00261268
0.00233653
0.00197603
0.00153832
0.00103217
0.000467561
-0.000144625
-0.000793314
-0.00146732
-0.00215186
-0.00283311
-0.00355203
-0.00434683
-9.60538e-05
-0.000942092
-0.00160035
-0.00212921
-0.00259936
-0.00301635
-0.00338485
-0.00371379
-0.00401147
-0.00428507
-0.00454088
-0.00478428
-0.00501973
-0.00525078
-0.00548009
-0.0057095
-0.00594006
-0.00617205
-0.00640511
-0.0066382
-0.0068697
-0.00709746
-0.00731884
-0.00753076
-0.00772976
-0.0079121
-0.00807375
-0.00821051
-0.0083181
-0.0083922
-0.00842855
-0.0084231
-0.00837202
-0.0082719
-0.00811981
-0.00791344
-0.00765119
-0.00733234
-0.0069571
-0.00652677
-0.00604379
-0.00551184
-0.00493587
-0.00432215
-0.00367823
-0.00301289
-0.00233607
-0.00165869
-0.0009925
-0.000349791
0.000256862
0.000814943
0.00131235
0.00173778
0.00208111
0.00233374
0.00248896
0.00254222
0.0024913
0.00233644
0.00208039
0.00172826
0.00128738
0.000766963
0.000177818
-0.000468139
-0.00115863
-0.00188118
-0.00261927
-0.00335745
-0.0041405
-0.00501001
-0.000803488
-0.00166634
-0.00233764
-0.00287716
-0.00335731
-0.00378402
-0.00416234
-0.00450164
-0.00481061
-0.00509678
-0.0053667
-0.00562598
-0.00587926
-0.0061302
-0.00638155
-0.00663517
-0.00689212
-0.00715264
-0.00741628
-0.00768191
-0.00794776
-0.00821151
-0.00847031
-0.00872083
-0.00895936
-0.00918179
-0.00938374
-0.00956063
-0.00970769
-0.00982011
-0.0098931
-0.00992199
-0.00990237
-0.00983015
-0.00970172
-0.00951407
-0.00926491
-0.00895283
-0.0085774
-0.00813932
-0.0076405
-0.00708421
-0.00647513
-0.00581937
-0.00512454
-0.00439969
-0.00365524
-0.00290285
-0.00215523
-0.00142591
-0.000728931
-7.8469e-05
0.000511532
0.00102781
0.00145822
0.00179219
0.00202111
0.00213868
0.00214124
0.00202788
0.00180057
0.00146404
0.00102567
0.000495125
-0.00011599
-0.000794647
-0.00152727
-0.00229993
-0.00309421
-0.00389287
-0.00474481
-0.00569529
-0.00160263
-0.00247942
-0.00316168
-0.0037104
-0.00419941
-0.00463504
-0.00502271
-0.00537218
-0.00569253
-0.00599159
-0.00627619
-0.00655216
-0.00682428
-0.00709635
-0.00737119
-0.00765069
-0.00793591
-0.00822705
-0.00852361
-0.00882433
-0.00912733
-0.0094301
-0.0097296
-0.0100223
-0.0103041
-0.0105706
-0.0108172
-0.0110386
-0.0112299
-0.0113855
-0.0115001
-0.0115685
-0.0115856
-0.0115464
-0.0114468
-0.0112828
-0.0110515
-0.0107506
-0.010379
-0.0099365
-0.00942453
-0.00884577
-0.00820447
-0.0075065
-0.0067594
-0.00597237
-0.00515625
-0.00432336
-0.0034874
-0.00266313
-0.00186612
-0.00111235
-0.000417763
0.000202195
0.000733105
0.00116209
0.00147832
0.00167345
0.001742
0.00168162
0.00149322
0.00118095
0.000752081
0.000216635
-0.000412985
-0.00112259
-0.00189719
-0.00272128
-0.00357433
-0.00443709
-0.00536294
-0.00640109
-0.00249504
-0.00338282
-0.00407392
-0.00463032
-0.00512705
-0.0055708
-0.00596732
-0.00632675
-0.00665854
-0.0069708
-0.00727062
-0.00756403
-0.00785597
-0.00815036
-0.00845009
-0.0087571
-0.00907244
-0.00939629
-0.00972807
-0.0100665
-0.0104094
-0.0107543
-0.0110979
-0.0114363
-0.0117653
-0.0120802
-0.0123758
-0.0126466
-0.012887
-0.013091
-0.0132527
-0.0133662
-0.0134256
-0.0134254
-0.0133603
-0.0132257
-0.0130178
-0.0127333
-0.0123702
-0.0119276
-0.0114061
-0.0108077
-0.010136
-0.00939658
-0.0085967
-0.00774562
-0.00685445
-0.00593614
-0.00500528
-0.00407788
-0.00317109
-0.00230278
-0.00149106
-0.00075378
-0.00010791
0.000431055
0.000849693
0.00113722
0.00128597
0.00129176
0.00115413
0.000876385
0.00046545
-6.84e-05
-0.000712009
-0.00144999
-0.00226585
-0.00314233
-0.00405657
-0.0049871
-0.00599212
-0.00712511
-0.00348177
-0.00437753
-0.00507533
-0.00563791
-0.0061412
-0.00659223
-0.00699707
-0.00736624
-0.00770948
-0.0080352
-0.00835072
-0.00866226
-0.00897494
-0.00929276
-0.00961871
-0.00995478
-0.010302
-0.0106606
-0.0110298
-0.0114084
-0.0117941
-0.0121842
-0.0125752
-0.0129631
-0.0133433
-0.0137107
-0.01406
-0.0143851
-0.0146798
-0.0149378
-0.0151524
-0.015317
-0.015425
-0.0154699
-0.0154457
-0.0153469
-0.0151685
-0.0149064
-0.0145576
-0.0141202
-0.0135938
-0.0129795
-0.0122803
-0.0115012
-0.0106491
-0.009733
-0.0087643
-0.00775638
-0.00672464
-0.00568633
-0.00466018
-0.003666
-0.00272424
-0.00185534
-0.00107911
-0.000413999
0.000123582
0.000519982
0.000764905
0.000851913
0.000778761
0.000547541
0.000164611
-0.000359703
-0.00101157
-0.00177439
-0.00263008
-0.00355945
-0.0045371
-0.00553904
-0.00662871
-0.00786412
-0.00456335
-0.00546408
-0.00616643
-0.00673366
-0.00724235
-0.00769981
-0.00811244
-0.00849106
-0.00884572
-0.00918508
-0.00951669
-0.00984696
-0.0101812
-0.0105234
-0.0108768
-0.0112433
-0.0116241
-0.0120193
-0.0124281
-0.0128493
-0.0132805
-0.0137187
-0.0141604
-0.0146014
-0.0150368
-0.0154612
-0.0158688
-0.0162532
-0.0166077
-0.0169254
-0.0171989
-0.0174208
-0.0175839
-0.0176808
-0.0177045
-0.0176484
-0.0175065
-0.0172736
-0.0169456
-0.0165195
-0.0159937
-0.0153685
-0.0146459
-0.01383
-0.0129273
-0.0119464
-0.0108988
-0.00979799
-0.00866026
-0.0075039
-0.0063492
-0.005218
-0.00413315
-0.00311788
-0.00219511
-0.00138661
-0.000712182
-0.000188815
0.000170063
0.000355246
0.000362234
0.000191488
-0.000151562
-0.00065677
-0.00130977
-0.00209277
-0.00298599
-0.0039682
-0.00501113
-0.00608806
-0.00726801
-0.00861384
-0.00573982
-0.00664252
-0.00734727
-0.00791765
-0.00843055
-0.00889358
-0.00931341
-0.00970115
-0.0100671
-0.0104202
-0.0107682
-0.0111176
-0.011474
-0.0118415
-0.0122233
-0.0126215
-0.0130373
-0.0134708
-0.0139212
-0.0143872
-0.0148663
-0.0153556
-0.0158513
-0.0163488
-0.0168433
-0.0173289
-0.0177995
-0.0182482
-0.018668
-0.0190511
-0.0193896
-0.0196756
-0.0199006
-0.0200565
-0.0201354
-0.0201295
-0.0200317
-0.0198355
-0.0195357
-0.0191279
-0.0186095
-0.0179793
-0.0172384
-0.0163899
-0.0154395
-0.0143954
-0.0132686
-0.012073
-0.0108252
-0.00954458
-0.00825289
-0.00697395
-0.00573311
-0.00455654
-0.00347053
-0.00250049
-0.00167006
-0.00100009
-0.000507677
-0.00020538
-0.000100518
-0.000194777
-0.000484083
-0.0009588
-0.00160421
-0.00240141
-0.00332888
-0.00436317
-0.00547287
-0.00662819
-0.00790417
-0.00936877
-0.00701063
-0.00791236
-0.00861742
-0.00918945
-0.00970541
-0.0101731
-0.0105995
-0.010996
-0.011373
-0.0117398
-0.0121042
-0.0124731
-0.0128521
-0.0132455
-0.0136565
-0.0140874
-0.0145394
-0.0150125
-0.0155063
-0.016019
-0.0165484
-0.0170913
-0.0176438
-0.0182013
-0.0187585
-0.0193094
-0.0198475
-0.0203655
-0.0208558
-0.0213102
-0.0217201
-0.0220766
-0.0223706
-0.0225929
-0.0227346
-0.0227868
-0.0227411
-0.0225898
-0.0223263
-0.0219448
-0.0214412
-0.0208132
-0.0200603
-0.0191847
-0.0181909
-0.0170865
-0.0158818
-0.0145907
-0.0132302
-0.0118203
-0.0103842
-0.00894757
-0.00753831
-0.00618566
-0.00491944
-0.00376908
-0.00276246
-0.00192483
-0.00127758
-0.000837251
-0.000614645
-0.000614207
-0.000833757
-0.00126459
-0.00189192
-0.00269584
-0.00365308
-0.00473783
-0.00591524
-0.00715214
-0.00852994
-0.010122
-0.00837474
-0.00927264
-0.00997599
-0.0105482
-0.0110661
-0.0115376
-0.0119699
-0.0123745
-0.0127623
-0.0131425
-0.0135233
-0.0139117
-0.0143134
-0.014733
-0.0151737
-0.015638
-0.016127
-0.016641
-0.0171793
-0.0177405
-0.018322
-0.0189208
-0.0195328
-0.0201532
-0.0207765
-0.0213966
-0.0220064
-0.0225984
-0.0231645
-0.0236958
-0.024183
-0.0246167
-0.0249867
-0.0252829
-0.0254952
-0.0256137
-0.0256285
-0.0255307
-0.0253121
-0.0249655
-0.0244853
-0.0238675
-0.0231103
-0.0222143
-0.0211828
-0.0200224
-0.0187427
-0.0173571
-0.0158826
-0.01434
-0.0127534
-0.0111504
-0.00956114
-0.00801812
-0.00655486
-0.00520506
-0.00400131
-0.00297376
-0.00214876
-0.00154756
-0.00118518
-0.00106955
-0.00120104
-0.0015724
-0.00216917
-0.00297063
-0.00395182
-0.0050844
-0.00632981
-0.00765111
-0.00913652
-0.0108651
-0.00983055
-0.0107219
-0.0114216
-0.0119927
-0.0125113
-0.0129857
-0.0134231
-0.0138353
-0.0142333
-0.0146265
-0.0150234
-0.015431
-0.0158553
-0.016301
-0.0167715
-0.0172694
-0.0177958
-0.0183513
-0.0189352
-0.0195459
-0.0201812
-0.0208376
-0.0215112
-0.0221971
-0.0228896
-0.0235822
-0.0242677
-0.0249381
-0.0255847
-0.0261982
-0.0267688
-0.0272859
-0.0277388
-0.0281162
-0.0284071
-0.0286
-0.028684
-0.0286487
-0.0284841
-0.0281817
-0.027734
-0.0271354
-0.0263824
-0.025474
-0.024412
-0.0232015
-0.0218513
-0.020374
-0.0187862
-0.0171091
-0.0153676
-0.0135908
-0.0118113
-0.0100646
-0.00838798
-0.00681971
-0.00539745
-0.00415682
-0.00312978
-0.00234308
-0.00181678
-0.00156314
-0.00158586
-0.00187981
-0.00243136
-0.00321928
-0.004217
-0.00539362
-0.0067065
-0.00811459
-0.0097133
-0.0115876
-0.011376
-0.0122584
-0.0129526
-0.0135212
-0.0140395
-0.0145158
-0.0149575
-0.0153765
-0.0157839
-0.0161894
-0.0166017
-0.0170279
-0.0174743
-0.0179456
-0.0184456
-0.0189768
-0.0195407
-0.0201378
-0.0207675
-0.0214285
-0.0221184
-0.0228338
-0.0235707
-0.0243241
-0.0250882
-0.0258562
-0.0266207
-0.0273733
-0.0281049
-0.0288056
-0.0294649
-0.0300715
-0.0306138
-0.0310796
-0.0314566
-0.0317321
-0.031894
-0.03193
-0.031829
-0.0315803
-0.0311749
-0.0306053
-0.029866
-0.0289543
-0.0278702
-0.0266172
-0.0252026
-0.0236381
-0.0219397
-0.0201283
-0.0182294
-0.0162735
-0.0142951
-0.0123327
-0.0104274
-0.00862218
-0.00696006
-0.00548264
-0.00422819
-0.00322976
-0.00251338
-0.0020966
-0.00198736
-0.00218349
-0.00267279
-0.00343399
-0.00443908
-0.00565454
-0.00703343
-0.00853012
-0.0102477
-0.0122772
-0.0130084
-0.0138796
-0.0145669
-0.0151318
-0.0156487
-0.0161259
-0.0165709
-0.0169957
-0.0174116
-0.0178285
-0.0182551
-0.0186989
-0.0191662
-0.0196622
-0.0201907
-0.0207544
-0.0213551
-0.0219934
-0.0226688
-0.02338
-0.0241248
-0.0248998
-0.025701