/*--------------------------------*- C++ -*----------------------------------*\
  =========                 |
  \\      /  F ield         | OpenFOAM: The Open Source CFD Toolbox
   \\    /   O peration     | Website:  https://openfoam.org
    \\  /    A nd           | Version:  dev
     \\/     M anipulation  |
\*---------------------------------------------------------------------------*/
FoamFile
{
    format      ascii;
    class       volVectorField;
    location    "34.65";
    object      U;
}
// * * * * * * * * * * * * * * * * * * * * * * * * * * * * * * * * * * * * * //

dimensions      [0 1 -1 0 0 0 0];

internalField   nonuniform List<vector> 
5184
(
(1.23539e-05 -1.26832e-05 0)
(4.52154e-05 -2.0876e-05 0)
(8.03647e-05 -1.72439e-05 0)
(9.60187e-05 -8.19511e-06 0)
(8.21888e-05 2.66974e-06 0)
(3.64905e-05 1.36187e-05 0)
(-4.05301e-05 2.38472e-05 0)
(-0.000146854 3.30505e-05 0)
(-0.00027969 4.11088e-05 0)
(-0.00043598 4.80278e-05 0)
(-0.000612602 5.38692e-05 0)
(-0.000806524 5.87177e-05 0)
(-0.00101488 6.26659e-05 0)
(-0.001235 6.5805e-05 0)
(-0.00146442 6.82199e-05 0)
(-0.00170089 6.99858e-05 0)
(-0.00194234 7.11671e-05 0)
(-0.00218685 7.18162e-05 0)
(-0.00243263 7.1974e-05 0)
(-0.002678 7.16701e-05 0)
(-0.00292136 7.09237e-05 0)
(-0.00316115 6.97455e-05 0)
(-0.00339583 6.81382e-05 0)
(-0.00362387 6.60989e-05 0)
(-0.00384377 6.36203e-05 0)
(-0.00405396 6.06929e-05 0)
(-0.0042529 5.73059e-05 0)
(-0.00443901 5.34499e-05 0)
(-0.00461072 4.91177e-05 0)
(-0.00476644 4.43064e-05 0)
(-0.00490462 3.90184e-05 0)
(-0.00502373 3.32629e-05 0)
(-0.0051223 2.70572e-05 0)
(-0.00519897 2.04272e-05 0)
(-0.00525247 1.34087e-05 0)
(-0.00528169 6.0474e-06 0)
(-0.00528568 -1.60064e-06 0)
(-0.00526371 -9.46893e-06 0)
(-0.00521529 -1.74809e-05 0)
(-0.00514018 -2.55507e-05 0)
(-0.00503845 -3.35839e-05 0)
(-0.00491047 -4.14788e-05 0)
(-0.00475695 -4.91282e-05 0)
(-0.00457894 -5.64212e-05 0)
(-0.00437785 -6.32451e-05 0)
(-0.00415543 -6.94882e-05 0)
(-0.00391377 -7.50416e-05 0)
(-0.00365531 -7.98022e-05 0)
(-0.00338277 -8.36755e-05 0)
(-0.00309916 -8.65777e-05 0)
(-0.00280771 -8.84382e-05 0)
(-0.00251185 -8.92017e-05 0)
(-0.00221515 -8.88301e-05 0)
(-0.00192126 -8.73037e-05 0)
(-0.00163387 -8.4622e-05 0)
(-0.00135661 -8.08046e-05 0)
(-0.00109302 -7.58908e-05 0)
(-0.000846465 -6.99394e-05 0)
(-0.000620101 -6.30279e-05 0)
(-0.000416776 -5.52523e-05 0)
(-0.000238988 -4.67266e-05 0)
(-8.88155e-05 -3.75838e-05 0)
(3.21545e-05 -2.79789e-05 0)
(0.000122908 -1.80947e-05 0)
(0.000183112 -8.15664e-06 0)
(0.00021327 1.54048e-06 0)
(0.00021497 1.05727e-05 0)
(0.000191263 1.83031e-05 0)
(0.000147179 2.37196e-05 0)
(9.08131e-05 2.51305e-05 0)
(3.66336e-05 1.98501e-05 0)
(6.2271e-06 6.24419e-06 0)
(2.08653e-05 -4.58486e-05 0)
(6.56687e-05 -6.56921e-05 0)
(9.47712e-05 -4.05536e-05 0)
(7.28708e-05 7.6357e-06 0)
(-1.88705e-05 6.56826e-05 0)
(-0.000187269 0.000126 0)
(-0.00043291 0.000184307 0)
(-0.000752576 0.000238359 0)
(-0.00114072 0.000287013 0)
(-0.00159057 0.000329827 0)
(-0.00209476 0.000366761 0)
(-0.00264586 0.000398005 0)
(-0.00323655 0.000423871 0)
(-0.00385984 0.000444725 0)
(-0.00450913 0.000460945 0)
(-0.00517821 0.000472889 0)
(-0.00586129 0.00048088 0)
(-0.00655291 0.000485193 0)
(-0.00724795 0.000486053 0)
(-0.00794152 0.00048363 0)
(-0.00862892 0.000478045 0)
(-0.0093056 0.000469375 0)
(-0.00996707 0.00045766 0)
(-0.0106089 0.000442907 0)
(-0.0112268 0.000425105 0)
(-0.0118161 0.00040423 0)
(-0.0123727 0.000380259 0)
(-0.012892 0.000353173 0)
(-0.0133696 0.000322975 0)
(-0.0138012 0.00028969 0)
(-0.0141826 0.000253379 0)
(-0.0145097 0.000214144 0)
(-0.0147786 0.000172136 0)
(-0.0149855 0.000127558 0)
(-0.0151274 8.06697e-05 0)
(-0.0152013 3.17893e-05 0)
(-0.0152048 -1.87037e-05 0)
(-0.0151362 -7.03712e-05 0)
(-0.0149944 -0.000122718 0)
(-0.014779 -0.000175196 0)
(-0.0144904 -0.000227212 0)
(-0.0141297 -0.000278134 0)
(-0.0136992 -0.000327298 0)
(-0.0132018 -0.000374028 0)
(-0.0126415 -0.000417638 0)
(-0.0120232 -0.000457454 0)
(-0.0113527 -0.000492821 0)
(-0.0106364 -0.000523127 0)
(-0.00988194 -0.000547809 0)
(-0.00909727 -0.000566373 0)
(-0.00829114 -0.000578407 0)
(-0.00747272 -0.00058359 0)
(-0.00665155 -0.000581707 0)
(-0.00583736 -0.000572655 0)
(-0.00503995 -0.00055645 0)
(-0.00426897 -0.000533231 0)
(-0.00353382 -0.000503261 0)
(-0.00284341 -0.000466931 0)
(-0.00220603 -0.000424754 0)
(-0.00162914 -0.000377372 0)
(-0.00111924 -0.000325552 0)
(-0.000681626 -0.0002702 0)
(-0.000320198 -0.000212377 0)
(-3.7247e-05 -0.000153336 0)
(0.000166861 -9.45872e-05 0)
(0.00029405 -3.80098e-05 0)
(0.000349069 1.39361e-05 0)
(0.000340191 5.79453e-05 0)
(0.00027991 8.9425e-05 0)
(0.000186083 0.000101878 0)
(8.63842e-05 8.65327e-05 0)
(1.96835e-05 3.64928e-05 0)
(1.76471e-05 -8.13017e-05 0)
(4.13625e-05 -9.50338e-05 0)
(1.96457e-05 -1.91376e-05 0)
(-8.39509e-05 0.000105932 0)
(-0.000290214 0.000254663 0)
(-0.000607891 0.000410612 0)
(-0.00103825 0.000563461 0)
(-0.00157746 0.000707075 0)
(-0.00221838 0.000838002 0)
(-0.0029518 0.000954536 0)
(-0.00376746 0.00105608 0)
(-0.00465463 0.00114273 0)
(-0.0056026 0.001215 0)
(-0.00660091 0.00127361 0)
(-0.00763949 0.00131939 0)
(-0.00870879 0.00135315 0)
(-0.00979972 0.00137568 0)
(-0.0109037 0.00138764 0)
(-0.0120125 0.0013896 0)
(-0.0131182 0.001382 0)
(-0.0142133 0.00136516 0)
(-0.0152905 0.00133932 0)
(-0.0163425 0.00130459 0)
(-0.0173621 0.00126105 0)
(-0.0183422 0.0012087 0)
(-0.0192759 0.00114753 0)
(-0.0201561 0.00107754 0)
(-0.0209758 0.000998732 0)
(-0.0217282 0.000911177 0)
(-0.0224064 0.000815012 0)
(-0.023004 0.000710468 0)
(-0.0235146 0.000597892 0)
(-0.0239323 0.000477756 0)
(-0.0242516 0.000350676 0)
(-0.0244676 0.000217418 0)
(-0.0245761 7.89054e-05 0)
(-0.0245737 -6.37821e-05 0)
(-0.024458 -0.000209408 0)
(-0.0242273 -0.00035659 0)
(-0.0238813 -0.000503808 0)
(-0.023421 -0.000649429 0)
(-0.0228484 -0.000791717 0)
(-0.022167 -0.000928872 0)
(-0.0213817 -0.00105905 0)
(-0.0204986 -0.0011804 0)
(-0.0195255 -0.0012911 0)
(-0.0184712 -0.0013894 0)
(-0.017346 -0.00147365 0)
(-0.0161613 -0.00154235 0)
(-0.0149294 -0.00159419 0)
(-0.0136638 -0.00162806 0)
(-0.0123784 -0.00164314 0)
(-0.0110878 -0.00163885 0)
(-0.00980687 -0.00161494 0)
(-0.00855042 -0.00157147 0)
(-0.00733321 -0.00150886 0)
(-0.00616947 -0.00142785 0)
(-0.00507273 -0.00132953 0)
(-0.00405555 -0.00121536 0)
(-0.00312919 -0.00108714 0)
(-0.0023034 -0.000947053 0)
(-0.00158606 -0.000797658 0)
(-0.000982916 -0.000641965 0)
(-0.000497199 -0.000483508 0)
(-0.000129216 -0.000326486 0)
(0.000124101 -0.000175987 0)
(0.000269851 -3.83309e-05 0)
(0.000319886 7.84666e-05 0)
(0.000291339 0.000164108 0)
(0.000207442 0.000205426 0)
(0.000102471 0.000186309 0)
(2.49814e-05 9.04052e-05 0)
(8.84583e-06 -9.77537e-05 0)
(-6.99086e-06 -7.31617e-05 0)
(-0.000107553 8.47751e-05 0)
(-0.000322339 0.000318369 0)
(-0.000669596 0.00059012 0)
(-0.00115773 0.000874402 0)
(-0.00178749 0.00115418 0)
(-0.00255411 0.00141867 0)
(-0.00344903 0.00166139 0)
(-0.00446124 0.00187881 0)
(-0.00557826 0.00206938 0)
(-0.00678687 0.00223283 0)
(-0.00807366 0.00236974 0)
(-0.00942538 0.00248113 0)
(-0.0108291 0.00256829 0)
(-0.0122725 0.00263253 0)
(-0.0137435 0.00267515 0)
(-0.0152308 0.00269729 0)
(-0.0167234 0.00269994 0)
(-0.0182109 0.00268388 0)
(-0.0196829 0.00264971 0)
(-0.0211295 0.00259786 0)
(-0.0225409 0.0025286 0)
(-0.0239076 0.00244208 0)
(-0.0252199 0.00233839 0)
(-0.0264683 0.00221757 0)
(-0.0276436 0.00207967 0)
(-0.0287365 0.00192481 0)
(-0.0297377 0.00175319 0)
(-0.0306386 0.00156517 0)
(-0.0314304 0.00136126 0)
(-0.032105 0.0011422 0)
(-0.0326547 0.000908968 0)
(-0.0330726 0.000662804 0)
(-0.0333524 0.000405219 0)
(-0.0334888 0.000138017 0)
(-0.0334777 -0.000136713 0)
(-0.033316 -0.000416601 0)
(-0.0330019 -0.000699011 0)
(-0.0325354 -0.000981066 0)
(-0.0319178 -0.00125968 0)
(-0.031152 -0.00153159 0)
(-0.0302429 -0.00179342 0)
(-0.0291969 -0.00204173 0)
(-0.0280223 -0.00227308 0)
(-0.0267291 -0.00248407 0)
(-0.025329 -0.00267145 0)
(-0.0238354 -0.00283219 0)
(-0.022263 -0.00296349 0)
(-0.020628 -0.00306294 0)
(-0.0189477 -0.00312852 0)
(-0.01724 -0.00315867 0)
(-0.0155239 -0.00315239 0)
(-0.0138186 -0.00310922 0)
(-0.0121431 -0.00302931 0)
(-0.0105164 -0.00291345 0)
(-0.00895702 -0.00276307 0)
(-0.00748225 -0.00258026 0)
(-0.00610827 -0.0023678 0)
(-0.00484958 -0.00212912 0)
(-0.00371867 -0.00186839 0)
(-0.00272566 -0.00159049 0)
(-0.00187787 -0.00130116 0)
(-0.00117943 -0.00100704 0)
(-0.000630803 -0.000715975 0)
(-0.000228295 -0.000437229 0)
(3.65775e-05 -0.00018195 0)
(0.000177715 3.62514e-05 0)
(0.000214846 0.000200656 0)
(0.00017414 0.000290871 0)
(9.30492e-05 0.0002826 0)
(2.40325e-05 0.000147304 0)
(-2.12156e-06 -8.44265e-05 0)
(-6.72824e-05 2.0876e-05 0)
(-0.000264101 0.000295447 0)
(-0.000609774 0.000668052 0)
(-0.0011168 0.00109088 0)
(-0.00179139 0.00153001 0)
(-0.00263256 0.001962 0)
(-0.00363392 0.00237138 0)
(-0.00478536 0.00274842 0)
(-0.00607415 0.00308748 0)
(-0.00748594 0.00338579 0)
(-0.00900549 0.00364253 0)
(-0.0106172 0.00385815 0)
(-0.0123055 0.00403391 0)
(-0.0140551 0.00417146 0)
(-0.0158512 0.00427262 0)
(-0.0176794 0.00433919 0)
(-0.0195258 0.0043728 0)
(-0.0213772 0.00437489 0)
(-0.0232205 0.00434663 0)
(-0.0250431 0.00428891 0)
(-0.0268328 0.00420242 0)
(-0.0285774 0.0040876 0)
(-0.0302651 0.00394474 0)
(-0.0318839 0.00377405 0)
(-0.0334224 0.00357568 0)
(-0.034869 0.0033498 0)
(-0.0362123 0.00309671 0)
(-0.0374414 0.00281684 0)
(-0.0385454 0.00251086 0)
(-0.039514 0.0021797 0)
(-0.0403374 0.00182466 0)
(-0.0410065 0.00144736 0)
(-0.041513 0.00104988 0)
(-0.0418496 0.000634684 0)
(-0.0420101 0.000204698 0)
(-0.0419897 -0.000236718 0)
(-0.041785 -0.000685775 0)
(-0.0413942 -0.00113828 0)
(-0.0408173 -0.00158968 0)
(-0.0400562 -0.00203511 0)
(-0.0391148 -0.00246945 0)
(-0.0379987 -0.0028874 0)
(-0.0367162 -0.00328359 0)
(-0.0352771 -0.00365261 0)
(-0.0336936 -0.00398922 0)
(-0.0319797 -0.00428833 0)
(-0.0301515 -0.00454523 0)
(-0.0282267 -0.00475559 0)
(-0.0262246 -0.00491566 0)
(-0.0241657 -0.00502231 0)
(-0.0220717 -0.00507315 0)
(-0.019965 -0.00506661 0)
(-0.0178685 -0.00500201 0)
(-0.015805 -0.00487962 0)
(-0.0137972 -0.00470068 0)
(-0.0118669 -0.00446748 0)
(-0.010035 -0.00418333 0)
(-0.00832065 -0.00385262 0)
(-0.00674132 -0.00348081 0)
(-0.00531188 -0.00307447 0)
(-0.00404449 -0.00264135 0)
(-0.002948 -0.00219043 0)
(-0.00202755 -0.00173214 0)
(-0.00128409 -0.00127852 0)
(-0.000713855 -0.00084362 0)
(-0.000307844 -0.000443937 0)
(-5.12853e-05 -9.90316e-05 0)
(7.67036e-05 0.000167756 0)
(0.000103631 0.000328692 0)
(6.75244e-05 0.00035104 0)
(1.96699e-05 0.000194167 0)
(-1.36939e-05 -3.75452e-05 0)
(-0.000132835 0.000197354 0)
(-0.00043584 0.000626921 0)
(-0.000924683 0.0011704 0)
(-0.001604 0.00177184 0)
(-0.00247634 0.00239037 0)
(-0.00353788 0.00299693 0)
(-0.00477992 0.00357172 0)
(-0.00619035 0.00410188 0)
(-0.00775467 0.00457966 0)
(-0.00945673 0.00500097 0)
(-0.0112795 0.00536432 0)
(-0.0132054 0.00566996 0)
(-0.015217 0.00591925 0)
(-0.017297 0.00611417 0)
(-0.0194284 0.00625698 0)
(-0.0215948 0.00634997 0)
(-0.0237803 0.00639527 0)
(-0.0259693 0.00639476 0)
(-0.0281468 0.00634998 0)
(-0.030298 0.00626219 0)
(-0.0324085 0.00613231 0)
(-0.0344642 0.00596101 0)
(-0.0364511 0.00574876 0)
(-0.0383553 0.00549591 0)
(-0.0401633 0.0052028 0)
(-0.0418617 0.00486979 0)
(-0.0434373 0.00449741 0)
(-0.0448773 0.00408644 0)
(-0.0461692 0.00363795 0)
(-0.0473013 0.00315345 0)
(-0.0482623 0.00263488 0)
(-0.0490418 0.00208474 0)
(-0.0496304 0.00150605 0)
(-0.0500198 0.000902484 0)
(-0.0502033 0.000278281 0)
(-0.0501754 -0.000361688 0)
(-0.0499324 -0.00101197 0)
(-0.0494725 -0.00166656 0)
(-0.0487959 -0.00231894 0)
(-0.0479049 -0.0029622 0)
(-0.0468041 -0.00358906 0)
(-0.0455002 -0.00419201 0)
(-0.0440025 -0.00476344 0)
(-0.0423226 -0.00529576 0)
(-0.0404743 -0.00578153 0)
(-0.0384738 -0.0062136 0)
(-0.0363393 -0.00658531 0)
(-0.034091 -0.0068906 0)
(-0.031751 -0.00712416 0)
(-0.0293426 -0.00728161 0)
(-0.0268906 -0.00735958 0)
(-0.0244205 -0.00735586 0)
(-0.0219583 -0.00726951 0)
(-0.0195302 -0.00710089 0)
(-0.017162 -0.00685181 0)
(-0.0148788 -0.0065255 0)
(-0.0127042 -0.00612669 0)
(-0.0106605 -0.00566161 0)
(-0.00876763 -0.00513804 0)
(-0.00704274 -0.00456533 0)
(-0.00549997 -0.00395446 0)
(-0.00414979 -0.00331813 0)
(-0.00299857 -0.00267094 0)
(-0.00204808 -0.00202962 0)
(-0.00129505 -0.00141338 0)
(-0.000730702 -0.000844332 0)
(-0.000340302 -0.000348181 0)
(-0.000102886 4.50988e-05 0)
(9.18267e-06 0.000300562 0)
(3.25114e-05 0.000377396 0)
(1.36245e-05 0.000224553 0)
(-2.51866e-05 4.40851e-05 0)
(-0.000200022 0.00046128 0)
(-0.000614114 0.00108712 0)
(-0.00125298 0.00183483 0)
(-0.00211217 0.00264254 0)
(-0.00318951 0.00346401 0)
(-0.00447745 0.00426559 0)
(-0.00596426 0.00502384 0)
(-0.00763544 0.00572314 0)
(-0.00947445 0.00635379 0)
(-0.0114633 0.00691048 0)
(-0.0135832 0.00739105 0)
(-0.0158148 0.00779551 0)
(-0.0181391 0.00812528 0)
(-0.0205368 0.00838264 0)
(-0.0229893 0.00857025 0)
(-0.0254784 0.00869085 0)
(-0.0279861 0.00874704 0)
(-0.0304953 0.00874112 0)
(-0.0329888 0.00867504 0)
(-0.0354502 0.00855038 0)
(-0.037863 0.00836835 0)
(-0.0402114 0.00812986 0)
(-0.0424795 0.00783558 0)
(-0.0446517 0.00748607 0)
(-0.0467126 0.00708187 0)
(-0.0486473 0.00662362 0)
(-0.0504408 0.00611217 0)
(-0.0520788 0.0055487 0)
(-0.0535474 0.00493483 0)
(-0.0548334 0.0042727 0)
(-0.0559243 0.00356508 0)
(-0.0568086 0.00281545 0)
(-0.057476 0.00202799 0)
(-0.0579173 0.0012077 0)
(-0.0581252 0.000360351 0)
(-0.0580936 -0.000507479 0)
(-0.0578187 -0.00138846 0)
(-0.0572985 -0.00227454 0)
(-0.0565334 -0.00315704 0)
(-0.055526 -0.00402672 0)
(-0.0542814 -0.00487392 0)
(-0.0528073 -0.00568868 0)
(-0.0511139 -0.00646091 0)
(-0.049214 -0.00718054 0)
(-0.047123 -0.00783774 0)
(-0.0448588 -0.00842306 0)
(-0.0424415 -0.00892768 0)
(-0.0398935 -0.00934359 0)
(-0.0372391 -0.00966376 0)
(-0.0345042 -0.00988237 0)
(-0.0317161 -0.00999497 0)
(-0.0289033 -0.00999861 0)
(-0.0260944 -0.00989201 0)
(-0.0233187 -0.00967565 0)
(-0.0206047 -0.0093519 0)
(-0.0179805 -0.00892504 0)
(-0.0154725 -0.00840131 0)
(-0.0131057 -0.00778901 0)
(-0.0109023 -0.00709842 0)
(-0.00888202 -0.00634196 0)
(-0.00706086 -0.00553413 0)
(-0.00545112 -0.00469168 0)
(-0.00406062 -0.00383371 0)
(-0.00289236 -0.00298192 0)
(-0.00194407 -0.00216089 0)
(-0.00120778 -0.00139857 0)
(-0.000669568 -0.000726815 0)
(-0.000309201 -0.000182113 0)
(-9.98446e-05 0.000193721 0)
(-7.7052e-06 0.000352562 0)
(6.86308e-06 0.00023503 0)
(-3.6342e-05 0.00016046 0)
(-0.000266958 0.000814525 0)
(-0.000793802 0.00167982 0)
(-0.00158574 0.00266633 0)
(-0.00262862 0.00370836 0)
(-0.00391487 0.00475586 0)
(-0.00543254 0.00577178 0)
(-0.00716633 0.00672983 0)
(-0.00909891 0.00761221 0)
(-0.0112114 0.00840766 0)
(-0.0134839 0.00910982 0)
(-0.0158957 0.00971599 0)
(-0.0184261 0.010226 0)
(-0.0210541 0.0106413 0)
(-0.0237591 0.0109645 0)
(-0.0265208 0.0111986 0)
(-0.0293195 0.0113469 0)
(-0.0321356 0.0114123 0)
(-0.0349502 0.0113975 0)
(-0.0377447 0.0113049 0)
(-0.040501 0.0111365 0)
(-0.0432009 0.0108936 0)
(-0.045827 0.0105775 0)
(-0.0483617 0.0101891 0)
(-0.050788 0.00972917 0)
(-0.0530888 0.00919849 0)
(-0.0552477 0.00859803 0)
(-0.0572483 0.00792903 0)
(-0.0590749 0.00719317 0)
(-0.0607123 0.00639268 0)
(-0.062146 0.00553047 0)
(-0.0633625 0.00461024 0)
(-0.0643493 0.00363656 0)
(-0.0650951 0.00261493 0)
(-0.06559 0.00155181 0)
(-0.065826 0.000454668 0)
(-0.0657967 -0.000668043 0)
(-0.0654978 -0.00180694 0)
(-0.0649273 -0.00295173 0)
(-0.0640855 -0.00409137 0)
(-0.0629754 -0.00521412 0)
(-0.0616023 -0.0063077 0)
(-0.0599746 -0.00735949 0)
(-0.0581033 -0.00835671 0)
(-0.0560022 -0.00928663 0)
(-0.0536879 -0.0101368 0)
(-0.0511796 -0.0108952 0)
(-0.0484993 -0.0115507 0)
(-0.0456709 -0.0120931 0)
(-0.0427209 -0.0125136 0)
(-0.0396774 -0.0128047 0)
(-0.03657 -0.0129606 0)
(-0.0334296 -0.0129777 0)
(-0.0302875 -0.0128542 0)
(-0.0271756 -0.0125908 0)
(-0.0241252 -0.0121902 0)
(-0.021167 -0.0116578 0)
(-0.0183303 -0.0110016 0)
(-0.0156425 -0.0102319 0)
(-0.0131284 -0.00936178 0)
(-0.0108101 -0.00840685 0)
(-0.00870572 -0.00738538 0)
(-0.00682958 -0.00631837 0)
(-0.0051913 -0.00522966 0)
(-0.00379546 -0.00414611 0)
(-0.00264122 -0.00309787 0)
(-0.001722 -0.00211873 0)
(-0.00102524 -0.00124668 0)
(-0.000532096 -0.000524506 0)
(-0.000217209 -4.40876e-07 0)
(-5.04565e-05 0.000270969 0)
(-8.29008e-08 0.000223892 0)
(-4.70635e-05 0.000310944 0)
(-0.00033266 0.001257 0)
(-0.000971903 0.00240599 0)
(-0.00191734 0.00366679 0)
(-0.00314494 0.00497163 0)
(-0.00464137 0.00626816 0)
(-0.0063898 0.00751712 0)
(-0.00837094 0.00869029 0)
(-0.0105643 0.00976835 0)
(-0.0129484 0.0107389 0)
(-0.0155012 0.0115949 0)
(-0.0182003 0.0123334 0)
(-0.021023 0.012954 0)
(-0.0239471 0.0134584 0)
(-0.0269505 0.0138495 0)
(-0.0300114 0.0141308 0)
(-0.0331087 0.0143057 0)
(-0.0362214 0.0143779 0)
(-0.0393293 0.0143503 0)
(-0.0424123 0.0142259 0)
(-0.0454508 0.0140066 0)
(-0.0484254 0.0136945 0)
(-0.051317 0.0132908 0)
(-0.0541068 0.0127967 0)
(-0.0567762 0.0122133 0)
(-0.059307 0.0115417 0)
(-0.0616813 0.0107832 0)
(-0.0638813 0.00993952 0)
(-0.0658903 0.00901284 0)
(-0.0676918 0.00800611 0)
(-0.0692702 0.00692309 0)
(-0.070611 0.0057685 0)
(-0.0717006 0.00454811 0)
(-0.0725271 0.00326884 0)
(-0.0730798 0.00193875 0)
(-0.0733499 0.000567137 0)
(-0.0733307 -0.000835549 0)
(-0.0730174 -0.00225771 0)
(-0.0724078 -0.00368669 0)
(-0.0715021 -0.00510889 0)
(-0.0703031 -0.00650988 0)
(-0.0688167 -0.00787464 0)
(-0.0670515 -0.00918767 0)
(-0.065019 -0.0104333 0)
(-0.0627338 -0.011596 0)
(-0.0602134 -0.0126603 0)
(-0.0574783 -0.0136118 0)
(-0.0545515 -0.0144365 0)
(-0.0514589 -0.015122 0)
(-0.0482283 -0.0156574 0)
(-0.0448899 -0.0160334 0)
(-0.0414756 -0.016243 0)
(-0.0380183 -0.0162813 0)
(-0.0345519 -0.0161462 0)
(-0.0311107 -0.0158381 0)
(-0.0277288 -0.0153606 0)
(-0.0244395 -0.0147201 0)
(-0.0212748 -0.013926 0)
(-0.0182646 -0.012991 0)
(-0.0154367 -0.0119309 0)
(-0.0128153 -0.0107647 0)
(-0.0104212 -0.00951466 0)
(-0.00827083 -0.0082061 0)
(-0.00637596 -0.00686781 0)
(-0.00474314 -0.00553192 0)
(-0.00337342 -0.00423425 0)
(-0.002262 -0.00301447 0)
(-0.00139818 -0.00191661 0)
(-0.000764996 -0.000989545 0)
(-0.000339006 -0.000287447 0)
(-9.41827e-05 0.000129509 0)
(-6.94307e-06 0.000190486 0)
(-5.73394e-05 0.000494631 0)
(-0.000396646 0.00178747 0)
(-0.00114668 0.00326476 0)
(-0.00224424 0.00483582 0)
(-0.00365557 0.00643233 0)
(-0.00536135 0.00800097 0)
(-0.00733963 0.00950138 0)
(-0.00956686 0.0109044 0)
(-0.0120191 0.0121898 0)
(-0.0146721 0.0133447 0)
(-0.0175015 0.0143617 0)
(-0.0204829 0.0152378 0)
(-0.0235922 0.0159729 0)
(-0.0268055 0.0165688 0)
(-0.0300993 0.0170289 0)
(-0.0334507 0.0173569 0)
(-0.0368371 0.017557 0)
(-0.0402366 0.017633 0)
(-0.0436275 0.0175884 0)
(-0.0469886 0.0174265 0)
(-0.050299 0.0171496 0)
(-0.0535381 0.0167599 0)
(-0.0566857 0.016259 0)
(-0.0597216 0.0156485 0)
(-0.062626 0.0149295 0)
(-0.0653795 0.0141036 0)
(-0.067963 0.0131724 0)
(-0.0703578 0.0121382 0)
(-0.0725457 0.0110037 0)
(-0.0745094 0.0097727 0)
(-0.0762322 0.00844979 0)
(-0.0776985 0.0070408 0)
(-0.0788942 0.00555281 0)
(-0.0798061 0.0039942 0)
(-0.080423 0.00237477 0)
(-0.0807354 0.000705698 0)
(-0.0807359 -0.00100043 0)
(-0.0804193 -0.0027297 0)
(-0.0797831 -0.00446696 0)
(-0.078827 -0.00619591 0)
(-0.0775539 -0.00789933 0)
(-0.0759695 -0.00955925 0)
(-0.0740825 -0.0111572 0)
(-0.0719049 -0.0126744 0)
(-0.0694517 -0.0140922 0)
(-0.066741 -0.0153923 0)
(-0.0637942 -0.0165571 0)
(-0.0606354 -0.0175702 0)
(-0.0572917 -0.0184165 0)
(-0.0537926 -0.0190826 0)
(-0.0501699 -0.0195575 0)
(-0.0464574 -0.0198324 0)
(-0.0426903 -0.0199015 0)
(-0.0389047 -0.0197619 0)
(-0.0351375 -0.0194139 0)
(-0.0314253 -0.0188615 0)
(-0.0278041 -0.018112 0)
(-0.0243087 -0.0171765 0)
(-0.020972 -0.01607 0)
(-0.0178243 -0.0148112 0)
(-0.0148927 -0.0134224 0)
(-0.0122006 -0.0119299 0)
(-0.00976705 -0.0103636 0)
(-0.00760624 -0.0087573 0)
(-0.00572706 -0.00714857 0)
(-0.00413281 -0.00557891 0)
(-0.00282093 -0.00409391 0)
(-0.00178292 -0.00274355 0)
(-0.00100403 -0.00158261 0)
(-0.000463019 -0.000670842 0)
(-0.000138066 -7.34362e-05 0)
(-1.36015e-05 0.000134731 0)
(-6.71875e-05 0.000710491 0)
(-0.000458689 0.00240402 0)
(-0.00131713 0.00425403 0)
(-0.00256424 0.00617145 0)
(-0.00415679 0.00808865 0)
(-0.00606946 0.00995251 0)
(-0.00827511 0.0117226 0)
(-0.0107457 0.0133698 0)
(-0.0134537 0.0148736 0)
(-0.0163719 0.0162214 0)
(-0.0194736 0.0174058 0)
(-0.0227324 0.0184241 0)
(-0.0261224 0.0192766 0)
(-0.0296183 0.0199655 0)
(-0.0331953 0.0204948 0)
(-0.0368293 0.0208686 0)
(-0.0404967 0.0210917 0)
(-0.0441744 0.0211683 0)
(-0.0478396 0.0211024 0)
(-0.0514701 0.0208974 0)
(-0.055044 0.0205562 0)
(-0.0585396 0.0200812 0)
(-0.0619355 0.0194742 0)
(-0.0652107 0.0187371 0)
(-0.0683443 0.0178714 0)
(-0.0713157 0.0168788 0)
(-0.0741048 0.0157616 0)
(-0.0766919 0.0145223 0)
(-0.0790578 0.0131645 0)
(-0.0811842 0.0116927 0)
(-0.0830536 0.0101124 0)
(-0.0846494 0.00843062 0)
(-0.0859563 0.00665577 0)
(-0.0869607 0.00479778 0)
(-0.0876504 0.0028682 0)
(-0.0880151 0.000880203 0)
(-0.0880468 -0.00115144 0)
(-0.0877397 -0.0032104 0)
(-0.0870906 -0.00527892 0)
(-0.0860988 -0.00733793 0)
(-0.0847668 -0.00936728 0)
(-0.0831002 -0.0113459 0)
(-0.0811074 -0.0132522 0)
(-0.0788004 -0.0150641 0)
(-0.0761946 -0.0167598 0)
(-0.0733084 -0.0183178 0)
(-0.0701638 -0.0197174 0)
(-0.0667858 -0.020939 0)
(-0.0632024 -0.0219649 0)
(-0.0594445 -0.0227792 0)
(-0.0555456 -0.0233687 0)
(-0.0515411 -0.0237227 0)
(-0.0474682 -0.0238341 0)
(-0.0433656 -0.0236991 0)
(-0.0392724 -0.0233177 0)
(-0.035228 -0.0226941 0)
(-0.0312712 -0.0218367 0)
(-0.0274398 -0.0207581 0)
(-0.0237695 -0.0194755 0)
(-0.0202938 -0.0180103 0)
(-0.0170428 -0.0163884 0)
(-0.0140428 -0.0146403 0)
(-0.0113159 -0.0128004 0)
(-0.00887888 -0.0109077 0)
(-0.00674355 -0.00900526 0)
(-0.00491575 -0.00714028 0)
(-0.00339548 -0.00536434 0)
(-0.00217678 -0.00373337 0)
(-0.00124734 -0.00230791 0)
(-0.000588236 -0.00115307 0)
(-0.00018178 -0.000338704 0)
(-2.00319e-05 5.67953e-05 0)
(-7.66317e-05 0.000957444 0)
(-0.000518686 0.00310436 0)
(-0.00148265 0.00537092 0)
(-0.0028759 0.0076706 0)
(-0.00464604 0.00993746 0)
(-0.00676191 0.0121196 0)
(-0.00919111 0.0141776 0)
(-0.0119011 0.0160829 0)
(-0.0148607 0.017816 0)
(-0.0180396 0.0193646 0)
(-0.0214085 0.0207222 0)
(-0.0249391 0.0218866 0)
(-0.0286039 0.0228588 0)
(-0.0323759 0.0236418 0)
(-0.0362293 0.02424 0)
(-0.0401388 0.0246584 0)
(-0.0440797 0.024902 0)
(-0.048028 0.0249759 0)
(-0.05196 0.0248842 0)
(-0.0558527 0.0246309 0)
(-0.0596831 0.0242191 0)
(-0.0634287 0.0236515 0)
(-0.0670672 0.0229302 0)
(-0.0705767 0.0220572 0)
(-0.0739355 0.0210345 0)
(-0.0771219 0.0198642 0)
(-0.0801151 0.0185487 0)
(-0.0828943 0.0170914 0)
(-0.0854395 0.0154962 0)
(-0.0877314 0.0137686 0)
(-0.0897516 0.011915 0)
(-0.0914827 0.00994367 0)
(-0.0929085 0.00786429 0)
(-0.0940144 0.0056884 0)
(-0.0947874 0.00342935 0)
(-0.0952164 0.00110231 0)
(-0.0952924 -0.00127568 0)
(-0.0950089 -0.00368585 0)
(-0.094362 -0.00610776 0)
(-0.0933503 -0.0085195 0)
(-0.0919757 -0.0108979 0)
(-0.0902431 -0.0132186 0)
(-0.0881608 -0.0154568 0)
(-0.0857405 -0.0175871 0)
(-0.0829974 -0.0195841 0)
(-0.0799501 -0.0214231 0)
(-0.0766208 -0.0230798 0)
(-0.0730352 -0.0245317 0)
(-0.0692222 -0.0257577 0)
(-0.0652138 -0.0267395 0)
(-0.0610448 -0.027461 0)
(-0.0567523 -0.0279099 0)
(-0.0523758 -0.0280771 0)
(-0.0479559 -0.0279578 0)
(-0.0435344 -0.0275517 0)
(-0.0391534 -0.0268628 0)
(-0.0348548 -0.0259003 0)
(-0.0306794 -0.0246783 0)
(-0.0266663 -0.0232161 0)
(-0.0228522 -0.021538 0)
(-0.0192706 -0.0196734 0)
(-0.0159512 -0.0176568 0)
(-0.0129192 -0.0155275 0)
(-0.0101948 -0.0133295 0)
(-0.00779272 -0.0111116 0)
(-0.00572187 -0.00892688 0)
(-0.0039851 -0.00683288 0)
(-0.00257923 -0.00489155 0)
(-0.00149456 -0.00316916 0)
(-0.000714501 -0.00173614 0)
(-0.000225326 -0.000666859 0)
(-2.62606e-05 -4.31043e-05 0)
(-8.56935e-05 0.0012344 0)
(-0.000576585 0.00388594 0)
(-0.00164287 0.00661201 0)
(-0.00317822 0.00932934 0)
(-0.00512151 0.0119746 0)
(-0.00743586 0.0144979 0)
(-0.0100837 0.0168618 0)
(-0.0130281 0.0190393 0)
(-0.0162339 0.0210121 0)
(-0.019668 0.0227692 0)
(-0.0232985 0.0243054 0)
(-0.027095 0.0256195 0)
(-0.0310282 0.0267133 0)
(-0.0350699 0.027591 0)
(-0.0391929 0.0282577 0)
(-0.043371 0.0287191 0)
(-0.0475785 0.0289809 0)
(-0.0517905 0.0290486 0)
(-0.0559828 0.0289271 0)
(-0.0601312 0.0286204 0)
(-0.0642123 0.0281322 0)
(-0.0682028 0.0274654 0)
(-0.0720796 0.0266224 0)
(-0.07582 0.0256054 0)
(-0.0794015 0.0244166 0)
(-0.0828019 0.0230585 0)
(-0.0859992 0.021534 0)
(-0.0889721 0.0198469 0)
(-0.0916996 0.0180018 0)
(-0.0941617 0.0160049 0)
(-0.096339 0.0138638 0)
(-0.0982131 0.0115876 0)
(-0.0997671 0.00918761 0)
(-0.100985 0.00667678 0)
(-0.101854 0.0040703 0)
(-0.102361 0.00138538 0)
(-0.102496 -0.00135871 0)
(-0.102252 -0.00414069 0)
(-0.101623 -0.00693742 0)
(-0.100609 -0.00972406 0)
(-0.0992086 -0.0124743 0)
(-0.0974275 -0.0151606 0)
(-0.0952727 -0.0177547 0)
(-0.0927554 -0.0202275 0)
(-0.0898905 -0.0225503 0)
(-0.0866964 -0.0246944 0)
(-0.0831955 -0.0266322 0)
(-0.0794136 -0.0283376 0)
(-0.0753804 -0.0297863 0)
(-0.0711287 -0.0309567 0)
(-0.0666946 -0.0318302 0)
(-0.062117 -0.0323918 0)
(-0.0574371 -0.0326307 0)
(-0.0526979 -0.0325406 0)
(-0.0479439 -0.0321203 0)
(-0.04322 -0.0313738 0)
(-0.0385713 -0.0303108 0)
(-0.034042 -0.0289467 0)
(-0.0296748 -0.0273027 0)
(-0.0255099 -0.025406 0)
(-0.0215847 -0.0232895 0)
(-0.0179326 -0.0209917 0)
(-0.0145824 -0.0185568 0)
(-0.011558 -0.0160341 0)
(-0.00887762 -0.0134781 0)
(-0.00655338 -0.0109478 0)
(-0.00459133 -0.00850702 0)
(-0.00299134 -0.00622376 0)
(-0.00174641 -0.00417019 0)
(-0.00084226 -0.00242211 0)
(-0.000268925 -0.00105855 0)
(-3.23464e-05 -0.000164834 0)
(-9.43879e-05 0.00154026 0)
(-0.000632348 0.00474605 0)
(-0.0017975 0.00797347 0)
(-0.00347048 0.0111431 0)
(-0.00558179 0.014195 0)
(-0.00808907 0.0170822 0)
(-0.0109498 0.0197698 0)
(-0.0141224 0.0222331 0)
(-0.0175684 0.0244559 0)
(-0.0212514 0.0264292 0)
(-0.025137 0.0281492 0)
(-0.0291928 0.0296163 0)
(-0.0333877 0.0308336 0)
(-0.0376922 0.0318065 0)
(-0.0420781 0.0325411 0)
(-0.0465179 0.0330439 0)
(-0.0509854 0.0333216 0)
(-0.0554548 0.0333801 0)
(-0.0599011 0.0332249 0)
(-0.0642998 0.0328604 0)
(-0.0686266 0.0322907 0)
(-0.0728578 0.0315188 0)
(-0.0769695 0.0305475 0)
(-0.0809386 0.0293792 0)
(-0.0847418 0.0280165 0)
(-0.0883562 0.0264619 0)
(-0.0917592 0.024719 0)
(-0.0949288 0.0227919 0)
(-0.0978432 0.020686 0)
(-0.100481 0.018408 0)
(-0.102824 0.0159665 0)
(-0.10485 0.0133719 0)
(-0.106543 0.0106366 0)
(-0.107886 0.00777529 0)
(-0.108864 0.00480477 0)
(-0.109463 0.00174431 0)
(-0.109674 -0.00138458 0)
(-0.109486 -0.00455814 0)
(-0.108894 -0.00775052 0)
(-0.107895 -0.0109339 0)
(-0.106488 -0.0140788 0)
(-0.104677 -0.0171544 0)
(-0.102467 -0.0201287 0)
(-0.0998703 -0.0229692 0)
(-0.0968998 -0.0256431 0)
(-0.0935738 -0.028118 0)
(-0.0899144 -0.0303626 0)
(-0.0859477 -0.0323467 0)
(-0.0817035 -0.0340426 0)
(-0.0772155 -0.0354252 0)
(-0.0725209 -0.0364727 0)
(-0.0676601 -0.0371675 0)
(-0.0626762 -0.0374963 0)
(-0.0576146 -0.0374511 0)
(-0.0525225 -0.0370296 0)
(-0.0474479 -0.0362354 0)
(-0.0424392 -0.0350783 0)
(-0.0375444 -0.0335749 0)
(-0.0328099 -0.0317482 0)
(-0.0282802 -0.029628 0)
(-0.0239967 -0.0272507 0)
(-0.0199969 -0.0246591 0)
(-0.0163138 -0.021902 0)
(-0.0129754 -0.0190343 0)
(-0.0100036 -0.0161162 0)
(-0.00741446 -0.0132131 0)
(-0.00521735 -0.010395 0)
(-0.00341539 -0.00773634 0)
(-0.0020044 -0.00531535 0)
(-0.000972392 -0.0032135 0)
(-0.000312948 -0.00151475 0)
(-3.83672e-05 -0.000308431 0)
(-0.000102723 0.00187392 0)
(-0.000685933 0.00568187 0)
(-0.0019463 0.00945119 0)
(-0.00375202 0.0131069 0)
(-0.00602568 0.016593 0)
(-0.00871965 0.0198663 0)
(-0.0117866 0.0228952 0)
(-0.0151807 0.0256578 0)
(-0.0188598 0.028141 0)
(-0.0227845 0.0303378 0)
(-0.026918 0.0322468 0)
(-0.0312258 0.0338701 0)
(-0.0356752 0.0352128 0)
(-0.0402354 0.0362813 0)
(-0.044877 0.0370833 0)
(-0.0495717 0.0376263 0)
(-0.0542925 0.0379178 0)
(-0.059013 0.0379644 0)
(-0.0637077 0.0377721 0)
(-0.0683515 0.037346 0)
(-0.0729197 0.0366902 0)
(-0.0773879 0.0358083 0)
(-0.0817321 0.0347032 0)
(-0.0859283 0.0333776 0)
(-0.0899529 0.0318342 0)
(-0.0937824 0.030076 0)
(-0.0973938 0.0281067 0)
(-0.100764 0.0259309 0)
(-0.103871 0.0235546 0)
(-0.106693 0.0209854 0)
(-0.109209 0.0182325 0)
(-0.111398 0.0153074 0)
(-0.113242 0.0122238 0)
(-0.114724 0.00899773 0)
(-0.115826 0.00564791 0)
(-0.116535 0.00219544 0)
(-0.116838 -0.00133595 0)
(-0.116725 -0.00492008 0)
(-0.116189 -0.00852836 0)
(-0.115224 -0.0121301 0)
(-0.11383 -0.0156925 0)
(-0.112008 -0.0191813 0)
(-0.109763 -0.0225609 0)
(-0.107105 -0.0257949 0)
(-0.104046 -0.0288466 0)
(-0.100604 -0.0316796 0)
(-0.0968002 -0.0342583 0)
(-0.0926605 -0.0365485 0)
(-0.0882151 -0.0385185 0)
(-0.083498 -0.0401393 0)
(-0.0785475 -0.0413856 0)
(-0.0734053 -0.0422365 0)
(-0.0681165 -0.0426762 0)
(-0.0627288 -0.0426943 0)
(-0.0572923 -0.0422871 0)
(-0.0518581 -0.0414571 0)
(-0.0464784 -0.0402144 0)
(-0.041205 -0.0385761 0)
(-0.0360887 -0.036567 0)
(-0.0311784 -0.0342193 0)
(-0.0265201 -0.0315729 0)
(-0.022156 -0.0286746 0)
(-0.0181237 -0.0255783 0)
(-0.0144556 -0.0223443 0)
(-0.011178 -0.0190389 0)
(-0.00831085 -0.015734 0)
(-0.00586754 -0.0125062 0)
(-0.00385454 -0.00943659 0)
(-0.00227063 -0.00660984 0)
(-0.00110608 -0.00411351 0)
(-0.000357867 -0.00203696 0)
(-4.44132e-05 -0.000474162 0)
(-0.000110698 0.00223426 0)
(-0.000737278 0.0066904 0)
(-0.00208899 0.0110407 0)
(-0.00402226 0.0152153 0)
(-0.00645208 0.0191625 0)
(-0.00932587 0.0228436 0)
(-0.0125916 0.0262308 0)
(-0.0161996 0.0293062 0)
(-0.0201039 0.0320597 0)
(-0.0242624 0.0344874 0)
(-0.0286358 0.0365905 0)
(-0.0331877 0.0383734 0)
(-0.0378838 0.0398432 0)
(-0.0426919 0.0410082 0)
(-0.0475818 0.0418773 0)
(-0.0525243 0.0424594 0)
(-0.0574916 0.0427629 0)
(-0.062457 0.0427954 0)
(-0.0673944 0.0425633 0)
(-0.0722783 0.0420724 0)
(-0.0770836 0.0413271 0)
(-0.0817857 0.0403312 0)
(-0.0863601 0.0390879 0)
(-0.0907825 0.0376001 0)
(-0.0950289 0.0358707 0)