/*--------------------------------*- C++ -*----------------------------------*\
  =========                 |
  \\      /  F ield         | OpenFOAM: The Open Source CFD Toolbox
   \\    /   O peration     | Website:  https://openfoam.org
    \\  /    A nd           | Version:  dev
     \\/     M anipulation  |
\*---------------------------------------------------------------------------*/
FoamFile
{
    format      ascii;
    class       volScalarField;
    location    "34.65";
    object      Uy;
}
// * * * * * * * * * * * * * * * * * * * * * * * * * * * * * * * * * * * * * //

dimensions      [0 1 -1 0 0 0 0];

internalField   nonuniform List<scalar> 
5184
(
-1.26832e-05
-2.0876e-05
-1.72439e-05
-8.19511e-06
2.66974e-06
1.36187e-05
2.38472e-05
3.30505e-05
4.11088e-05
4.80278e-05
5.38692e-05
5.87177e-05
6.26659e-05
6.5805e-05
6.82199e-05
6.99858e-05
7.11671e-05
7.18162e-05
7.1974e-05
7.16701e-05
7.09237e-05
6.97455e-05
6.81382e-05
6.60989e-05
6.36203e-05
6.06929e-05
5.73059e-05
5.34499e-05
4.91177e-05
4.43064e-05
3.90184e-05
3.32629e-05
2.70572e-05
2.04272e-05
1.34087e-05
6.0474e-06
-1.60064e-06
-9.46893e-06
-1.74809e-05
-2.55507e-05
-3.35839e-05
-4.14788e-05
-4.91282e-05
-5.64212e-05
-6.32451e-05
-6.94882e-05
-7.50416e-05
-7.98022e-05
-8.36755e-05
-8.65777e-05
-8.84382e-05
-8.92017e-05
-8.88301e-05
-8.73037e-05
-8.4622e-05
-8.08046e-05
-7.58908e-05
-6.99394e-05
-6.30279e-05
-5.52523e-05
-4.67266e-05
-3.75838e-05
-2.79789e-05
-1.80947e-05
-8.15664e-06
1.54048e-06
1.05727e-05
1.83031e-05
2.37196e-05
2.51305e-05
1.98501e-05
6.24419e-06
-4.58486e-05
-6.56921e-05
-4.05536e-05
7.6357e-06
6.56826e-05
0.000126
0.000184307
0.000238359
0.000287013
0.000329827
0.000366761
0.000398005
0.000423871
0.000444725
0.000460945
0.000472889
0.00048088
0.000485193
0.000486053
0.00048363
0.000478045
0.000469375
0.00045766
0.000442907
0.000425105
0.00040423
0.000380259
0.000353173
0.000322975
0.00028969
0.000253379
0.000214144
0.000172136
0.000127558
8.06697e-05
3.17893e-05
-1.87037e-05
-7.03712e-05
-0.000122718
-0.000175196
-0.000227212
-0.000278134
-0.000327298
-0.000374028
-0.000417638
-0.000457454
-0.000492821
-0.000523127
-0.000547809
-0.000566373
-0.000578407
-0.00058359
-0.000581707
-0.000572655
-0.00055645
-0.000533231
-0.000503261
-0.000466931
-0.000424754
-0.000377372
-0.000325552
-0.0002702
-0.000212377
-0.000153336
-9.45872e-05
-3.80098e-05
1.39361e-05
5.79453e-05
8.9425e-05
0.000101878
8.65327e-05
3.64928e-05
-8.13017e-05
-9.50338e-05
-1.91376e-05
0.000105932
0.000254663
0.000410612
0.000563461
0.000707075
0.000838002
0.000954536
0.00105608
0.00114273
0.001215
0.00127361
0.00131939
0.00135315
0.00137568
0.00138764
0.0013896
0.001382
0.00136516
0.00133932
0.00130459
0.00126105
0.0012087
0.00114753
0.00107754
0.000998732
0.000911177
0.000815012
0.000710468
0.000597892
0.000477756
0.000350676
0.000217418
7.89054e-05
-6.37821e-05
-0.000209408
-0.00035659
-0.000503808
-0.000649429
-0.000791717
-0.000928872
-0.00105905
-0.0011804
-0.0012911
-0.0013894
-0.00147365
-0.00154235
-0.00159419
-0.00162806
-0.00164314
-0.00163885
-0.00161494
-0.00157147
-0.00150886
-0.00142785
-0.00132953
-0.00121536
-0.00108714
-0.000947053
-0.000797658
-0.000641965
-0.000483508
-0.000326486
-0.000175987
-3.83309e-05
7.84666e-05
0.000164108
0.000205426
0.000186309
9.04052e-05
-9.77537e-05
-7.31617e-05
8.47751e-05
0.000318369
0.00059012
0.000874402
0.00115418
0.00141867
0.00166139
0.00187881
0.00206938
0.00223283
0.00236974
0.00248113
0.00256829
0.00263253
0.00267515
0.00269729
0.00269994
0.00268388
0.00264971
0.00259786
0.0025286
0.00244208
0.00233839
0.00221757
0.00207967
0.00192481
0.00175319
0.00156517
0.00136126
0.0011422
0.000908968
0.000662804
0.000405219
0.000138017
-0.000136713
-0.000416601
-0.000699011
-0.000981066
-0.00125968
-0.00153159
-0.00179342
-0.00204173
-0.00227308
-0.00248407
-0.00267145
-0.00283219
-0.00296349
-0.00306294
-0.00312852
-0.00315867
-0.00315239
-0.00310922
-0.00302931
-0.00291345
-0.00276307
-0.00258026
-0.0023678
-0.00212912
-0.00186839
-0.00159049
-0.00130116
-0.00100704
-0.000715975
-0.000437229
-0.00018195
3.62514e-05
0.000200656
0.000290871
0.0002826
0.000147304
-8.44265e-05
2.0876e-05
0.000295447
0.000668052
0.00109088
0.00153001
0.001962
0.00237138
0.00274842
0.00308748
0.00338579
0.00364253
0.00385815
0.00403391
0.00417146
0.00427262
0.00433919
0.0043728
0.00437489
0.00434663
0.00428891
0.00420242
0.0040876
0.00394474
0.00377405
0.00357568
0.0033498
0.00309671
0.00281684
0.00251086
0.0021797
0.00182466
0.00144736
0.00104988
0.000634684
0.000204698
-0.000236718
-0.000685775
-0.00113828
-0.00158968
-0.00203511
-0.00246945
-0.0028874
-0.00328359
-0.00365261
-0.00398922
-0.00428833
-0.00454523
-0.00475559
-0.00491566
-0.00502231
-0.00507315
-0.00506661
-0.00500201
-0.00487962
-0.00470068
-0.00446748
-0.00418333
-0.00385262
-0.00348081
-0.00307447
-0.00264135
-0.00219043
-0.00173214
-0.00127852
-0.00084362
-0.000443937
-9.90316e-05
0.000167756
0.000328692
0.00035104
0.000194167
-3.75452e-05
0.000197354
0.000626921
0.0011704
0.00177184
0.00239037
0.00299693
0.00357172
0.00410188
0.00457966
0.00500097
0.00536432
0.00566996
0.00591925
0.00611417
0.00625698
0.00634997
0.00639527
0.00639476
0.00634998
0.00626219
0.00613231
0.00596101
0.00574876
0.00549591
0.0052028
0.00486979
0.00449741
0.00408644
0.00363795
0.00315345
0.00263488
0.00208474
0.00150605
0.000902484
0.000278281
-0.000361688
-0.00101197
-0.00166656
-0.00231894
-0.0029622
-0.00358906
-0.00419201
-0.00476344
-0.00529576
-0.00578153
-0.0062136
-0.00658531
-0.0068906
-0.00712416
-0.00728161
-0.00735958
-0.00735586
-0.00726951
-0.00710089
-0.00685181
-0.0065255
-0.00612669
-0.00566161
-0.00513804
-0.00456533
-0.00395446
-0.00331813
-0.00267094
-0.00202962
-0.00141338
-0.000844332
-0.000348181
4.50988e-05
0.000300562
0.000377396
0.000224553
4.40851e-05
0.00046128
0.00108712
0.00183483
0.00264254
0.00346401
0.00426559
0.00502384
0.00572314
0.00635379
0.00691048
0.00739105
0.00779551
0.00812528
0.00838264
0.00857025
0.00869085
0.00874704
0.00874112
0.00867504
0.00855038
0.00836835
0.00812986
0.00783558
0.00748607
0.00708187
0.00662362
0.00611217
0.0055487
0.00493483
0.0042727
0.00356508
0.00281545
0.00202799
0.0012077
0.000360351
-0.000507479
-0.00138846
-0.00227454
-0.00315704
-0.00402672
-0.00487392
-0.00568868
-0.00646091
-0.00718054
-0.00783774
-0.00842306
-0.00892768
-0.00934359
-0.00966376
-0.00988237
-0.00999497
-0.00999861
-0.00989201
-0.00967565
-0.0093519
-0.00892504
-0.00840131
-0.00778901
-0.00709842
-0.00634196
-0.00553413
-0.00469168
-0.00383371
-0.00298192
-0.00216089
-0.00139857
-0.000726815
-0.000182113
0.000193721
0.000352562
0.00023503
0.00016046
0.000814525
0.00167982
0.00266633
0.00370836
0.00475586
0.00577178
0.00672983
0.00761221
0.00840766
0.00910982
0.00971599
0.010226
0.0106413
0.0109645
0.0111986
0.0113469
0.0114123
0.0113975
0.0113049
0.0111365
0.0108936
0.0105775
0.0101891
0.00972917
0.00919849
0.00859803
0.00792903
0.00719317
0.00639268
0.00553047
0.00461024
0.00363656
0.00261493
0.00155181
0.000454668
-0.000668043
-0.00180694
-0.00295173
-0.00409137
-0.00521412
-0.0063077
-0.00735949
-0.00835671
-0.00928663
-0.0101368
-0.0108952
-0.0115507
-0.0120931
-0.0125136
-0.0128047
-0.0129606
-0.0129777
-0.0128542
-0.0125908
-0.0121902
-0.0116578
-0.0110016
-0.0102319
-0.00936178
-0.00840685
-0.00738538
-0.00631837
-0.00522966
-0.00414611
-0.00309787
-0.00211873
-0.00124668
-0.000524506
-4.40876e-07
0.000270969
0.000223892
0.000310944
0.001257
0.00240599
0.00366679
0.00497163
0.00626816
0.00751712
0.00869029
0.00976835
0.0107389
0.0115949
0.0123334
0.012954
0.0134584
0.0138495
0.0141308
0.0143057
0.0143779
0.0143503
0.0142259
0.0140066
0.0136945
0.0132908
0.0127967
0.0122133
0.0115417
0.0107832
0.00993952
0.00901284
0.00800611
0.00692309
0.0057685
0.00454811
0.00326884
0.00193875
0.000567137
-0.000835549
-0.00225771
-0.00368669
-0.00510889
-0.00650988
-0.00787464
-0.00918767
-0.0104333
-0.011596
-0.0126603
-0.0136118
-0.0144365
-0.015122
-0.0156574
-0.0160334
-0.016243
-0.0162813
-0.0161462
-0.0158381
-0.0153606
-0.0147201
-0.013926
-0.012991
-0.0119309
-0.0107647
-0.00951466
-0.0082061
-0.00686781
-0.00553192
-0.00423425
-0.00301447
-0.00191661
-0.000989545
-0.000287447
0.000129509
0.000190486
0.000494631
0.00178747
0.00326476
0.00483582
0.00643233
0.00800097
0.00950138
0.0109044
0.0121898
0.0133447
0.0143617
0.0152378
0.0159729
0.0165688
0.0170289
0.0173569
0.017557
0.017633
0.0175884
0.0174265
0.0171496
0.0167599
0.016259
0.0156485
0.0149295
0.0141036
0.0131724
0.0121382
0.0110037
0.0097727
0.00844979
0.0070408
0.00555281
0.0039942
0.00237477
0.000705698
-0.00100043
-0.0027297
-0.00446696
-0.00619591
-0.00789933
-0.00955925
-0.0111572
-0.0126744
-0.0140922
-0.0153923
-0.0165571
-0.0175702
-0.0184165
-0.0190826
-0.0195575
-0.0198324
-0.0199015
-0.0197619
-0.0194139
-0.0188615
-0.018112
-0.0171765
-0.01607
-0.0148112
-0.0134224
-0.0119299
-0.0103636
-0.0087573
-0.00714857
-0.00557891
-0.00409391
-0.00274355
-0.00158261
-0.000670842
-7.34362e-05
0.000134731
0.000710491
0.00240402
0.00425403
0.00617145
0.00808865
0.00995251
0.0117226
0.0133698
0.0148736
0.0162214
0.0174058
0.0184241
0.0192766
0.0199655
0.0204948
0.0208686
0.0210917
0.0211683
0.0211024
0.0208974
0.0205562
0.0200812
0.0194742
0.0187371
0.0178714
0.0168788
0.0157616
0.0145223
0.0131645
0.0116927
0.0101124
0.00843062
0.00665577
0.00479778
0.0028682
0.000880203
-0.00115144
-0.0032104
-0.00527892
-0.00733793
-0.00936728
-0.0113459
-0.0132522
-0.0150641
-0.0167598
-0.0183178
-0.0197174
-0.020939
-0.0219649
-0.0227792
-0.0233687
-0.0237227
-0.0238341
-0.0236991
-0.0233177
-0.0226941
-0.0218367
-0.0207581
-0.0194755
-0.0180103
-0.0163884
-0.0146403
-0.0128004
-0.0109077
-0.00900526
-0.00714028
-0.00536434
-0.00373337
-0.00230791
-0.00115307
-0.000338704
5.67953e-05
0.000957444
0.00310436
0.00537092
0.0076706
0.00993746
0.0121196
0.0141776
0.0160829
0.017816
0.0193646
0.0207222
0.0218866
0.0228588
0.0236418
0.02424
0.0246584
0.024902
0.0249759
0.0248842
0.0246309
0.0242191
0.0236515
0.0229302
0.0220572
0.0210345
0.0198642
0.0185487
0.0170914
0.0154962
0.0137686
0.011915
0.00994367
0.00786429
0.0056884
0.00342935
0.00110231
-0.00127568
-0.00368585
-0.00610776
-0.0085195
-0.0108979
-0.0132186
-0.0154568
-0.0175871
-0.0195841
-0.0214231
-0.0230798
-0.0245317
-0.0257577
-0.0267395
-0.027461
-0.0279099
-0.0280771
-0.0279578
-0.0275517
-0.0268628
-0.0259003
-0.0246783
-0.0232161
-0.021538
-0.0196734
-0.0176568
-0.0155275
-0.0133295
-0.0111116
-0.00892688
-0.00683288
-0.00489155
-0.00316916
-0.00173614
-0.000666859
-4.31043e-05
0.0012344
0.00388594
0.00661201
0.00932934
0.0119746
0.0144979
0.0168618
0.0190393
0.0210121
0.0227692
0.0243054
0.0256195
0.0267133
0.027591
0.0282577
0.0287191
0.0289809
0.0290486
0.0289271
0.0286204
0.0281322
0.0274654
0.0266224
0.0256054
0.0244166
0.0230585
0.021534
0.0198469
0.0180018
0.0160049
0.0138638
0.0115876
0.00918761
0.00667678
0.0040703
0.00138538
-0.00135871
-0.00414069
-0.00693742
-0.00972406
-0.0124743
-0.0151606
-0.0177547
-0.0202275
-0.0225503
-0.0246944
-0.0266322
-0.0283376
-0.0297863
-0.0309567
-0.0318302
-0.0323918
-0.0326307
-0.0325406
-0.0321203
-0.0313738
-0.0303108
-0.0289467
-0.0273027
-0.025406
-0.0232895
-0.0209917
-0.0185568
-0.0160341
-0.0134781
-0.0109478
-0.00850702
-0.00622376
-0.00417019
-0.00242211
-0.00105855
-0.000164834
0.00154026
0.00474605
0.00797347
0.0111431
0.014195
0.0170822
0.0197698
0.0222331
0.0244559
0.0264292
0.0281492
0.0296163
0.0308336
0.0318065
0.0325411
0.0330439
0.0333216
0.0333801
0.0332249
0.0328604
0.0322907
0.0315188
0.0305475
0.0293792
0.0280165
0.0264619
0.024719
0.0227919
0.020686
0.018408
0.0159665
0.0133719
0.0106366
0.00777529
0.00480477
0.00174431
-0.00138458
-0.00455814
-0.00775052
-0.0109339
-0.0140788
-0.0171544
-0.0201287
-0.0229692
-0.0256431
-0.028118
-0.0303626
-0.0323467
-0.0340426
-0.0354252
-0.0364727
-0.0371675
-0.0374963
-0.0374511
-0.0370296
-0.0362354
-0.0350783
-0.0335749
-0.0317482
-0.029628
-0.0272507
-0.0246591
-0.021902
-0.0190343
-0.0161162
-0.0132131
-0.010395
-0.00773634
-0.00531535
-0.0032135
-0.00151475
-0.000308431
0.00187392
0.00568187
0.00945119
0.0131069
0.016593
0.0198663
0.0228952
0.0256578
0.028141
0.0303378
0.0322468
0.0338701
0.0352128
0.0362813
0.0370833
0.0376263
0.0379178
0.0379644
0.0377721
0.037346
0.0366902
0.0358083
0.0347032
0.0333776
0.0318342
0.030076
0.0281067
0.0259309
0.0235546
0.0209854
0.0182325
0.0153074
0.0122238
0.00899773
0.00564791
0.00219544
-0.00133595
-0.00492008
-0.00852836
-0.0121301
-0.0156925
-0.0191813
-0.0225609
-0.0257949
-0.0288466
-0.0316796
-0.0342583
-0.0365485
-0.0385185
-0.0401393
-0.0413856
-0.0422365
-0.0426762
-0.0426943
-0.0422871
-0.0414571
-0.0402144
-0.0385761
-0.036567
-0.0342193
-0.0315729
-0.0286746
-0.0255783
-0.0223443
-0.0190389
-0.015734
-0.0125062
-0.00943659
-0.00660984
-0.00411351
-0.00203696
-0.000474162
0.00223426
0.0066904
0.0110407
0.0152153
0.0191625
0.0228436
0.0262308
0.0293062
0.0320597
0.0344874
0.0365905
0.0383734
0.0398432
0.0410082
0.0418773
0.0424594
0.0427629
0.0427954
0.0425633
0.0420724
0.0413271
0.0403312
0.0390879
0.0376001
0.0358707
0.0339029
0.0317008
0.0292693
0.0266149
0.0237457
0.0206719
0.0174059
0.0139624
0.0103591
0.00661607
0.00275635
-0.00119422
-0.00520708
-0.00925098
-0.0132922
-0.0172949
-0.0212212
-0.0250318
-0.0286863
-0.0321439
-0.0353638
-0.0383059
-0.0409318
-0.0432051
-0.0450928
-0.0465655
-0.0475985
-0.0481728
-0.0482755
-0.0479005
-0.0470494
-0.0457315
-0.0439646
-0.0417748
-0.0391967
-0.0362732
-0.0330555
-0.0296025
-0.02598
-0.0222608
-0.0185234
-0.0148515
-0.0113331
-0.00806001
-0.00512627
-0.00262733
-0.000662562
0.00262011
0.00776856
0.0127375
0.0174623
0.0218965
0.0260064
0.0297688
0.03317
0.0362037
0.0388696
0.041172
0.043118
0.044717
0.0459793
0.0469156
0.0475361
0.0478505
0.0478671
0.0475933
0.0470351
0.0461976
0.0450848
0.0437
0.0420464
0.0401271
0.0379454
0.0355055
0.0328128
0.0298742
0.0266983
0.0232958
0.0196801
0.015867
0.0118753
0.00772658
0.00344565
-0.000939686
-0.00539855
-0.00989712
-0.0143988
-0.0188645
-0.0232529
-0.0275208
-0.0316237
-0.0355164
-0.0391537
-0.0424906
-0.0454839
-0.0480926
-0.0502786
-0.0520081
-0.0532522
-0.0539881
-0.0541996
-0.0538779
-0.0530229
-0.051643
-0.0497559
-0.0473888
-0.0445783
-0.0413706
-0.0378209
-0.0339932
-0.0299592
-0.0257982
-0.0215959
-0.0174432
-0.013436
-0.00967348
-0.00625697
-0.00328873
-0.000874464
0.00303028
0.00891307
0.0145364
0.0198416
0.0247878
0.0293468
0.0335006
0.0372403
0.040564
0.0434754
0.0459823
0.0480949
0.0498253
0.0511862
0.05219
0.0528488
0.0531734
0.0531732
0.0528563
0.0522295
0.0512981
0.0500665
0.0485382
0.0467166
0.0446047
0.0422062
0.0395254
0.0365678
0.0333405
0.0298527
0.0261157
0.0221433
0.0179524
0.0135628
0.00899748
0.00428274
-0.000551716
-0.00547287
-0.0104444
-0.015427
-0.0203782
-0.0252534
-0.0300053
-0.0345854
-0.0389439
-0.0430306
-0.0467957
-0.0501907
-0.0531691
-0.0556879
-0.0577079
-0.0591955
-0.0601233
-0.0604711
-0.0602271
-0.0593885
-0.0579624
-0.0559658
-0.0534267
-0.0503835
-0.0468853
-0.0429914
-0.0387708
-0.0343014
-0.0296693
-0.0249677
-0.0202956
-0.015757
-0.0114593
-0.00751196
-0.00402483
-0.00111101
0.00346349
0.0101205
0.0164323
0.0223465
0.0278286
0.0328561
0.037417
0.0415075
0.0451307
0.0482948
0.0510114
0.0532944
0.0551587
0.0566197
0.057692
0.0583894
0.0587241
0.0587067
0.0583464
0.0576503
0.0566243
0.0552732
0.0536007
0.0516101
0.0493047
0.0466881
0.0437647
0.0405401
0.0370216
0.0332186
0.0291428
0.0248087
0.0202336
0.0154384
0.0104472
0.00528756
-9.02161e-06
-0.00540758
-0.0108695
-0.0163526
-0.0218117
-0.0271982
-0.0324614
-0.0375481
-0.042404
-0.0469738
-0.0512023
-0.0550354
-0.0584209
-0.0613098
-0.0636573
-0.0654241
-0.0665777
-0.0670931
-0.0669546
-0.0661563
-0.0647028
-0.0626104
-0.0599071
-0.0566326
-0.0528388
-0.0485889
-0.0439572
-0.0390278
-0.0338941
-0.0286572
-0.0234248
-0.0183096
-0.0134281
-0.00889883
-0.00484016
-0.00137368
0.00391843
0.0113872
0.0184196
0.02497
0.0310105
0.0365251
0.0415079
0.0459612
0.0498932
0.0533171
0.0562488
0.058706
0.060707
0.06227
0.063412
0.0641488
0.0644942
0.0644601
0.0640566
0.0632916
0.0621715
0.0607013
0.0588849
0.0567259
0.0542273
0.0513929
0.0482269
0.0447351
0.0409246
0.036805
0.0323883
0.0276891
0.0227255
0.0175188
0.0120941
0.00648024
0.000710065
-0.00517964
-0.0111481
-0.0171507
-0.0231391
-0.0290614
-0.034863
-0.0404863
-0.0458722
-0.0509601
-0.0556891
-0.059999
-0.0638314
-0.0671309
-0.0698462
-0.0719316
-0.0733487
-0.074067
-0.0740658
-0.0733352
-0.0718769
-0.0697055
-0.0668483
-0.0633462
-0.0592534
-0.0546368
-0.0495761
-0.0441617
-0.0384947
-0.0326848
-0.0268487
-0.021109
-0.0155922
-0.0104265
-0.00574009
-0.00166427
0.00439368
0.0127094
0.0204925
0.0277045
0.0343246
0.0403438
0.0457629
0.0505903
0.0548402
0.0585308
0.0616829
0.0643183
0.066459
0.0681261
0.0693396
0.0701171
0.0704745
0.0704249
0.0699793
0.0691467
0.0679338
0.0663461
0.0643876
0.0620619
0.0593721
0.0563216
0.0529149
0.0491572
0.0450558
0.0406202
0.0358621
0.0307967
0.025442
0.01982
0.0139563
0.00788071
0.00162725
-0.00476574
-0.0112556
-0.0177953
-0.0243336
-0.0308156
-0.0371825
-0.0433726
-0.0493216
-0.0549636
-0.0602316
-0.0650592
-0.0693809
-0.0731344
-0.0762611
-0.0787084
-0.0804307
-0.0813912
-0.0815634
-0.0809323
-0.0794959
-0.0772659
-0.0742687
-0.0705453
-0.066152
-0.0611595
-0.0556523
-0.0497278
-0.043495
-0.0370725
-0.0305873
-0.0241724
-0.0179652
-0.012105
-0.00673089
-0.00198492
0.00488775
0.014083
0.0226447
0.030542
0.0377616
0.0443018
0.0501706
0.0553829
0.0599593
0.0639235
0.0673013
0.070119
0.0724025
0.0741765
0.0754635
0.0762837
0.0766547
0.0765913
0.0761057
0.0752075
0.0739043
0.0722017
0.070104
0.0676147
0.0647369
0.0614739
0.0578297
0.0538095
0.0494201
0.0446708
0.0395733
0.0341424
0.0283964
0.0223573
0.0160511
0.00950835
0.0027639
-0.00414264
-0.0111669
-0.0182598
-0.0253676
-0.032432
-0.0393906
-0.0461773
-0.0527229
-0.0589557
-0.0648027
-0.0701903
-0.0750461
-0.0792998
-0.0828851
-0.0857412
-0.0878147
-0.0890613
-0.0894475
-0.0889524
-0.0875689
-0.0853051
-0.0821854
-0.0782504
-0.0735579
-0.0681819
-0.0622119
-0.0557523
-0.0489204
-0.0418446
-0.0346625
-0.0275188
-0.0205628
-0.0139461
-0.00781974
-0.00233811
0.00539907
0.0155037
0.0248696
0.033474
0.0413115
0.0483881
0.0547191
0.0603266
0.0652377
0.069482
0.0730906
0.0760949
0.0785246
0.0804082
0.0817712
0.0826363
0.0830233
0.0829486
0.0824255
0.0814648
0.0800745
0.0782607
0.0760279
0.0733795
0.0703184
0.0668477
0.062971
0.0586931
0.0540206
0.048962
0.0435288
0.0377355
0.0316
0.0251443
0.0183945
0.0113815
0.00414056
-0.00328758
-0.0108573
-0.0185176
-0.0262125
-0.0338807
-0.0414563
-0.0488689
-0.0560442
-0.0629049
-0.0693714
-0.0753632
-0.0807997
-0.0856026
-0.0896968
-0.0930125
-0.0954874
-0.0970687
-0.0977146
-0.0973968
-0.0961023
-0.0938344
-0.0906142
-0.0864813
-0.0814941
-0.0757294
-0.0692819
-0.0622629
-0.0547983
-0.0470269
-0.0390981
-0.031169
-0.0234021
-0.0159625
-0.00901468
-0.00272668
0.00592594
0.016967
0.0271604
0.0364918
0.0449639
0.0525908
0.0593957
0.0654081
0.0706615
0.0751922
0.0790369
0.0822317
0.0848112
0.0868073
0.0882491
0.0891618
0.0895675
0.0894844
0.0889273
0.0879077
0.0864345
0.0845141
0.0821512
0.0793492
0.0761108
0.0724387
0.0683362
0.0638073
0.0588582
0.0534967
0.0477337
0.0415831
0.0350623
0.0281929
0.0210008
0.0135168
0.00577652
-0.0021788
-0.0103025
-0.0185422
-0.0268397
-0.0351313
-0.0433475
-0.0514139
-0.0592514
-0.0667768
-0.0739038
-0.0805445
-0.0866103
-0.0920137
-0.09667
-0.1005
-0.103431
-0.1054
-0.106356
-0.106263
-0.105099
-0.102862
-0.0995688
-0.0952561
-0.0899826
-0.0838273
-0.0768897
-0.0692879
-0.0611571
-0.0526471
-0.0439196
-0.0351455
-0.0265018
-0.0181684
-0.0103247
-0.00315379
0.00646663
0.018468
0.0295097
0.0395859
0.0487078
0.0568979
0.0641873
0.0706132
0.0762164
0.0810394
0.0851249
0.0885144
0.0912471
0.0933589
0.0948823
0.0958457
0.0962732
0.0961851
0.0955977
0.0945235
0.0929722
0.0909507
0.0884637
0.0855148
0.0821063
0.0782405
0.07392
0.0691485
0.0639311
0.058275
0.0521901
0.0456896
0.0387901
0.0315124
0.0238819
0.015929
0.00768922
-0.000796041
-0.0094795
-0.0183077
-0.0272208
-0.0361527
-0.0450311
-0.0537775
-0.0623081
-0.070534
-0.0783623
-0.0856974
-0.0924418
-0.0984988
-0.103773
-0.108175
-0.111621
-0.114037
-0.11536
-0.115544
-0.114559
-0.112393
-0.10906
-0.104591
-0.099044
-0.0925001
-0.0850626
-0.0768566
-0.0680266
-0.058734
-0.049154
-0.0394725
-0.0298822
-0.0205793
-0.0117597
-0.00362294
0.00701927
0.020002
0.03191
0.0427467
0.0525318
0.0612965
0.0690801
0.0759275
0.0818869
0.0870077
0.0913387
0.0949268
0.097816
0.100047
0.101655
0.102672
0.103125
0.103035
0.102422
0.101298
0.0996738
0.0975572
0.0949531
0.0918648
0.0882943
0.0842437
0.0797147
0.0747103
0.0692347
0.0632941
0.0568974
0.0500565
0.0427872
0.0351092
0.027047
0.0186301
0.00989373
0.000878905
-0.00836688
-0.0177895
-0.027328
-0.0369144
-0.0464736
-0.0559236
-0.0651762
-0.0741369
-0.0827062
-0.0907805
-0.0982537
-0.105019
-0.11097
-0.116005
-0.120029
-0.122954
-0.124706
-0.125226
-0.124473
-0.122428
-0.119093
-0.114498
-0.108697
-0.101771
-0.0938275
-0.0849981
-0.075437
-0.0653178
-0.0548302
-0.0441759
-0.0335651
-0.023212
-0.0133303
-0.004138
0.00758194
0.0215636
0.0343536
0.0459642
0.0564242
0.0657734
0.0740595
0.0813356
0.0876573
0.0930808
0.0976614
0.101452
0.104501
0.106853
0.108549
0.109623
0.110104
0.110018
0.109382
0.108214
0.106523
0.104318
0.101604
0.0983848
0.0946616
0.090436
0.0857091
0.080483
0.0747608
0.0685476
0.061851
0.0546817
0.0470539
0.0389863
0.0305018
0.0216291
0.0124021
0.00286156
-0.00694558
-0.016965
-0.027135
-0.0373862
-0.0476414
-0.0578156
-0.0678161
-0.0775435
-0.0868915
-0.095749
-0.104001
-0.111529
-0.118217
-0.123949
-0.128617
-0.132119
-0.134368
-0.13529
-0.134831
-0.132961
-0.129672
-0.124987
-0.118957
-0.111661
-0.10321
-0.0937413
-0.0834192
-0.0724296
-0.0609778
-0.0492828
-0.0375739
-0.0260845
-0.0150482
-0.00470317
0.00815265
0.0231476
0.0368322
0.049228
0.0603727
0.0703148
0.0791108
0.0868217
0.0935108
0.0992414
0.104075
0.108071
0.111283
0.11376
0.115546
0.11668
0.117193
0.117113
0.116461
0.115253
0.113501
0.111215
0.1084
0.105058
0.101192
0.0968019
0.0918888
0.0864534
0.0804976
0.0740254
0.0670428
0.0595589
0.0515865
0.0431424
0.0342482
0.0249308
0.015223
0.00516413
-0.00519947
-0.0158139
-0.0266174
-0.0375397
-0.048502
-0.0594166
-0.0701874
-0.08071
-0.090872
-0.100554
-0.109633
-0.11798
-0.125465
-0.13196
-0.137342
-0.141494
-0.144312
-0.145708
-0.145612
-0.143979
-0.140791
-0.136062
-0.129835
-0.122188
-0.113233
-0.103114
-0.0920035
-0.080101
-0.0676278
-0.0548219
-0.0419329
-0.0292159
-0.0169259
-0.00532299
0.00872937
0.0247485
0.0393376
0.0525275
0.0643648
0.0749068
0.0842186
0.0923694
0.0994302
0.105472
0.110562
0.114766
0.118142
0.120747
0.122626
0.123822
0.124371
0.124301
0.123636
0.122394
0.120588
0.118227
0.115318
0.111864
0.107865
0.103323
0.0982357
0.0926044
0.0864294
0.0797132
0.0724602
0.0646778
0.0563769
0.0475723
0.0382837
0.0285362
0.0183607
0.00779493
-0.00311606
-0.0143194
-0.0257536
-0.0373484
-0.049024
-0.0606908
-0.0722496
-0.0835916
-0.0945989
-0.105145
-0.115097
-0.124316
-0.132659
-0.139984
-0.146153
-0.151031
-0.154497
-0.156444
-0.156787
-0.155463
-0.152441
-0.14772
-0.141338
-0.133367
-0.123919
-0.113143
-0.10122
-0.0883634
-0.0748116
-0.0608225
-0.046668
-0.0326264
-0.0189766
-0.00600234
0.00931
0.0263607
0.0418614
0.055852
0.0683878
0.0795351
0.0893674
0.0979621
0.105398
0.111753
0.117102
0.121516
0.12506
0.127793
0.129767
0.131028
0.131615
0.131559
0.130885
0.129614
0.127759
0.125332
0.122337
0.118779
0.114659
0.109975
0.104728
0.0989151
0.0925364
0.0855925
0.0780864
0.0700233
0.0614122
0.0522656
0.042601
0.0324411
0.0218148
0.0107577
-0.000687111
-0.0124683
-0.0245256
-0.036789
-0.0491786
-0.0616036
-0.0739627
-0.0861434
-0.0980226
-0.109467
-0.120335
-0.130477
-0.139738
-0.147961
-0.15499
-0.160673
-0.164871
-0.167455
-0.16832
-0.167385
-0.1646
-0.159952
-0.153465
-0.145206
-0.135284
-0.123851
-0.111097
-0.0972481
-0.082561
-0.067315
-0.0518059
-0.0363376
-0.0212144
-0.00674644
0.00989248
0.0279789
0.0443953
0.0591907
0.0724291
0.0841853
0.0945413
0.103583
0.111396
0.118066
0.123676
0.128301
0.132013
0.134876
0.136947
0.138275
0.138901
0.138862
0.138183
0.136887
0.13499
0.132502
0.12943
0.125778
0.121547
0.116734
0.11134
0.10536
0.0987942
0.0916403
0.0838996
0.0755755
0.0666745
0.0572069
0.0471875
0.0366365
0.02558
0.0140512
0.00209068
-0.0102523
-0.0229193
-0.0358417
-0.04894
-0.0621233
-0.0752886
-0.0883208
-0.101093
-0.113465
-0.125287
-0.1364
-0.146635
-0.155822
-0.163786
-0.170357
-0.175372
-0.178684
-0.180163
-0.179706
-0.177242
-0.17274
-0.16621
-0.157709
-0.147341
-0.135259
-0.12166
-0.106785
-0.0909076
-0.0743302
-0.0573742
-0.0403715
-0.0236543
-0.00756085
0.0104747
0.0295974
0.046931
0.062533
0.0764759
0.0888431
0.0997246
0.109214
0.117406
0.124393
0.130263
0.1351
0.13898
0.141973
0.144141
0.145536
0.146204
0.146183
0.145503
0.144186
0.142251
0.139709
0.136568
0.132831
0.128499
0.12357
0.118042
0.111911
0.105174
0.0978288
0.0898735
0.0813095
0.0721409
0.0623755
0.0520253
0.0411074
0.0296451
0.0176685
0.00521515
-0.00766839
-0.0209262
-0.0344916
-0.0482866
-0.062221
-0.0761915
-0.090081
-0.103759
-0.117081
-0.12989
-0.142016
-0.15328
-0.163493
-0.172466
-0.180008
-0.185932
-0.190067
-0.192258
-0.192376
-0.190328
-0.186057
-0.179558
-0.170871
-0.160096
-0.147382
-0.132934
-0.117003
-0.0998825
-0.0818989
-0.0634013
-0.0447512
-0.0263117
-0.00845146
0.0110547
0.0312109
0.0494602
0.0658683
0.0805159
0.0934943
0.104902
0.11484
0.12341
0.130712
0.136843
0.14189
0.145938
0.149061
0.151325
0.152787
0.153497
0.153496
0.152815
0.151481
0.149512
0.146921
0.143718
0.139904
0.135482
0.130448
0.124801
0.118534
0.111644
0.104126
0.0959767
0.0871953
0.0777832
0.0677453
0.0570907
0.0458333
0.0339931
0.0215966
0.00867814
-0.00471931
-0.0185429
-0.032729
-0.0472019
-0.0618729
-0.0766395
-0.0913842
-0.105974
-0.120261
-0.134082
-0.147257
-0.159596
-0.170897
-0.18095
-0.189544
-0.19647
-0.201528
-0.204536
-0.205336
-0.203806
-0.199865
-0.193481
-0.184681
-0.173548
-0.160231
-0.144936
-0.127927
-0.109515
-0.0900519
-0.0699156
-0.0495006
-0.0292029
-0.00942448
0.0116305
0.0328143
0.0519752
0.0691867
0.084537
0.0981251
0.110057
0.120442
0.129389
0.137006
0.143394
0.14865
0.152863
0.156113
0.158472
0.16
0.160751
0.160769
0.160089
0.158739
0.15674
0.154105
0.150845
0.146963
0.14246
0.137334
0.13158
0.125193
0.118167
0.110495
0.102174
0.0931981
0.0835678
0.0732846
0.0623544
0.0507878
0.0386009
0.0258166
0.0124652
-0.00141429
-0.0157729
-0.0305505
-0.045675
-0.0610603
-0.0766056
-0.0921944
-0.107693
-0.122951
-0.137799
-0.152051
-0.165506
-0.177948
-0.189149
-0.198877
-0.206896
-0.212981
-0.216916
-0.218513
-0.217615
-0.214112
-0.207944
-0.199114
-0.187689
-0.17381
-0.157683
-0.139581
-0.119834
-0.098819
-0.076946
-0.0546438
-0.0323447
-0.0104864
0.0122003
0.0344028
0.0544687
0.0724786
0.0885278
0.102722
0.115176
0.126005
0.135326
0.143253
0.149896
0.155358
0.159732
0.163106
0.165555
0.167146
0.167936
0.167971
0.167292
0.165927
0.163899
0.161224
0.157913
0.153969
0.149394
0.144185
0.138338
0.131846
0.124701
0.116896
0.108424
0.0992783
0.0894563
0.0789566
0.0677816
0.0559383
0.0434392
0.0303028
0.0165551
0.0022307
-0.012626
-0.0279596
-0.0437019
-0.0597707
-0.0760686
-0.0924809
-0.108875
-0.125099
-0.14098
-0.156328
-0.170931
-0.184559
-0.19697
-0.207907
-0.217112
-0.224327
-0.229304
-0.231819
-0.231679
-0.228736
-0.222897
-0.214136
-0.2025
-0.188113
-0.171181
-0.151982
-0.130864
-0.108229
-0.0845208
-0.0602055
-0.0357544
-0.0116441
0.0127625
0.0359719
0.0569339
0.0757353
0.0924776
0.107274
0.120244
0.131513
0.141203
0.149436
0.156328
0.161989
0.16652
0.170012
0.172547
0.174196
0.175021
0.175071
0.17439
0.173009
0.170953
0.16824
0.164881
0.160881
0.156242
0.150961
0.145032
0.138449
0.131202
0.123283
0.114682
0.105392
0.0954056
0.0847191
0.0733318
0.061247
0.0484727
0.0350234
0.0209202
0.00619275
-0.00911968
-0.0249668
-0.0412858
-0.0579993
-0.0750143
-0.0922197
-0.109485
-0.12666
-0.14357
-0.16002
-0.175791
-0.190643
-0.204316
-0.216534
-0.227011
-0.235459
-0.241596
-0.245157
-0.245908
-0.243659
-0.238278
-0.229702
-0.21795
-0.203128
-0.185431
-0.165143
-0.142626
-0.118308
-0.0926677
-0.0662104
-0.0394498
-0.0129045
0.0133155
0.0375178
0.059365
0.0789491
0.0963771
0.111768
0.125249
0.13695
0.147003
0.155535
0.16267
0.168523
0.173202
0.176805
0.179419
0.18112
0.181974
0.182034
0.181347
0.179948
0.177863
0.175112
0.171708
0.167656
0.162959
0.157614
0.151616
0.144955
0.137623
0.129609
0.120902
0.111491
0.101368
0.0905258
0.07896
0.0666702
0.0536604
0.0399402
0.025526
0.0104419
-0.0052784
-0.0215906
-0.0384379
-0.055749
-0.0734364
-0.0913944
-0.109497
-0.127595
-0.145516
-0.163063
-0.180011
-0.196111
-0.211089
-0.224649
-0.23648
-0.246262
-0.253676
-0.258415
-0.260198
-0.258789
-0.254008
-0.245751
-0.233998
-0.21883
-0.200427
-0.179072
-0.155139
-0.129082
-0.101414
-0.0726828
-0.0434487
-0.0142751
0.0138582
0.0390375
0.0617571
0.0821133
0.100218
0.116196
0.130179
0.142305
0.152711
0.161533
0.168901
0.174937
0.179755
0.18346
0.186143
0.187887
0.188762
0.188825
0.188127
0.186705
0.184588
0.181799
0.17835
0.17425
0.1695
0.164099
0.15804
0.151315
0.143913
0.135823
0.12703
0.117524
0.107292
0.0963257
0.0846161
0.0721595
0.0589556
0.0450093
0.0303317
0.0149415
-0.00113413
-0.0178572
-0.0351776
-0.0530312
-0.0713374
-0.089997
-0.10889
-0.127872
-0.146774
-0.165398
-0.183518
-0.200878
-0.21719
-0.232143
-0.245401
-0.256611
-0.265417
-0.271467
-0.274431
-0.274018
-0.269995
-0.262206
-0.250587
-0.235182
-0.216151
-0.193768
-0.168415
-0.140571
-0.110783
-0.079647
-0.0477694
-0.0157634
0.0143897
0.0405286
0.0641066
0.0852232
0.103994
0.120548
0.135023
0.147563
0.158313
0.167413
0.175002
0.181209
0.186154
0.189949
0.19269
0.194466
0.195352
0.195409
0.194692
0.19324
0.191087
0.188256
0.184762
0.180614
0.175816
0.170365
0.164255
0.157477
0.15002
0.14187
0.133014
0.123437
0.113124
0.102065
0.0902466
0.0776623
0.0643071
0.0501814
0.0352908
0.0196481
0.00327408
-0.0138003
-0.0315325
-0.0498662
-0.0687288
-0.0880293