/*--------------------------------*- C++ -*----------------------------------*\
  =========                 |
  \\      /  F ield         | OpenFOAM: The Open Source CFD Toolbox
   \\    /   O peration     | Website:  https://openfoam.org
    \\  /    A nd           | Version:  dev
     \\/     M anipulation  |
\*---------------------------------------------------------------------------*/
FoamFile
{
    format      ascii;
    class       surfaceScalarField;
    location    "37.35";
    object      phi;
}
// * * * * * * * * * * * * * * * * * * * * * * * * * * * * * * * * * * * * * //

dimensions      [0 3 -1 0 0 0 0];

internalField   nonuniform List<scalar> 
10224
(
3.38147e-08
-3.48794e-08
8.78863e-08
-5.40714e-08
1.2446e-07
-3.65743e-08
1.25433e-07
-9.73639e-10
8.38068e-08
4.16253e-08
-1.69091e-09
8.54972e-08
-1.29233e-07
1.27541e-07
-2.95517e-07
1.66284e-07
-4.96481e-07
2.00963e-07
-7.27822e-07
2.3134e-07
-9.8527e-07
2.57447e-07
-1.26473e-06
2.7946e-07
-1.56237e-06
2.97634e-07
-1.87462e-06
3.12252e-07
-2.19821e-06
3.23598e-07
-2.53015e-06
3.31939e-07
-2.86767e-06
3.37512e-07
-3.20818e-06
3.40517e-07
-3.5493e-06
3.41117e-07
-3.88873e-06
3.39433e-07
-4.22428e-06
3.35551e-07
-4.55381e-06
3.29523e-07
-4.87518e-06
3.21374e-07
-5.18629e-06
3.11108e-07
-5.485e-06
2.98712e-07
-5.76917e-06
2.84165e-07
-6.03661e-06
2.67444e-07
-6.28515e-06
2.48534e-07
-6.51258e-06
2.2743e-07
-6.71672e-06
2.04145e-07
-6.89544e-06
1.78719e-07
-7.04666e-06
1.51218e-07
-7.1684e-06
1.21744e-07
-7.25884e-06
9.04385e-08
-7.31632e-06
5.74803e-08
-7.33941e-06
2.30926e-08
-7.32695e-06
-1.24588e-08
-7.27809e-06
-4.88653e-08
-7.19231e-06
-8.57774e-08
-7.0695e-06
-1.22808e-07
-6.90996e-06
-1.59536e-07
-6.71445e-06
-1.95511e-07
-6.48419e-06
-2.30265e-07
-6.22087e-06
-2.63314e-07
-5.9267e-06
-2.94169e-07
-5.60435e-06
-3.22349e-07
-5.25697e-06
-3.47388e-07
-4.88812e-06
-3.68847e-07
-4.50179e-06
-3.86323e-07
-4.10233e-06
-3.99464e-07
-3.69436e-06
-4.07972e-07
-3.28274e-06
-4.1162e-07
-2.87249e-06
-4.10249e-07
-2.4687e-06
-4.03787e-07
-2.07646e-06
-3.92241e-07
-1.70075e-06
-3.75709e-07
-1.34637e-06
-3.54376e-07
-1.01786e-06
-3.28515e-07
-7.19366e-07
-2.98489e-07
-4.54619e-07
-2.64747e-07
-2.26791e-07
-2.27827e-07
-3.84293e-08
-1.88361e-07
1.08661e-07
-1.4709e-07
2.13543e-07
-1.04882e-07
2.76331e-07
-6.27878e-08
2.98458e-07
-2.2127e-08
2.83104e-07
1.53535e-08
2.35868e-07
4.72352e-08
1.65815e-07
7.00525e-08
8.72452e-08
7.8571e-08
2.25445e-08
6.47031e-08
2.25465e-08
5.39302e-08
-8.88093e-08
1.12479e-07
-1.12621e-07
1.18309e-07
-4.24049e-08
3.9013e-08
7.83217e-08
-1.4182e-07
2.22458e-07
-4.29516e-07
3.73193e-07
-8.22315e-07
5.20339e-07
-1.31407e-06
6.58036e-07
-1.89621e-06
7.83104e-07
-2.55893e-06
8.94057e-07
-3.29194e-06
9.90461e-07
-4.08501e-06
1.07252e-06
-4.92819e-06
1.14082e-06
-5.81205e-06
1.19611e-06
-6.7277e-06
1.23925e-06
-7.6668e-06
1.27104e-06
-8.62156e-06
1.29227e-06
-9.58462e-06
1.30358e-06
-1.0549e-05
1.30552e-06
-1.15081e-05
1.29853e-06
-1.24555e-05
1.28292e-06
-1.33849e-05
1.25888e-06
-1.429e-05
1.22656e-06
-1.51649e-05
1.18597e-06
-1.60033e-05
1.13714e-06
-1.67992e-05
1.08004e-06
-1.75464e-05
1.01463e-06
-1.82388e-05
9.40922e-07
-1.88703e-05
8.58955e-07
-1.9435e-05
7.68846e-07
-1.99271e-05
6.70797e-07
-2.0341e-05
5.65119e-07
-2.06715e-05
4.52246e-07
-2.09138e-05
3.32749e-07
-2.10637e-05
2.0734e-07
-2.11174e-05
7.68833e-08
-2.10723e-05
-5.76036e-08
-2.09262e-05
-1.94956e-07
-2.06781e-05
-3.33866e-07
-2.0328e-05
-4.72896e-07
-1.98771e-05
-6.10492e-07
-1.93276e-05
-7.45008e-07
-1.86831e-05
-8.74727e-07
-1.79485e-05
-9.97894e-07
-1.713e-05
-1.11274e-06
-1.62348e-05
-1.21754e-06
-1.52716e-05
-1.3106e-06
-1.42501e-05
-1.39035e-06
-1.3181e-05
-1.45536e-06
-1.20761e-05
-1.50437e-06
-1.09477e-05
-1.53633e-06
-9.80894e-06
-1.55042e-06
-8.67308e-06
-1.54611e-06
-7.55373e-06
-1.52314e-06
-6.46438e-06
-1.48158e-06
-5.41829e-06
-1.4218e-06
-4.42815e-06
-1.34451e-06
-3.50592e-06
-1.25074e-06
-2.66255e-06
-1.14186e-06
-1.90772e-06
-1.01957e-06
-1.24963e-06
-8.85926e-07
-6.94652e-07
-7.43335e-07
-2.47108e-07
-5.94634e-07
9.11614e-08
-4.43151e-07
3.21237e-07
-2.92864e-07
4.47721e-07
-1.48611e-07
4.79616e-07
-1.65407e-08
4.31405e-07
9.54464e-08
3.24539e-07
1.76916e-07
1.89044e-07
2.14062e-07
6.43941e-08
1.89347e-07
8.69423e-08
3.73679e-08
-1.26178e-07
4.33744e-08
-1.18628e-07
-4.32096e-08
4.4178e-08
-2.58676e-07
2.93787e-07
-6.22648e-07
5.86429e-07
-1.14225e-06
8.92792e-07
-1.81574e-06
1.19383e-06
-2.63548e-06
1.47777e-06
-3.59008e-06
1.7377e-06
-4.66602e-06
1.97e-06
-5.84873e-06
2.17317e-06
-7.12332e-06
2.34711e-06
-8.47508e-06
2.49257e-06
-9.88975e-06
2.61078e-06
-1.13537e-05
2.70321e-06
-1.2854e-05
2.77136e-06
-1.43784e-05
2.81664e-06
-1.59152e-05
2.84034e-06
-1.74532e-05
2.84353e-06
-1.89817e-05
2.82707e-06
-2.04904e-05
2.7916e-06
-2.19691e-05
2.73758e-06
-2.34078e-05
2.66527e-06
-2.47967e-05
2.57484e-06
-2.61259e-05
2.46634e-06
-2.73856e-05
2.3398e-06
-2.85662e-05
2.19524e-06
-2.96581e-05
2.03276e-06
-3.06517e-05
1.85255e-06
-3.15378e-05
1.65493e-06
-3.23074e-05
1.44044e-06
-3.29521e-05
1.20983e-06
-3.3464e-05
9.64108e-07
-3.38358e-05
7.04555e-07
-3.40612e-05
4.32761e-07
-3.4135e-05
1.50622e-07
-3.40529e-05
-1.3966e-07
-3.38123e-05
-4.35575e-07
-3.34118e-05
-7.34328e-07
-3.28519e-05
-1.03286e-06
-3.21344e-05
-1.32789e-06
-3.12635e-05
-1.61595e-06
-3.02448e-05
-1.89342e-06
-2.90861e-05
-2.15664e-06
-2.77969e-05
-2.40192e-06
-2.63888e-05
-2.62564e-06
-2.4875e-05
-2.82432e-06
-2.32707e-05
-2.99468e-06
-2.15923e-05
-3.13377e-06
-1.98577e-05
-3.23896e-06
-1.80859e-05
-3.30811e-06
-1.62968e-05
-3.33954e-06
-1.45108e-05
-3.33215e-06
-1.27484e-05
-3.28547e-06
-1.10304e-05
-3.19963e-06
-9.37675e-06
-3.07546e-06
-7.80678e-06
-2.91448e-06
-6.33861e-06
-2.71892e-06
-4.98877e-06
-2.4917e-06
-3.77186e-06
-2.23648e-06
-2.70014e-06
-1.95765e-06
-1.78305e-06
-1.66042e-06
-1.02684e-06
-1.35084e-06
-4.33975e-07
-1.03602e-06
-2.53851e-09
-7.243e-07
2.74554e-07
-4.25704e-07
4.10374e-07
-1.52361e-07
4.25174e-07
8.06479e-08
3.47593e-07
2.54498e-07
2.15849e-07
3.45806e-07
7.86736e-08
3.2652e-07
1.65616e-07
1.92585e-09
-1.28105e-07
-7.89164e-08
-3.7786e-08
-2.97624e-07
2.62885e-07
-6.87937e-07
6.84099e-07
-1.26818e-06
1.16667e-06
-2.04464e-06
1.66925e-06
-3.01451e-06
2.16371e-06
-4.16856e-06
2.63181e-06
-5.49316e-06
3.06231e-06
-6.972e-06
3.44884e-06
-8.58722e-06
3.78839e-06
-1.03204e-05
4.08024e-06
-1.21529e-05
4.32508e-06
-1.40666e-05
4.52451e-06
-1.60439e-05
4.68056e-06
-1.8068e-05
4.79542e-06
-2.01226e-05
4.87124e-06
-2.21922e-05
4.90995e-06
-2.42619e-05
4.91322e-06
-2.63172e-05
4.88243e-06
-2.83442e-05
4.81861e-06
-3.03292e-05
4.72252e-06
-3.22586e-05
4.59467e-06
-3.41191e-05
4.43537e-06
-3.58976e-05
4.24481e-06
-3.75809e-05
4.02312e-06
-3.91562e-05
3.77048e-06
-4.06106e-05
3.48716e-06
-4.19316e-05
3.17359e-06
-4.31072e-05
2.8305e-06
-4.41256e-05
2.45889e-06
-4.49759e-05
2.06016e-06
-4.5648e-05
1.63614e-06
-4.61325e-05
1.18912e-06
-4.64216e-05
7.21859e-07
-4.65087e-05
2.37647e-07
-4.63886e-05
-2.59733e-07
-4.60582e-05
-7.66003e-07
-4.55161e-05
-1.27642e-06
-4.47631e-05
-1.78582e-06
-4.38023e-05
-2.28869e-06
-4.26391e-05
-2.77919e-06
-4.12812e-05
-3.25132e-06
-3.97389e-05
-3.69893e-06
-3.80249e-05
-4.11589e-06
-3.61544e-05
-4.4962e-06
-3.41446e-05
-4.83407e-06
-3.20152e-05
-5.12411e-06
-2.97876e-05
-5.36138e-06
-2.74849e-05
-5.5416e-06
-2.51318e-05
-5.66118e-06
-2.2754e-05
-5.71741e-06
-2.03777e-05
-5.70847e-06
-1.80296e-05
-5.63358e-06
-1.57362e-05
-5.49303e-06
-1.35234e-05
-5.28824e-06
-1.14161e-05
-5.02178e-06
-9.43757e-06
-4.69742e-06
-7.60915e-06
-4.32012e-06
-5.94955e-06
-3.89607e-06
-4.47448e-06
-3.43272e-06
-3.19605e-06
-2.93885e-06
-2.12222e-06
-2.42468e-06
-1.25617e-06
-1.90206e-06
-5.95665e-07
-1.38481e-06
-1.3225e-07
-8.8912e-07
1.49583e-07
-4.34196e-07
2.73309e-07
-4.30794e-08
2.71405e-07
2.56402e-07
1.86387e-07
4.30823e-07
7.22448e-08
4.4066e-07
2.3786e-07
-4.20451e-08
-8.60601e-08
-2.30032e-07
1.50201e-07
-6.06597e-07
6.39449e-07
-1.19834e-06
1.27584e-06
-2.01901e-06
1.98735e-06
-3.07179e-06
2.72202e-06
-4.3515e-06
3.44341e-06
-5.84669e-06
4.127e-06
-7.54151e-06
4.75712e-06
-9.41714e-06
5.32447e-06
-1.1453e-05
5.82428e-06
-1.36277e-05
6.25495e-06
-1.59196e-05
6.61698e-06
-1.83073e-05
6.91218e-06
-2.07698e-05
7.14308e-06
-2.32869e-05
7.31251e-06
-2.5839e-05
7.42332e-06
-2.84072e-05
7.47811e-06
-3.09731e-05
7.47919e-06
-3.35192e-05
7.42846e-06
-3.6028e-05
7.3274e-06
-3.84826e-05
7.17711e-06
-4.08663e-05
6.97839e-06
-4.31627e-05
6.73177e-06
-4.53555e-05
6.43762e-06
-4.74286e-05
6.09627e-06
-4.93663e-05
5.70812e-06
-5.11528e-05
5.27372e-06
-5.27732e-05
4.79393e-06
-5.42126e-05
4.26994e-06
-5.54572e-05
3.70346e-06
-5.64937e-05
3.09672e-06
-5.73102e-05
2.4526e-06
-5.78957e-05
1.77464e-06
-5.8241e-05
1.0671e-06
-5.83383e-05
3.3495e-07
-5.81819e-05
-4.16085e-07
-5.77683e-05
-1.17959e-06
-5.70963e-05
-1.94848e-06
-5.6167e-05
-2.71507e-06
-5.49845e-05
-3.47117e-06
-5.35555e-05
-4.20817e-06
-5.18897e-05
-4.91719e-06
-4.99994e-05
-5.5892e-06
-4.79001e-05
-6.21518e-06
-4.561e-05
-6.7863e-06
-4.315e-05
-7.2941e-06
-4.05434e-05
-7.73064e-06
-3.78161e-05
-8.08873e-06
-3.49956e-05
-8.36208e-06
-3.21113e-05
-8.54546e-06
-2.91939e-05
-8.63487e-06
-2.62746e-05
-8.6277e-06
-2.33854e-05
-8.52281e-06
-2.05578e-05
-8.32065e-06
-1.78227e-05
-8.02333e-06
-1.52098e-05
-7.63469e-06
-1.27469e-05
-7.16031e-06
-1.04594e-05
-6.60757e-06
-8.36983e-06
-5.98567e-06
-6.49689e-06
-5.30566e-06
-4.8552e-06
-4.58055e-06
-3.45447e-06
-3.8254e-06
-2.29894e-06
-3.05759e-06
-1.38665e-06
-2.29711e-06
-7.08723e-07
-1.56704e-06
-2.48693e-07
-8.94226e-07
1.83088e-08
-3.10083e-07
1.26351e-07
1.48358e-07
1.19594e-07
4.3758e-07
5.36906e-08
5.06563e-07
2.9155e-07
-8.94422e-08
3.38158e-09
-3.95388e-07
4.56145e-07
-9.45234e-07
1.18929e-06
-1.75558e-06
2.08618e-06
-2.83322e-06
3.06499e-06
-4.17641e-06
4.06521e-06
-5.7763e-06
5.04329e-06
-7.61849e-06
5.9692e-06
-9.68452e-06
6.82315e-06
-1.19531e-05
7.59303e-06
-1.44011e-05
8.27231e-06
-1.70046e-05
8.85845e-06
-1.97393e-05
9.35164e-06
-2.25809e-05
9.75382e-06
-2.55058e-05
1.00679e-05
-2.84907e-05
1.02974e-05
-3.15131e-05
1.04458e-05
-3.45513e-05
1.05162e-05
-3.75838e-05
1.05118e-05
-4.05901e-05
1.04348e-05
-4.35499e-05
1.02872e-05
-4.64434e-05
1.00706e-05
-4.92509e-05
9.78594e-06
-5.19533e-05
9.43414e-06
-5.45315e-05
9.01579e-06
-5.69667e-05
8.53148e-06
-5.92405e-05
7.98193e-06
-6.13349e-05
7.36808e-06
-6.32322e-05
6.6913e-06
-6.49158e-05
5.95346e-06
-6.63694e-05
5.15709e-06
-6.75781e-05
4.30547e-06
-6.85283e-05
3.40273e-06
-6.92075e-05
2.45391e-06
-6.96054e-05
1.46499e-06
-6.97134e-05
4.42961e-07
-6.95253e-05
-6.04248e-07
-6.90371e-05
-1.66775e-06
-6.82478e-05
-2.73778e-06
-6.71591e-05
-3.8038e-06
-6.57757e-05
-4.85457e-06
-6.41055e-05
-5.87832e-06
-6.21598e-05
-6.86295e-06
-5.99528e-05
-7.79613e-06
-5.75024e-05
-8.66562e-06
-5.48293e-05
-9.45941e-06
-5.19574e-05
-1.0166e-05
-4.89135e-05
-1.07746e-05
-4.57268e-05
-1.12754e-05
-4.24289e-05
-1.16599e-05
-3.90533e-05
-1.19211e-05
-3.56348e-05
-1.20534e-05
-3.22092e-05
-1.20533e-05
-2.88129e-05
-1.19192e-05
-2.54818e-05
-1.16517e-05
-2.22513e-05
-1.12538e-05
-1.91553e-05
-1.07307e-05
-1.62257e-05
-1.00899e-05
-1.34917e-05
-9.34155e-06
-1.09792e-05
-8.49824e-06
-8.7098e-06
-7.57504e-06
-6.70068e-06
-6.58967e-06
-4.96351e-06
-5.56257e-06
-3.50394e-06
-4.51716e-06
-2.32092e-06
-3.48013e-06
-1.40609e-06
-2.48188e-06
-7.43122e-07
-1.55719e-06
-3.07168e-07
-7.46038e-07
-6.42391e-08
-9.45723e-08
2.94372e-08
3.43902e-07
2.83401e-08
5.0766e-07
3.19889e-07
-1.37661e-07
1.41042e-07
-5.66404e-07
8.84887e-07
-1.2977e-06
1.92059e-06
-2.33666e-06
3.12514e-06
-3.68158e-06
4.40991e-06
-5.32439e-06
5.70803e-06
-7.2515e-06
6.9704e-06
-9.44477e-06
8.16247e-06
-1.18827e-05
9.26103e-06
-1.45412e-05
1.02515e-05
-1.73947e-05
1.11259e-05
-2.04169e-05
1.18806e-05
-2.3581e-05
1.25158e-05
-2.68605e-05
1.30333e-05
-3.0229e-05
1.34365e-05
-3.3661e-05
1.37294e-05
-3.71313e-05
1.39161e-05
-4.06156e-05
1.40005e-05
-4.409e-05
1.39861e-05
-4.75312e-05
1.3876e-05
-5.09164e-05
1.36724e-05
-5.42231e-05
1.33773e-05
-5.74292e-05
1.29921e-05
-6.0513e-05
1.25179e-05
-6.3453e-05
1.19557e-05
-6.62279e-05
1.13064e-05
-6.88172e-05
1.05711e-05
-7.12004e-05
9.75128e-06
-7.33579e-05
8.84886e-06
-7.5271e-05
7.86654e-06
-7.69218e-05
6.80785e-06
-7.82936e-05
5.67727e-06
-7.93712e-05
4.48038e-06
-8.01412e-05
3.22391e-06
-8.05921e-05
1.91584e-06
-8.07144e-05
5.65348e-07
-8.05016e-05
-8.17127e-07
-7.99493e-05
-2.21997e-06
-7.90567e-05
-3.63046e-06
-7.78256e-05
-5.03487e-06
-7.62615e-05
-6.41863e-06
-7.43733e-05
-7.76653e-06
-7.21734e-05
-9.06286e-06
-6.96778e-05
-1.02918e-05
-6.6906e-05
-1.14374e-05
-6.38812e-05
-1.24842e-05
-6.06298e-05
-1.34174e-05
-5.71813e-05
-1.42231e-05
-5.35681e-05
-1.48886e-05
-4.98251e-05
-1.54029e-05
-4.59893e-05
-1.57569e-05
-4.20994e-05
-1.59433e-05
-3.8195e-05
-1.59576e-05
-3.43165e-05
-1.57978e-05
-3.05038e-05
-1.54644e-05
-2.67963e-05
-1.49613e-05
-2.3232e-05
-1.4295e-05
-1.98464e-05
-1.34754e-05
-1.66724e-05
-1.25156e-05
-1.37391e-05
-1.14316e-05
-1.10712e-05
-1.02429e-05
-8.68851e-06
-8.97238e-06
-6.60489e-06
-7.64619e-06
-4.82791e-06
-6.29415e-06
-3.35805e-06
-4.94999e-06
-2.1882e-06
-3.65172e-06
-1.30316e-06
-2.44224e-06
-6.79164e-07
-1.37003e-06
-2.83575e-07
-4.90162e-07
-7.45168e-08
1.34843e-07
-5.58856e-10
4.33702e-07
3.1933e-07
-1.85456e-07
3.26497e-07
-7.38191e-07
1.43762e-06
-1.65422e-06
2.83662e-06
-2.92656e-06
4.39748e-06
-4.54414e-06
6.02748e-06
-6.49163e-06
7.65552e-06
-8.7498e-06
9.22857e-06
-1.12961e-05
1.07088e-05
-1.41055e-05
1.20704e-05
-1.71509e-05
1.3297e-05
-2.04042e-05
1.43792e-05
-2.38366e-05
1.5313e-05
-2.74192e-05
1.60983e-05
-3.1123e-05
1.67371e-05
-3.49197e-05
1.72332e-05
-3.87814e-05
1.75911e-05
-4.26809e-05
1.78156e-05
-4.65915e-05
1.79111e-05
-5.04871e-05
1.78817e-05
-5.43421e-05
1.7731e-05
-5.81314e-05
1.74617e-05
-6.18304e-05
1.70762e-05
-6.54146e-05
1.65763e-05
-6.886e-05
1.59634e-05
-7.2143e-05
1.52387e-05
-7.52403e-05
1.44037e-05
-7.81291e-05
1.34599e-05
-8.07871e-05
1.24093e-05
-8.31928e-05
1.12546e-05
-8.53257e-05
9.99945e-06
-8.71663e-05
8.64844e-06
-8.86965e-05
7.20743e-06
-8.98997e-05
5.6836e-06
-9.07614e-05
4.08556e-06
-9.1269e-05
2.42344e-06
-9.14125e-05
7.08838e-07
-9.11845e-05
-1.0451e-06
-9.05807e-05
-2.82379e-06
-8.95998e-05
-4.61132e-06
-8.82441e-05
-6.39054e-06
-8.65195e-05
-8.1433e-06
-8.44353e-05
-9.85063e-06
-8.20052e-05
-1.1493e-05
-7.92463e-05
-1.30507e-05
-7.61797e-05
-1.4504e-05
-7.28303e-05
-1.58336e-05
-6.92267e-05
-1.7021e-05
-6.54008e-05
-1.8049e-05
-6.13876e-05
-1.89018e-05
-5.7225e-05
-1.95655e-05
-5.29531e-05
-2.00288e-05
-4.86139e-05
-2.02825e-05
-4.42506e-05
-2.03209e-05
-3.99072e-05
-2.01412e-05
-3.56274e-05
-1.97442e-05
-3.14544e-05
-1.91343e-05
-2.74298e-05
-1.83196e-05
-2.35929e-05
-1.73123e-05
-1.99802e-05
-1.61283e-05
-1.66242e-05
-1.47876e-05
-1.35526e-05
-1.33145e-05
-1.07882e-05
-1.17368e-05
-8.34751e-06
-1.00869e-05
-6.24039e-06
-8.40127e-06
-4.46945e-06
-6.72092e-06
-3.02954e-06
-5.09164e-06
-1.90732e-06
-3.56446e-06
-1.08101e-06
-2.19634e-06
-5.20238e-07
-1.05094e-06
-1.86033e-07
-1.99363e-07
-3.10491e-08
2.78717e-07
2.88281e-07
-2.32183e-07
5.5868e-07
-9.07985e-07
2.11342e-06
-2.0088e-06
3.93744e-06
-3.51556e-06
5.90424e-06
-5.40739e-06
7.91932e-06
-7.66114e-06
9.90927e-06
-1.02514e-05
1.18188e-05
-1.31506e-05
1.3608e-05
-1.63297e-05
1.52495e-05
-1.97584e-05
1.67257e-05
-2.34059e-05
1.80266e-05
-2.72408e-05
1.9148e-05
-3.12321e-05
2.00895e-05
-3.53487e-05
2.08537e-05
-3.95604e-05
2.14449e-05
-4.38373e-05
2.1868e-05
-4.81502e-05
2.21285e-05
-5.24705e-05
2.22314e-05
-5.67701e-05
2.21813e-05
-6.10215e-05
2.19824e-05
-6.51976e-05
2.16378e-05
-6.92717e-05
2.11503e-05
-7.32174e-05
2.05221e-05
-7.70089e-05
1.97549e-05
-8.06205e-05
1.88503e-05
-8.40271e-05
1.78103e-05
-8.72039e-05
1.66368e-05
-9.01271e-05
1.53325e-05
-9.27735e-05
1.3901e-05
-9.51208e-05
1.23468e-05
-9.71482e-05
1.06758e-05
-9.88361e-05
8.89535e-06
-0.000100167
7.01432e-06
-0.000101125
5.04335e-06
-0.000101696
2.99485e-06
-0.00010187
8.83045e-07
-0.000101639
-1.27608e-06
-0.000100998
-3.46479e-06
-9.99458e-05
-5.66378e-06
-9.8484e-05
-7.85228e-06
-9.6619e-05
-1.00083e-05
-9.43607e-05
-1.2109e-05
-9.17231e-05
-1.41306e-05
-8.87243e-05
-1.60494e-05
-8.53868e-05
-1.78415e-05
-8.17367e-05
-1.94836e-05
-7.78044e-05
-2.09533e-05
-7.36238e-05
-2.22296e-05
-6.92322e-05
-2.32934e-05
-6.467e-05
-2.41278e-05
-5.99801e-05
-2.47186e-05
-5.52076e-05
-2.5055e-05
-5.0399e-05
-2.51295e-05
-4.56017e-05
-2.49386e-05
-4.0863e-05
-2.44829e-05
-3.62298e-05
-2.37675e-05
-3.17474e-05
-2.2802e-05
-2.74589e-05
-2.16007e-05
-2.34044e-05
-2.01828e-05
-1.96199e-05
-1.85722e-05
-1.61366e-05
-1.67977e-05
-1.29806e-05
-1.48929e-05
-1.01712e-05
-1.28962e-05
-7.72132e-06
-1.08512e-05
-5.63616e-06
-8.80609e-06
-3.91311e-06
-6.81469e-06
-2.54137e-06
-4.9362e-06
-1.50179e-06
-3.23592e-06
-7.66924e-07
-1.7858e-06
-3.01293e-07
-6.64995e-07
-6.20278e-08
3.94515e-08
2.26253e-07
-2.77564e-07
8.36243e-07
-1.07425e-06
2.91011e-06
-2.35778e-06
5.22097e-06
-4.09733e-06
7.64379e-06
-6.26215e-06
1.00841e-05
-8.82096e-06
1.24681e-05
-1.17417e-05
1.47396e-05
-1.49916e-05
1.68579e-05
-1.85373e-05
1.87951e-05
-2.23449e-05
2.05333e-05
-2.63805e-05
2.20623e-05
-3.06106e-05
2.3378e-05
-3.50016e-05
2.44806e-05
-3.95208e-05
2.5373e-05
-4.4136e-05
2.606e-05
-4.88154e-05
2.65475e-05
-5.35283e-05
2.68413e-05
-5.82443e-05
2.69473e-05
-6.29336e-05
2.68706e-05
-6.75669e-05
2.66157e-05
-7.21156e-05
2.61865e-05
-7.65512e-05
2.55859e-05
-8.08456e-05
2.48165e-05
-8.49711e-05
2.38804e-05
-8.89006e-05
2.27798e-05
-9.26072e-05
2.15168e-05
-9.60646e-05
2.00942e-05
-9.92472e-05
1.85152e-05
-0.000102131
1.67842e-05
-0.000104691
1.4907e-05
-0.000106906
1.28907e-05
-0.000108754
1.07441e-05
-0.000110218
8.47796e-06
-0.00011128
6.10507e-06
-0.000111925
3.64022e-06
-0.000112142
1.10032e-06
-0.000111923
-1.49561e-06
-0.000111261
-4.12658e-06
-0.000110155
-6.76973e-06
-0.000108607
-9.4005e-06
-0.000106622
-1.19929e-05
-0.000104211
-1.45199e-05
-0.000101388
-1.69536e-05
-9.81721e-05
-1.92656e-05
-9.45857e-05
-2.14279e-05
-9.06564e-05
-2.34128e-05
-8.6416e-05
-2.51938e-05
-8.18999e-05
-2.67457e-05
-7.71474e-05
-2.80458e-05
-7.22013e-05
-2.90739e-05
-6.71069e-05
-2.9813e-05
-6.19122e-05
-3.02497e-05
-5.66668e-05
-3.03749e-05
-5.14213e-05
-3.01841e-05
-4.62267e-05
-2.96775e-05
-4.11336e-05
-2.88606e-05
-3.61912e-05
-2.77445e-05
-3.14463e-05
-2.63456e-05
-2.69428e-05
-2.46862e-05
-2.27208e-05
-2.27943e-05
-1.88152e-05
-2.07033e-05
-1.52555e-05
-1.84526e-05
-1.20648e-05
-1.60869e-05
-9.25909e-06
-1.36568e-05
-6.8469e-06
-1.12183e-05
-4.8287e-06
-8.83289e-06
-3.19674e-06
-6.56816e-06
-1.93501e-06
-4.49765e-06
-1.0194e-06
-2.70142e-06
-4.18184e-07
-1.26621e-06
-9.29404e-08
-2.85793e-07
1.33313e-07
-3.21485e-07
1.15773e-06
-1.23614e-06
3.82476e-06
-2.69893e-06
6.68376e-06
-4.66775e-06
9.6126e-06
-7.10212e-06
1.25185e-05
-9.96257e-06
1.53285e-05
-1.32103e-05
1.79873e-05
-1.68068e-05
2.04545e-05
-2.07143e-05
2.27026e-05
-2.48952e-05
2.47142e-05
-2.93126e-05
2.64797e-05
-3.39302e-05
2.79956e-05
-3.87124e-05
2.92628e-05
-4.36246e-05
3.02851e-05
-4.86328e-05
3.10682e-05
-5.37037e-05
3.16184e-05
-5.88048e-05
3.19425e-05
-6.39045e-05
3.2047e-05
-6.89714e-05
3.19375e-05
-7.39749e-05
3.16192e-05
-7.88846e-05
3.10962e-05
-8.36708e-05
3.0372e-05
-8.83039e-05
2.94496e-05
-9.27548e-05
2.83313e-05
-9.69947e-05
2.70197e-05
-0.000100995
2.55175e-05
-0.000104729
2.38279e-05
-0.000108169
2.19551e-05
-0.000111289
1.99042e-05
-0.000114064
1.7682e-05
-0.00011647
1.52972e-05
-0.000118486
1.276e-05
-0.000120092
1.00832e-05
-0.000121268
7.28155e-06
-0.000122
4.37247e-06
-0.000122276
1.37562e-06
-0.000122084
-1.68693e-06
-0.00012142
-4.79079e-06
-0.00012028
-7.90943e-06
-0.000118666
-1.10144e-05
-0.000116584
-1.40756e-05
-0.000114042
-1.70615e-05
-0.000111056
-1.99398e-05
-0.000107644
-2.26777e-05
-0.00010383
-2.52423e-05
-9.96412e-05
-2.76013e-05
-9.51111e-05
-2.97239e-05
-9.02762e-05
-3.15805e-05
-8.51776e-05
-3.31444e-05
-7.98599e-05
-3.43917e-05
-7.43708e-05
-3.5302e-05
-6.8761e-05
-3.58595e-05
-6.30831e-05
-3.60529e-05
-5.7391e-05
-3.58761e-05
-5.17394e-05
-3.53291e-05
-4.61825e-05
-3.44175e-05
-4.07736e-05
-3.31534e-05
-3.55637e-05
-3.15555e-05
-3.06008e-05
-2.96491e-05
-2.59291e-05
-2.74659e-05
-2.15878e-05
-2.50445e-05
-1.76105e-05
-2.24299e-05
-1.40243e-05
-1.96732e-05
-1.08489e-05
-1.68322e-05
-8.09661e-06
-1.39706e-05
-5.77148e-06
-1.1158e-05
-3.86929e-06
-8.47035e-06
-2.37752e-06
-5.98942e-06
-1.27566e-06
-3.80328e-06
-5.35777e-07
-2.00608e-06
-1.23584e-07
-6.97985e-07
9.72982e-09
-3.63905e-07
1.52163e-06
-1.39316e-06
4.85402e-06
-3.03085e-06
8.32145e-06
-5.22406e-06
1.18058e-05
-7.92289e-06
1.52173e-05
-1.10798e-05
1.84854e-05
-1.4649e-05
2.15565e-05
-1.85865e-05
2.4392e-05
-2.28497e-05
2.69658e-05
-2.73972e-05
2.92617e-05
-3.21891e-05
3.12715e-05
-3.71863e-05
3.29928e-05
-4.23511e-05
3.44277e-05
-4.76471e-05
3.55811e-05
-5.30384e-05
3.64595e-05
-5.84906e-05
3.70705e-05
-6.39697e-05
3.74216e-05
-6.94426e-05
3.75199e-05
-7.48768e-05
3.73718e-05
-8.02404e-05
3.69829e-05
-8.5502e-05
3.63578e-05
-9.06303e-05
3.55004e-05
-9.55946e-05
3.44139e-05
-0.000100365
3.31013e-05
-0.00010491
3.15653e-05
-0.000109202
2.98092e-05
-0.000113211
2.78368e-05
-0.000116909
2.56529e-05
-0.000120268
2.32636e-05
-0.000123263
2.06768e-05
-0.000125868
1.79024e-05
-0.00012806
1.49524e-05
-0.000129819
1.18414e-05
-0.000131123
8.58636e-06
-0.000131958
5.20716e-06
-0.000132309
1.72629e-06
-0.000132165
-1.83106e-06
-0.000131518
-5.43705e-06
-0.000130366
-9.06144e-06
-0.000128709
-1.26717e-05
-0.000126551
-1.62336e-05
-0.000123902
-1.9711e-05
-0.000120774
-2.30669e-05
-0.000117188
-2.62638e-05
-0.000113167
-2.92638e-05
-0.000108738
-3.203e-05
-0.000103936
-3.45263e-05
-9.87972e-05
-3.6719e-05
-9.33651e-05
-3.85765e-05
-8.76858e-05
-4.0071e-05
-8.18092e-05
-4.11786e-05
-7.57885e-05
-4.18802e-05
-6.96793e-05
-4.21621e-05
-6.35388e-05
-4.20166e-05
-5.74255e-05
-4.14424e-05
-5.13975e-05
-4.04454e-05
-4.55122e-05
-3.90386e-05
-3.98253e-05
-3.72424e-05
-3.43894e-05
-3.50851e-05
-2.92531e-05
-3.26022e-05
-2.44604e-05
-2.98373e-05
-2.00494e-05
-2.68409e-05
-1.60516e-05
-2.3671e-05
-1.24914e-05
-2.03924e-05
-9.3851e-06
-1.70769e-05
-6.74082e-06
-1.38023e-05
-4.55825e-06
-1.06529e-05
-2.82869e-06
-7.71898e-06
-1.53534e-06
-5.09664e-06
-6.53964e-07
-2.88746e-06
-1.53984e-07
-1.19796e-06
-1.44254e-07
-4.0481e-07
1.92644e-06
-1.54503e-06
5.99424e-06
-3.35257e-06
1.0129e-05
-5.76432e-06
1.42176e-05
-8.72124e-06
1.81743e-05
-1.21678e-05
2.1932e-05
-1.60517e-05
2.54403e-05
-2.0323e-05
2.86634e-05
-2.49345e-05
3.15773e-05
-2.98409e-05
3.41682e-05
-3.4999e-05
3.64296e-05
-4.03673e-05
3.83611e-05
-4.59059e-05
3.99663e-05
-5.15764e-05
4.12515e-05
-5.73415e-05
4.22247e-05
-6.31653e-05
4.28943e-05
-6.90127e-05
4.3269e-05
-7.48495e-05
4.33567e-05
-8.06421e-05
4.31644e-05
-8.63575e-05
4.26983e-05
-9.19632e-05
4.19635e-05
-9.7427e-05
4.09642e-05
-0.000102717
3.97041e-05
-0.000107802
3.81863e-05
-0.000112651
3.64142e-05
-0.000117233
3.43913e-05
-0.000121518
3.2122e-05
-0.000125477
2.96118e-05
-0.000129081
2.68677e-05
-0.000132303
2.38988e-05
-0.000135117
2.0716e-05
-0.000137498
1.73332e-05
-0.000139423
1.37666e-05
-0.000140872
1.00355e-05
-0.000141827
6.16222e-06
-0.000142273
2.17198e-06
-0.000142197
-1.90687e-06
-0.000141591
-6.04305e-06
-0.00014045
-1.02025e-05
-0.000138773
-1.43487e-05
-0.000136564
-1.84429e-05
-0.00013383
-2.24446e-05
-0.000130585
-2.63117e-05
-0.000126847
-3.00018e-05
-0.000122639
-3.34719e-05
-0.000117989
-3.66798e-05
-0.000112931
-3.95843e-05
-0.000107504
-4.21466e-05
-0.00010175
-4.43305e-05
-9.57174e-05
-4.61034e-05
-8.94587e-05
-4.74373e-05
-8.30293e-05
-4.83097e-05
-7.64876e-05
-4.87038e-05
-6.98945e-05
-4.86097e-05
-6.3312e-05
-4.80249e-05
-5.68028e-05
-4.69547e-05
-5.04286e-05
-4.54127e-05
-4.425e-05
-4.34211e-05
-3.83245e-05
-4.10106e-05
-3.2706e-05
-3.82207e-05
-2.74436e-05
-3.50997e-05
-2.25806e-05
-3.17039e-05
-1.81535e-05
-2.8098e-05
-1.41916e-05
-2.43543e-05
-1.0716e-05
-2.05525e-05
-7.73931e-06
-1.6779e-05
-5.26546e-06
-1.31268e-05
-3.28978e-06
-9.69466e-06
-1.79926e-06
-6.58716e-06
-7.73214e-07
-3.9135e-06
-1.84319e-07
-1.78686e-06
-3.28572e-07
-4.44188e-07
2.37063e-06
-1.69152e-06
7.24158e-06
-3.6634e-06
1.21009e-05
-6.28702e-06
1.68412e-05
-9.49463e-06
2.13819e-05
-1.32231e-05
2.56604e-05
-1.74133e-05
2.96306e-05
-2.201e-05
3.326e-05
-2.69611e-05
3.65284e-05
-3.22175e-05
3.94246e-05
-3.77329e-05
4.19449e-05
-4.3463e-05
4.40912e-05
-4.93659e-05
4.58692e-05
-5.54014e-05
4.7287e-05
-6.15308e-05
4.83541e-05
-6.7717e-05
4.90805e-05
-7.39237e-05
4.94757e-05
-8.01157e-05
4.95487e-05
-8.62585e-05
4.93072e-05
-9.23184e-05
4.87581e-05
-9.82619e-05
4.7907e-05
-0.000104056
4.67583e-05
-0.000109668
4.53162e-05
-0.000115066
4.35841e-05
-0.000120217
4.15657e-05
-0.000125091
3.92649e-05
-0.000129656
3.66866e-05
-0.000133881
3.38371e-05
-0.000137737
3.0724e-05
-0.000141196
2.73575e-05
-0.00014423
2.37499e-05
-0.000146813
1.99164e-05
-0.000148921
1.5875e-05
-0.000150533
1.16473e-05
-0.000151629
7.25769e-06
-0.000152191
2.73438e-06
-0.000152207
-1.89126e-06
-0.000151665
-6.58453e-06
-0.00015056
-1.13076e-05
-0.000148889
-1.60199e-05
-0.000146654
-2.06781e-05
-0.000143861
-2.52371e-05
-0.000140523
-2.96498e-05
-0.000136656
-3.38685e-05
-0.000132283
-3.78449e-05
-0.000127432
-4.15312e-05
-0.000122136
-4.48808e-05
-0.000116433
-4.78492e-05
-0.000110368
-5.03951e-05
-0.000103991
-5.24807e-05
-9.73547e-05
-5.40736e-05
-9.05174e-05
-5.51469e-05
-8.35408e-05
-5.56804e-05
-7.6489e-05
-5.56615e-05
-6.94281e-05
-5.50857e-05
-6.24253e-05
-5.39576e-05
-5.55473e-05
-5.22907e-05
-4.88597e-05
-5.01086e-05
-4.24258e-05
-4.74445e-05
-3.6305e-05
-4.43415e-05
-3.05523e-05
-4.08524e-05
-2.52166e-05
-3.70395e-05
-2.03403e-05
-3.29743e-05
-1.5958e-05
-2.87366e-05
-1.2096e-05
-2.44144e-05
-8.77208e-06
-2.0103e-05
-5.99468e-06
-1.59042e-05
-3.7634e-06
-1.19259e-05
-2.06908e-06
-8.28148e-06
-8.94398e-07
-5.08817e-06
-2.14865e-07
-2.46639e-06
-5.43436e-07
-4.82018e-07
2.85265e-06
-1.83243e-06
8.59198e-06
-3.96272e-06
1.42312e-05
-6.79091e-06
1.96694e-05
-1.02409e-05
2.48319e-05
-1.42423e-05
2.96618e-05
-1.87295e-05
3.41178e-05
-2.36419e-05
3.81724e-05
-2.89228e-05
4.18093e-05
-3.45192e-05
4.50211e-05
-4.03818e-05
4.78075e-05
-4.64637e-05
5.01731e-05
-5.27209e-05
5.21264e-05
-5.91115e-05
5.36776e-05
-6.55956e-05
5.48382e-05
-7.21347e-05
5.56196e-05
-7.86917e-05
5.60327e-05
-8.52306e-05
5.60876e-05
-9.17161e-05
5.57928e-05
-9.81138e-05
5.51558e-05
-0.00010439
5.41827e-05
-0.00011051
5.28785e-05
-0.000116441
5.12474e-05
-0.00012215
4.92934e-05
-0.000127605
4.70203e-05
-0.000132773
4.44325e-05
-0.000137621
4.15353e-05
-0.00014212
3.83355e-05
-0.000146237
3.48415e-05
-0.000149944
3.10644e-05
-0.000153212
2.70176e-05
-0.000156013
2.27178e-05
-0.000158323
1.81846e-05
-0.000160117
1.34415e-05
-0.000161375
8.51544e-06
-0.000162077
3.43704e-06
-0.000162209
-1.75926e-06
-0.000161759
-7.03542e-06
-0.000160716
-1.23499e-05
-0.000159078
-1.76579e-05
-0.000156844
-2.29119e-05
-0.00015402
-2.80617e-05
-0.000150614
-3.30552e-05
-0.000146644
-3.78393e-05
-0.000142129
-4.23599e-05
-0.000137096
-4.65635e-05
-0.00013158
-5.03976e-05
-0.000125617
-5.38117e-05
-0.000119254
-5.67585e-05
-0.000112539
-5.91949e-05
-0.00010553
-6.10831e-05
-9.82856e-05
-6.23913e-05
-9.08708e-05
-6.30953e-05
-8.33533e-05
-6.3179e-05
-7.58035e-05
-6.26355e-05
-6.82932e-05
-6.14679e-05
-6.08946e-05
-5.96893e-05
-5.3679e-05
-5.73242e-05
-4.67156e-05
-5.44079e-05
-4.00703e-05
-5.09868e-05
-3.38043e-05
-4.71184e-05
-2.79731e-05
-4.28708e-05
-2.26252e-05
-3.83222e-05
-1.78015e-05
-3.35604e-05
-1.35341e-05
-2.86818e-05
-9.84613e-06
-2.37909e-05
-6.75115e-06
-1.89991e-05
-4.25322e-06
-1.44239e-05
-2.34708e-06
-1.01876e-05
-1.01867e-06
-6.41658e-06
-2.45969e-07
-3.23908e-06
-7.89404e-07
-5.18263e-07
3.37091e-06
-1.96753e-06
1.00413e-05
-4.24993e-06
1.65136e-05
-7.27478e-06
2.26942e-05
-1.09581e-05
2.85153e-05
-1.52225e-05
3.39261e-05
-1.99963e-05
3.88916e-05
-2.52136e-05
4.33897e-05
-3.08133e-05
4.74089e-05
-3.67387e-05
5.09465e-05
-4.29374e-05
5.40061e-05
-4.93601e-05
5.65959e-05
-5.59608e-05
5.87272e-05
-6.26961e-05
6.04129e-05
-6.95247e-05
6.16667e-05
-7.64071e-05
6.25019e-05
-8.33053e-05
6.2931e-05
-9.01828e-05
6.2965e-05
-9.70036e-05
6.26136e-05
-0.000103733
6.18849e-05
-0.000110336
6.07856e-05
-0.000116778
5.93209e-05
-0.000123026
5.74957e-05
-0.000129047
5.53138e-05
-0.000134806
5.27796e-05
-0.000140271
4.98977e-05
-0.00014541
4.66737e-05
-0.000150189
4.31148e-05
-0.000154578
3.92303e-05
-0.000158545
3.50318e-05
-0.000162061
3.0534e-05
-0.000165098
2.57545e-05
-0.000167628
2.07147e-05
-0.000169626
1.54398e-05
-0.00017107
9.95887e-06
-0.000171938
4.3051e-06
-0.000172213
-1.48427e-06
-0.00017188
-7.36793e-06
-0.00017093
-1.33007e-05
-0.000169354
-1.92338e-05
-0.000167151
-2.51151e-05
-0.000164323
-3.08896e-05
-0.000160878
-3.65001e-05
-0.00015683
-4.18875e-05
-0.000152197
-4.69922e-05
-0.000147006
-5.17544e-05
-0.000141289
-5.6115e-05
-0.000135083
-6.00174e-05
-0.000128434
-6.34078e-05
-0.000121392
-6.62367e-05
-0.000114015
-6.84604e-05
-0.000106364
-7.00417e-05
-9.85081e-05
-7.09514e-05
-9.05177e-05
-7.11694e-05
-8.24679e-05
-7.06854e-05
-7.44355e-05
-6.95003e-05
-6.64983e-05
-6.76265e-05
-5.8734e-05
-6.50886e-05
-5.12183e-05
-6.19236e-05
-4.40241e-05
-5.8181e-05
-3.72197e-05
-5.39228e-05
-3.08676e-05
-4.92228e-05
-2.50236e-05
-4.41662e-05
-1.97351e-05
-3.88488e-05
-1.50409e-05
-3.33761e-05
-1.09699e-05
-2.78619e-05
-7.5412e-06
-2.24278e-05
-4.76364e-06
-1.72014e-05
-2.63599e-06
-1.23153e-05
-1.14738e-06
-7.90519e-06
-2.78024e-07
-4.10844e-06
-1.06743e-06
-5.52869e-07
3.92378e-06
-2.09658e-06
1.1585e-05
-4.52439e-06
1.89414e-05
-7.73745e-06
2.59073e-05
-1.16444e-05
3.24222e-05
-1.6161e-05
3.84427e-05
-2.12099e-05
4.39406e-05
-2.67203e-05
4.89e-05
-3.26266e-05
5.33153e-05
-3.88689e-05
5.71888e-05
-4.53916e-05
6.05288e-05
-5.21433e-05
6.33475e-05
-5.90759e-05
6.56598e-05
-6.61445e-05
6.74816e-05
-7.33067e-05
6.8829e-05
-8.05222e-05
6.97174e-05
-8.77523e-05
7.01611e-05
-9.49597e-05
7.01724e-05
-0.000102108
6.97621e-05