/*--------------------------------*- C++ -*----------------------------------*\
  =========                 |
  \\      /  F ield         | OpenFOAM: The Open Source CFD Toolbox
   \\    /   O peration     | Website:  https://openfoam.org
    \\  /    A nd           | Version:  dev
     \\/     M anipulation  |
\*---------------------------------------------------------------------------*/
FoamFile
{
    format      ascii;
    class       volScalarField;
    location    "46.8";
    object      p;
}
// * * * * * * * * * * * * * * * * * * * * * * * * * * * * * * * * * * * * * //

dimensions      [0 2 -2 0 0 0 0];

internalField   nonuniform List<scalar> 
5184
(
8.55984e-07
-1.11126e-05
-9.70986e-05
-0.000250044
-0.000449532
-0.000678292
-0.000922091
-0.00116894
-0.00140971
-0.00163724
-0.00184612
-0.00203231
-0.00219289
-0.00232575
-0.00242942
-0.00250288
-0.00254548
-0.00255676
-0.00253646
-0.0024844
-0.00240051
-0.00228475
-0.00213719
-0.00195796
-0.00174729
-0.00150556
-0.00123333
-0.00093132
-0.000600541
-0.00024226
0.00014194
0.000550129
0.000980015
0.00142893
0.0018938
0.00237118
0.00285727
0.00334788
0.00383853
0.0043245
0.00480083
0.00526245
0.00570422
0.00612107
0.00650804
0.00686043
0.00717385
0.00744439
0.00766867
0.00784395
0.00796822
0.00804028
0.00805979
0.00802731
0.00794433
0.0078133
0.00763763
0.00742162
0.00717049
0.00689031
0.00658794
0.00627099
0.00594776
0.00562722
0.00531894
0.00503301
0.00477994
0.00457035
0.00441419
0.00431989
0.00429294
0.00432022
1.39619e-05
1.43448e-06
-7.32024e-05
-0.000201024
-0.000366351
-0.000556707
-0.000761163
-0.000970111
-0.00117562
-0.0013713
-0.00155211
-0.00171413
-0.00185439
-0.00197066
-0.00206129
-0.0021251
-0.00216122
-0.00216904
-0.00214814
-0.00209824
-0.00201914
-0.00191078
-0.00177315
-0.00160636
-0.00141064
-0.00118634
-0.00093401
-0.000654363
-0.000348364
-1.72301e-05
0.000337532
0.000714105
0.00111034
0.00152374
0.00195147
0.00239033
0.00283683
0.00328712
0.00373712
0.0041825
0.00461876
0.00504129
0.00544546
0.00582667
0.00618047
0.00650263
0.00678925
0.00703685
0.00724243
0.00740362
0.00751868
0.00758664
0.00760729
0.00758126
0.00751002
0.0073959
0.00724209
0.0070526
0.00683224
0.00658656
0.00632181
0.00604486
0.00576317
0.00548465
0.00521763
0.00497068
0.00475247
0.00457139
0.00443472
0.00434842
0.00431985
0.00434745
0.000100579
7.58707e-05
5.08206e-07
-0.000117084
-0.000264861
-0.000433182
-0.000613337
-0.000797491
-0.00097894
-0.00115213
-0.00131253
-0.00145658
-0.00158145
-0.00168498
-0.00176551
-0.0018218
-0.00185293
-0.00185822
-0.00183714
-0.00178936
-0.00171463
-0.0016128
-0.00148383
-0.0013278
-0.00114488
-0.0009354
-0.000699852
-0.000438914
-0.000153484
0.000155294
0.000486011
0.000836961
0.00120614
0.00159121
0.00198952
0.00239811
0.00281369
0.00323273
0.00365139
0.00406568
0.00447142
0.00486434
0.00524014
0.00559458
0.00592354
0.00622314
0.00648978
0.00672027
0.00691188
0.00706247
0.00717048
0.00723507
0.00725613
0.00723431
0.00717104
0.00706855
0.00692987
0.00675877
0.00655975
0.00633796
0.00609917
0.00584968
0.00559623
0.00534597
0.00510628
0.00488458
0.00468839
0.00452474
0.00439968
0.00431844
0.00429067
0.00432132
0.000255663
0.000204264
0.000116439
-2.55844e-06
-0.000145055
-0.000303269
-0.000470073
-0.000639096
-0.000804795
-0.000962482
-0.00110828
-0.00123906
-0.0013523
-0.00144606
-0.00151878
-0.0015693
-0.00159671
-0.00160031
-0.00157959
-0.00153414
-0.00146369
-0.00136804
-0.00124711
-0.00110092
-0.000929581
-0.000733372
-0.000512713
-0.000268209
-6.74817e-07
0.000288845
0.000599047
0.000928355
0.0012749
0.0016365
0.00201068
0.00239466
0.00278536
0.00317944
0.00357332
0.00396321
0.00434518
0.0047152
0.00506922
0.00540322
0.00571332
0.00599584
0.0062474
0.00646499
0.00664604
0.00678854
0.00689103
0.00695276
0.00697365
0.00695435
0.00689625
0.00680151
0.00667298
0.00651425
0.00632958
0.00612382
0.00590234
0.00567099
0.00543597
0.00520378
0.00498107
0.00477454
0.00459079
0.0044361
0.0043159
0.00423524
0.00420422
0.0042295
0.000460495
0.00037189
0.000263269
0.000135529
-8.87949e-06
-0.00016379
-0.000323431
-0.000482798
-0.000637479
-0.000783673
-0.000918199
-0.00103844
-0.00114229
-0.00122807
-0.00129442
-0.00134031
-0.00136491
-0.00136757
-0.00134776
-0.00130509
-0.00123925
-0.00115
-0.00103721
-0.00090083
-0.000740921
-0.000557673
-0.000351425
-0.000122687
0.000127831
0.000399197
0.000690236
0.000999504
0.00132528
0.00166554
0.00201798
0.00237998
0.00274866
0.00312086
0.00349318
0.00386204
0.00422369
0.00457428
0.00490995
0.00522686
0.00552127
0.00578968
0.00602881
0.00623579
0.00640816
0.00654395
0.00664181
0.00670098
0.00672139
0.00670369
0.00664921
0.00656002
0.00643884
0.00628911
0.00611483
0.0059206
0.00571148
0.00549292
0.00527065
0.00505063
0.0048389
0.00464152
0.0044644
0.00431316
0.00419275
0.00410795
0.00406756
0.00407743
0.000698904
0.000566864
0.000431667
0.000289587
0.00013761
-1.94907e-05
-0.000177108
-0.000331499
-0.000479325
-0.000617661
-0.000744034
-0.000856394
-0.00095307
-0.00103271
-0.00109423
-0.00113675
-0.00115958
-0.00116212
-0.00114391
-0.00110455
-0.00104371
-0.000961128
-0.00085661
-0.000730043
-0.00058141
-0.000410811
-0.000218482
-4.82507e-06
0.000229571
0.000483905
0.000757135
0.00104796
0.00135482
0.00167584
0.00200888
0.00235149
0.00270094
0.00305423
0.00340814
0.00375923
0.00410389
0.00443842
0.00475907
0.00506213
0.00534397
0.00560114
0.00583048
0.00602914
0.00619471
0.00632527
0.00641945
0.00647652
0.00649636
0.00647957
0.00642744
0.00634192
0.00622566
0.0060819
0.00591449
0.00572777
0.00552654
0.00531591
0.00510125
0.00488807
0.0046819
0.00448825
0.00431245
0.00415957
0.00403416
0.00394062
0.00388543
0.00387238
0.000957095
0.000778303
0.000612726
0.00045214
0.000288173
0.00012443
-3.54653e-05
-0.000188911
-0.000333571
-0.00046736
-0.000588502
-0.000695527
-0.000787227
-0.000862618
-0.000920899
-0.000961407
-0.000983589
-0.000986967
-0.000971122
-0.000935681
-0.000880307
-0.000804705
-0.000708628
-0.000591892
-0.000454391
-0.000296122
-0.000117209
8.20721e-05
0.000301265
0.000539707
0.000796507
0.00107052
0.00136032
0.00166422
0.0019802
0.00230598
0.00263898
0.00297634
0.00331495
0.00365149
0.00398247
0.00430428
0.00461324
0.00490569
0.00517806
0.00542693
0.00564914
0.00584185
0.00600264
0.00612957
0.00622122
0.00627682
0.00629621
0.00627991
0.00622913
0.00614573
0.00603225
0.0058918
0.00572807
0.00554522
0.00534781
0.00514069
0.00492892
0.00471765
0.00451203
0.00431712
0.00413777
0.00397856
0.00384374
0.00373732
0.00366301
0.00362201
0.00122294
0.000996061
0.000797844
0.000615896
0.000436731
0.000262988
9.74572e-05
-5.82887e-05
-0.000202841
-0.000334902
-0.000453377
-0.000557363
-0.000646126
-0.000719064
-0.000775675
-0.000815531
-0.000838246
-0.00084346
-0.000830825
-0.000799998
-0.00075064
-0.000682426
-0.000595052
-0.000488255
-0.000361834
-0.000215675
-4.97764e-05
0.000135722
0.000340509
0.000564074
0.000805679
0.00106434
0.00133879
0.00162748
0.00192856
0.00223988
0.00255899
0.00288315
0.00320936
0.00353437
0.00385478
0.00416701
0.00446742
0.00475236
0.00501824
0.00526165
0.00547936
0.0056685
0.00582657
0.00595157
0.006042
0.00609699
0.0061163
0.00610038
0.00605032
0.0059679
0.00585552
0.00571621
0.00555351
0.00537142
0.00517433
0.00496687
0.00475388
0.00454022
0.00433075
0.00413017
0.00394297
0.00377331
0.00362521
0.00350241
0.00340563
0.00333347
0.00148617
0.00121098
0.000978958
0.000773814
0.000577227
0.000391032
0.000217311
5.67064e-05
-9.02257e-05
-0.000222927
-0.000340947
-0.000443938
-0.00053163
-0.000603803
-0.000660264
-0.000700821
-0.000725268
-0.000733368
-0.000724852
-0.00069941
-0.000656704
-0.000596374
-0.000518058
-0.000421409
-0.000306123
-0.000171962
-1.87915e-05
0.000153396
0.000344444
0.000554003
0.000781498
0.0010261
0.00128672
0.00156195
0.00185009
0.00214912
0.0024567
0.0027702
0.0030867
0.00340301
0.00371576
0.00402139
0.00431626
0.00459667
0.004859
0.00509974
0.0053156
0.00550359
0.0056611
0.00578602
0.00587672
0.00593221
0.00595213
0.0059368
0.00588721
0.00580503
0.00569255
0.00555268
0.00538885
0.00520494
0.00500519
0.00479411
0.00457632
0.00435652
0.00413933
0.00392922
0.00373038
0.00354668
0.003382
0.00323986
0.0031181
0.00301277
0.0017378
0.00141481
0.00114857
0.000919163
0.00070369
0.000503308
0.000319493
0.00015204
7.22914e-07
-0.000134591
-0.00025406
-0.000357865
-0.000446186
-0.000519177
-0.000576946
-0.00061954
-0.00064693
-0.000659006
-0.000655574
-0.000636359
-0.000601021
-0.000549163
-0.000480357
-0.000394166
-0.000290174
-0.000168014
-2.74049e-05
0.000131816
0.000309658
0.000505939
0.000720256
0.000951953
0.00120009
0.00146343
0.00174041
0.00202913
0.00232738
0.00263258
0.0029419
0.00325219
0.00356007
0.00386198
0.00415422
0.00443304
0.00469472
0.00493562
0.00515232
0.00534169
0.00550096
0.00562784
0.00572055
0.00577793
0.00579947
0.00578531
0.00573633
0.00565406
0.00554069
0.00539902
0.00523237
0.00504453
0.00483965
0.00462211
0.00439646
0.00416724
0.00393894
0.00371587
0.00350205
0.00330115
0.00311701
0.00295309
0.00280443
0.00266471
0.00196989
0.00160003
0.00129969
0.00104553
0.000810296
0.000594562
0.000399277
0.000223464
6.61689e-05
-7.33845e-05
-0.000195926
-0.00030214
-0.000392632
-0.000467916
-0.00052839
-0.00057433
-0.000605882
-0.000623053
-0.000625721
-0.000613644
-0.000586471
-0.000543763
-0.00048502
-0.000409708
-0.000317288
-0.000207256
-7.91751e-05
6.72834e-05
0.000232302
0.000415878
0.000617787
0.000837549
0.00107439
0.00132723
0.00159465
0.00187488
0.0021658
0.00246492
0.00276944
0.00307624
0.00338193
0.00368291
0.0039754
0.00425555
0.00451948
0.00476343
0.00498379
0.00517722
0.00534075
0.00547188
0.00556862
0.00562959
0.00565408
0.00564206
0.00559423
0.00551198
0.00539737
0.0052531
0.0050824
0.00488899
0.00467693
0.00445058
0.0042144
0.0039729
0.00373051
0.00349147
0.00325971
0.00303882
0.00283271
0.0026449
0.0024678
0.00229287
0.00217528
0.00175976
0.00142582
0.00114682
0.000891394
0.000659593
0.000451891
0.000266595
0.000102075
-4.30486e-05
-0.000170043
-0.000280065
-0.000374125
-0.000453074
-0.000517588
-0.000568158
-0.00060509
-0.000628503
-0.00063834
-0.000634378
-0.00061625
-0.000583468
-0.000535451
-0.000471557
-0.000391118
-0.00029348
-0.000178042
-4.42992e-05
0.000108115
0.000279385
0.000469476
0.00067809
0.000904632
0.00114818
0.00140746
0.00168082
0.00196624
0.00226132
0.00256329
0.00286903
0.00317512
0.00347789
0.00377347
0.00405787
0.00432705
0.00457703
0.00480399
0.00500434
0.00517487
0.0053128
0.00541589
0.0054825
0.00551167
0.00550316
0.00545745
0.00537576
0.00526002
0.00511281
0.00493728
0.00473708
0.00451626
0.00427913
0.00403018
0.00377393
0.00351482
0.00325713
0.00300478
0.00276139
0.00253107
0.00231749
0.00211062
0.0018998
0.00234743
0.00188762
0.0015208
0.00121722
0.000941511
0.000693276
0.000472549
0.000276966
0.000104259
-4.75163e-05
-0.000180135
-0.000295196
-0.000394092
-0.000477989
-0.000547821
-0.000604279
-0.000647816
-0.000678648
-0.00069677
-0.000701971
-0.000693857
-0.000671881
-0.000635369
-0.000583563
-0.000515656
-0.000430832
-0.000328318
-0.00020742
-6.75766e-05
9.15962e-05
0.00027026
0.000468312
0.00068534
0.000920592
0.00117294
0.00144088
0.00172247
0.00201539
0.0023169
0.00262388
0.00293287
0.00324012
0.00354163
0.00383323
0.00411071
0.00436983
0.00460651
0.00481689
0.00499742
0.00514502
0.00525713
0.00533181
0.00536781
0.0053646
0.00532243
0.00524233
0.00512603
0.00497599
0.0047953
0.00458754
0.00435677
0.00410732
0.00384373
0.0035706
0.00329246
0.00301371
0.00273839
0.0024702
0.00221359
0.00197251
0.00173459
0.00148717
0.00248024
0.00197764
0.00157888
0.00125117
0.000955357
0.000690592
0.000456498
0.000250076
6.84513e-05
-9.08546e-05
-0.000230095
-0.000351287
-0.000456178
-0.00054623
-0.000622613
-0.000686199
-0.000737573
-0.000777033
-0.000804614
-0.000820102
-0.000823067
-0.000812886
-0.000788788
-0.000749885
-0.000695217
-0.0006238
-0.000534672
-0.000426942
-0.000299841
-0.000152772
1.46367e-05
0.000202487
0.000410564
0.000638296
0.000884721
0.00114846
0.00142769
0.00172016
0.00202316
0.00233357
0.00264788
0.00296224
0.00327251
0.00357434
0.00386326
0.00413479
0.00438452
0.00460825
0.0048021
0.00496259
0.00508679
0.0051724
0.00521782
0.00522219
0.00518548
0.00510845
0.00499265
0.0048404
0.00465468
0.00443905
0.00419756
0.00393462
0.00365487
0.00336304
0.00306386
0.00276189
0.00246139
0.00216628
0.00188141
0.00161113
0.00134083
0.00105589
0.00256799
0.00202419
0.00159456
0.00124337
0.000927825
0.000646641
0.000399047
0.00018143
-9.65954e-06
-0.000177212
-0.000323933
-0.000452233
-0.000564191
-0.000661544
-0.000745676
-0.000817625
-0.000878085
-0.000927424
-0.0009657
-0.000992683
-0.00100789
-0.00101062
-0.000999986
-0.000974956
-0.000934411
-0.000877183
-0.000802109
-0.000708086
-0.000594125
-0.000459405
-0.000303325
-0.000125565
7.38729e-05
0.000294613
0.000535868
0.000796407
0.00107453
0.00136807
0.00167435
0.00199025
0.00231222
0.00263628
0.00295814
0.00327326
0.0035769
0.00386426
0.0041306
0.00437132
0.00458212
0.0047591
0.0048989
0.00499877
0.00505669
0.00507144
0.00504262
0.0049707
0.004857
0.00470365
0.00451352
0.00429015
0.00403762
0.00376041
0.00346333
0.0031513
0.00282929
0.00250216
0.00217444
0.00185036
0.00153529
0.00123409
0.000929926
0.000606288
0.00260528
0.00202197
0.00156264
0.00118875
0.000853994
0.000556661
0.000295592
6.65793e-05
-0.000134381
-0.000310769
-0.000465721
-0.000602019
-0.000722052
-0.000827808
-0.00092087
-0.00100242
-0.00107324
-0.00113376
-0.00118404
-0.00122382
-0.00125255
-0.00126944
-0.00127347
-0.00126346
-0.00123811
-0.00119606
-0.00113593
-0.0010564
-0.00095623
-0.000834366
-0.000689962
-0.000522459
-0.000331628
-0.00011763
0.000118942
0.000377027
0.000655062
0.000950966
0.00126213
0.00158544
0.00191728
0.00225359
0.00258989
0.00292141
0.00324315
0.00354996
0.0038367
0.00409834
0.0043301
0.0045276
0.00468696
0.00480493
0.004879
0.00490749
0.00488958
0.00482539
0.00471594
0.00456316
0.00436979
0.00413931
0.00387583
0.00358399
0.00326874
0.0029353
0.00258893
0.00223485
0.00187798
0.00152295
0.00117574
0.000841791
0.000502099
0.000138214
0.00258694
0.00196589
0.00147815
0.00108246
0.000729133
0.000416045
0.000141646
-9.88468e-05
-0.000309978
-0.000495696
-0.00065955
-0.000804671
-0.000933741
-0.00104898
-0.00115214
-0.00124454
-0.00132705
-0.0014001
-0.00146377
-0.00151775
-0.00156142
-0.00159386
-0.00161393
-0.00162027
-0.00161141
-0.00158575
-0.00154171
-0.00147771
-0.00139227
-0.00128406
-0.00115199
-0.000995216
-0.000813273
-0.000606079
-0.000374006
-0.000117924
0.000160764
0.000460095
0.000777538
0.00110999
0.0014538
0.0018048
0.00215836
0.00250947
0.00285279
0.00318284
0.00349403
0.00378085
0.00403799
0.00426048
0.00444388
0.00458435
0.00467879
0.004725
0.00472166
0.00466845
0.00456605
0.00441611
0.00422122
0.00398479
0.00371097
0.00340453
0.00307066
0.00271488
0.00234285
0.00196021
0.00157236
0.0011844
0.000803038
0.000434406
5.72624e-05
-0.000348819
0.00250808
0.00185117
0.00133638
0.000919869
0.000548712
0.000220355
-6.7135e-05
-0.000319108
-0.000540631
-0.000736107
-0.000909477
-0.00106421
-0.00120325
-0.00132904
-0.00144349
-0.00154803
-0.00164357
-0.0017306
-0.00180914
-0.00187884
-0.00193899
-0.00198854
-0.0020262
-0.00205043
-0.00205956
-0.00205177
-0.00202523
-0.0019781
-0.00190862
-0.0018152
-0.00169643
-0.00155122
-0.00137879
-0.00117881
-0.0009514
-0.000697202
-0.000417433
-0.000113905
0.000210948
0.000554067
0.00091178
0.00127983
0.00165342
0.00202729
0.00239581
0.00275306
0.00309301
0.00340959
0.00369691
0.00394937
0.00416183
0.00432979
0.0044495
0.00451809
0.00453367
0.0044954
0.00440353
0.00425939
0.00406533
0.00382469
0.00354165
0.00322111
0.00286855
0.00248983
0.00209106
0.00167842
0.00125782
0.000834965
0.000417364
1.19348e-05
-0.000404867
-0.000855531
0.00236404
0.00167322
0.00113286
0.000696588
0.000308412
-3.46528e-05
-0.000334929
-0.000598321
-0.000830403
-0.00103602
-0.00121948
-0.00138459
-0.00153453
-0.00167194
-0.00179889
-0.00191689
-0.0020269
-0.0021294
-0.0022244
-0.00231147
-0.00238979
-0.00245818
-0.00251517
-0.00255906
-0.00258794
-0.00259976
-0.00259242
-0.00256381
-0.00251187
-0.00243471
-0.00233061
-0.00219815
-0.00203626
-0.00184429
-0.00162209
-0.00137003
-0.00108911
-0.000780952
-0.000447857
-9.28096e-05
0.000280525
0.000667819
0.00106413
0.00146395
0.00186131
0.0022499
0.00262315
0.00297442
0.00329716
0.00358504
0.00383218
0.00403328
0.00418383
0.00428021
0.00431984
0.00430125
0.00422416
0.00408949
0.00389933
0.00365688
0.00336632
0.00303271
0.00266181
0.00225989
0.00183357
0.00138961
0.000934583
0.000474846
1.88198e-05
-0.000425701
-0.000884676
-0.00138277
0.00215039
0.00142776
0.000863361
0.000408464
4.1451e-06
-0.00035301
-0.000665719
-0.000940425
-0.0011832
-0.00139931
-0.00159343
-0.00176966
-0.00193143
-0.00208157
-0.00222226
-0.00235508
-0.00248106
-0.00260064
-0.00271379
-0.00282
-0.00291834
-0.00300747
-0.00308577
-0.0031513
-0.00320195
-0.0032354
-0.00324927
-0.00324116
-0.00320871
-0.00314966
-0.00306198
-0.00294389
-0.00279398
-0.00261127
-0.00239525
-0.00214602
-0.00186429
-0.00155146
-0.00120965
-0.000841734
-0.000451326
-4.27962e-05
0.000378778
0.000807669
0.00123758
0.00166174
0.00207306
0.00246426
0.00282806
0.00315734
0.00344537
0.00368595
0.00387368
0.00400407
0.0040737
0.00408038
0.00402318
0.00390251
0.00372011
0.00347896
0.00318325
0.00283816
0.00244975
0.00202474
0.00157034
0.00109397
0.000602901
0.000104276
-0.000392474
-0.000878578
-0.00138256
-0.00193141
0.00186298
0.00111073
0.000523936
5.16089e-05
-0.000367924
-0.000738511
-0.00106326
-0.00134915
-0.00160273
-0.00182967
-0.00203501
-0.00222313
-0.00239768
-0.00256166
-0.00271737
-0.00286646
-0.00300996
-0.00314832
-0.00328143
-0.0034087
-0.00352906
-0.00364104
-0.00374281
-0.00383223
-0.00390692
-0.00396433
-0.00400176
-0.0040165
-0.00400584
-0.00396718
-0.0038981
-0.00379646
-0.00366044
-0.00348868
-0.00328032
-0.00303508
-0.00275335
-0.00243626
-0.00208569
-0.00170433
-0.00129573
-0.000864253
-0.000415065
4.58957e-05
0.000512007
0.000976062
0.0014304
0.00186707
0.00227798
0.00265516
0.00299089
0.00327801
0.00351005
0.00368152
0.00378804
0.00382652
0.00379526
0.00369404
0.00352413
0.00328825
0.00299049
0.00263616
0.00223163
0.0017841
0.0013014
0.000791706
0.000263101
-0.000276428
-0.000816309
-0.00134669
-0.00189886
-0.00250228
0.00149793
0.000718401
0.000110918
-0.000377586
-0.00081136
-0.00119468
-0.00153106
-0.00182798
-0.00209246
-0.00233058
-0.00254771
-0.00274848
-0.00293679
-0.00311576
-0.00328782
-0.00345466
-0.00361734
-0.00377626
-0.00393126
-0.00408165
-0.00422621
-0.00436332
-0.00449095
-0.00460674
-0.00470805
-0.00479204
-0.00485572
-0.00489602
-0.00490987
-0.0048943
-0.00484647
-0.00476381
-0.0046441
-0.00448552
-0.0042868
-0.00404725
-0.00376687
-0.00344644
-0.00308754
-0.00269265
-0.00226516
-0.00180936
-0.00133049
-0.00083466
-0.000328788
0.00017948
0.000681902
0.0011698
0.00163426
0.00206632
0.00245721
0.00279863
0.00308296
0.00330352
0.00345479
0.00353263
0.00353441
0.00345912
0.00330743
0.0030817
0.00278585
0.00242528
0.00200665
0.00153766
0.00102684
0.000483167
-8.43582e-05
-0.000666797
-0.00125232
-0.00182987
-0.00243372
-0.00309601
0.0010517
0.000247316
-0.000379052
-0.000882425
-0.00132942
-0.00172476
-0.00207233
-0.00238013
-0.00265561
-0.00290525
-0.00313473
-0.00334895
-0.00355201
-0.00374717
-0.00393695
-0.0041231
-0.00430667
-0.00448804
-0.00466698
-0.00484266
-0.00501376
-0.00517848
-0.00533457
-0.00547946
-0.00561023
-0.00572376
-0.00581671
-0.00588566
-0.00592716
-0.00593781
-0.00591434
-0.00585373
-0.00575327
-0.00561066
-0.00542415
-0.00519256
-0.00491545
-0.00459318
-0.00422697
-0.00381898
-0.00337238
-0.00289135
-0.00238111
-0.0018479
-0.0012989
-0.000742177
-0.000186564
0.000358523
0.000883259
0.00137764
0.00183174
0.00223599
0.00258142
0.00286003
0.00306497
0.00319083
0.00323388
0.00319213
0.00306552
0.00285587
0.00256686
0.00220389
0.00177391
0.00128514
0.00074681
0.000168828
-0.000438825
-0.00106614
-0.00169989
-0.00232771
-0.00298707
-0.00371304
0.000521037
-0.000305622
-0.000948997
-0.00146588
-0.00192506
-0.00233166
-0.00268998
-0.00300848
-0.00329508
-0.00355658
-0.003799
-0.00402748
-0.00424629
-0.00445887
-0.00466779
-0.00487486
-0.00508111
-0.00528689
-0.0054919
-0.0056952
-0.00589533
-0.0060903
-0.00627768
-0.00645462
-0.00661797
-0.00676427
-0.00688986
-0.00699094
-0.00706363
-0.0071041
-0.00710861
-0.00707363
-0.00699592
-0.00687265
-0.00670151
-0.0064808
-0.00620954
-0.00588758
-0.00551569
-0.00509566
-0.00463033
-0.00412369
-0.00358086
-0.00300815
-0.00241295
-0.00180373
-0.00118988
-0.000581577
1.04103e-05
0.00057496
0.00110087
0.00157716
0.00199339
0.00233999
0.00260861
0.00279236
0.00288614
0.00288682
0.00279336
0.0026069
0.00233075
0.00197022
0.00153249
0.00102629
0.00046162
-0.000150634
-0.000799401
-0.00147349
-0.00215812
-0.00283946
-0.00355849
-0.00435342
-9.68958e-05
-0.000943152
-0.00160158
-0.00213057
-0.00260084
-0.00301795
-0.00338656
-0.0037156
-0.0040134
-0.00428713
-0.00454307
-0.00478662
-0.00502224
-0.00525346
-0.00548297
-0.0057126
-0.00594338
-0.00617561
-0.00640892
-0.00664227
-0.00687404
-0.00710208
-0.00732373
-0.00753593
-0.00773522
-0.00791784
-0.00807976
-0.00821679
-0.00832463
-0.00839897
-0.00843555
-0.00843031
-0.00837942
-0.00827947
-0.00812752
-0.00792127
-0.00765911
-0.00734032
-0.00696512
-0.00653479
-0.00605179
-0.0055198
-0.00494376
-0.00432995
-0.00368592
-0.00302046
-0.0023435
-0.00166599
-0.000999646
-0.000356789
0.000250012
0.000808236
0.00130578
0.00173134
0.00207478
0.00232751
0.00248282
0.00253615
0.00248527
0.00233045
0.00207441
0.00172228
0.00128137
0.000760917
0.000171718
-0.000474304
-0.00116488
-0.00188751
-0.00262569
-0.00336397
-0.00414714
-0.00501679
-0.000804552
-0.00166762
-0.00233908
-0.00287873
-0.00335899
-0.00378582
-0.00416426
-0.00450366
-0.00481276
-0.00509905
-0.00536911
-0.00562855
-0.005882
-0.00613313
-0.00638469
-0.00663854
-0.00689572
-0.0071565
-0.0074204
-0.00768631
-0.00795245
-0.00821649
-0.00847559
-0.00872641
-0.00896523
-0.00918796
-0.00939021
-0.00956738
-0.00971471
-0.00982739
-0.00990062
-0.00992975
-0.00991033
-0.00983829
-0.00971001
-0.00952248
-0.00927342
-0.00896141
-0.00858602
-0.00814794
-0.0076491
-0.00709277
-0.0064836
-0.00582775
-0.0051328
-0.00440781
-0.00366321
-0.00291066
-0.00216288
-0.00143339
-0.000736236
-8.56052e-05
0.000504558
0.00102099
0.00145155
0.00178564
0.00201467
0.00213234
0.00213497
0.00202166
0.00179438
0.00145786
0.00101948
0.000488909
-0.000122253
-0.000800972
-0.00153367
-0.00230642
-0.0031008
-0.00389956
-0.00475162
-0.00570224
-0.00160394
-0.00248094
-0.00316336
-0.00371219
-0.00420132
-0.00463707
-0.00502485
-0.00537443
-0.00569491
-0.0059941
-0.00627885
-0.00655498
-0.00682728
-0.00709955
-0.0073746
-0.00765434
-0.00793981
-0.00823123
-0.00852806
-0.00882907
-0.00913238
-0.00943546
-0.00973528
-0.0100283
-0.0103104
-0.0105773
-0.0108241
-0.0110459
-0.0112374
-0.0113933
-0.0115082
-0.0115768
-0.0115941
-0.0115552
-0.0114557
-0.0112919
-0.0110607
-0.0107598
-0.0103882
-0.00994574
-0.00943376
-0.00885494
-0.00821356
-0.00751548
-0.00676825
-0.00598108
-0.00516479
-0.00433173
-0.00349558
-0.00267112
-0.00187391
-0.00111994
-0.000425168
0.000194972
0.000726054
0.0011552
0.00147157
0.00166682
0.00173547
0.00167516
0.00148681
0.00117457
0.000745706
0.000210243
-0.000419415
-0.00112908
-0.00190376
-0.00272793
-0.00358109
-0.00444395
-0.00536993
-0.00640823
-0.00249662
-0.00338459
-0.00407585
-0.00463237
-0.00512921
-0.00557307
-0.0059697
-0.00632925
-0.00666116
-0.00697356
-0.00727353
-0.00756711
-0.00785925
-0.00815385
-0.0084538
-0.00876106
-0.00907666
-0.0094008
-0.00973288
-0.0100716
-0.0104149
-0.0107601
-0.011104
-0.0114427
-0.0117721
-0.0120873
-0.0123832
-0.0126544
-0.012895
-0.0130994
-0.0132614
-0.0133751
-0.0134348
-0.0134347
-0.0133698
-0.0132354
-0.0130275
-0.0127431
-0.01238
-0.0119375
-0.011416
-0.0108175
-0.0101458
-0.0094062
-0.00860618
-0.00775494
-0.0068636
-0.00594509
-0.00501402
-0.0040864
-0.00317939
-0.00231086
-0.00149892
-0.000761432
-0.000115359
0.000423793
0.000842602
0.00113028
0.00127915
0.00128505
0.0011475
0.000869793
0.000458879
-7.49752e-05
-0.000718613
-0.00145665
-0.00227258
-0.00314915
-0.00406349
-0.00499413
-0.00599929
-0.00713243
-0.00348364
-0.00437958
-0.00507753
-0.00564022
-0.00614362
-0.00659476
-0.00699971
-0.007369
-0.00771237
-0.00803823
-0.00835391
-0.00866563
-0.0089785
-0.00929654
-0.00962274
-0.00995906
-0.0103066
-0.0106654
-0.011035
-0.0114139
-0.0118
-0.0121904
-0.0125817
-0.01297
-0.0133505
-0.0137184
-0.0140679
-0.0143934
-0.0146885
-0.0149468
-0.0151617
-0.0153265
-0.0154347
-0.0154799
-0.0154559
-0.0153572
-0.0151789
-0.0149169
-0.0145682
-0.0141308
-0.0136043
-0.01299
-0.0122907
-0.0115115
-0.0106592
-0.00974296
-0.00877407
-0.00776593
-0.00673397
-0.00569542
-0.00466902
-0.00367459
-0.00273259
-0.00186344
-0.00108698
-0.00042165
0.000116134
0.000512714
0.000757794
0.000844931
0.000771878
0.000540728
0.000157836
-0.000366467
-0.00101835
-0.00178122
-0.00263697
-0.00356644
-0.00454418
-0.00554624
-0.00663605
-0.00787162
-0.00456554
-0.00546644
-0.00616892
-0.00673626
-0.00724505
-0.00770261
-0.00811535
-0.00849409
-0.00884888
-0.00918839
-0.00952016
-0.00985062
-0.010185
-0.0105275
-0.0108811
-0.0112479
-0.011629
-0.0120245
-0.0124337
-0.0128552
-0.0132867
-0.0137253
-0.0141674
-0.0146088
-0.0150445
-0.0154693
-0.0158773
-0.016262
-0.0166169
-0.0169349
-0.0172087
-0.017431
-0.0175943
-0.0176914
-0.0177153
-0.0176593
-0.0175176
-0.0172848
-0.0169568
-0.0165307
-0.0160049
-0.0153797
-0.014657
-0.013841
-0.012938
-0.011957
-0.0109092
-0.00980817
-0.00867019
-0.00751357
-0.00635861
-0.00522713
-0.004142
-0.00312646
-0.00220342
-0.00139467
-0.000720007
-0.000196426
0.000162639
0.000347981
0.000355095
0.000184442
-0.000158548
-0.000663731
-0.00131673
-0.00209977
-0.00299305
-0.00397535
-0.00501839
-0.00609543
-0.00727552
-0.00862151
-0.00574233
-0.00664519
-0.00735006
-0.00792054
-0.00843355
-0.00889668
-0.00931661
-0.00970447
-0.0100706
-0.0104238
-0.0107719
-0.0111216
-0.0114782
-0.0118459
-0.012228
-0.0126265
-0.0130426
-0.0134764
-0.0139272
-0.0143935
-0.014873
-0.0153627
-0.0158587
-0.0163567
-0.0168515
-0.0173375
-0.0178085
-0.0182576
-0.0186777
-0.0190612
-0.0194001
-0.0196863
-0.0199116
-0.0200678
-0.0201468
-0.0201411
-0.0200434
-0.0198474
-0.0195476
-0.0191398
-0.0186214
-0.0179911
-0.0172502
-0.0164016
-0.015451
-0.0144067
-0.0132797
-0.0120838
-0.0108357
-0.00955485
-0.00826287
-0.00698363
-0.00574248
-0.00456561
-0.0034793
-0.00250897
-0.00167828
-0.00100806
-0.000515426
-0.00021294
-0.000107924
-0.000202064
-0.000491288
-0.00096596
-0.00161137
-0.00240858
-0.00333611
-0.00437048
-0.00548028
-0.00663572
-0.00791184
-0.00937662
-0.0070135
-0.00791536
-0.00862053
-0.00919266
-0.00970871
-0.0101765
-0.010603
-0.0109996
-0.0113768
-0.0117437
-0.0121083
-0.0124774
-0.0128566
-0.0132502
-0.0136615
-0.0140928
-0.014545
-0.0150185
-0.0155126
-0.0160258
-0.0165555
-0.0170988
-0.0176517
-0.0182097
-0.0187673
-0.0193186
-0.0198571
-0.0203755
-0.0208662
-0.0213209
-0.0217311
-0.0220879
-0.0223822
-0.0226048
-0.0227467
-0.022799
-0.0227535
-0.0226023
-0.0223388
-0.0219573
-0.0214537
-0.0208257
-0.0200728
-0.019197
-0.0182031
-0.0170984
-0.0158935
-0.0146022
-0.0132413
-0.0118311
-0.0103947
-0.0089578
-0.00754821
-0.00619523
-0.00492868
-0.003778
-0.00277108
-0.00193317
-0.00128566
-0.000845117
-0.000622326
-0.000621742
-0.000841186
-0.00127195
-0.00189926
-0.00270319
-0.00366047
-0.0047453
-0.00592281
-0.00715982
-0.00853776
-0.01013
-0.00837797
-0.00927599
-0.00997943
-0.0105518
-0.0110697
-0.0115413
-0.0119737
-0.0123784
-0.0127663
-0.0131467
-0.0135277
-0.0139163
-0.0143183
-0.0147381
-0.0151791
-0.0156437
-0.016133
-0.0166474
-0.0171861
-0.0177476
-0.0183296
-0.0189288
-0.0195412
-0.020162
-0.0207858
-0.0214062
-0.0220165
-0.0226089
-0.0231754
-0.023707
-0.0241946
-0.0246286
-0.0249989
-0.0252954
-0.0255079
-0.0256265
-0.0256415
-0.0255439
-0.0253253
-0.0249787
-0.0244985
-0.0238806
-0.0231233
-0.0222272
-0.0211956
-0.0200349
-0.018755
-0.0173692
-0.0158944
-0.0143515
-0.0127645
-0.0111611
-0.00957157
-0.00802819
-0.00656457
-0.00521442
-0.00401034
-0.00298247
-0.00215719
-0.00155574
-0.00119314
-0.00107734
-0.0012087
-0.00157997
-0.00217669
-0.00297815
-0.00395936
-0.00509202
-0.00633752
-0.00765893
-0.00914448
-0.0108733
-0.00983416
-0.0107256
-0.0114254
-0.0119966
-0.0125153
-0.0129897
-0.0134272
-0.0138396
-0.0142376
-0.014631
-0.0150281
-0.0154359
-0.0158605
-0.0163064
-0.0167773
-0.0172754
-0.0178023
-0.0183581
-0.0189424
-0.0195535
-0.0201892
-0.020846
-0.0215201
-0.0222064
-0.0228993
-0.0235924
-0.0242783
-0.0249491
-0.0255961
-0.02621
-0.0267809
-0.0272984
-0.0277516
-0.0281293
-0.0284204
-0.0286135
-0.0286977
-0.0286624
-0.0284979
-0.0281955
-0.0277478
-0.0271492
-0.0263961
-0.0254875
-0.0244254
-0.0232147
-0.0218642
-0.0203866
-0.0187986
-0.0171211
-0.0153793
-0.0136021
-0.0118223
-0.0100752
-0.00839817
-0.00682952
-0.00540689
-0.00416591
-0.00313856
-0.00235157
-0.00182502
-0.00157118
-0.00159374
-0.00188758
-0.00243906
-0.00322696
-0.0042247
-0.00540137
-0.00671434
-0.00812254
-0.0097214
-0.0115959
-0.0113799
-0.0122624
-0.0129568
-0.0135254
-0.0140438
-0.0145201
-0.0149619
-0.015381
-0.0157886
-0.0161943
-0.0166067
-0.0170332
-0.0174798
-0.0179514
-0.0184517
-0.0189832
-0.0195475
-0.020145
-0.0207751
-0.0214365
-0.0221268
-0.0228427
-0.02358
-0.0243339
-0.0250984
-0.0258669
-0.0266318
-0.0273848
-0.0281168
-0.0288179
-0.0294776
-0.0300846
-0.0306272
-0.0310932
-0.0314704
-0.0317462
-0.0319082
-0.0319444
-0.0318434
-0.0315947
-0.0311893
-0.0306196
-0.0298803
-0.0289684
-0.0278841
-0.0266309
-0.0252161
-0.0236513
-0.0219526
-0.0201409
-0.0182417
-0.0162853
-0.0143066
-0.0123437
-0.0104381
-0.00863242
-0.0069699
-0.00549211
-0.00423731
-0.00323855
-0.0025219
-0.00210489
-0.00199546
-0.00219145
-0.00268066
-0.00344182
-0.00444692
-0.00566242
-0.00704138
-0.00853818
-0.0102558
-0.0122856
-0.0130128
-0.013884
-0.0145714
-0.0151363
-0.0156533
-0.0161306
-0.0165757
-0.0170006
-0.0174167
-0.0178337
-0.0182605
-0.0187045
-0.0191721
-0.0196683
-0.0201971
-0.0207612
-0.0213623
-0.0220009
-0.0226768
-0.0233884
-0.0241336