/*--------------------------------*- C++ -*----------------------------------*\
  =========                 |
  \\      /  F ield         | OpenFOAM: The Open Source CFD Toolbox
   \\    /   O peration     | Website:  https://openfoam.org
    \\  /    A nd           | Version:  dev
     \\/     M anipulation  |
\*---------------------------------------------------------------------------*/
FoamFile
{
    format      ascii;
    class       surfaceScalarField;
    location    "46.8";
    object      phi;
}
// * * * * * * * * * * * * * * * * * * * * * * * * * * * * * * * * * * * * * //

dimensions      [0 3 -1 0 0 0 0];

internalField   nonuniform List<scalar> 
10224
(
3.40727e-08
-3.46337e-08
8.80273e-08
-5.39559e-08
1.24557e-07
-3.65313e-08
1.25509e-07
-9.52702e-10
8.3871e-08
4.16396e-08
-1.63954e-09
8.5512e-08
-1.29198e-07
1.27559e-07
-2.95505e-07
1.66306e-07
-4.96498e-07
2.00992e-07
-7.27872e-07
2.31375e-07
-9.85357e-07
2.57486e-07
-1.26486e-06
2.79504e-07
-1.56254e-06
2.97681e-07
-1.87484e-06
3.12301e-07
-2.19849e-06
3.23649e-07
-2.53048e-06
3.31992e-07
-2.86805e-06
3.37567e-07
-3.20862e-06
3.40573e-07
-3.54979e-06
3.41173e-07
-3.88928e-06
3.39489e-07
-4.22488e-06
3.35606e-07
-4.55446e-06
3.29578e-07
-4.87589e-06
3.21429e-07
-5.18705e-06
3.11161e-07
-5.48581e-06
2.98762e-07
-5.77002e-06
2.84212e-07
-6.03751e-06
2.67489e-07
-6.28608e-06
2.48575e-07
-6.51355e-06
2.27467e-07
-6.71772e-06
2.04178e-07
-6.89647e-06
1.78747e-07
-7.04771e-06
1.51241e-07
-7.16947e-06
1.21762e-07
-7.25992e-06
9.04495e-08
-7.3174e-06
5.74848e-08
-7.34049e-06
2.30905e-08
-7.32802e-06
-1.24675e-08
-7.27914e-06
-4.88805e-08
-7.19334e-06
-8.57993e-08
-7.0705e-06
-1.22836e-07
-6.91093e-06
-1.5957e-07
-6.71537e-06
-1.95553e-07
-6.48506e-06
-2.30312e-07
-6.22169e-06
-2.63366e-07
-5.92747e-06
-2.94226e-07
-5.60505e-06
-3.2241e-07
-5.2576e-06
-3.47452e-07
-4.88869e-06
-3.68913e-07
-4.5023e-06
-3.86391e-07
-4.10276e-06
-3.99532e-07
-3.69472e-06
-4.08041e-07
-3.28304e-06
-4.11687e-07
-2.87272e-06
-4.10315e-07
-2.46887e-06
-4.03849e-07
-2.07657e-06
-3.92299e-07
-1.70081e-06
-3.75761e-07
-1.34639e-06
-3.54421e-07
-1.01784e-06
-3.28554e-07
-7.19315e-07
-2.98521e-07
-4.54542e-07
-2.64772e-07
-2.26694e-07
-2.27844e-07
-3.83178e-08
-1.88371e-07
1.08778e-07
-1.47093e-07
2.13657e-07
-1.04882e-07
2.76432e-07
-6.27841e-08
2.98541e-07
-2.21158e-08
2.83168e-07
1.5375e-08
2.35916e-07
4.72646e-08
1.65851e-07
7.00796e-08
8.72706e-08
7.85839e-08
2.25579e-08
6.46986e-08
2.25379e-08
5.40726e-08
-8.87072e-08
1.12643e-07
-1.12527e-07
1.18459e-07
-4.23492e-08
3.91409e-08
7.83625e-08
-1.41723e-07
2.22502e-07
-4.29461e-07
3.73251e-07
-8.22316e-07
5.20414e-07
-1.31414e-06
6.58131e-07
-1.89637e-06
7.83221e-07
-2.55919e-06
8.94194e-07
-3.29232e-06
9.90615e-07
-4.08551e-06
1.07269e-06
-4.92882e-06
1.141e-06
-5.81283e-06
1.1963e-06
-6.72862e-06
1.23945e-06
-7.66788e-06
1.27125e-06
-8.6228e-06
1.29248e-06
-9.58602e-06
1.30379e-06
-1.05506e-05
1.30574e-06
-1.15098e-05
1.29875e-06
-1.24574e-05
1.28313e-06
-1.33869e-05
1.2591e-06
-1.42922e-05
1.22676e-06
-1.51672e-05
1.18617e-06
-1.60058e-05
1.13733e-06
-1.68018e-05
1.08022e-06
-1.75491e-05
1.0148e-06
-1.82416e-05
9.41075e-07
-1.88732e-05
8.59092e-07
-1.9438e-05
7.68965e-07
-1.99302e-05
6.70897e-07
-2.03441e-05
5.65199e-07
-2.06747e-05
4.52305e-07
-2.0917e-05
3.32783e-07
-2.10669e-05
2.0735e-07
-2.11206e-05
7.68687e-08
-2.10755e-05
-5.76434e-08
-2.09293e-05
-1.95021e-07
-2.06812e-05
-3.33956e-07
-2.0331e-05
-4.7301e-07
-1.98799e-05
-6.1063e-07
-1.93303e-05
-7.45169e-07
-1.86857e-05
-8.7491e-07
-1.7951e-05
-9.98096e-07
-1.71322e-05
-1.11296e-06
-1.62369e-05
-1.21777e-06
-1.52735e-05
-1.31084e-06
-1.42518e-05
-1.3906e-06
-1.31826e-05
-1.45562e-06
-1.20775e-05
-1.50463e-06
-1.09489e-05
-1.53658e-06
-9.80993e-06
-1.55067e-06
-8.67389e-06
-1.54635e-06
-7.55436e-06
-1.52338e-06
-6.46486e-06
-1.4818e-06
-5.41861e-06
-1.422e-06
-4.42834e-06
-1.34469e-06
-3.506e-06
-1.25089e-06
-2.66253e-06
-1.14199e-06
-1.90763e-06
-1.01968e-06
-1.24947e-06
-8.86004e-07
-6.94449e-07
-7.43388e-07
-2.46882e-07
-5.9466e-07
9.1392e-08
-4.43153e-07
3.21457e-07
-2.92845e-07
4.47915e-07
-1.48573e-07
4.79773e-07
-1.64869e-08
4.31518e-07
9.55154e-08
3.24612e-07
1.76994e-07
1.89087e-07
2.14132e-07
6.4423e-08
1.89389e-07
8.6948e-08
3.74378e-08
-1.26146e-07
4.34921e-08
-1.18582e-07
-4.30838e-08
4.4227e-08
-2.58573e-07
2.93851e-07
-6.22596e-07
5.86522e-07
-1.14227e-06
8.92924e-07
-1.81587e-06
1.19401e-06
-2.63572e-06
1.47799e-06
-3.59047e-06
1.73797e-06
-4.66659e-06
1.97031e-06
-5.84949e-06
2.17352e-06
-7.12429e-06
2.34749e-06
-8.47626e-06
2.49298e-06
-9.89117e-06
2.61121e-06
-1.13554e-05
2.70366e-06
-1.28559e-05
2.77182e-06
-1.43806e-05
2.81711e-06
-1.59176e-05
2.84082e-06
-1.74559e-05
2.84401e-06
-1.89847e-05
2.82755e-06
-2.04936e-05
2.79207e-06
-2.19726e-05
2.73804e-06
-2.34115e-05
2.66572e-06
-2.48006e-05
2.57527e-06
-2.613e-05
2.46675e-06
-2.739e-05
2.34018e-06
-2.85708e-05
2.1956e-06
-2.96628e-05
2.03309e-06
-3.06565e-05
1.85284e-06
-3.15428e-05
1.65519e-06
-3.23125e-05
1.44066e-06
-3.29573e-05
1.21e-06
-3.34692e-05
9.64226e-07
-3.38411e-05
7.04622e-07
-3.40665e-05
4.32776e-07
-3.41402e-05
1.50582e-07
-3.40581e-05
-1.39754e-07
-3.38174e-05
-4.35723e-07
-3.34168e-05
-7.34531e-07
-3.28567e-05
-1.03312e-06
-3.21391e-05
-1.3282e-06
-3.1268e-05
-1.6163e-06
-3.02491e-05
-1.89382e-06
-2.90901e-05
-2.15708e-06
-2.78007e-05
-2.4024e-06
-2.63923e-05
-2.62615e-06
-2.48783e-05
-2.82485e-06
-2.32736e-05
-2.99523e-06
-2.15949e-05
-3.13432e-06
-1.986e-05
-3.23952e-06
-1.8088e-05
-3.30866e-06
-1.62986e-05
-3.34008e-06
-1.45122e-05
-3.33268e-06
-1.27496e-05
-3.28597e-06
-1.10313e-05
-3.2001e-06
-9.37744e-06
-3.07589e-06
-7.80726e-06
-2.91488e-06
-6.33889e-06
-2.71926e-06
-4.9889e-06
-2.49199e-06
-3.77186e-06
-2.23671e-06
-2.70002e-06
-1.95783e-06
-1.78286e-06
-1.66055e-06
-1.0266e-06
-1.35092e-06
-4.33709e-07
-1.03604e-06
-2.27526e-09
-7.24276e-07
2.74799e-07
-4.25639e-07
4.10584e-07
-1.52267e-07
4.25332e-07
8.07606e-08
3.47693e-07
2.5462e-07
2.15898e-07
3.45922e-07
7.86993e-08
3.26606e-07
1.65646e-07
1.96405e-09
-1.28111e-07
-7.88472e-08
-3.77727e-08
-2.97556e-07
2.62935e-07
-6.87908e-07
6.84202e-07
-1.26823e-06
1.16684e-06
-2.0448e-06
1.66949e-06
-3.01482e-06
2.16403e-06
-4.16905e-06
2.63222e-06
-5.49387e-06
3.06279e-06
-6.97295e-06
3.44939e-06
-8.58844e-06
3.78901e-06
-1.03219e-05
4.08091e-06
-1.21547e-05
4.3258e-06
-1.40687e-05
4.52526e-06
-1.60464e-05
4.68134e-06
-1.80708e-05
4.79623e-06
-2.01258e-05
4.87206e-06
-2.21957e-05
4.91078e-06
-2.42658e-05
4.91406e-06
-2.63215e-05
4.88326e-06
-2.83488e-05
4.81943e-06
-3.03341e-05
4.72332e-06
-3.22638e-05
4.59545e-06
-3.41247e-05
4.43611e-06
-3.59034e-05
4.24552e-06
-3.7587e-05
4.02379e-06
-3.91625e-05
3.7711e-06
-4.06171e-05
3.48771e-06
-4.19384e-05
3.17409e-06
-4.31141e-05
2.83092e-06
-4.41327e-05
2.45924e-06
-4.49831e-05
2.06044e-06
-4.56552e-05
1.63633e-06
-4.61398e-05
1.18922e-06
-4.64289e-05
7.21871e-07
-4.65159e-05
2.37567e-07
-4.63958e-05
-2.59906e-07
-4.60652e-05
-7.66269e-07
-4.5523e-05
-1.27678e-06
-4.47698e-05
-1.78627e-06
-4.38088e-05
-2.28922e-06
-4.26453e-05
-2.77981e-06
-4.12871e-05
-3.25201e-06
-3.97445e-05
-3.69968e-06
-3.80302e-05
-4.11671e-06
-3.61593e-05
-4.49707e-06
-3.41491e-05
-4.83498e-06
-3.20193e-05
-5.12505e-06
-2.97913e-05
-5.36234e-06
-2.74883e-05
-5.54256e-06
-2.51348e-05
-5.66214e-06
-2.27565e-05
-5.71834e-06
-2.03798e-05
-5.70937e-06
-1.80314e-05
-5.63444e-06
-1.57376e-05
-5.49384e-06
-1.35245e-05
-5.28899e-06
-1.14169e-05
-5.02246e-06
-9.43815e-06
-4.69802e-06
-7.60951e-06
-4.32064e-06
-5.94973e-06
-3.8965e-06
-4.4745e-06
-3.43306e-06
-3.19595e-06
-2.93909e-06
-2.12203e-06
-2.42483e-06
-1.25593e-06
-1.90214e-06
-5.95407e-07
-1.3848e-06
-1.32004e-07
-8.89044e-07
1.498e-07
-4.34065e-07
2.73482e-07
-4.29157e-08
2.71521e-07
2.56577e-07
1.86444e-07
4.30991e-07
7.22657e-08
4.40792e-07
2.37915e-07
-4.20275e-08
-8.60825e-08
-2.30009e-07
1.50206e-07
-6.06601e-07
6.39526e-07
-1.19841e-06
1.27601e-06
-2.0192e-06
1.98763e-06
-3.07214e-06
2.72243e-06
-4.35205e-06
3.44394e-06
-5.84749e-06
4.12765e-06
-7.54259e-06
4.75789e-06
-9.41853e-06
5.32534e-06
-1.14548e-05
5.82524e-06
-1.36299e-05
6.256e-06
-1.59221e-05
6.61809e-06
-1.83102e-05
6.91335e-06
-2.07732e-05
7.14429e-06
-2.32907e-05
7.31376e-06
-2.58432e-05
7.42458e-06
-2.84118e-05
7.47939e-06
-3.09782e-05
7.48047e-06
-3.35247e-05
7.42972e-06
-3.60339e-05
7.32864e-06
-3.84889e-05
7.17833e-06
-4.08731e-05
6.97957e-06
-4.31698e-05
6.7329e-06
-4.5363e-05
6.43869e-06
-4.74365e-05
6.09727e-06
-4.93744e-05
5.70904e-06
-5.11613e-05
5.27456e-06
-5.27818e-05
4.79466e-06
-5.42215e-05
4.27057e-06
-5.54662e-05
3.70397e-06
-5.65029e-05
3.09712e-06
-5.73195e-05
2.45287e-06
-5.7905e-05
1.77478e-06
-5.82502e-05
1.0671e-06
-5.83475e-05
3.34814e-07
-5.8191e-05
-4.16362e-07
-5.77773e-05
-1.18001e-06
-5.7105e-05
-1.94903e-06
-5.61755e-05
-2.71576e-06
-5.49928e-05
-3.47199e-06
-5.35635e-05
-4.20911e-06
-5.18972e-05
-4.91825e-06
-5.00066e-05
-5.59035e-06
-4.79068e-05
-6.21642e-06
-4.56163e-05
-6.78762e-06
-4.31558e-05
-7.29547e-06
-4.05488e-05
-7.73206e-06
-3.78209e-05
-8.09018e-06
-3.5e-05
-8.36353e-06
-3.21152e-05
-8.5469e-06
-2.91973e-05
-8.63629e-06
-2.62776e-05
-8.62908e-06
-2.33879e-05
-8.52413e-06
-2.05598e-05
-8.32189e-06
-1.78243e-05
-8.02448e-06
-1.52111e-05
-7.63573e-06
-1.27478e-05
-7.16124e-06
-1.04601e-05
-6.60838e-06
-8.37025e-06
-5.98635e-06
-6.49711e-06
-5.3062e-06
-4.85525e-06
-4.58095e-06
-3.4544e-06
-3.82567e-06
-2.29878e-06
-3.05774e-06
-1.38644e-06
-2.29715e-06
-7.08512e-07
-1.56698e-06
-2.485e-07
-8.94081e-07
1.84692e-08
-3.09879e-07
1.26466e-07
1.48587e-07
1.19654e-07
4.378e-07
5.37091e-08
5.06738e-07
2.91628e-07
-8.94409e-08
3.35985e-09
-3.95408e-07
4.56174e-07
-9.45317e-07
1.18943e-06
-1.75577e-06
2.08647e-06
-2.83358e-06
3.06544e-06
-4.17698e-06
4.06584e-06
-5.77713e-06
5.04409e-06
-7.61963e-06
5.97016e-06
-9.68601e-06
6.82427e-06
-1.1955e-05
7.59429e-06
-1.44034e-05
8.2737e-06
-1.70074e-05
8.85995e-06
-1.97425e-05
9.35323e-06
-2.25847e-05
9.75549e-06
-2.551e-05
1.00697e-05
-2.84955e-05
1.02992e-05
-3.15184e-05
1.04476e-05
-3.45571e-05
1.0518e-05
-3.75902e-05
1.05136e-05
-4.0597e-05
1.04365e-05
-4.35573e-05
1.0289e-05
-4.64513e-05
1.00723e-05
-4.92593e-05
9.78759e-06
-5.19621e-05
9.43572e-06
-5.45407e-05
9.01728e-06
-5.69763e-05
8.53287e-06
-5.92504e-05
7.98321e-06
-6.13451e-05
7.36924e-06
-6.32428e-05
6.69232e-06
-6.49265e-05
5.95433e-06
-6.63804e-05
5.1578e-06
-6.75892e-05
4.30601e-06
-6.85395e-05
3.40309e-06
-6.92188e-05
2.45408e-06
-6.96166e-05
1.46498e-06
-6.97246e-05
4.4275e-07
-6.95363e-05
-6.04653e-07
-6.90479e-05
-1.66835e-06
-6.82584e-05
-2.73857e-06
-6.71694e-05
-3.80477e-06
-6.57856e-05
-4.85572e-06
-6.41151e-05
-5.87964e-06
-6.21689e-05
-6.86442e-06
-5.99615e-05
-7.79775e-06
-5.75106e-05
-8.66736e-06
-5.4837e-05
-9.46124e-06
-5.19645e-05
-1.01679e-05
-4.89201e-05
-1.07766e-05
-4.57328e-05
-1.12774e-05
-4.24344e-05
-1.1662e-05
-3.90582e-05
-1.19231e-05
-3.56391e-05
-1.20554e-05
-3.2213e-05
-1.20552e-05
-2.88161e-05
-1.1921e-05
-2.54845e-05
-1.16535e-05
-2.22535e-05
-1.12555e-05
-1.91571e-05
-1.07322e-05
-1.62271e-05
-1.00912e-05
-1.34928e-05
-9.34271e-06
-1.09799e-05
-8.49922e-06
-8.71027e-06
-7.57584e-06
-6.70094e-06
-6.59028e-06
-4.9636e-06
-5.56301e-06
-3.5039e-06
-4.51743e-06
-2.32081e-06
-3.48024e-06
-1.40594e-06
-2.48185e-06
-7.42971e-07
-1.55705e-06
-3.07037e-07
-7.45813e-07
-6.41395e-08
-9.43031e-08
2.94932e-08
3.44169e-07
2.83574e-08
5.07874e-07
3.19988e-07
-1.37674e-07
1.41034e-07
-5.66468e-07
8.84969e-07
-1.29787e-06
1.92083e-06
-2.33698e-06
3.12558e-06
-3.68211e-06
4.41057e-06
-5.3252e-06
5.70893e-06
-7.25263e-06
6.97152e-06
-9.44629e-06
8.16381e-06
-1.18846e-05
9.26258e-06
-1.45436e-05
1.02533e-05
-1.73976e-05
1.11278e-05
-2.04204e-05
1.18827e-05
-2.3585e-05
1.25179e-05
-2.68651e-05
1.30355e-05
-3.02342e-05
1.34388e-05
-3.36668e-05
1.37318e-05
-3.71377e-05
1.39185e-05
-4.06226e-05
1.40029e-05
-4.40976e-05
1.39885e-05
-4.75394e-05
1.38783e-05
-5.09251e-05
1.36747e-05
-5.42324e-05
1.33795e-05
-5.74391e-05
1.29943e-05
-6.05234e-05
1.252e-05
-6.34638e-05
1.19577e-05
-6.62392e-05
1.13083e-05
-6.88289e-05
1.05728e-05
-7.12124e-05
9.7528e-06
-7.33703e-05
8.85019e-06
-7.52836e-05
7.86767e-06
-7.69346e-05
6.80876e-06
-7.83065e-05
5.67795e-06
-7.93843e-05
4.48083e-06
-8.01543e-05
3.22412e-06
-8.06051e-05
1.91579e-06
-8.07274e-05
5.65046e-07
-8.05144e-05
-8.17686e-07
-7.99619e-05
-2.22078e-06
-7.9069e-05
-3.63152e-06
-7.78376e-05
-5.03617e-06
-7.62731e-05
-6.42017e-06
-7.43845e-05
-7.76828e-06
-7.21841e-05
-9.06482e-06
-6.9688e-05
-1.02939e-05
-6.69157e-05
-1.14397e-05
-6.38903e-05
-1.24866e-05
-6.06382e-05
-1.34199e-05
-5.71891e-05
-1.42257e-05
-5.35752e-05
-1.48913e-05
-4.98316e-05
-1.54056e-05
-4.59952e-05
-1.57595e-05
-4.21046e-05
-1.59459e-05
-3.81996e-05
-1.59602e-05
-3.43204e-05
-1.58002e-05
-3.05071e-05
-1.54667e-05
-2.67992e-05
-1.49634e-05
-2.32343e-05
-1.4297e-05
-1.98483e-05
-1.34772e-05
-1.66739e-05
-1.25171e-05
-1.37402e-05
-1.14329e-05
-1.1072e-05
-1.0244e-05
-8.68901e-06
-8.97326e-06
-6.60518e-06
-7.64683e-06
-4.82804e-06
-6.29457e-06
-3.35806e-06
-4.95021e-06
-2.18815e-06
-3.65177e-06
-1.30307e-06
-2.44213e-06
-6.79073e-07
-1.36981e-06
-2.835e-07
-4.89873e-07
-7.44709e-08
1.35142e-07
-5.43743e-10
4.33947e-07
3.19444e-07
-1.85481e-07
3.26514e-07
-7.38297e-07
1.43778e-06
-1.65447e-06
2.83701e-06
-2.92702e-06
4.39813e-06
-4.54487e-06
6.02842e-06
-6.49269e-06
7.65675e-06
-8.75126e-06
9.23009e-06
-1.1298e-05
1.07106e-05
-1.41079e-05
1.20725e-05
-1.71539e-05
1.32992e-05
-2.04078e-05
1.43817e-05
-2.38408e-05
1.53157e-05
-2.74239e-05
1.61011e-05
-3.11284e-05
1.674e-05
-3.49258e-05
1.72362e-05
-3.87882e-05
1.75942e-05
-4.26884e-05
1.78187e-05
-4.65997e-05
1.79142e-05
-5.04959e-05
1.78848e-05
-5.43516e-05
1.7734e-05
-5.81416e-05
1.74647e-05
-6.18412e-05
1.70791e-05
-6.5426e-05
1.65791e-05
-6.8872e-05
1.5966e-05
-7.21555e-05
1.52412e-05
-7.52533e-05
1.44061e-05
-7.81425e-05
1.3462e-05
-8.08009e-05
1.24112e-05
-8.3207e-05
1.12563e-05
-8.53402e-05
1.00009e-05
-8.7181e-05
8.64957e-06
-8.87113e-05
7.20827e-06
-8.99146e-05
5.68414e-06
-9.07763e-05
4.0858e-06
-9.12838e-05
2.42335e-06
-9.14272e-05
7.08428e-07
-9.11991e-05
-1.04583e-06
-9.0595e-05
-2.82484e-06
-8.96138e-05
-4.61269e-06
-8.82578e-05
-6.39221e-06
-8.65327e-05
-8.14526e-06
-8.44481e-05
-9.85286e-06
-8.20174e-05
-1.14955e-05
-7.92579e-05
-1.30534e-05
-7.61907e-05
-1.45069e-05
-7.28407e-05
-1.58366e-05
-6.92364e-05
-1.70242e-05
-6.54098e-05
-1.80523e-05
-6.13959e-05
-1.89052e-05
-5.72326e-05
-1.9569e-05
-5.296e-05
-2.00321e-05
-4.862e-05
-2.02859e-05
-4.4256e-05
-2.03242e-05
-3.99119e-05
-2.01444e-05
-3.56315e-05
-1.97472e-05
-3.14578e-05
-1.91371e-05
-2.74327e-05
-1.83222e-05
-2.35953e-05
-1.73146e-05
-1.99821e-05
-1.61303e-05
-1.66256e-05
-1.47894e-05
-1.35537e-05
-1.33159e-05
-1.0789e-05
-1.1738e-05
-8.34803e-06
-1.00878e-05
-6.24071e-06
-8.4019e-06
-4.46961e-06
-6.7213e-06
-3.02959e-06
-5.09178e-06
-1.9073e-06
-3.56442e-06
-1.08097e-06
-2.19615e-06
-5.20192e-07
-1.05065e-06
-1.86001e-07
-1.99048e-07
-3.10372e-08
2.78983e-07
2.88407e-07
-2.3222e-07
5.58733e-07
-9.08133e-07
2.1137e-06
-2.00913e-06
3.93801e-06
-3.51615e-06
5.90515e-06
-5.40832e-06
7.92059e-06
-7.66247e-06
9.9109e-06
-1.02532e-05
1.18208e-05
-1.31529e-05
1.36103e-05
-1.63326e-05
1.52521e-05
-1.9762e-05
1.67286e-05
-2.34101e-05
1.80298e-05
-2.72457e-05
1.91513e-05
-3.12376e-05
2.0093e-05
-3.53551e-05
2.08574e-05
-3.95675e-05
2.14486e-05
-4.38452e-05
2.18718e-05
-4.81588e-05
2.21323e-05
-5.24799e-05
2.22352e-05
-5.67802e-05
2.21852e-05
-6.10323e-05
2.19861e-05
-6.52091e-05
2.16415e-05
-6.92839e-05
2.11539e-05
-7.32303e-05
2.05255e-05
-7.70224e-05
1.97581e-05
-8.06346e-05
1.88534e-05
-8.40416e-05
1.78131e-05
-8.7219e-05
1.66394e-05
-9.01426e-05
1.53348e-05
-9.27893e-05
1.3903e-05
-9.51369e-05
1.23485e-05
-9.71645e-05
1.06772e-05
-9.88526e-05
8.89635e-06
-0.000100183
7.01495e-06
-0.000101141
5.0436e-06
-0.000101713
2.99472e-06
-0.000101887
8.82512e-07
-0.000101656
-1.27701e-06
-0.000101014
-3.46611e-06
-9.99614e-05
-5.66548e-06
-9.84993e-05
-7.85435e-06
-9.66338e-05
-1.00107e-05
-9.4375e-05
-1.21117e-05
-9.17368e-05
-1.41337e-05
-8.87374e-05
-1.60528e-05
-8.53992e-05
-1.78451e-05
-8.17484e-05
-1.94874e-05
-7.78154e-05
-2.09573e-05
-7.3634e-05
-2.22337e-05
-6.92416e-05
-2.32976e-05
-6.46786e-05
-2.4132e-05
-5.9988e-05
-2.47228e-05
-5.52147e-05
-2.50591e-05
-5.04053e-05
-2.51335e-05
-4.56072e-05
-2.49425e-05
-4.08678e-05
-2.44866e-05
-3.62339e-05
-2.3771e-05
-3.17509e-05
-2.28052e-05
-2.74619e-05
-2.16036e-05
-2.34068e-05
-2.01854e-05
-1.96217e-05
-1.85745e-05
-1.61381e-05
-1.67996e-05
-1.29816e-05
-1.48944e-05
-1.0172e-05
-1.28974e-05
-7.72184e-06
-1.0852e-05
-5.63648e-06
-8.80666e-06
-3.91328e-06
-6.81498e-06
-2.54144e-06
-4.93625e-06
-1.50181e-06
-3.23578e-06
-7.66912e-07
-1.78554e-06
-3.01277e-07
-6.64683e-07
-6.202e-08
3.97262e-08
2.26387e-07
-2.77611e-07
8.36345e-07
-1.07444e-06
2.91053e-06
-2.3582e-06
5.22176e-06
-4.09806e-06
7.64501e-06
-6.26327e-06
1.00858e-05
-8.82255e-06
1.24702e-05
-1.17439e-05
1.47421e-05
-1.49944e-05
1.68608e-05
-1.85406e-05
1.87984e-05
-2.23489e-05
2.05369e-05
-2.63853e-05
2.20662e-05
-3.06162e-05
2.33821e-05
-3.5008e-05
2.44849e-05
-3.9528e-05
2.53774e-05
-4.4144e-05
2.60646e-05
-4.88243e-05
2.65522e-05
-5.3538e-05
2.6846e-05
-5.82548e-05
2.6952e-05
-6.29449e-05
2.68753e-05
-6.75791e-05
2.66203e-05
-7.21285e-05
2.61909e-05
-7.65648e-05
2.55902e-05
-8.08599e-05
2.48206e-05
-8.49861e-05
2.38844e-05
-8.89162e-05
2.27835e-05
-9.26233e-05
2.15203e-05
-9.60812e-05
2.00973e-05
-9.92643e-05
1.85179e-05
-0.000102148
1.67866e-05
-0.000104709
1.4909e-05
-0.000106924
1.28923e-05
-0.000108773
1.07453e-05
-0.000110236
8.47869e-06
-0.000111298
6.10534e-06
-0.000111943
3.64002e-06
-0.00011216
1.09966e-06
-0.000111941
-1.49675e-06
-0.000111279
-4.12819e-06
-0.000110172
-6.77179e-06
-0.000108624
-9.40301e-06
-0.000106639
-1.19959e-05
-0.000104227
-1.45232e-05
-0.000101403
-1.69572e-05
-9.81866e-05
-1.92697e-05
-9.45994e-05
-2.14322e-05
-9.06694e-05
-2.34174e-05
-8.64282e-05
-2.51985e-05
-8.19113e-05
-2.67506e-05
-7.7158e-05
-2.80508e-05
-7.2211e-05
-2.9079e-05
-6.71158e-05
-2.9818e-05
-6.19202e-05
-3.02547e-05
-5.66739e-05
-3.03798e-05
-5.14277e-05
-3.01888e-05
-4.62323e-05
-2.96819e-05
-4.11385e-05
-2.88648e-05
-3.61953e-05
-2.77484e-05
-3.14498e-05
-2.63492e-05
-2.69457e-05
-2.46894e-05
-2.27231e-05
-2.27971e-05
-1.8817e-05
-2.07057e-05
-1.52569e-05
-1.84546e-05
-1.20658e-05
-1.60885e-05
-9.25983e-06
-1.3658e-05
-6.8474e-06
-1.12191e-05
-4.82901e-06
-8.83337e-06
-3.19691e-06
-6.56835e-06
-1.93509e-06
-4.4976e-06
-1.01942e-06
-2.70121e-06
-4.18186e-07
-1.26592e-06
-9.29373e-08
-2.85522e-07
1.3345e-07
-3.21543e-07
1.15789e-06
-1.23636e-06
3.82535e-06
-2.69943e-06
6.68483e-06
-4.66861e-06
9.61419e-06
-7.10343e-06
1.25206e-05
-9.96441e-06
1.53312e-05
-1.32127e-05
1.79904e-05
-1.68099e-05
2.04581e-05
-2.07181e-05
2.27066e-05
-2.48998e-05
2.47186e-05
-2.9318e-05
2.64844e-05
-3.39364e-05
2.80006e-05
-3.87196e-05
2.9268e-05
-4.36327e-05
3.02905e-05
-4.86417e-05
3.10736e-05
-5.37135e-05
3.16239e-05
-5.88156e-05
3.19481e-05
-6.39161e-05
3.20525e-05
-6.89839e-05
3.1943e-05
-7.39882e-05
3.16246e-05
-7.88988e-05
3.11015e-05
-8.36858e-05
3.03771e-05
-8.83196e-05
2.94544e-05
-9.27712e-05
2.83359e-05
-9.70117e-05
2.7024e-05
-0.000101013
2.55215e-05
-0.000104747
2.38316e-05
-0.000108188
2.19583e-05
-0.000111308
1.9907e-05
-0.000114083
1.76844e-05
-0.00011649
1.5299e-05
-0.000118506
1.27613e-05
-0.000120111
1.0084e-05
-0.000121288
7.28183e-06
-0.00012202
4.37221e-06
-0.000122295
1.3748e-06
-0.000122104
-1.6883e-06
-0.000121439
-4.7927e-06
-0.000120299
-7.91188e-06
-0.000118685
-1.10174e-05
-0.000116602
-1.4079e-05
-0.000114059
-1.70654e-05
-0.000111073
-1.99441e-05
-0.00010766
-2.26824e-05
-0.000103845
-2.52473e-05
-9.96554e-05
-2.76067e-05
-9.51245e-05
-2.97295e-05
-9.02888e-05
-3.15863e-05
-8.51893e-05
-3.31503e-05
-7.98707e-05
-3.43976e-05
-7.43807e-05
-3.5308e-05
-6.877e-05
-3.58654e-05
-6.30912e-05
-3.60586e-05
-5.73982e-05
-3.58817e-05
-5.17458e-05
-3.53344e-05
-4.61881e-05
-3.44225e-05
-4.07784e-05
-3.31581e-05
-3.55677e-05
-3.15598e-05
-3.06042e-05
-2.9653e-05
-2.59319e-05
-2.74694e-05
-2.15901e-05
-2.50475e-05
-1.76123e-05
-2.24323e-05
-1.40256e-05
-1.96752e-05
-1.08499e-05
-1.68338e-05
-8.09729e-06
-1.39717e-05
-5.77193e-06
-1.11587e-05
-3.86956e-06
-8.47072e-06
-2.37767e-06
-5.98949e-06
-1.27572e-06
-3.80315e-06
-5.35797e-07
-2.00584e-06
-1.23586e-07
-6.97731e-07
9.86442e-09
-3.63973e-07
1.52186e-06
-1.39343e-06
4.8548e-06
-3.03142e-06
8.32283e-06
-5.22506e-06
1.18078e-05
-7.9244e-06
1.522e-05
-1.10819e-05
1.84886e-05
-1.46518e-05
2.15603e-05
-1.859e-05
2.43963e-05
-2.2854e-05
2.69706e-05
-2.74024e-05
2.9267e-05
-3.21951e-05
3.12771e-05
-3.71932e-05
3.29987e-05
-4.23591e-05
3.44338e-05
-4.76559e-05
3.55874e-05
-5.30483e-05
3.6466e-05
-5.85014e-05
3.7077e-05
-6.39814e-05
3.74281e-05
-6.94552e-05
3.75264e-05
-7.48904e-05
3.73782e-05
-8.0255e-05
3.69892e-05
-8.55174e-05
3.63639e-05
-9.06465e-05
3.55063e-05
-9.56116e-05
3.44196e-05
-0.000100382
3.31066e-05
-0.000104929
3.15703e-05
-0.000109221
2.98139e-05
-0.00011323
2.7841e-05
-0.000116929
2.56566e-05
-0.000120289
2.32668e-05
-0.000123284
2.06795e-05
-0.000125889
1.79045e-05
-0.000128082
1.49539e-05
-0.00012984
1.18423e-05
-0.000131145
8.58666e-06
-0.000131979
5.20683e-06
-0.00013233
1.72532e-06
-0.000132186
-1.83266e-06
-0.000131539
-5.43929e-06
-0.000130387
-9.06429e-06
-0.000128729
-1.26752e-05
-0.00012657
-1.62376e-05
-0.00012392
-1.97155e-05
-0.000120792
-2.30719e-05
-0.000117205
-2.62692e-05
-0.000113183
-2.92697e-05
-0.000108754
-3.20362e-05
-0.00010395
-3.45328e-05
-9.88109e-05
-3.67256e-05
-9.33779e-05
-3.85833e-05
-8.76977e-05
-4.00779e-05
-8.18201e-05
-4.11855e-05
-7.57984e-05
-4.18871e-05
-6.96883e-05
-4.21688e-05
-6.35469e-05
-4.20231e-05
-5.74326e-05
-4.14487e-05
-5.14037e-05
-4.04513e-05
-4.55177e-05
-3.90441e-05
-3.983e-05
-3.72475e-05
-3.43933e-05
-3.50897e-05
-2.92563e-05
-3.26063e-05
-2.4463e-05
-2.98408e-05
-2.00515e-05
-2.68439e-05
-1.60533e-05
-2.36734e-05
-1.24926e-05
-2.03944e-05
-9.38597e-06
-1.70783e-05
-6.74141e-06
-1.38033e-05
-4.55863e-06
-1.06535e-05
-2.82891e-06
-7.71921e-06
-1.53544e-06
-5.09662e-06
-6.54003e-07
-2.88728e-06
-1.53992e-07
-1.19774e-06
-1.44126e-07
-4.04888e-07
1.92675e-06
-1.54533e-06
5.99524e-06
-3.35322e-06
1.01307e-05
-5.76544e-06
1.422e-05
-8.72293e-06
1.81775e-05
-1.21702e-05
2.19359e-05
-1.60548e-05
2.54449e-05
-2.03269e-05
2.86685e-05
-2.49393e-05
3.1583e-05
-2.98466e-05
3.41743e-05
-3.50057e-05
3.64361e-05
-4.0375e-05
3.8368e-05
-4.59145e-05
3.99734e-05
-5.1586e-05
4.12588e-05
-5.73522e-05
4.22321e-05
-6.3177e-05
4.29019e-05
-6.90254e-05
4.32766e-05
-7.48632e-05
4.33642e-05
-8.06568e-05
4.31718e-05
-8.63731e-05
4.27055e-05
-9.19797e-05
4.19705e-05
-9.74444e-05
4.0971e-05
-0.000102735
3.97106e-05
-0.000107821
3.81925e-05
-0.000112671
3.64199e-05
-0.000117254
3.43966e-05
-0.000121539
3.21268e-05
-0.000125499
2.9616e-05
-0.000129103
2.68714e-05
-0.000132326
2.39018e-05
-0.00013514
2.07184e-05
-0.000137521
1.73349e-05
-0.000139446
1.37676e-05
-0.000140895
1.00358e-05
-0.00014185
6.16181e-06
-0.000142296
2.17084e-06
-0.000142219
-1.90872e-06
-0.000141613
-6.04561e-06
-0.000140472
-1.02058e-05
-0.000138794
-1.43527e-05
-0.000136584
-1.84475e-05
-0.00013385
-2.24497e-05
-0.000130604
-2.63175e-05
-0.000126866
-3.0008e-05
-0.000122657
-3.34786e-05
-0.000118006
-3.66868e-05
-0.000112947
-3.95917e-05
-0.000107519
-4.21542e-05
-0.000101764
-4.43383e-05
-9.57303e-05
-4.61112e-05
-8.94706e-05
-4.74452e-05
-8.30402e-05
-4.83175e-05
-7.64975e-05
-4.87115e-05
-6.99034e-05
-4.86172e-05
-6.332e-05
-4.80321e-05
-5.68098e-05
-4.69615e-05
-5.04348e-05
-4.54191e-05
-4.42553e-05
-4.3427e-05
-3.8329e-05
-4.1016e-05
-3.27097e-05
-3.82256e-05
-2.74467e-05
-3.51039e-05
-2.2583e-05
-3.17075e-05
-1.81554e-05
-2.8101e-05
-1.41931e-05
-2.43567e-05
-1.07171e-05
-2.05543e-05
-7.74005e-06
-1.67803e-05
-5.26594e-06
-1.31276e-05
-3.29006e-06
-9.69509e-06
-1.7994e-06
-6.58728e-06
-7.73272e-07
-3.91341e-06
-1.84331e-07
-1.78668e-06
-3.28456e-07
-4.44276e-07
2.37103e-06
-1.69185e-06
7.24282e-06
-3.66412e-06
1.2103e-05
-6.28826e-06
1.68442e-05
-9.49649e-06
2.13857e-05
-1.32257e-05
2.5665e-05
-1.74167e-05
2.96359e-05
-2.20142e-05
3.32661e-05
-2.69663e-05
3.6535e-05
-3.22237e-05
3.94317e-05
-3.77401e-05
4.19525e-05
-4.34712e-05
4.40992e-05
-4.93752e-05
4.58774e-05
-5.54118e-05
4.72954e-05
-6.15423e-05
4.83627e-05
-6.77295e-05
4.90891e-05
-7.39373e-05
4.94843e-05
-8.01303e-05
4.95572e-05
-8.62742e-05
4.93157e-05
-9.2335e-05
4.87664e-05
-9.82795e-05
4.7915e-05
-0.000104075
4.6766e-05
-0.000109687
4.53235e-05
-0.000115086
4.3591e-05
-0.000120238
4.15721e-05
-0.000125112
3.92708e-05
-0.000129678
3.6692e-05
-0.000133904
3.38418e-05
-0.00013776
3.07281e-05
-0.000141219
2.73609e-05
-0.000144254
2.37526e-05
-0.000146837
1.99183e-05
-0.000148945
1.58762e-05
-0.000150557
1.16476e-05
-0.000151653
7.2572e-06
-0.000152215
2.73308e-06
-0.00015223
-1.89336e-06
-0.000151688
-6.58743e-06
-0.000150583
-1.13113e-05
-0.000148911
-1.60243e-05
-0.000146675
-2.06833e-05
-0.000143882
-2.52429e-05
-0.000140543
-2.96563e-05
-0.000136676
-3.38755e-05
-0.000132302
-3.78524e-05
-0.00012745
-4.15391e-05
-0.000122152
-4.48891e-05
-0.000116449
-4.78578e-05
-0.000110383
-5.04039e-05
-0.000104005
-5.24897e-05
-9.73675e-05
-5.40826e-05
-9.05293e-05
-5.51558e-05
-8.35516e-05
-5.56892e-05
-7.64987e-05
-5.567e-05
-6.94369e-05
-5.50939e-05
-6.2433e-05
-5.39654e-05
-5.55541e-05
-5.22981e-05
-4.88656e-05
-5.01155e-05
-4.24308e-05
-4.74508e-05
-3.63092e-05
-4.43471e-05
-3.05558e-05
-4.08574e-05
-2.52194e-05
-3.70438e-05
-2.03425e-05
-3.29779e-05
-1.59597e-05
-2.87396e-05
-1.20973e-05
-2.44167e-05
-8.77297e-06
-2.01047e-05
-5.99527e-06
-1.59053e-05
-3.76376e-06
-1.19266e-05
-2.06926e-06
-8.28177e-06
-8.94476e-07
-5.08819e-06
-2.14882e-07
-2.46627e-06
-5.43338e-07
-4.82115e-07
2.85314e-06
-1.83279e-06
8.5935e-06
-3.96351e-06
1.42337e-05
-6.79225e-06
1.96729e-05
-1.02429e-05
2.48364e-05
-1.42451e-05
2.96672e-05
-1.87332e-05
3.4124e-05
-2.36465e-05
3.81794e-05
-2.89283e-05
4.18169e-05
-3.45259e-05
4.50292e-05
-4.03894e-05
4.78161e-05
-4.64725e-05
5.01822e-05
-5.27308e-05
5.21357e-05
-5.91226e-05
5.36872e-05
-6.56078e-05
5.48479e-05
-7.2148e-05
5.56293e-05
-7.87061e-05
5.60424e-05
-8.52461e-05
5.60972e-05
-9.17327e-05
5.58023e-05
-9.81314e-05
5.51651e-05
-0.000104408
5.41917e-05
-0.000110529
5.28871e-05
-0.000116461
5.12557e-05
-0.000122172
4.93012e-05
-0.000127627
4.70275e-05
-0.000132795
4.44392e-05
-0.000137645
4.15413e-05
-0.000142144
3.83407e-05
-0.000146261
3.48461e-05
-0.000149969
3.10682e-05
-0.000153237
2.70206e-05
-0.000156038
2.27199e-05
-0.000158348
1.81858e-05
-0.000160142
1.34419e-05
-0.0001614
8.51488e-06
-0.000162102
3.43558e-06
-0.000162234
-1.76162e-06
-0.000161783
-7.03866e-06
-0.00016074
-1.2354e-05
-0.000159102
-1.76629e-05
-0.000156867
-2.29176e-05
-0.000154042
-2.80681e-05
-0.000150636
-3.30624e-05
-0.000146664
-3.78471e-05
-0.000142149
-4.23683e-05
-0.000137115
-4.65724e-05
-0.000131598
-5.04068e-05
-0.000125634
-5.38213e-05
-0.00011927
-5.67683e-05
-0.000112554
-5.92049e-05
-0.000105544
-6.10931e-05
-9.82984e-05
-6.24013e-05
-9.08824e-05
-6.31051e-05
-8.33639e-05
-6.31886e-05
-7.5813e-05
-6.26448e-05
-6.83017e-05
-6.14767e-05
-6.09021e-05
-5.96977e-05
-5.36855e-05
-5.7332e-05
-4.67212e-05
-5.44151e-05
-4.0075e-05
-5.09933e-05
-3.38082e-05
-4.71242e-05
-2.79762e-05
-4.28758e-05
-2.26277e-05
-3.83264e-05
-1.78034e-05
-3.35639e-05
-1.35356e-05
-2.86846e-05
-9.84717e-06
-2.3793e-05
-6.75185e-06
-1.90006e-05
-4.25365e-06
-1.44248e-05
-2.34731e-06
-1.01881e-05
-1.01877e-06
-6.41674e-06
-2.45992e-07
-3.23905e-06
-7.89329e-07
-5.18368e-07
3.37151e-06
-1.96793e-06
1.00431e-05
-4.25078e-06
1.65166e-05
-7.27623e-06
2.26984e-05
-1.09603e-05
2.85205e-05
-1.52255e-05
3.39323e-05
-2.00002e-05
3.88988e-05
-2.52185e-05
4.33976e-05
-3.08192e-05
4.74176e-05
-3.67457e-05
5.09558e-05
-4.29455e-05
5.40159e-05
-4.93694e-05
5.66061e-05
-5.59713e-05
5.87377e-05
-6.27078e-05
6.04236e-05
-6.95375e-05
6.16776e-05
-7.64211e-05
6.25129e-05
-8.33205e-05
6.29419e-05
-9.01991e-05
6.29758e-05
-9.7021e-05
6.26242e-05
-0.000103751
6.18953e-05
-0.000110355
6.07955e-05
-0.000116798
5.93305e-05
-0.000123048
5.75048e-05
-0.000129069
5.53224e-05
-0.000134829
5.27876e-05
-0.000140295
4.9905e-05
-0.000145434
4.66803e-05
-0.000150214
4.31207e-05
-0.000154603
3.92353e-05
-0.000158571
3.5036e-05
-0.000162087
3.05372e-05
-0.000165124
2.57568e-05
-0.000167654
2.0716e-05
-0.000169653
1.54402e-05
-0.000171096
9.95825e-06
-0.000171964
4.30348e-06
-0.000172239
-1.48687e-06
-0.000171906
-7.3715e-06
-0.000170955
-1.33052e-05
-0.000169378
-1.92392e-05
-0.000167175
-2.51214e-05
-0.000164346
-3.08967e-05
-0.0001609
-3.65079e-05
-0.000156851
-4.18961e-05
-0.000152218
-4.70015e-05
-0.000147026
-5.17641e-05
-0.000141308
-5.61253e-05
-0.000135101
-6.0028e-05
-0.000128451
-6.34187e-05
-0.000121408
-6.62478e-05
-0.000114029
-6.84716e-05
-0.000106378
-7.00529e-05
-9.85206e-05
-7.09624e-05
-9.05291e-05
-7.11801e-05
-8.24781e-05
-7.06958e-05
-7.44446e-05
-6.95102e-05
-6.65064e-05
-6.76359e-05
-5.87411e-05
-6.50974e-05
-5.12245e-05
-6.19317e-05
-4.40293e-05
-5.81884e-05
-3.7224e-05
-5.39295e-05
-3.08712e-05
-4.92286e-05
-2.50264e-05
-4.41712e-05
-1.97373e-05
-3.8853e-05
-1.50425e-05
-3.33794e-05
-1.09711e-05
-2.78645e-05
-7.54201e-06
-2.24297e-05
-4.76414e-06
-1.72027e-05
-2.63626e-06
-1.2316e-05
-1.14749e-06
-7.90551e-06
-2.78051e-07
-4.10849e-06
-1.06738e-06
-5.52982e-07
3.92449e-06
-2.097e-06
1.15871e-05
-4.5253e-06
1.89449e-05
-7.73898e-06
2.5912e-05
-1.16466e-05
3.24281e-05
-1.61641e-05
3.84498e-05
-2.12141e-05
4.39487e-05
-2.67254e-05
4.8909e-05
-3.26329e-05
5.3325e-05
-3.88763e-05
5.71992e-05
-4.54002e-05
6.05397e-05
-5.2153e-05
6.33589e-05
-5.90869e-05
6.56715e-05
-6.61567e-05
6.74935e-05
-7.33202e-05
6.8841e-05
-8.05368e-05
6.97295e-05
-8.77681e-05
7.01731e-05
-9.49767e-05
7.01843e-05
-0.000102126
6.97738e-05
-0.000109181
6.89504e-05