/*--------------------------------*- C++ -*----------------------------------*\
  =========                 |
  \\      /  F ield         | OpenFOAM: The Open Source CFD Toolbox
   \\    /   O peration     | Website:  https://openfoam.org
    \\  /    A nd           | Version:  dev
     \\/     M anipulation  |
\*---------------------------------------------------------------------------*/
FoamFile
{
    format      ascii;
    class       volScalarField;
    location    "33.3";
    object      p;
}
// * * * * * * * * * * * * * * * * * * * * * * * * * * * * * * * * * * * * * //

dimensions      [0 2 -2 0 0 0 0];

internalField   nonuniform List<scalar> 
5184
(
1.54732e-06
-9.91579e-06
-9.57443e-05
-0.000248631
-0.000448067
-0.000676752
-0.000920446
-0.00116718
-0.00140784
-0.00163525
-0.00184402
-0.00203011
-0.00219059
-0.00232336
-0.00242693
-0.0025003
-0.0025428
-0.002554
-0.00253362
-0.00248148
-0.00239752
-0.0022817
-0.00213409
-0.0019548
-0.00174409
-0.00150233
-0.00123006
-0.00092804
-0.000597253
-0.000238975
0.000145209
0.000553373
0.000983227
0.0014321
0.00189693
0.00237426
0.00286029
0.00335084
0.00384144
0.00432734
0.00480362
0.00526518
0.00570691
0.00612372
0.00651067
0.00686304
0.00717646
0.007447
0.0076713
0.00784662
0.00797094
0.00804307
0.00806265
0.00803025
0.00794737
0.00781645
0.0076409
0.00742502
0.00717403
0.00689398
0.00659174
0.00627492
0.00595182
0.00563141
0.00532324
0.0050374
0.00478439
0.00457483
0.0044187
0.00432443
0.00429751
0.00432481
1.51706e-05
2.73964e-06
-7.18465e-05
-0.000199629
-0.000364908
-0.000555194
-0.000759559
-0.000968402
-0.00117381
-0.00136939
-0.0015501
-0.00171202
-0.00185219
-0.00196837
-0.00205892
-0.00212263
-0.00215866
-0.0021664
-0.00214542
-0.00209543
-0.00201627
-0.00190785
-0.00177016
-0.00160332
-0.00140755
-0.00118321
-0.000930837
-0.000651164
-0.000345148
-1.40083e-05
0.00034075
0.000717309
0.00111352
0.0015269
0.00195459
0.00239342
0.00283988
0.00329013
0.00374008
0.00418541
0.00462162
0.00504412
0.00544825
0.00582943
0.00618322
0.00650537
0.00679199
0.0070396
0.00724521
0.00740643
0.00752154
0.00758956
0.00761028
0.00758433
0.00751318
0.00739917
0.00724547
0.00705609
0.00683585
0.00659029
0.00632566
0.00604883
0.00576725
0.00548884
0.00522192
0.00497504
0.0047569
0.00457586
0.00443922
0.00435292
0.00432436
0.00435198
0.000101905
7.71902e-05
1.83759e-06
-0.000115723
-0.000263448
-0.000431699
-0.00061177
-0.00079583
-0.000977184
-0.00115028
-0.0013106
-0.00145456
-0.00157935
-0.00168278
-0.00176323
-0.00181943
-0.00185047
-0.00185567
-0.00183452
-0.00178666
-0.00171185
-0.00160996
-0.00148093
-0.00132484
-0.00114186
-0.000932337
-0.000696747
-0.000435777
-0.000150324
0.000158469
0.00048919
0.000840138
0.0012093
0.00159436
0.00199265
0.00240121
0.00281677
0.00323577
0.0036544
0.00406865
0.00447435
0.00486724
0.00524301
0.00559743
0.00592639
0.00622598
0.00649262
0.00672312
0.00691477
0.00706539
0.00717345
0.0072381
0.00725923
0.00723748
0.00717429
0.0070719
0.00693333
0.00676234
0.00656343
0.00634175
0.00610307
0.00585368
0.00560034
0.00535018
0.00511057
0.00488895
0.00469282
0.00452922
0.0044042
0.00432297
0.00429517
0.00432582
0.000256955
0.000205543
0.000117726
-1.2381e-06
-0.000143681
-0.000301824
-0.000468547
-0.000637483
-0.000803097
-0.0009607
-0.00110642
-0.00123711
-0.00135028
-0.00144395
-0.00151658
-0.00156701
-0.00159433
-0.00159785
-0.00157705
-0.00153152
-0.001461
-0.00136528
-0.00124429
-0.00109803
-0.000926631
-0.000730368
-0.000509663
-0.000265121
2.443e-06
0.000291984
0.000602201
0.000931515
0.00127806
0.00163965
0.00201382
0.00239778
0.00278846
0.00318252
0.00357637
0.00396623
0.00434817
0.00471817
0.00507217
0.00540615
0.00571625
0.00599877
0.00625034
0.00646794
0.00664902
0.00679154
0.00689409
0.00695588
0.00697684
0.00695761
0.00689959
0.00680493
0.0066765
0.00651788
0.00633332
0.00612767
0.00590629
0.00567503
0.00544011
0.00520802
0.0049854
0.00477894
0.00459524
0.00444058
0.00432042
0.00423979
0.00420874
0.004234
0.000461705
0.000373103
0.000264505
0.000136804
-7.54896e-06
-0.00016239
-0.000321953
-0.00048124
-0.000635841
-0.000781959
-0.000916409
-0.00103658
-0.00114035
-0.00122604
-0.00129231
-0.00133811
-0.00136262
-0.00136519
-0.0013453
-0.00130256
-0.00123664
-0.00114731
-0.00103445
-0.000898001
-0.000738027
-0.00055472
-0.00034842
-0.000119638
0.000130916
0.000402312
0.000693372
0.00100266
0.00132844
0.0016687
0.00202113
0.00238313
0.00275179
0.00312397
0.00349627
0.00386511
0.00422674
0.00457732
0.00491297
0.00522987
0.00552428
0.00579268
0.00603183
0.00623882
0.00641121
0.00654704
0.00664495
0.00670418
0.00672466
0.00670703
0.00665264
0.00656352
0.00644244
0.0062928
0.00611863
0.00592451
0.00571549
0.00549701
0.00527483
0.0050549
0.00484326
0.00464596
0.00446889
0.00431767
0.00419729
0.00411251
0.00407212
0.00408196
0.000700017
0.000568002
0.000432844
0.000290812
0.000138893
-1.81405e-05
-0.000175684
-0.00033
-0.000477752
-0.000616017
-0.000742317
-0.000854602
-0.000951199
-0.00103076
-0.00109219
-0.00113462
-0.00115736
-0.00115982
-0.00114153
-0.00110209
-0.00104117
-0.000958505
-0.000853908
-0.000727265
-0.000578561
-0.000407897
-0.000215511
-1.80422e-06
0.000232635
0.000487005
0.000760265
0.00105112
0.00135799
0.00167903
0.00201207
0.00235467
0.00270411
0.00305739
0.00341129
0.00376236
0.004107
0.00444152
0.00476217
0.00506522
0.00534705
0.00560423
0.00583357
0.00603225
0.00619785
0.00632845
0.00642268
0.0064798
0.00649971
0.006483
0.00643094
0.00634551
0.00622933
0.00608566
0.00591835
0.00573174
0.00553061
0.00532007
0.00510549
0.00489238
0.0046863
0.00449273
0.00431699
0.00416414
0.00403875
0.00394522
0.00389004
0.00387697
0.000958109
0.000779362
0.000613837
0.000453308
0.000289402
0.000125725
-3.41003e-05
-0.000187476
-0.000332067
-0.000465785
-0.000586856
-0.000693805
-0.000785426
-0.000860734
-0.000918928
-0.000959349
-0.000981443
-0.000984736
-0.000968807
-0.000933281
-0.000877821
-0.000802134
-0.000705973
-0.000589155
-0.000451576
-0.000293237
-0.00011426
8.50768e-05
0.000304319
0.000542806
0.000799644
0.00107369
0.00136352
0.00166743
0.00198342
0.00230921
0.0026422
0.00297955
0.00331815
0.00365468
0.00398565
0.00430745
0.00461641
0.00490886
0.00518123
0.0054301
0.00565232
0.00584505
0.00600586
0.00613283
0.00622453
0.00628019
0.00629965
0.00628342
0.00623271
0.0061494
0.006036
0.00589564
0.00573201
0.00554926
0.00535195
0.00514491
0.00493322
0.00472203
0.00451648
0.00432164
0.00414236
0.0039832
0.00384839
0.00374199
0.00366767
0.00362667
0.00122385
0.000997039
0.000798884
0.000616999
0.000437899
0.000264222
9.87585e-05
-5.69202e-05
-0.000201404
-0.000333395
-0.000451797
-0.000555707
-0.000644389
-0.000717243
-0.000773768
-0.000813536
-0.000836163
-0.000841289
-0.000828566
-0.000797649
-0.000748201
-0.000679895
-0.00059243
-0.000485545
-0.000359041
-0.000212806
-4.68366e-05
0.000138726
0.00034357
0.000567187
0.000808838
0.00106754
0.00134202
0.00163073
0.00193183
0.00224316
0.00256227
0.00288642
0.00321262
0.00353764
0.00385804
0.00417026
0.00447066
0.0047556
0.0050215
0.00526491
0.00548263
0.00567178
0.00582988
0.00595491
0.00604539
0.00610044
0.00611983
0.00610397
0.00605399
0.00597164
0.00585935
0.00572013
0.00555752
0.00537553
0.00517853
0.00497117
0.00475825
0.00454467
0.00433526
0.00413475
0.00394761
0.00377801
0.00362995
0.00350716
0.00341038
0.00333821
0.00148697
0.00121187
0.000979921
0.000774846
0.000578327
0.0003922
0.000218547
5.80098e-05
-8.88528e-05
-0.000221483
-0.000339428
-0.000442341
-0.000529951
-0.000602039
-0.000658413
-0.000698881
-0.000723237
-0.000731247
-0.000722638
-0.000697101
-0.000654298
-0.00059387
-0.000515457
-0.000418713
-0.000303337
-0.000169092
-1.58437e-05
0.000156416
0.000347529
0.000557148
0.000784696
0.00102935
0.00129
0.00156526
0.00185342
0.00215246
0.00246005
0.00277355
0.00309005
0.00340636
0.00371911
0.00402474
0.0043196
0.00460001
0.00486235
0.00510309
0.00531896
0.00550697
0.00566451
0.00578945
0.0058802
0.00593576
0.00595575
0.00594049
0.00589097
0.00580886
0.00569646
0.00555668
0.00539294
0.00520912
0.00500947
0.00479847
0.00458077
0.00436105
0.00414393
0.00393388
0.0037351
0.00355145
0.00338681
0.0032447
0.00312295
0.00301761
0.00173849
0.0014156
0.00114945
0.000920118
0.000704719
0.000504409
0.000320664
0.000153283
2.03762e-06
-0.000133202
-0.000252595
-0.00035632
-0.000444558
-0.000517462
-0.000575142
-0.000617645
-0.000644942
-0.000656923
-0.000653393
-0.000634077
-0.000598634
-0.000546671
-0.00047776
-0.000391468
-0.000287378
-0.000165126
-2.44307e-05
0.000134871
0.000312787
0.000509136
0.000723515
0.000955265
0.00120345
0.00146682
0.00174382
0.00203256
0.00233081
0.00263603
0.00294535
0.00325564
0.00356352
0.00386543
0.00415767
0.00443649
0.00469817
0.00493908
0.00515579
0.00534518
0.00550448
0.00563138
0.00572414
0.00578157
0.00580317
0.00578908
0.00574018
0.00565798
0.00554469
0.0054031
0.00523654
0.00504879
0.004844
0.00462656
0.00440099
0.00417185
0.00394362
0.00372062
0.00350685
0.00330601
0.00312191
0.00295802
0.00280938
0.00266966
0.00197046
0.00160072
0.00130049
0.00104641
0.000811256
0.0005956
0.00040039
0.000224652
6.74326e-05
-7.20438e-05
-0.000194507
-0.000300638
-0.000391045
-0.00046624
-0.000526623
-0.000572469
-0.000603923
-0.000620993
-0.000623557
-0.000611372
-0.000584087
-0.000541266
-0.000482411
-0.000406989
-0.000314464
-0.00020433
-7.61539e-05
7.03946e-05
0.000235497
0.00041915
0.000621128
0.000840949
0.00107784
0.00133072
0.00159817
0.00187842
0.00216935
0.00246848
0.002773
0.00307981
0.00338551
0.00368649
0.00397897
0.00425912
0.00452306
0.00476701
0.00498738
0.00518083
0.00534439
0.00547554
0.00557231
0.00563332
0.00565787
0.00564592
0.00559817
0.00551599
0.00540147
0.00525728
0.00508666
0.00489334
0.00468137
0.00445511
0.00421902
0.0039776
0.00373528
0.00349631
0.00326461
0.00304377
0.00283771
0.00264993
0.00247287
0.00229795
0.00217574
0.00176035
0.00142653
0.00114763
0.00089229
0.000660573
0.000452953
0.000267737
0.000103296
-4.17475e-05
-0.000168661
-0.000278598
-0.00037257
-0.000451427
-0.000515846
-0.000566317
-0.000603146
-0.000626452
-0.000636176
-0.000632097
-0.00061385
-0.000580947
-0.000532809
-0.000468796
-0.000388242
-0.000290494
-0.00017495
-4.11081e-05
0.000111399
0.000282756
0.000472923
0.000681603
0.000908201
0.00115179
0.00141111
0.0016845
0.00196994
0.00226503
0.002567
0.00287274
0.00317884
0.00348161
0.00377719
0.00406159
0.00433076
0.00458075
0.00480771
0.00500809
0.00517864
0.00531659
0.0054197
0.00548635
0.00551557
0.00550712
0.00546148
0.00537988
0.00526422
0.00511709
0.00494164
0.00474153
0.00452079
0.00428375
0.00403489
0.00377873
0.0035197
0.00326207
0.00300979
0.00276645
0.00253618
0.00232265
0.00211581
0.00190502
0.00234778
0.00188813
0.00152144
0.00121796
0.000942353
0.000694211
0.000473571
0.000278072
0.000105448
-4.62447e-05
-0.000178779
-0.000293752
-0.000392557
-0.000476359
-0.00054609
-0.000602444
-0.00064587
-0.000676587
-0.000694588
-0.000699663
-0.000691421
-0.000669314
-0.000632673
-0.000580739
-0.000512706
-0.000427762
-0.000325132
-0.000204123
-6.41767e-05
9.50911e-05
0.00027384
0.000471966
0.000689057
0.00092436
0.00117675
0.00144472
0.00172634
0.00201927
0.00232079
0.00262777
0.00293677
0.00324401
0.00354552
0.00383712
0.00411459
0.00437371
0.0046104
0.00482078
0.00500133
0.00514895
0.00526108
0.0053358
0.00537183
0.00536868
0.00532658
0.00524655
0.00513033
0.00498037
0.00479976
0.0045921
0.00436141
0.00411205
0.00384854
0.00357549
0.00329744
0.00301877
0.00274351
0.00247538
0.00221883
0.0019778
0.00173992
0.00149254
0.0024805
0.00197807
0.00157946
0.00125186
0.00095616
0.000691493
0.000457493
0.000251158
6.96192e-05
-8.96009e-05
-0.000228754
-0.000349854
-0.000454649
-0.0005446
-0.000620876
-0.00068435
-0.000735606
-0.000774942
-0.000802393
-0.000817746
-0.000820572
-0.000810252
-0.000786014
-0.000746972
-0.000692168
-0.00062062
-0.000531365
-0.000423513
-0.000296298
-0.000149124
1.83788e-05
0.000206311
0.000414459
0.00064225
0.000888722
0.0011525
0.00143176
0.00172424
0.00202725
0.00233767
0.00265198
0.00296634
0.00327659
0.00357841
0.00386733
0.00413885
0.00438858
0.00461232
0.00480617
0.00496667
0.0050909
0.00517653
0.00522198
0.0052264
0.00518975
0.00511279
0.00499707
0.0048449
0.00465925
0.00444371
0.00420231
0.00393946
0.00365979
0.00336805
0.00306895
0.00276706
0.00246664
0.00217159
0.00188678
0.00161656
0.0013463
0.00106142
0.00256818
0.00202458
0.0015951
0.00124403
0.000928603
0.000647523
0.000400027
0.000182501
-8.49946e-06
-0.000175963
-0.000322592
-0.000450796
-0.000562653
-0.000659898
-0.000743915
-0.000815742
-0.000876075
-0.000925281
-0.000963416
-0.000990255
-0.00100532
-0.00100789
-0.000997107
-0.000971928
-0.000931235
-0.000873863
-0.00079865
-0.000704495
-0.000590409
-0.000455573
-0.00029939
-0.000121537
7.79795e-05
0.000298786
0.000540096
0.000800679
0.00107884
0.00137239
0.00167869
0.0019946
0.00231656
0.00264061
0.00296246
0.00327756
0.00358119
0.00386854
0.00413487
0.00437558
0.00458638
0.00476337
0.00490318
0.00500306
0.00506101
0.0050758
0.00504703
0.00497518
0.00486155
0.00470827
0.00451822
0.00429493
0.00404248
0.00376537
0.00346837
0.00315642
0.0028345
0.00250745
0.00217981
0.0018558
0.0015408
0.00123966
0.000935556
0.000611977
0.00260541
0.00202231
0.00156315
0.0011894
0.000854762
0.000557539
0.000296571
6.76538e-05
-0.000133214
-0.00030951
-0.000464366
-0.000600561
-0.000720486
-0.000826127
-0.000919064
-0.00100048
-0.00107117
-0.00113154
-0.00118167
-0.00122129
-0.00124987
-0.00126659
-0.00127046
-0.00126028
-0.00123478
-0.00119257
-0.00113229
-0.00105261
-0.000952309
-0.000830318
-0.0006858
-0.000518194
-0.000327275
-0.000113202
0.000123434
0.000381568
0.00065964
0.000955569
0.00126675
0.00159007
0.0019219
0.00225819
0.00259447
0.00292598
0.00324769
0.00355448
0.0038412
0.00410283
0.00433458
0.00453208
0.00469144
0.00480942
0.00488351
0.00491202
0.00489415
0.00483001
0.00472063
0.00456792
0.00437462
0.00414421
0.00388082
0.00358906
0.00327391
0.00294055
0.00259427
0.00224028
0.00188349
0.00152854
0.0011814
0.000847522
0.000507895
0.000144076
0.00258704
0.00196622
0.00147865
0.0010831
0.000729906
0.000416933
0.00014264
-9.77538e-05
-0.000308788
-0.000494409
-0.000658161
-0.000803173
-0.000932126
-0.00104724
-0.00115027
-0.00124253
-0.00132488
-0.00139778
-0.00146129
-0.00151511
-0.0015586
-0.00159087
-0.00161076
-0.00161692
-0.00160788
-0.00158206
-0.00153786
-0.0014737
-0.00138811
-0.00127976
-0.00114756
-0.000990677
-0.000808636
-0.000601357
-0.000369213
-0.000113075
0.000165654
0.000465014
0.000782472
0.00111493
0.00145873
0.00180972
0.00216325
0.00251433
0.00285763
0.00318765
0.00349881
0.0037856
0.00404272
0.0042652
0.00444859
0.00458905
0.00468351
0.00472973
0.00472641
0.00467324
0.0045709
0.00442102
0.00422619
0.00398983
0.0037161
0.00340974
0.00307596
0.00272027
0.00234832
0.00196578
0.00157801
0.00119014
0.000808862
0.000440302
6.32314e-05
-0.000342774
0.00250817
0.00185149
0.0013369
0.000920532
0.000549507
0.00022127
-6.61099e-05
-0.000317979
-0.0005394
-0.000734772
-0.000908033
-0.00106265
-0.00120156
-0.00132722
-0.00144153
-0.00154591
-0.0016413
-0.00172815
-0.00180652
-0.00187604
-0.001936
-0.00198537
-0.00202283
-0.00204688
-0.00205581
-0.00204784
-0.00202112
-0.00197382
-0.00190418
-0.00181061
-0.0016917
-0.00154637
-0.00137383
-0.00117376
-0.000946266
-0.000692004
-0.000412187
-0.000108628
0.000216242
0.000559365
0.000917069
0.0012851
0.00165866
0.0020325
0.00240097
0.00275819
0.0030981
0.00341465
0.00370193
0.00395435
0.00416679
0.00433474
0.00445444
0.00452303
0.00453863
0.00450039
0.00440855
0.00426446
0.00407046
0.00382988
0.00354692
0.00322646
0.00287399
0.00249536
0.00209668
0.00168413
0.00126363
0.000840867
0.000423353
1.8003e-05
-0.000398718
-0.000849295
0.00236414
0.00167358
0.0011334
0.000697288
0.000309248
-3.36919e-05
-0.000333854
-0.000597136
-0.00082911
-0.00103461
-0.00121796
-0.00138294
-0.00153275
-0.00167002
-0.00179682
-0.00191464
-0.00202448
-0.00212681
-0.00222162
-0.00230849
-0.00238661
-0.00245479
-0.00251158
-0.00255527
-0.00258394
-0.00259556
-0.00258802
-0.00255922
-0.00250711
-0.00242978
-0.00232553
-0.00219294
-0.00203093
-0.00183886
-0.00161657
-0.00136444
-0.00108346
-0.00077527
-0.000442157
-8.71066e-05
0.000286217
0.000673489
0.00106976
0.00146954
0.00186686
0.00225539
0.00262859
0.00297981
0.0033025
0.00359033
0.00383742
0.0040385
0.00418903
0.00428539
0.00432502
0.00430644
0.00422937
0.00409474
0.00390463
0.00366223
0.00337174
0.00303821
0.00266739
0.00226556
0.00183934
0.00139548
0.000940553
0.000480913
2.49799e-05
-0.000419455
-0.00087834
-0.00137634
0.00215053
0.00142816
0.000863962
0.000409223
5.0448e-06
-0.000351982
-0.000664571
-0.000939162
-0.00118182
-0.00139781
-0.00159181
-0.0017679
-0.00192954
-0.00207952
-0.00222004
-0.00235269
-0.00247848
-0.00259787
-0.00271082
-0.00281682
-0.00291493
-0.00300385
-0.00308192
-0.00314723
-0.00319765
-0.00323088
-0.00324455
-0.00323624
-0.00320359
-0.00314436
-0.00305652
-0.00293828
-0.00278824
-0.00260541
-0.0023893
-0.00213999
-0.0018582
-0.00154533
-0.0012035
-0.000835575
-0.00044518
-3.66775e-05
0.000384858
0.000813699
0.00124355
0.00166765
0.0020789
0.00247003
0.00283376
0.00316298
0.00345094
0.00369147
0.00387916
0.00400951
0.00407913
0.0040858
0.00402861
0.00390796
0.00372559
0.0034845
0.00318884
0.00284382
0.00245549
0.00203058
0.00157628
0.0011
0.00060904
0.000110515
-0.000386137
-0.000872148
-0.00137603
-0.00192478
0.00186319
0.00111121
0.000524618
5.24522e-05
-0.000366937
-0.000737391
-0.00106202
-0.00134778
-0.00160124
-0.00182806
-0.00203327
-0.00222124
-0.00239564
-0.00255946
-0.00271499
-0.00286389
-0.00300719
-0.00314534
-0.00327823
-0.00340528
-0.0035254
-0.00363714
-0.00373866
-0.00382784
-0.0039023
-0.00395947
-0.00399667
-0.00401119
-0.00400032
-0.00396146
-0.0038922
-0.0037904
-0.00365424
-0.00348235
-0.00327388
-0.00302856
-0.00274676
-0.00242962
-0.00207902
-0.00169767
-0.00128908
-0.000857636
-0.000408495
5.2407e-05
0.000518448
0.000982423
0.00143668
0.00187325
0.00228408
0.00266117
0.00299682
0.00328386
0.00351584
0.00368726
0.00379374
0.00383219
0.00380092
0.00369971
0.00352983
0.00329398
0.00299627
0.002642
0.00223755
0.00179011
0.00130751
0.000797914
0.000269414
-0.000270011
-0.000809789
-0.00134007
-0.00189213
-0.00249543
0.00149825
0.000718987
0.000111708
-0.000376632
-0.000810258
-0.00119344
-0.00152969
-0.00182649
-0.00209084
-0.00232883
-0.00254582
-0.00274644
-0.00293458
-0.00311338
-0.00328525
-0.00345189
-0.00361435
-0.00377305
-0.00392782
-0.00407795
-0.00422226
-0.00435911
-0.00448648
-0.00460201
-0.00470306
-0.00478679
-0.00485022
-0.00489028
-0.00490391
-0.00488811
-0.00484009
-0.00475726
-0.00463739
-0.00447868
-0.00427984
-0.00404019
-0.00375974
-0.00343925
-0.00308032
-0.00268543
-0.00225795
-0.00180219
-0.00132338
-0.000827621
-0.000321831
0.000186343
0.000688662
0.00117645
0.0016408
0.00207274
0.00246353
0.00280485
0.00308909
0.00330958
0.00346079
0.00353858
0.00354033
0.00346503
0.00331335
0.00308764
0.00279183
0.00243131
0.00201275
0.00154385
0.00103312
0.000489552
-7.78644e-05
-0.000660195
-0.00124561
-0.00182306
-0.00242679
-0.00308895
0.00105215
0.000248039
-0.000378123
-0.000881331
-0.00132818
-0.00172338
-0.00207082
-0.00237848
-0.00265384
-0.00290334
-0.00313267
-0.00334673
-0.00354961
-0.00374459
-0.00393417
-0.00412011
-0.00430345
-0.00448457
-0.00466325
-0.00483867
-0.0050095
-0.00517393
-0.00532975
-0.00547435
-0.00560484
-0.00571809
-0.00581077
-0.00587945
-0.0059207
-0.00593112
-0.00590744
-0.00584664
-0.00574601
-0.00560325
-0.0054166
-0.00518491
-0.00490773
-0.0045854
-0.00421915
-0.00381115
-0.00336457
-0.00288358
-0.00237341
-0.00184028
-0.00129138
-0.000734767
-0.000179275
0.000365682
0.000890282
0.00138453
0.0018385
0.00224261
0.00258793
0.00286644
0.00307129
0.00319709
0.00324009
0.00319831
0.00307169
0.00286204
0.00257305
0.00221013
0.00178021
0.00129151
0.000753275
0.000175397
-0.000432146
-0.00105935
-0.00169299
-0.00232069
-0.00297993
-0.00370575
0.000521662
-0.00030473
-0.0009479
-0.00146462
-0.00192364
-0.00233011
-0.00268829
-0.00300667
-0.00329312
-0.00355448
-0.00379674
-0.00402505
-0.00424369
-0.00445606
-0.00466477
-0.0048716
-0.00507761
-0.00528313
-0.00548786
-0.00569088
-0.00589071
-0.00608538
-0.00627246
-0.0064491
-0.00661215
-0.00675815
-0.00688344
-0.00698423
-0.00705665
-0.00709687
-0.00710115
-0.00706595
-0.00698806
-0.00686462
-0.00669334
-0.00647252
-0.00620116
-0.00587914
-0.00550722
-0.00508718
-0.00462187
-0.00411527
-0.00357252
-0.00299991
-0.00240482
-0.00179573
-0.00118202
-0.000573862
1.79655e-05
0.000582351
0.0011081
0.00158423
0.00200032
0.0023468
0.0026153
0.00279896
0.00289266
0.00289328
0.00279978
0.00261332
0.00233717
0.00197668
0.00153899
0.00103286
0.000468279
-0.000143874
-0.000792531
-0.00146651
-0.00215102
-0.00283224
-0.00355114
-0.00434591
-9.60675e-05
-0.00094206
-0.00160029
-0.00212911
-0.00259924
-0.0030162
-0.00338468
-0.00371359
-0.00401124
-0.00428482
-0.0045406
-0.00478397
-0.00501939
-0.00525041
-0.00547969
-0.00570906
-0.00593958
-0.00617153
-0.00640455
-0.00663759
-0.00686905
-0.00709676
-0.00731809
-0.00752997
-0.00772893
-0.00791123
-0.00807283
-0.00820955
-0.0083171
-0.00839116
-0.00842749
-0.00842201
-0.00837092
-0.00827079
-0.00811869
-0.0079123
-0.00765005
-0.00733119
-0.00695595
-0.00652561
-0.00604264
-0.00551069
-0.00493474
-0.00432103
-0.00367713
-0.00301181
-0.00233501
-0.00165767
-0.000991514
-0.000348846
0.000257763
0.0008158
0.00131317
0.00173857
0.00208187
0.00233448
0.00248968
0.00254292
0.00249199
0.00233713
0.00208108
0.00172896
0.00128809
0.000767697
0.000178579
-0.000467347
-0.00115781
-0.00188032
-0.00261839
-0.00335654
-0.00413956
-0.00500905
-0.000803487
-0.00166629
-0.00233756
-0.00287705
-0.00335717
-0.00378386
-0.00416216
-0.00450143
-0.00481038
-0.00509651
-0.0053664
-0.00562565
-0.00587889
-0.0061298
-0.00638111
-0.0066347
-0.0068916
-0.00715207
-0.00741566
-0.00768124
-0.00794704
-0.00821074
-0.00846949
-0.00871997
-0.00895845
-0.00918083
-0.00938274
-0.00955957
-0.00970659
-0.00981896
-0.00989192
-0.0099208
-0.00990116
-0.00982892
-0.00970047
-0.00951281
-0.00926363
-0.00895154
-0.00857611
-0.00813802
-0.00763921
-0.00708293
-0.00647385
-0.00581811
-0.0051233
-0.00439847
-0.00365405
-0.0029017
-0.00215412
-0.00142485
-0.000727919
-7.75071e-05
0.000512446
0.00102868
0.00145906
0.001793
0.0020219
0.00213945
0.00214199
0.00202862
0.0018013
0.00146479
0.00102643
0.000495905
-0.000115184
-0.000793812
-0.00152641
-0.00229904
-0.00309329
-0.00389192
-0.00474383
-0.00569428
-0.00160261
-0.00247936
-0.00316159
-0.00371027
-0.00419926
-0.00463487
-0.00502251
-0.00537195
-0.00569228
-0.0059913
-0.00627587
-0.0065518
-0.00682389
-0.00709592
-0.00737072
-0.00765017
-0.00793534
-0.00822643
-0.00852293
-0.0088236
-0.00912654
-0.00942926
-0.00972871
-0.0100213
-0.0103031
-0.0105696
-0.0108161
-0.0110375
-0.0112287
-0.0113842
-0.0114988
-0.0115672
-0.0115842
-0.0115451
-0.0114454
-0.0112814
-0.0110501
-0.0107492
-0.0103775
-0.00993505
-0.00942309
-0.00884433
-0.00820304
-0.00750509
-0.00675801
-0.00597101
-0.00515492
-0.00432208
-0.00348616
-0.00266194
-0.00186499
-0.00111127
-0.000416741
0.000203166
0.000734034
0.00116299
0.00147919
0.00167429
0.00174282
0.00168242
0.00149401
0.00118175
0.000752889
0.000217461
-0.000412134
-0.00112171
-0.00189629
-0.00272035
-0.00357337
-0.00443611
-0.00536193
-0.00640005
-0.00249499
-0.00338273
-0.0040738
-0.00463018
-0.00512689
-0.00557061
-0.00596709
-0.0063265
-0.00665826
-0.00697049
-0.00727027
-0.00756364
-0.00785555
-0.0081499
-0.00844958
-0.00875654
-0.00907182
-0.00939561
-0.00972733
-0.0100657
-0.0104086
-0.0107534
-0.0110969
-0.0114353
-0.0117642
-0.012079
-0.0123746
-0.0126453
-0.0128857
-0.0130896
-0.0132513
-0.0133648
-0.0134242
-0.0134239
-0.0133588
-0.0132242
-0.0130162
-0.0127317
-0.0123686
-0.011926
-0.0114045
-0.0108061
-0.0101344
-0.00939501
-0.00859515
-0.0077441
-0.00685297
-0.00593471
-0.0050039
-0.00407656
-0.00316983
-0.00230158
-0.00148992
-0.000752702
-0.000106883
0.000432037
0.000850638
0.00113813
0.00128686
0.00129263
0.00115499
0.000877239
0.00046631
-6.75255e-05
-0.000711115
-0.00144907
-0.00226491
-0.00314136
-0.00405558
-0.00498608
-0.00599108
-0.00712404
-0.00348168
-0.00437741
-0.00507518
-0.00563774
-0.006141
-0.00659201
-0.00699682
-0.00736596
-0.00770917
-0.00803486
-0.00835034
-0.00866184
-0.00897448
-0.00929226
-0.00961816
-0.00995417
-0.0103013
-0.0106598
-0.011029
-0.0114075
-0.0117932
-0.0121832
-0.0125741
-0.0129619
-0.0133421
-0.0137095
-0.0140587
-0.0143837
-0.0146784
-0.0149364
-0.0151509
-0.0153154
-0.0154233
-0.0154682
-0.0154441
-0.0153452
-0.0151668
-0.0149047
-0.0145558
-0.0141184
-0.013592
-0.0129777
-0.0122786
-0.0114995
-0.0106474
-0.00973133
-0.00876267
-0.00775479
-0.00672312
-0.00568488
-0.00465879
-0.00366468
-0.00272299
-0.00185415
-0.00107798
-0.000412921
0.000124614
0.000520975
0.000765867
0.000852851
0.000779682
0.000548455
0.000165526
-0.000358779
-0.00101063
-0.00177344
-0.0026291
-0.00355845
-0.00453607
-0.00553799
-0.00662763
-0.00786301
-0.00456323
-0.00546393
-0.00616625
-0.00673346
-0.00724212
-0.00769955
-0.00811215
-0.00849075
-0.00884537
-0.0091847
-0.00951627
-0.00984651
-0.0101807
-0.0105229
-0.0108762
-0.0112427
-0.0116234
-0.0120185
-0.0124273
-0.0128484
-0.0132795
-0.0137176
-0.0141593
-0.0146002
-0.0150355
-0.0154599
-0.0158674
-0.0162517
-0.0166062
-0.0169238
-0.0171972
-0.0174191
-0.0175822
-0.017679
-0.0177026
-0.0176465
-0.0175046
-0.0172717
-0.0169437
-0.0165175
-0.0159918
-0.0153666
-0.014644
-0.0138281
-0.0129254
-0.0119446
-0.010897
-0.00979626
-0.00865859
-0.0075023
-0.00634769
-0.00521656
-0.00413178
-0.00311658
-0.00219387
-0.00138543
-0.000711058
-0.000187737
0.000171102
0.000356255
0.000363221
0.000192462
-0.000150592
-0.000655798
-0.00130879
-0.00209177
-0.00298498
-0.00396717
-0.00501008
-0.00608699
-0.00726691
-0.0086127
-0.00573965
-0.00664232
-0.00734705
-0.0079174
-0.00843028
-0.00889329
-0.00931309
-0.0097008
-0.0100667
-0.0104198
-0.0107677
-0.0111171
-0.0114734
-0.0118409
-0.0122227
-0.0126208
-0.0130365
-0.0134699
-0.0139203
-0.0143862
-0.0148653
-0.0153545
-0.01585
-0.0163475
-0.0168419
-0.0173275
-0.017798
-0.0182466
-0.0186663
-0.0190493
-0.0193879
-0.0196737
-0.0198987
-0.0200546
-0.0201334
-0.0201274
-0.0200296
-0.0198334
-0.0195336
-0.0191258
-0.0186074
-0.0179772
-0.0172363
-0.0163879
-0.0154375
-0.0143934
-0.0132667
-0.0120711
-0.0108234
-0.00954284
-0.00825123
-0.00697238
-0.00573161
-0.00455512
-0.00346918
-0.00249921
-0.00166884
-0.000998919
-0.000506555
-0.000204295
-9.94623e-05
-0.000193741
-0.000483058
-0.000957779
-0.00160319
-0.00240038
-0.00332784
-0.00436211
-0.00547179
-0.00662709
-0.00790304
-0.00936761
-0.00701042
-0.00791211
-0.00861715
-0.00918916
-0.0097051
-0.0101728
-0.0105992
-0.0109956
-0.0113726
-0.0117393
-0.0121037
-0.0124726
-0.0128515
-0.0132448
-0.0136558
-0.0140867
-0.0145385
-0.0150116
-0.0155053
-0.016018
-0.0165473
-0.0170901
-0.0176425
-0.0181999
-0.018757
-0.0193079
-0.0198459
-0.0203638
-0.0208541
-0.0213084
-0.0217182
-0.0220746
-0.0223685
-0.0225908
-0.0227325
-0.0227846
-0.0227389
-0.0225876
-0.022324
-0.0219425
-0.0214389
-0.0208109
-0.0200581
-0.0191825
-0.0181888
-0.0170843
-0.0158797
-0.0145887
-0.0132282
-0.0118184
-0.0103824
-0.00894586
-0.00753669
-0.00618412
-0.00491798
-0.00376769
-0.00276114
-0.00192357
-0.00127637
-0.000836088
-0.000613518
-0.000613107
-0.000832676
-0.00126352
-0.00189086
-0.00269477
-0.00365201
-0.00473675
-0.00591414
-0.00715101
-0.00852878
-0.0101208
-0.00837447
-0.00927235
-0.00997567
-0.0105479
-0.0110657
-0.0115372
-0.0119695
-0.0123741
-0.0127618
-0.013142
-0.0135228
-0.0139111
-0.0143128
-0.0147323
-0.015173
-0.0156372
-0.0161261
-0.01664
-0.0171783
-0.0177394
-0.0183208
-0.0189195
-0.0195314
-0.0201517
-0.0207749
-0.0213949
-0.0220047
-0.0225966
-0.0231626
-0.0236938
-0.024181
-0.0246145
-0.0249845
-0.0252806
-0.0254929
-0.0256113
-0.0256261
-0.0255283
-0.0253097
-0.0249631
-0.0244828
-0.023865
-0.0231079
-0.0222119
-0.0211805
-0.0200201
-0.0187404
-0.0173549
-0.0158806
-0.014338
-0.0127515
-0.0111485
-0.00955939
-0.00801646
-0.00655328
-0.00520356
-0.00399988
-0.0029724
-0.00214746
-0.00154631
-0.00118398
-0.00106839
-0.0011999
-0.00157128
-0.00216806
-0.00296953
-0.00395071
-0.00508329
-0.00632868
-0.00764996
-0.00913534
-0.0108639
-0.00983022
-0.0107216
-0.0114213
-0.0119923
-0.0125109
-0.0129853
-0.0134226
-0.0138348
-0.0142327
-0.0146259
-0.0150228
-0.0154304
-0.0158546
-0.0163002
-0.0167707
-0.0172685
-0.0177949
-0.0183503
-0.0189341
-0.0195448
-0.0201799
-0.0208362
-0.0215098
-0.0221956
-0.0228879
-0.0235804
-0.0242658
-0.0249361
-0.0255826
-0.0261961
-0.0267666
-0.0272836
-0.0277364
-0.0281139
-0.0284046
-0.0285975
-0.0286815
-0.0286461
-0.0284815
-0.0281791
-0.0277314
-0.0271328
-0.0263798
-0.0254714
-0.0244095
-0.0231991
-0.0218489
-0.0203717
-0.018784
-0.0171069
-0.0153655
-0.0135888
-0.0118094
-0.0100628
-0.00838629
-0.00681811
-0.00539593
-0.00415537
-0.0031284
-0.00234175
-0.0018155
-0.00156191
-0.00158466
-0.00187865
-0.00243021
-0.00321815
-0.00421587
-0.00539248
-0.00670536
-0.00811342
-0.0097121
-0.0115864
-0.0113756
-0.0122579
-0.0129522
-0.0135208
-0.0140391
-0.0145153
-0.014957
-0.0153759
-0.0157833
-0.0161888
-0.016601
-0.0170272
-0.0174735
-0.0179448
-0.0184447
-0.0189759
-0.0195397
-0.0201367
-0.0207664
-0.0214273
-0.022117
-0.0228323
-0.0235692
-0.0243225
-0.0250864
-0.0258543
-0.0266187
-0.0273712
-0.0281027
-0.0288034
-0.0294626
-0.0300691
-0.0306114
-0.0310771
-0.031454
-0.0317295
-0.0318913
-0.0319273
-0.0318263
-0.0315776
-0.0311722
-0.0306025
-0.0298633
-0.0289516
-0.0278675
-0.0266146
-0.0252001
-0.0236357
-0.0219373
-0.020126
-0.0182272
-0.0162714
-0.0142931
-0.0123308
-0.0104256
-0.00862047
-0.00695844
-0.0054811
-0.00422672
-0.00322835
-0.00251203
-0.00209531
-0.00198611
-0.00218227
-0.0026716
-0.00343282
-0.00443792
-0.00565338
-0.00703225
-0.00852893
-0.0102464
-0.0122759
-0.0130079
-0.0138791
-0.0145664
-0.0151313
-0.0156482
-0.0161253
-0.0165703
-0.0169951
-0.017411
-0.0178279
-0.0182544
-0.0186981
-0.0191654
-0.0196613
-0.0201898
-0.0207535
-0.0213541
-0.0219923
-0.0226676
-0.0233787