/*--------------------------------*- C++ -*----------------------------------*\
  =========                 |
  \\      /  F ield         | OpenFOAM: The Open Source CFD Toolbox
   \\    /   O peration     | Website:  https://openfoam.org
    \\  /    A nd           | Version:  dev
     \\/     M anipulation  |
\*---------------------------------------------------------------------------*/
FoamFile
{
    format      ascii;
    class       surfaceScalarField;
    location    "33.3";
    object      phi;
}
// * * * * * * * * * * * * * * * * * * * * * * * * * * * * * * * * * * * * * //

dimensions      [0 3 -1 0 0 0 0];

internalField   nonuniform List<scalar> 
10224
(
3.38296e-08
-3.48549e-08
8.78711e-08
-5.40563e-08
1.24438e-07
-3.65561e-08
1.25406e-07
-9.5841e-10
8.37739e-08
4.1631e-08
-1.72444e-09
8.54935e-08
-1.29259e-07
1.27531e-07
-2.95526e-07
1.66267e-07
-4.96465e-07
2.00941e-07
-7.27777e-07
2.31313e-07
-9.85192e-07
2.57417e-07
-1.26462e-06
2.79427e-07
-1.56221e-06
2.97598e-07
-1.87443e-06
3.12213e-07
-2.19798e-06
3.23556e-07
-2.52988e-06
3.31895e-07
-2.86735e-06
3.37467e-07
-3.20782e-06
3.40472e-07
-3.54889e-06
3.41071e-07
-3.88828e-06
3.39387e-07
-4.22378e-06
3.35506e-07
-4.55326e-06
3.29479e-07
-4.87459e-06
3.21331e-07
-5.18566e-06
3.11066e-07
-5.48433e-06
2.98671e-07
-5.76846e-06
2.84126e-07
-6.03586e-06
2.67408e-07
-6.28437e-06
2.48501e-07
-6.51176e-06
2.274e-07
-6.71588e-06
2.04119e-07
-6.89458e-06
1.78697e-07
-7.04578e-06
1.512e-07
-7.16751e-06
1.21731e-07
-7.25794e-06
9.04299e-08
-7.31542e-06
5.74768e-08
-7.33851e-06
2.30945e-08
-7.32606e-06
-1.24514e-08
-7.27721e-06
-4.88523e-08
-7.19145e-06
-8.57588e-08
-7.06866e-06
-1.22784e-07
-6.90916e-06
-1.59506e-07
-6.71368e-06
-1.95477e-07
-6.48346e-06
-2.30226e-07
-6.22019e-06
-2.6327e-07
-5.92607e-06
-2.94122e-07
-5.60377e-06
-3.22299e-07
-5.25643e-06
-3.47335e-07
-4.88764e-06
-3.68792e-07
-4.50137e-06
-3.86268e-07
-4.10197e-06
-3.99407e-07
-3.69405e-06
-4.07916e-07
-3.28248e-06
-4.11564e-07
-2.87228e-06
-4.10196e-07
-2.46855e-06
-4.03737e-07
-2.07635e-06
-3.92195e-07
-1.70069e-06
-3.75666e-07
-1.34635e-06
-3.54337e-07
-1.01787e-06
-3.28482e-07
-7.19407e-07
-2.98462e-07
-4.54682e-07
-2.64725e-07
-2.2687e-07
-2.27811e-07
-3.85177e-08
-1.88351e-07
1.08569e-07
-1.47085e-07
2.13452e-07
-1.04883e-07
2.76246e-07
-6.27951e-08
2.98383e-07
-2.2138e-08
2.83044e-07
1.53402e-08
2.35825e-07
4.722e-08
1.65789e-07
7.0036e-08
8.72319e-08
7.85568e-08
2.25398e-08
6.46966e-08
2.25491e-08
5.39236e-08
-8.87916e-08
1.12462e-07
-1.1258e-07
1.18281e-07
-4.23617e-08
3.89767e-08
7.8348e-08
-1.41856e-07
2.22459e-07
-4.29536e-07
3.73168e-07
-8.22298e-07
5.2029e-07
-1.314e-06
6.57967e-07
-1.89607e-06
7.83017e-07
-2.5587e-06
8.93953e-07
-3.29162e-06
9.90341e-07
-4.08458e-06
1.07239e-06
-4.92766e-06
1.14067e-06
-5.8114e-06
1.19596e-06
-6.72693e-06
1.23908e-06
-7.66591e-06
1.27088e-06
-8.62054e-06
1.29209e-06
-9.58347e-06
1.3034e-06
-1.05477e-05
1.30535e-06
-1.15067e-05
1.29835e-06
-1.2454e-05
1.28274e-06
-1.33832e-05
1.25871e-06
-1.42882e-05
1.22639e-06
-1.5163e-05
1.18581e-06
-1.60013e-05
1.13699e-06
-1.67971e-05
1.07989e-06
-1.75442e-05
1.01449e-06
-1.82365e-05
9.40797e-07
-1.88679e-05
8.58843e-07
-1.94325e-05
7.68748e-07
-1.99245e-05
6.70715e-07
-2.03384e-05
5.65054e-07
-2.06689e-05
4.52199e-07
-2.09112e-05
3.3272e-07
-2.1061e-05
2.0733e-07
-2.11148e-05
7.68947e-08
-2.10697e-05
-5.75712e-08
-2.09236e-05
-1.94902e-07
-2.06756e-05
-3.33792e-07
-2.03256e-05
-4.72801e-07
-1.98747e-05
-6.10377e-07
-1.93253e-05
-7.44874e-07
-1.8681e-05
-8.74576e-07
-1.79465e-05
-9.97728e-07
-1.71281e-05
-1.11256e-06
-1.6233e-05
-1.21734e-06
-1.527e-05
-1.31039e-06
-1.42486e-05
-1.39014e-06
-1.31797e-05
-1.45515e-06
-1.2075e-05
-1.50416e-06
-1.09468e-05
-1.53611e-06
-9.80813e-06
-1.55021e-06
-8.67242e-06
-1.54591e-06
-7.5532e-06
-1.52295e-06
-6.46399e-06
-1.4814e-06
-5.41801e-06
-1.42164e-06
-4.42799e-06
-1.34436e-06
-3.50586e-06
-1.25061e-06
-2.66256e-06
-1.14175e-06
-1.9078e-06
-1.01948e-06
-1.24976e-06
-8.85858e-07
-6.94817e-07
-7.43289e-07
-2.47292e-07
-5.94608e-07
9.09718e-08
-4.43146e-07
3.21055e-07
-2.92878e-07
4.47558e-07
-1.48643e-07
4.7948e-07
-1.65851e-08
4.31303e-07
9.53946e-08
3.24473e-07
1.76861e-07
1.8901e-07
2.14011e-07
6.43829e-08
1.89315e-07
8.69336e-08
3.73638e-08
-1.26145e-07
4.33652e-08
-1.18568e-07
-4.3226e-08
4.42279e-08
-2.58689e-07
2.93805e-07
-6.22639e-07
5.86404e-07
-1.14219e-06
8.92719e-07
-1.81561e-06
1.19371e-06
-2.63525e-06
1.47761e-06
-3.58973e-06
1.7375e-06
-4.66554e-06
1.96976e-06
-5.8481e-06
2.1729e-06
-7.12252e-06
2.34681e-06
-8.4741e-06
2.49225e-06
-9.88858e-06
2.61044e-06
-1.13524e-05
2.70285e-06
-1.28525e-05
2.77098e-06
-1.43766e-05
2.81626e-06
-1.59132e-05
2.83996e-06
-1.7451e-05
2.84315e-06
-1.89793e-05
2.82669e-06
-2.04878e-05
2.79122e-06
-2.19663e-05
2.7372e-06
-2.34048e-05
2.6649e-06
-2.47935e-05
2.57448e-06
-2.61225e-05
2.466e-06
-2.73821e-05
2.33948e-06
-2.85625e-05
2.19495e-06
-2.96542e-05
2.0325e-06
-3.06477e-05
1.85231e-06
-3.15337e-05
1.65473e-06
-3.23032e-05
1.44027e-06
-3.29479e-05
1.2097e-06
-3.34597e-05
9.64011e-07
-3.38315e-05
7.04499e-07
-3.40569e-05
4.32748e-07
-3.41306e-05
1.50653e-07
-3.40486e-05
-1.39583e-07
-3.38081e-05
-4.35453e-07
-3.34077e-05
-7.34162e-07
-3.28478e-05
-1.03265e-06
-3.21306e-05
-1.32764e-06
-3.12598e-05
-1.61566e-06
-3.02413e-05
-1.89309e-06
-2.90827e-05
-2.15628e-06
-2.77938e-05
-2.40153e-06
-2.63859e-05
-2.62523e-06
-2.48724e-05
-2.82388e-06
-2.32683e-05
-2.99423e-06
-2.15901e-05
-3.13331e-06
-1.98558e-05
-3.2385e-06
-1.80843e-05
-3.30765e-06
-1.62954e-05
-3.33909e-06
-1.45096e-05
-3.33172e-06
-1.27475e-05
-3.28505e-06
-1.10296e-05
-3.19924e-06
-9.37618e-06
-3.0751e-06
-7.80639e-06
-2.91416e-06
-6.33837e-06
-2.71863e-06
-4.98866e-06
-2.49145e-06
-3.77187e-06
-2.23628e-06
-2.70023e-06
-1.9575e-06
-1.78321e-06
-1.66031e-06
-1.02704e-06
-1.35078e-06
-4.34197e-07
-1.03599e-06
-2.75927e-09
-7.24316e-07
2.74351e-07
-4.25751e-07
4.102e-07
-1.52433e-07
4.25037e-07
8.05618e-08
3.47503e-07
2.54408e-07
2.15805e-07
3.4572e-07
7.86595e-08
3.26456e-07
1.65591e-07
1.92585e-09
-1.28061e-07
-7.89157e-08
-3.77242e-08
-2.97614e-07
2.62921e-07
-6.879e-07
6.84083e-07
-1.26809e-06
1.16659e-06
-2.04446e-06
1.66909e-06
-3.01423e-06
2.16348e-06
-4.16812e-06
2.63151e-06
-5.49256e-06
3.06194e-06
-6.9712e-06
3.44841e-06
-8.58621e-06
3.78791e-06
-1.03191e-05
4.07971e-06
-1.21514e-05
4.32451e-06
-1.40648e-05
4.5239e-06
-1.60419e-05
4.67992e-06
-1.80657e-05
4.79477e-06
-2.012e-05
4.87057e-06
-2.21893e-05
4.90927e-06
-2.42587e-05
4.91255e-06
-2.63138e-05
4.88176e-06
-2.83405e-05
4.81795e-06
-3.03252e-05
4.72187e-06
-3.22543e-05
4.59404e-06
-3.41146e-05
4.43476e-06
-3.58928e-05
4.24423e-06
-3.75759e-05
4.02258e-06
-3.9151e-05
3.76998e-06
-4.06052e-05
3.4867e-06
-4.1926e-05
3.17319e-06
-4.31015e-05
2.83014e-06
-4.41198e-05
2.4586e-06
-4.497e-05
2.05994e-06
-4.5642e-05
1.63599e-06
-4.61265e-05
1.18903e-06
-4.64156e-05
7.21846e-07
-4.65027e-05
2.3771e-07
-4.63827e-05
-2.59593e-07
-4.60523e-05
-7.65785e-07
-4.55104e-05
-1.27613e-06
-4.47576e-05
-1.78546e-06
-4.3797e-05
-2.28825e-06
-4.26339e-05
-2.77869e-06
-4.12763e-05
-3.25075e-06
-3.97343e-05
-3.6983e-06
-3.80206e-05
-4.11522e-06
-3.61503e-05
-4.49548e-06
-3.41409e-05
-4.83332e-06
-3.20118e-05
-5.12333e-06
-2.97845e-05
-5.36059e-06
-2.74822e-05
-5.5408e-06
-2.51294e-05
-5.66039e-06
-2.27519e-05
-5.71663e-06
-2.03759e-05
-5.70771e-06
-1.80281e-05
-5.63286e-06
-1.57349e-05
-5.49235e-06
-1.35224e-05
-5.28762e-06
-1.14154e-05
-5.02122e-06
-9.43709e-06
-4.69692e-06
-7.60885e-06
-4.31969e-06
-5.94942e-06
-3.89571e-06
-4.47448e-06
-3.43244e-06
-3.19614e-06
-2.93864e-06
-2.12238e-06
-2.42454e-06
-1.25637e-06
-1.902e-06
-5.95878e-07
-1.38481e-06
-1.32455e-07
-8.89173e-07
1.49403e-07
-4.34294e-07
2.73164e-07
-4.32079e-08
2.71302e-07
2.56264e-07
1.86336e-07
4.30695e-07
7.22283e-08
4.40563e-07
2.37819e-07
-4.20429e-08
-8.60191e-08
-2.30017e-07
1.50246e-07
-6.06549e-07
6.39449e-07
-1.19823e-06
1.27576e-06
-2.01882e-06
1.98717e-06
-3.07147e-06
2.72174e-06
-4.35101e-06
3.44302e-06
-5.84601e-06
4.12651e-06
-7.5406e-06
4.75653e-06
-9.41598e-06
5.32379e-06
-1.14516e-05
5.82352e-06
-1.3626e-05
6.25412e-06
-1.59176e-05
6.6161e-06
-1.83049e-05
6.91124e-06
-2.07671e-05
7.1421e-06
-2.32839e-05
7.31151e-06
-2.58356e-05
7.42229e-06
-2.84034e-05
7.47708e-06
-3.0969e-05
7.47816e-06
-3.35147e-05
7.42743e-06
-3.60231e-05
7.32638e-06
-3.84774e-05
7.17612e-06
-4.08607e-05
6.97743e-06
-4.31568e-05
6.73084e-06
-4.53493e-05
6.43674e-06
-4.74222e-05
6.09545e-06
-4.93596e-05
5.70736e-06
-5.11459e-05
5.27304e-06
-5.27661e-05
4.79332e-06
-5.42053e-05
4.26942e-06
-5.54498e-05
3.70303e-06
-5.64862e-05
3.09639e-06
-5.73026e-05
2.45238e-06
-5.78881e-05
1.77452e-06
-5.82333e-05
1.06709e-06
-5.83307e-05
3.35059e-07
-5.81744e-05
-4.1586e-07
-5.77609e-05
-1.17925e-06
-5.70891e-05
-1.94802e-06
-5.616e-05
-2.71451e-06
-5.49777e-05
-3.4705e-06
-5.3549e-05
-4.2074e-06
-5.18834e-05
-4.91633e-06
-4.99935e-05
-5.58826e-06
-4.78945e-05
-6.21416e-06
-4.56048e-05
-6.78522e-06
-4.31452e-05
-7.29297e-06
-4.0539e-05
-7.72947e-06
-3.78121e-05
-8.08754e-06
-3.4992e-05
-8.36088e-06
-3.21081e-05
-8.54426e-06
-2.91911e-05
-8.6337e-06
-2.62722e-05
-8.62657e-06
-2.33834e-05
-8.52172e-06
-2.05561e-05
-8.31962e-06
-1.78213e-05
-8.02238e-06
-1.52087e-05
-7.63383e-06
-1.27461e-05
-7.15954e-06
-1.04589e-05
-6.60691e-06
-8.36949e-06
-5.98511e-06
-6.49672e-06
-5.30521e-06
-4.85516e-06
-4.5802e-06
-3.45454e-06
-3.82516e-06
-2.29908e-06
-3.05745e-06
-1.38681e-06
-2.29707e-06
-7.089e-07
-1.56708e-06
-2.48856e-07
-8.94335e-07
1.81755e-08
-3.1024e-07
1.26253e-07
1.48179e-07
1.19542e-07
4.37409e-07
5.36725e-08
5.06432e-07
2.91493e-07
-8.94358e-08
3.41246e-09
-3.95352e-07
4.56158e-07
-9.45139e-07
1.18923e-06
-1.75539e-06
2.08601e-06
-2.8329e-06
3.06468e-06
-4.17592e-06
4.06476e-06
-5.77559e-06
5.0427e-06
-7.61754e-06
5.96846e-06
-9.68328e-06
6.82228e-06
-1.19515e-05
7.59204e-06
-1.43992e-05
8.27121e-06
-1.70024e-05
8.85726e-06
-1.97366e-05
9.35037e-06
-2.25779e-05
9.75248e-06
-2.55023e-05
1.00666e-05
-2.84868e-05
1.0296e-05
-3.15088e-05
1.04443e-05
-3.45465e-05
1.05148e-05
-3.75787e-05
1.05103e-05
-4.05845e-05
1.04333e-05
-4.35439e-05
1.02858e-05
-4.6437e-05
1.00692e-05
-4.92441e-05
9.78459e-06
-5.19461e-05
9.43285e-06
-5.4524e-05
9.01456e-06
-5.69589e-05
8.53034e-06
-5.92324e-05
7.98087e-06
-6.13265e-05
7.36713e-06
-6.32236e-05
6.69046e-06
-6.49069e-05
5.95274e-06
-6.63604e-05
5.1565e-06
-6.7569e-05
4.30502e-06
-6.85191e-05
3.40243e-06
-6.91983e-05
2.45376e-06
-6.95962e-05
1.465e-06
-6.97043e-05
4.43128e-07
-6.95162e-05
-6.03919e-07
-6.90282e-05
-1.66726e-06
-6.82391e-05
-2.73714e-06
-6.71506e-05
-3.803e-06
-6.57675e-05
-4.85362e-06
-6.40977e-05
-5.87724e-06
-6.21522e-05
-6.86174e-06
-5.99457e-05
-7.79481e-06
-5.74957e-05
-8.6642e-06
-5.4823e-05
-9.4579e-06
-5.19515e-05
-1.01644e-05
-4.89081e-05
-1.07729e-05
-4.57219e-05
-1.12738e-05
-4.24245e-05
-1.16583e-05
-3.90493e-05
-1.19194e-05
-3.56313e-05
-1.20517e-05
-3.22062e-05
-1.20517e-05
-2.88102e-05
-1.19177e-05
-2.54796e-05
-1.16503e-05
-2.22494e-05
-1.12525e-05
-1.91538e-05
-1.07294e-05
-1.62246e-05
-1.00888e-05
-1.34909e-05
-9.34059e-06
-1.09786e-05
-8.49742e-06
-8.70942e-06
-7.57437e-06
-6.70047e-06
-6.58915e-06
-4.96344e-06
-5.5622e-06
-3.50396e-06
-4.51693e-06
-2.32101e-06
-3.48002e-06
-1.40621e-06
-2.48188e-06
-7.43249e-07
-1.55729e-06
-3.07278e-07
-7.46207e-07
-6.43218e-08
-9.47793e-08
2.93912e-08
3.43697e-07
2.83228e-08
5.07498e-07
3.19818e-07
-1.37649e-07
1.41058e-07
-5.66343e-07
8.84849e-07
-1.29755e-06
1.92044e-06
-2.33637e-06
3.12483e-06
-3.68111e-06
4.40943e-06
-5.32371e-06
5.70736e-06
-7.25055e-06
6.96954e-06
-9.44352e-06
8.16143e-06
-1.18811e-05
9.25983e-06
-1.45392e-05
1.02502e-05
-1.73923e-05
1.11244e-05
-2.04141e-05
1.1879e-05
-2.35778e-05
1.2514e-05
-2.68567e-05
1.30315e-05
-3.02248e-05
1.34346e-05
-3.36563e-05
1.37275e-05
-3.71261e-05
1.39141e-05
-4.06099e-05
1.39986e-05
-4.40838e-05
1.39842e-05
-4.75245e-05
1.3874e-05
-5.09092e-05
1.36705e-05
-5.42155e-05
1.33754e-05
-5.74212e-05
1.29903e-05
-6.05045e-05
1.25162e-05
-6.34441e-05
1.19541e-05
-6.62187e-05
1.13049e-05
-6.88076e-05
1.05698e-05
-7.11905e-05
9.75004e-06
-7.33478e-05
8.84776e-06
-7.52607e-05
7.86561e-06
-7.69112e-05
6.80709e-06
-7.82829e-05
5.67669e-06
-7.93605e-05
4.48e-06
-8.01305e-05
3.22374e-06
-8.05813e-05
1.91587e-06
-8.07038e-05
5.65588e-07
-8.0491e-05
-8.16676e-07
-7.9939e-05
-2.21931e-06
-7.90465e-05
-3.62959e-06
-7.78157e-05
-5.0338e-06
-7.6252e-05
-6.41738e-06
-7.43641e-05
-7.76509e-06
-7.21646e-05
-9.06126e-06
-6.96694e-05
-1.029e-05
-6.68981e-05
-1.14355e-05
-6.38738e-05
-1.24822e-05
-6.06229e-05
-1.34153e-05
-5.71749e-05
-1.42209e-05
-5.35622e-05
-1.48864e-05
-4.98198e-05
-1.54007e-05
-4.59845e-05
-1.57547e-05
-4.20951e-05
-1.59411e-05
-3.81913e-05
-1.59555e-05
-3.43132e-05
-1.57957e-05
-3.0501e-05
-1.54625e-05
-2.6794e-05
-1.49595e-05
-2.32301e-05
-1.42934e-05
-1.98449e-05
-1.3474e-05
-1.66712e-05
-1.25143e-05
-1.37382e-05
-1.14304e-05
-1.10706e-05
-1.0242e-05
-8.68809e-06
-8.97165e-06
-6.60466e-06
-7.64564e-06
-4.82781e-06
-6.29378e-06
-3.35804e-06
-4.94979e-06
-2.18825e-06
-3.65167e-06
-1.30323e-06
-2.44231e-06
-6.79242e-07
-1.37019e-06
-2.83637e-07
-4.90381e-07
-7.45529e-08
1.34614e-07
-5.73184e-10
4.33515e-07
3.19247e-07
-1.85435e-07
3.26493e-07
-7.38099e-07
1.43751e-06
-1.65401e-06
2.83635e-06
-2.92618e-06
4.397e-06
-4.54353e-06
6.02678e-06
-6.49074e-06
7.65457e-06
-8.74859e-06
9.22739e-06
-1.12946e-05
1.07074e-05
-1.41035e-05
1.20688e-05
-1.71485e-05
1.32952e-05
-2.04014e-05
1.43772e-05
-2.38333e-05
1.53109e-05
-2.74153e-05
1.6096e-05
-3.11185e-05
1.67347e-05
-3.49147e-05
1.72308e-05
-3.87759e-05
1.75887e-05
-4.26748e-05
1.78131e-05
-4.65848e-05
1.79086e-05
-5.04799e-05
1.78792e-05
-5.43343e-05
1.77285e-05
-5.81231e-05
1.74593e-05
-6.18216e-05
1.70739e-05
-6.54053e-05
1.6574e-05
-6.88502e-05
1.59612e-05
-7.21328e-05
1.52367e-05
-7.52297e-05
1.44018e-05
-7.81181e-05
1.34582e-05
-8.07758e-05
1.24077e-05
-8.31813e-05
1.12532e-05
-8.53139e-05
9.99829e-06
-8.71544e-05
8.6475e-06
-8.86844e-05
7.20672e-06
-8.98875e-05
5.68314e-06
-9.07491e-05
4.08536e-06
-9.12568e-05
2.42349e-06
-9.14003e-05
7.09163e-07
-9.11725e-05
-1.04451e-06
-9.05689e-05
-2.82294e-06
-8.95883e-05
-4.6102e-06
-8.82329e-05
-6.38918e-06
-8.65086e-05
-8.1417e-06
-8.44249e-05
-9.8488e-06
-8.19952e-05
-1.1491e-05
-7.92367e-05
-1.30485e-05
-7.61706e-05
-1.45016e-05
-7.28218e-05
-1.5831e-05
-6.92187e-05
-1.70184e-05
-6.53934e-05
-1.80463e-05
-6.13808e-05
-1.8899e-05
-5.72188e-05
-1.95627e-05
-5.29475e-05
-2.0026e-05
-4.86089e-05
-2.02798e-05
-4.42462e-05
-2.03182e-05
-3.99033e-05
-2.01387e-05
-3.5624e-05
-1.97418e-05
-3.14515e-05
-1.9132e-05
-2.74274e-05
-1.83175e-05
-2.3591e-05
-1.73103e-05
-1.99787e-05
-1.61266e-05
-1.6623e-05
-1.47862e-05
-1.35517e-05
-1.33132e-05
-1.07876e-05
-1.17358e-05
-8.34709e-06
-1.00861e-05
-6.24013e-06
-8.40073e-06
-4.46932e-06
-6.72059e-06
-3.0295e-06
-5.0915e-06
-1.90733e-06
-3.56448e-06
-1.08105e-06
-2.19648e-06
-5.20274e-07
-1.05115e-06
-1.86058e-07
-1.99601e-07
-3.10591e-08
2.78516e-07
2.88188e-07
-2.32154e-07
5.58647e-07
-9.07862e-07
2.11323e-06
-2.00852e-06
3.93701e-06
-3.51507e-06
5.90355e-06
-5.40663e-06
7.91834e-06
-7.66005e-06
9.908e-06
-1.02499e-05
1.18172e-05
-1.31487e-05
1.36062e-05
-1.63273e-05
1.52474e-05
-1.97556e-05
1.67234e-05
-2.34025e-05
1.80241e-05
-2.72369e-05
1.91453e-05
-3.12275e-05
2.00867e-05
-3.53436e-05
2.08508e-05
-3.95547e-05
2.14419e-05
-4.38309e-05
2.18649e-05
-4.81432e-05
2.21254e-05
-5.24629e-05
2.22282e-05
-5.67619e-05
2.21782e-05
-6.10127e-05
2.19793e-05
-6.51882e-05
2.16348e-05
-6.92617e-05
2.11474e-05
-7.32069e-05
2.05192e-05
-7.69979e-05
1.97522e-05
-8.0609e-05
1.88478e-05
-8.40151e-05
1.78079e-05
-8.71916e-05
1.66346e-05
-9.01145e-05
1.53306e-05
-9.27605e-05
1.38993e-05
-9.51076e-05
1.23454e-05
-9.71348e-05
1.06747e-05
-9.88225e-05
8.8945e-06
-0.000100153
7.01378e-06
-0.000101111
5.04313e-06
-0.000101682
2.99495e-06
-0.000101857
8.83467e-07
-0.000101626
-1.27533e-06
-0.000100985
-3.46372e-06
-9.99329e-05
-5.66239e-06
-9.84715e-05
-7.85059e-06
-9.66068e-05
-1.00063e-05
-9.43489e-05
-1.21067e-05
-9.17118e-05
-1.41281e-05
-8.87136e-05
-1.60467e-05
-8.53766e-05
-1.78386e-05
-8.17271e-05
-1.94805e-05
-7.77954e-05
-2.09501e-05
-7.36154e-05
-2.22263e-05
-6.92244e-05
-2.329e-05
-6.46629e-05
-2.41243e-05
-5.99737e-05
-2.47152e-05
-5.52018e-05
-2.50516e-05
-5.03939e-05
-2.51262e-05
-4.55971e-05
-2.49354e-05
-4.0859e-05
-2.44799e-05
-3.62263e-05
-2.37646e-05
-3.17445e-05
-2.27993e-05
-2.74565e-05
-2.15983e-05
-2.34024e-05
-2.01807e-05
-1.96183e-05
-1.85703e-05
-1.61354e-05
-1.67961e-05
-1.29797e-05
-1.48916e-05
-1.01706e-05
-1.28952e-05
-7.72089e-06
-1.08504e-05
-5.63589e-06
-8.8056e-06
-3.91296e-06
-6.81443e-06
-2.54131e-06
-4.93614e-06
-1.50178e-06
-3.236e-06
-7.66933e-07
-1.78599e-06
-3.01306e-07
-6.65228e-07
-6.20332e-08
3.92447e-08
2.26155e-07
-2.77526e-07
8.36173e-07
-1.0741e-06
2.9098e-06
-2.35744e-06
5.22036e-06
-4.09673e-06
7.64284e-06
-6.26123e-06
1.00828e-05
-8.81966e-06
1.24664e-05
-1.174e-05
1.47376e-05
-1.49894e-05
1.68556e-05
-1.85345e-05
1.87925e-05
-2.23416e-05
2.05304e-05
-2.63766e-05
2.20592e-05
-3.0606e-05
2.33747e-05
-3.49964e-05
2.44771e-05
-3.9515e-05
2.53693e-05
-4.41295e-05
2.60563e-05
-4.88082e-05
2.65437e-05
-5.35204e-05
2.68375e-05
-5.82357e-05
2.69435e-05
-6.29243e-05
2.68668e-05
-6.75571e-05
2.6612e-05
-7.21051e-05
2.61828e-05
-7.65401e-05
2.55823e-05
-8.08339e-05
2.48131e-05
-8.49589e-05
2.38772e-05
-8.88879e-05
2.27768e-05
-9.2594e-05
2.1514e-05
-9.6051e-05
2.00916e-05
-9.92333e-05
1.85129e-05
-0.000102116
1.67822e-05
-0.000104676
1.49053e-05
-0.000106891
1.28893e-05
-0.000108739
1.07431e-05
-0.000110203
8.47734e-06
-0.000111265
6.10483e-06
-0.00011191
3.64036e-06
-0.000112127
1.10085e-06
-0.000111908
-1.49469e-06
-0.000111247
-4.12528e-06
-0.000110141
-6.76805e-06
-0.000108593
-9.39846e-06
-0.000106609
-1.19905e-05
-0.000104198
-1.45172e-05
-0.000101376
-1.69506e-05
-9.81602e-05
-1.92624e-05
-9.45744e-05
-2.14244e-05
-9.06458e-05
-2.34091e-05
-8.64059e-05
-2.51899e-05
-8.18905e-05
-2.67417e-05
-7.71388e-05
-2.80417e-05
-7.21933e-05
-2.90698e-05
-6.70996e-05
-2.98088e-05
-6.19056e-05
-3.02456e-05
-5.66609e-05
-3.03709e-05
-5.1416e-05
-3.01802e-05
-4.62221e-05
-2.96738e-05
-4.11297e-05
-2.88571e-05
-3.61878e-05
-2.77412e-05
-3.14434e-05
-2.63427e-05
-2.69405e-05
-2.46836e-05
-2.27189e-05
-2.27919e-05
-1.88137e-05
-2.07013e-05
-1.52543e-05
-1.84509e-05
-1.20639e-05
-1.60856e-05
-9.25848e-06
-1.36558e-05
-6.84649e-06
-1.12176e-05
-4.82845e-06
-8.83247e-06
-3.1966e-06
-6.56798e-06
-1.93494e-06
-4.49766e-06
-1.01937e-06
-2.70156e-06
-4.18184e-07
-1.26642e-06
-9.29416e-08
-2.85994e-07
1.33213e-07
-3.21438e-07
1.15761e-06
-1.23595e-06
3.82432e-06
-2.69853e-06
6.68294e-06
-4.66705e-06
9.61136e-06
-7.10104e-06
1.25168e-05
-9.96106e-06
1.53264e-05
-1.32083e-05
1.79848e-05
-1.68043e-05
2.04516e-05
-2.07112e-05
2.26994e-05
-2.48914e-05
2.47107e-05
-2.93081e-05
2.64759e-05
-3.39251e-05
2.79916e-05
-3.87066e-05
2.92587e-05
-4.36181e-05
3.02808e-05
-4.86255e-05
3.10637e-05
-5.36957e-05
3.16139e-05
-5.87961e-05
3.1938e-05
-6.3895e-05
3.20424e-05
-6.89612e-05
3.1933e-05
-7.3964e-05
3.16148e-05
-7.88731e-05
3.10919e-05
-8.36586e-05
3.03679e-05
-8.82911e-05
2.94455e-05
-9.27414e-05
2.83275e-05
-9.69807e-05
2.70162e-05
-0.000100981
2.55142e-05
-0.000104714
2.38249e-05
-0.000108154
2.19524e-05
-0.000111273
1.99019e-05
-0.000114048
1.76801e-05
-0.000116454
1.52956e-05
-0.00011847
1.27589e-05
-0.000120075
1.00825e-05
-0.000121252
7.28129e-06
-0.000121984
4.37266e-06
-0.000122259
1.37626e-06
-0.000122068
-1.68583e-06
-0.000121404
-4.78924e-06
-0.000120265
-7.90745e-06
-0.000118651
-1.1012e-05
-0.000116569
-1.40728e-05
-0.000114028
-1.70583e-05
-0.000111042
-1.99363e-05
-0.000107631
-2.26738e-05
-0.000103817
-2.52381e-05
-9.96295e-05
-2.7597e-05
-9.51e-05
-2.97193e-05
-9.02659e-05
-3.15758e-05
-8.51681e-05
-3.31396e-05
-7.9851e-05
-3.43868e-05
-7.43627e-05
-3.52972e-05
-6.87537e-05
-3.58547e-05
-6.30765e-05
-3.60481e-05
-5.73851e-05
-3.58716e-05
-5.17342e-05
-3.53247e-05
-4.6178e-05
-3.44133e-05
-4.07697e-05
-3.31495e-05
-3.55603e-05
-3.1552e-05
-3.0598e-05
-2.96459e-05
-2.59268e-05
-2.74631e-05
-2.1586e-05
-2.50421e-05
-1.76091e-05
-2.24278e-05
-1.40232e-05
-1.96715e-05
-1.08481e-05
-1.68309e-05
-8.09605e-06
-1.39696e-05
-5.77111e-06
-1.11574e-05
-3.86907e-06
-8.47003e-06
-2.3774e-06
-5.98933e-06
-1.2756e-06
-3.80336e-06
-5.35761e-07
-2.00626e-06
-1.23581e-07
-6.98171e-07
9.63112e-09
-3.63849e-07
1.52146e-06
-1.39295e-06
4.85342e-06
-3.03038e-06
8.32037e-06
-5.22326e-06
1.18042e-05
-7.92167e-06
1.52152e-05
-1.1078e-05
1.84828e-05
-1.46467e-05
2.15535e-05
-1.85837e-05
2.43886e-05
-2.28462e-05
2.6962e-05
-2.73931e-05
2.92575e-05
-3.21841e-05
3.1267e-05
-3.71806e-05
3.29881e-05
-4.23447e-05
3.44228e-05
-4.76399e-05
3.5576e-05
-5.30305e-05
3.64543e-05
-5.84818e-05
3.70652e-05
-6.39601e-05
3.74163e-05
-6.94322e-05
3.75146e-05
-7.48657e-05
3.73665e-05
-8.02286e-05
3.69777e-05
-8.54894e-05
3.63527e-05
-9.06171e-05
3.54955e-05
-9.55808e-05
3.44092e-05
-0.00010035
3.30969e-05
-0.000104895
3.15612e-05
-0.000109186
2.98054e-05
-0.000113195
2.78333e-05
-0.000116892
2.56498e-05
-0.000120251
2.32609e-05
-0.000123246
2.06746e-05
-0.000125851
1.79006e-05
-0.000128043
1.49511e-05
-0.000129801
1.18406e-05
-0.000131106
8.58609e-06
-0.000131941
5.20741e-06
-0.000132291
1.72706e-06
-0.000132148
-1.82976e-06
-0.000131502
-5.43525e-06
-0.00013035
-9.05913e-06
-0.000128693
-1.26689e-05
-0.000126535
-1.62303e-05
-0.000123886
-1.97073e-05
-0.00012076
-2.30628e-05
-0.000117174
-2.62593e-05
-0.000113153
-2.9259e-05
-0.000108725
-3.20249e-05
-0.000103924
-3.4521e-05
-9.87859e-05
-3.67135e-05
-9.33546e-05
-3.85709e-05
-8.76761e-05
-4.00653e-05
-8.18003e-05
-4.1173e-05
-7.57804e-05
-4.18746e-05
-6.96719e-05
-4.21566e-05
-6.35322e-05
-4.20112e-05
-5.74196e-05
-4.14373e-05
-5.13923e-05
-4.04406e-05
-4.55078e-05
-3.90341e-05
-3.98215e-05
-3.72383e-05
-3.43861e-05
-3.50813e-05
-2.92504e-05
-3.25989e-05
-2.44582e-05
-2.98343e-05
-2.00476e-05
-2.68383e-05
-1.60503e-05
-2.36689e-05
-1.24904e-05
-2.03908e-05
-9.38438e-06
-1.70757e-05
-6.74033e-06
-1.38015e-05
-4.55795e-06
-1.06524e-05
-2.82852e-06
-7.71876e-06
-1.53525e-06
-5.09663e-06
-6.53933e-07
-2.88758e-06
-1.53978e-07
-1.19812e-06
-1.44347e-07
-4.04745e-07
1.92621e-06
-1.54479e-06
5.99346e-06
-3.35204e-06
1.01276e-05
-5.76341e-06
1.42156e-05
-8.71987e-06
1.81717e-05
-1.21659e-05
2.19289e-05
-1.60492e-05
2.54367e-05
-2.03199e-05
2.86592e-05
-2.49306e-05
3.15728e-05
-2.98363e-05
3.41632e-05
-3.49937e-05
3.64243e-05
-4.03612e-05
3.83556e-05
-4.58989e-05
3.99605e-05
-5.15685e-05
4.12456e-05
-5.73328e-05
4.22186e-05
-6.31558e-05
4.28882e-05
-6.90024e-05
4.32629e-05
-7.48383e-05
4.33505e-05
-8.06301e-05
4.31583e-05
-8.63448e-05
4.26923e-05
-9.19497e-05
4.19577e-05
-9.74128e-05
4.09586e-05
-0.000102702
3.96987e-05
-0.000107787
3.81813e-05
-0.000112635
3.64095e-05
-0.000117217
3.4387e-05
-0.000121501
3.21181e-05
-0.00012546
2.96083e-05
-0.000129064
2.68647e-05
-0.000132285
2.38962e-05
-0.000135099
2.0714e-05
-0.000137479
1.73318e-05
-0.000139404
1.37657e-05
-0.000140854
1.00352e-05
-0.000141809
6.16252e-06
-0.000142255
2.17287e-06
-0.000142179
-1.90538e-06
-0.000141573
-6.04097e-06
-0.000140432
-1.01999e-05
-0.000138756
-1.43455e-05
-0.000136547
-1.84392e-05
-0.000133814
-2.24404e-05
-0.00013057
-2.63071e-05
-0.000126832
-2.99967e-05
-0.000122625
-3.34664e-05
-0.000117976
-3.6674e-05
-0.000112918
-3.95783e-05
-0.000107492
-4.21404e-05
-0.000101738
-4.43241e-05
-9.57069e-05
-4.60969e-05
-8.9449e-05
-4.74308e-05
-8.30204e-05
-4.83032e-05
-7.64795e-05
-4.86974e-05
-6.98872e-05
-4.86035e-05
-6.33055e-05
-4.8019e-05
-5.6797e-05
-4.69491e-05
-5.04236e-05
-4.54075e-05
-4.42457e-05
-4.34162e-05
-3.83208e-05
-4.10061e-05
-3.27029e-05
-3.82167e-05
-2.74411e-05
-3.50962e-05
-2.25785e-05
-3.17009e-05
-1.81519e-05
-2.80955e-05
-1.41904e-05
-2.43523e-05
-1.07151e-05
-2.0551e-05
-7.7387e-06
-1.67779e-05
-5.26506e-06
-1.31261e-05
-3.28954e-06
-9.69428e-06
-1.79914e-06
-6.58704e-06
-7.73166e-07
-3.91355e-06
-1.84309e-07
-1.78698e-06
-3.28655e-07
-4.44116e-07
2.37033e-06
-1.69125e-06
7.2406e-06
-3.66282e-06
1.20992e-05
-6.28602e-06
1.68388e-05
-9.49313e-06
2.13788e-05
-1.3221e-05
2.56567e-05
-1.74106e-05
2.96263e-05
-2.20066e-05
3.32552e-05
-2.69569e-05
3.65231e-05
-3.22125e-05
3.94189e-05
-3.77271e-05
4.19388e-05
-4.34563e-05
4.40848e-05
-4.93584e-05
4.58626e-05
-5.5393e-05
4.72802e-05
-6.15215e-05
4.83472e-05
-6.77068e-05
4.90735e-05
-7.39126e-05
4.94687e-05
-8.01037e-05
4.95417e-05
-8.62458e-05
4.93004e-05
-9.23048e-05
4.87514e-05
-9.82475e-05
4.79004e-05
-0.000104041
4.6752e-05
-0.000109652
4.53101e-05
-0.000115049
4.35784e-05
-0.0001202
4.15603e-05
-0.000125073
3.926e-05
-0.000129637
3.66822e-05
-0.000133862
3.38331e-05
-0.000137718
3.07206e-05
-0.000141177
2.73547e-05
-0.00014421
2.37477e-05
-0.000146793
1.99148e-05
-0.000148902
1.58741e-05
-0.000150513
1.1647e-05
-0.000151609
7.25804e-06
-0.000152172
2.7354e-06
-0.000152187
-1.88957e-06
-0.000151646
-6.58219e-06
-0.000150541
-1.13046e-05
-0.000148871
-1.60163e-05
-0.000146636
-2.0674e-05
-0.000143844
-2.52323e-05
-0.000140506
-2.96446e-05
-0.00013664
-3.38628e-05
-0.000132268
-3.78387e-05
-0.000127417
-4.15247e-05
-0.000122122
-4.4874e-05
-0.00011642
-4.78422e-05
-0.000110356
-5.03878e-05
-0.00010398
-5.24734e-05
-9.73441e-05
-5.40663e-05
-9.05078e-05
-5.51396e-05
-8.3532e-05
-5.56732e-05
-7.6481e-05
-5.56545e-05
-6.9421e-05
-5.5079e-05
-6.24189e-05
-5.39512e-05
-5.55417e-05
-5.22847e-05
-4.88549e-05
-5.0103e-05
-4.24217e-05
-4.74394e-05
-3.63016e-05
-4.43369e-05
-3.05494e-05
-4.08483e-05
-2.52143e-05
-3.7036e-05
-2.03385e-05
-3.29713e-05
-1.59566e-05
-2.87342e-05
-1.2095e-05
-2.44125e-05
-8.77135e-06
-2.01016e-05
-5.99419e-06
-1.59032e-05
-3.76311e-06
-1.19254e-05
-2.06892e-06
-8.28122e-06
-8.94334e-07
-5.08814e-06
-2.14851e-07
-2.46646e-06
-5.43506e-07
-4.8194e-07
2.85226e-06
-1.83213e-06
8.59079e-06
-3.96208e-06
1.42291e-05
-6.78982e-06
1.96666e-05
-1.02393e-05
2.48283e-05
-1.424e-05
2.96575e-05
-1.87266e-05
3.41128e-05
-2.36382e-05
3.81668e-05
-2.89182e-05
4.18032e-05
-3.45139e-05
4.50145e-05
-4.03755e-05
4.78005e-05
-4.64565e-05
5.01659e-05
-5.27128e-05
5.21189e-05
-5.91025e-05
5.36699e-05
-6.55857e-05
5.48303e-05
-7.21239e-05
5.56116e-05
-7.868e-05
5.60248e-05
-8.5218e-05
5.60797e-05
-9.17027e-05
5.5785e-05
-9.80995e-05
5.51482e-05
-0.000104374
5.41753e-05
-0.000110494
5.28714e-05
-0.000116424
5.12407e-05
-0.000122133
4.92871e-05
-0.000127587
4.70144e-05
-0.000132754
4.44271e-05
-0.000137602
4.15304e-05
-0.0001421
3.83311e-05
-0.000146217
3.48378e-05
-0.000149924
3.10613e-05
-0.000153191
2.70152e-05
-0.000155993
2.2716e-05
-0.000158302
1.81836e-05
-0.000160096
1.34412e-05
-0.000161354
8.51585e-06
-0.000162057
3.43819e-06
-0.000162189
-1.75737e-06
-0.000161739
-7.03281e-06
-0.000160697
-1.23466e-05
-0.000159059
-1.76539e-05
-0.000156826
-2.29072e-05
-0.000154002
-2.80564e-05
-0.000150597
-3.30494e-05
-0.000146627
-3.78329e-05
-0.000142112
-4.23531e-05
-0.000137081
-4.65563e-05
-0.000131565
-5.039e-05
-0.000125603
-5.38038e-05
-0.000119241
-5.67504e-05
-0.000112527
-5.91868e-05
-0.000105519
-6.10749e-05
-9.82752e-05
-6.23831e-05
-9.08613e-05
-6.30872e-05
-8.33447e-05
-6.31711e-05
-7.57957e-05
-6.26279e-05
-6.82863e-05
-6.14606e-05
-6.08885e-05
-5.96825e-05
-5.36737e-05
-5.73178e-05
-4.67111e-05
-5.4402e-05
-4.00665e-05
-5.09815e-05
-3.38011e-05
-4.71137e-05
-2.79704e-05
-4.28666e-05
-2.26231e-05
-3.83187e-05
-1.77999e-05
-3.35575e-05
-1.35329e-05
-2.86795e-05
-9.84527e-06
-2.37892e-05
-6.75058e-06
-1.89979e-05
-4.25287e-06
-1.44231e-05
-2.34689e-06
-1.01872e-05
-1.01859e-06
-6.41644e-06
-2.45951e-07
-3.2391e-06
-7.89457e-07
-5.18179e-07
3.37044e-06
-1.96721e-06
1.00398e-05
-4.24924e-06
1.65112e-05
-7.27361e-06
2.26909e-05
-1.09564e-05
2.85111e-05
-1.52201e-05
3.39212e-05
-1.99932e-05
3.88859e-05
-2.52096e-05
4.33833e-05
-3.08084e-05
4.7402e-05
-3.6733e-05
5.09391e-05
-4.29307e-05
5.39982e-05
-4.93525e-05
5.65877e-05
-5.59523e-05
5.87187e-05
-6.26866e-05
6.04042e-05
-6.95142e-05
6.16579e-05
-7.63957e-05
6.24931e-05
-8.3293e-05
6.29221e-05
-9.01696e-05
6.29562e-05
-9.69895e-05
6.2605e-05
-0.000103718
6.18765e-05
-0.00011032
6.07774e-05
-0.000116761
5.93131e-05
-0.000123009
5.74882e-05
-0.000129029
5.53068e-05
-0.000134787
5.27731e-05
-0.000140252
4.98917e-05
-0.00014539
4.66682e-05
-0.000150169
4.311e-05
-0.000154557
3.92262e-05
-0.000158524
3.50284e-05
-0.00016204
3.05312e-05
-0.000165077
2.57525e-05
-0.000167607
2.07135e-05
-0.000169605
1.54394e-05
-0.000171049
9.95934e-06
-0.000171917
4.30637e-06
-0.000172192
-1.48218e-06
-0.00017186
-7.36505e-06
-0.000170909
-1.32971e-05
-0.000169334
-1.92294e-05
-0.000167131
-2.511e-05
-0.000164304
-3.08838e-05
-0.000160859
-3.64936e-05
-0.000156812
-4.18805e-05
-0.00015218
-4.69847e-05
-0.00014699
-5.17464e-05
-0.000141273
-5.61067e-05
-0.000135068
-6.00087e-05
-0.00012842
-6.33989e-05
-0.000121379
-6.62277e-05
-0.000114003
-6.84513e-05
-0.000106353
-7.00326e-05
-9.84978e-05
-7.09424e-05
-9.05084e-05
-7.11606e-05
-8.24595e-05
-7.06768e-05
-7.4428e-05
-6.94921e-05
-6.64917e-05
-6.76187e-05
-5.87282e-05
-6.50813e-05
-5.12133e-05
-6.19169e-05
-4.40199e-05
-5.8175e-05
-3.72161e-05
-5.39174e-05
-3.08647e-05
-4.92181e-05
-2.50212e-05
-4.41621e-05
-1.97333e-05
-3.88454e-05
-1.50395e-05
-3.33733e-05
-1.09689e-05
-2.78598e-05
-7.54054e-06
-2.24263e-05
-4.76323e-06
-1.72004e-05
-2.63577e-06
-1.23147e-05
-1.14728e-06
-7.90492e-06
-2.78002e-07
-4.10838e-06
-1.06746e-06
-5.5278e-07
3.92322e-06
-2.09624e-06
1.15833e-05
-4.52366e-06
1.89386e-05
-7.7362e-06
2.59035e-05
-1.16425e-05
3.24174e-05
-1.61584e-05
3.84371e-05
-2.12066e-05
4.39341e-05
-2.67161e-05
4.88928e-05
-3.26215e-05
5.33074e-05
-3.88629e-05
5.71804e-05
-4.53846e-05
6.052e-05
-5.21353e-05
6.33383e-05
-5.90669e-05
6.56503e-05
-6.61346e-05
6.74719e-05
-7.32958e-05
6.88192e-05
-8.05103e-05
6.97076e-05
-8.77394e-05
7.01512e-05
-9.49459e-05
7.01627e-05
-0.000102093
6.97525e-05