/*--------------------------------*- C++ -*----------------------------------*\
  =========                 |
  \\      /  F ield         | OpenFOAM: The Open Source CFD Toolbox
   \\    /   O peration     | Website:  https://openfoam.org
    \\  /    A nd           | Version:  dev
     \\/     M anipulation  |
\*---------------------------------------------------------------------------*/
FoamFile
{
    format      ascii;
    class       volVectorField;
    location    "33.3";
    object      U;
}
// * * * * * * * * * * * * * * * * * * * * * * * * * * * * * * * * * * * * * //

dimensions      [0 1 -1 0 0 0 0];

internalField   nonuniform List<vector> 
5184
(
(1.23341e-05 -1.2702e-05 0)
(4.51795e-05 -2.08864e-05 0)
(8.0341e-05 -1.72455e-05 0)
(9.60059e-05 -8.19426e-06 0)
(8.21792e-05 2.67004e-06 0)
(3.64804e-05 1.3618e-05 0)
(-4.05396e-05 2.3846e-05 0)
(-0.00014686 3.30488e-05 0)
(-0.000279689 4.11066e-05 0)
(-0.000435971 4.80253e-05 0)
(-0.000612586 5.38667e-05 0)
(-0.000806498 5.87154e-05 0)
(-0.00101484 6.26635e-05 0)
(-0.00123495 6.58023e-05 0)
(-0.00146436 6.82168e-05 0)
(-0.00170083 6.99825e-05 0)
(-0.00194226 7.11636e-05 0)
(-0.00218676 7.18127e-05 0)
(-0.00243253 7.19704e-05 0)
(-0.00267789 7.16665e-05 0)
(-0.00292123 7.09201e-05 0)
(-0.00316101 6.97419e-05 0)
(-0.00339567 6.81347e-05 0)
(-0.00362371 6.60955e-05 0)
(-0.00384359 6.36171e-05 0)
(-0.00405377 6.06898e-05 0)
(-0.0042527 5.7303e-05 0)
(-0.00443881 5.34473e-05 0)
(-0.0046105 4.91154e-05 0)
(-0.00476622 4.43043e-05 0)
(-0.00490439 3.90166e-05 0)
(-0.00502349 3.32614e-05 0)
(-0.00512206 2.7056e-05 0)
(-0.00519873 2.04264e-05 0)
(-0.00525223 1.34083e-05 0)
(-0.00528144 6.04737e-06 0)
(-0.00528543 -1.60019e-06 0)
(-0.00526347 -9.46795e-06 0)
(-0.00521505 -1.74794e-05 0)
(-0.00513995 -2.55486e-05 0)
(-0.00503822 -3.35813e-05 0)
(-0.00491025 -4.14758e-05 0)
(-0.00475674 -4.91249e-05 0)
(-0.00457875 -5.64176e-05 0)
(-0.00437767 -6.32413e-05 0)
(-0.00415526 -6.9484e-05 0)
(-0.00391362 -7.50371e-05 0)
(-0.00365517 -7.97976e-05 0)
(-0.00338265 -8.36707e-05 0)
(-0.00309905 -8.65727e-05 0)
(-0.00280761 -8.84331e-05 0)
(-0.00251177 -8.91967e-05 0)
(-0.00221508 -8.88254e-05 0)
(-0.00192121 -8.72994e-05 0)
(-0.00163383 -8.46182e-05 0)
(-0.00135659 -8.08012e-05 0)
(-0.001093 -7.58878e-05 0)
(-0.000846464 -6.99368e-05 0)
(-0.000620109 -6.30257e-05 0)
(-0.000416791 -5.52504e-05 0)
(-0.000239008 -4.6725e-05 0)
(-8.88383e-05 -3.75827e-05 0)
(3.21303e-05 -2.79787e-05 0)
(0.000122883 -1.80956e-05 0)
(0.000183088 -8.15822e-06 0)
(0.000213247 1.53877e-06 0)
(0.00021495 1.05713e-05 0)
(0.000191247 1.8302e-05 0)
(0.000147168 2.37185e-05 0)
(9.08063e-05 2.51299e-05 0)
(3.663e-05 1.98508e-05 0)
(6.22627e-06 6.24529e-06 0)
(2.08523e-05 -4.58796e-05 0)
(6.56418e-05 -6.57091e-05 0)
(9.47498e-05 -4.05542e-05 0)
(7.28534e-05 7.63847e-06 0)
(-1.8886e-05 6.5682e-05 0)
(-0.000187282 0.000125995 0)
(-0.000432915 0.000184299 0)
(-0.000752568 0.000238348 0)
(-0.0011407 0.000287 0)
(-0.00159052 0.000329811 0)
(-0.00209469 0.000366744 0)
(-0.00264576 0.000397987 0)
(-0.00323643 0.000423851 0)
(-0.00385969 0.000444704 0)
(-0.00450894 0.000460922 0)
(-0.00517799 0.000472865 0)
(-0.00586103 0.000480856 0)
(-0.00655262 0.000485169 0)
(-0.00724763 0.000486028 0)
(-0.00794116 0.000483605 0)
(-0.00862852 0.00047802 0)
(-0.00930516 0.000469351 0)
(-0.00996661 0.000457636 0)
(-0.0106084 0.000442884 0)
(-0.0112262 0.000425083 0)
(-0.0118156 0.000404209 0)
(-0.0123721 0.000380239 0)
(-0.0128913 0.000353156 0)
(-0.0133689 0.000322959 0)
(-0.0138006 0.000289676 0)
(-0.014182 0.000253367 0)
(-0.014509 0.000214135 0)
(-0.0147778 0.00017213 0)
(-0.0149848 0.000127554 0)
(-0.0151267 8.06681e-05 0)
(-0.0152006 3.17906e-05 0)
(-0.0152041 -1.86993e-05 0)
(-0.0151355 -7.03635e-05 0)
(-0.0149937 -0.000122707 0)
(-0.0147783 -0.000175182 0)
(-0.0144897 -0.000227195 0)
(-0.0141291 -0.000278114 0)
(-0.0136986 -0.000327276 0)
(-0.0132012 -0.000374004 0)
(-0.012641 -0.000417612 0)
(-0.0120227 -0.000457426 0)
(-0.0113522 -0.000492792 0)
(-0.010636 -0.000523096 0)
(-0.00988156 -0.000547778 0)
(-0.00909694 -0.000566342 0)
(-0.00829085 -0.000578375 0)
(-0.00747247 -0.000583559 0)
(-0.00665134 -0.000581678 0)
(-0.00583719 -0.000572628 0)
(-0.00503982 -0.000556425 0)
(-0.00426888 -0.000533207 0)
(-0.00353376 -0.00050324 0)
(-0.00284338 -0.000466913 0)
(-0.00220602 -0.000424739 0)
(-0.00162916 -0.000377359 0)
(-0.00111927 -0.000325542 0)
(-0.000681666 -0.000270193 0)
(-0.000320246 -0.000212374 0)
(-3.72978e-05 -0.000153337 0)
(0.000166811 -9.45918e-05 0)
(0.000294003 -3.80166e-05 0)
(0.000349028 1.39284e-05 0)
(0.000340157 5.79368e-05 0)
(0.000279887 8.94152e-05 0)
(0.00018607 0.000101869 0)
(8.6377e-05 8.65294e-05 0)
(1.96812e-05 3.64936e-05 0)
(1.76426e-05 -8.13145e-05 0)
(4.13521e-05 -9.50362e-05 0)
(1.9634e-05 -1.91332e-05 0)
(-8.39626e-05 0.000105933 0)
(-0.000290222 0.000254657 0)
(-0.000607889 0.000410596 0)
(-0.00103823 0.000563437 0)
(-0.00157742 0.000707044 0)
(-0.00221831 0.000837964 0)
(-0.00295169 0.000954492 0)
(-0.00376731 0.00105603 0)
(-0.00465444 0.00114267 0)
(-0.00560237 0.00121494 0)
(-0.00660062 0.00127354 0)
(-0.00763915 0.00131932 0)
(-0.0087084 0.00135309 0)
(-0.00979927 0.00137561 0)
(-0.0109032 0.00138757 0)
(-0.0120119 0.00138953 0)
(-0.0131176 0.00138192 0)
(-0.0142127 0.00136509 0)
(-0.0152898 0.00133925 0)
(-0.0163417 0.00130452 0)
(-0.0173612 0.00126098 0)
(-0.0183413 0.00120864 0)
(-0.019275 0.00114748 0)
(-0.0201551 0.00107749 0)
(-0.0209748 0.000998683 0)
(-0.0217271 0.000911133 0)
(-0.0224053 0.000814973 0)
(-0.0230029 0.000710436 0)
(-0.0235134 0.000597867 0)
(-0.0239311 0.000477738 0)
(-0.0242504 0.000350665 0)
(-0.0244664 0.000217415 0)
(-0.0245749 7.89107e-05 0)
(-0.0245726 -6.37681e-05 0)
(-0.0244568 -0.000209385 0)
(-0.0242261 -0.000356558 0)
(-0.0238802 -0.000503769 0)
(-0.0234199 -0.000649381 0)
(-0.0228474 -0.000791662 0)
(-0.022166 -0.00092881 0)
(-0.0213807 -0.00105898 0)
(-0.0204977 -0.00118032 0)
(-0.0195247 -0.00129102 0)
(-0.0184704 -0.00138931 0)
(-0.0173453 -0.00147356 0)
(-0.0161606 -0.00154226 0)
(-0.0149289 -0.0015941 0)
(-0.0136633 -0.00162798 0)
(-0.012378 -0.00164305 0)
(-0.0110875 -0.00163876 0)
(-0.00980656 -0.00161486 0)
(-0.00855018 -0.0015714 0)
(-0.00733302 -0.00150879 0)
(-0.00616933 -0.00142779 0)
(-0.00507265 -0.00132948 0)
(-0.0040555 -0.00121532 0)
(-0.00312918 -0.00108711 0)
(-0.00230341 -0.000947025 0)
(-0.00158609 -0.000797639 0)
(-0.000982966 -0.000641955 0)
(-0.000497257 -0.000483507 0)
(-0.000129277 -0.000326492 0)
(0.000124043 -0.000176 0)
(0.000269799 -3.83476e-05 0)
(0.000319841 7.84482e-05 0)
(0.000291306 0.000164088 0)
(0.000207425 0.000205406 0)
(0.000102465 0.000186295 0)
(2.49795e-05 9.04015e-05 0)
(8.84458e-06 -9.77509e-05 0)
(-6.99381e-06 -7.31546e-05 0)
(-0.000107556 8.47794e-05 0)
(-0.00032234 0.000318364 0)
(-0.000669586 0.000590102 0)
(-0.0011577 0.000874368 0)
(-0.00178743 0.00115413 0)
(-0.00255401 0.0014186 0)
(-0.0034489 0.00166131 0)
(-0.00446106 0.00187872 0)
(-0.00557802 0.00206928 0)
(-0.00678656 0.00223272 0)
(-0.0080733 0.00236962 0)
(-0.00942495 0.00248101 0)
(-0.0108286 0.00256815 0)
(-0.0122719 0.0026324 0)
(-0.0137428 0.00267501 0)
(-0.0152301 0.00269715 0)
(-0.0167226 0.0026998 0)
(-0.01821 0.00268374 0)
(-0.0196819 0.00264957 0)
(-0.0211284 0.00259772 0)
(-0.0225398 0.00252846 0)
(-0.0239064 0.00244195 0)
(-0.0252186 0.00233827 0)
(-0.026467 0.00221746 0)
(-0.0276422 0.00207957 0)
(-0.028735 0.00192472 0)
(-0.0297362 0.00175311 0)
(-0.030637 0.00156509 0)
(-0.0314288 0.0013612 0)
(-0.0321034 0.00114215 0)
(-0.0326531 0.000908935 0)
(-0.033071 0.000662785 0)
(-0.0333508 0.000405216 0)
(-0.0334872 0.00013803 0)
(-0.0334761 -0.000136684 0)
(-0.0333143 -0.000416556 0)
(-0.0330004 -0.00069895 0)
(-0.0325339 -0.000980988 0)
(-0.0319163 -0.00125958 0)
(-0.0311506 -0.00153148 0)
(-0.0302415 -0.0017933 0)
(-0.0291956 -0.0020416 0)
(-0.0280211 -0.00227293 0)
(-0.026728 -0.00248392 0)
(-0.025328 -0.00267129 0)
(-0.0238344 -0.00283202 0)
(-0.0222622 -0.00296332 0)
(-0.0206272 -0.00306277 0)
(-0.0189469 -0.00312835 0)
(-0.0172394 -0.00315851 0)
(-0.0155234 -0.00315224 0)
(-0.0138181 -0.00310907 0)
(-0.0121427 -0.00302917 0)
(-0.0105161 -0.00291332 0)
(-0.00895679 -0.00276295 0)
(-0.00748208 -0.00258016 0)
(-0.00610816 -0.00236771 0)
(-0.00484952 -0.00212905 0)
(-0.00371865 -0.00186833 0)
(-0.00272567 -0.00159045 0)
(-0.0018779 -0.00130113 0)
(-0.00117947 -0.00100703 0)
(-0.00063086 -0.000715979 0)
(-0.000228352 -0.000437246 0)
(3.65261e-05 -0.000181976 0)
(0.00017767 3.62213e-05 0)
(0.00021481 0.000200626 0)
(0.000174119 0.000290843 0)
(9.30413e-05 0.000282578 0)
(2.40304e-05 0.000147295 0)
(-2.12221e-06 -8.44179e-05 0)
(-6.72827e-05 2.08843e-05 0)
(-0.000264097 0.000295446 0)
(-0.000609759 0.000668033 0)
(-0.00111677 0.00109084 0)
(-0.00179133 0.00152995 0)
(-0.00263246 0.00196192 0)
(-0.00363377 0.00237127 0)
(-0.00478515 0.00274829 0)
(-0.00607387 0.00308733 0)
(-0.0074856 0.00338562 0)
(-0.00900506 0.00364234 0)
(-0.0106167 0.00385796 0)
(-0.0123049 0.00403371 0)
(-0.0140544 0.00417125 0)
(-0.0158504 0.0042724 0)
(-0.0176785 0.00433896 0)
(-0.0195248 0.00437257 0)
(-0.0213761 0.00437466 0)
(-0.0232193 0.0043464 0)
(-0.0250419 0.00428869 0)
(-0.0268314 0.0042022 0)
(-0.028576 0.00408738 0)
(-0.0302635 0.00394454 0)
(-0.0318823 0.00377386 0)
(-0.0334207 0.0035755 0)
(-0.0348672 0.00334964 0)
(-0.0362105 0.00309656 0)
(-0.0374395 0.0028167 0)
(-0.0385434 0.00251074 0)
(-0.039512 0.00217961 0)
(-0.0403354 0.00182458 0)
(-0.0410044 0.00144731 0)
(-0.0415109 0.00104985 0)
(-0.0418475 0.000634681 0)
(-0.042008 0.000204721 0)
(-0.0419876 -0.000236668 0)
(-0.0417829 -0.000685699 0)
(-0.0413922 -0.00113818 0)
(-0.0408154 -0.00158956 0)
(-0.0400544 -0.00203496 0)
(-0.0391129 -0.00246928 0)
(-0.037997 -0.00288721 0)
(-0.0367145 -0.00328337 0)
(-0.0352755 -0.00365238 0)
(-0.0336921 -0.00398897 0)
(-0.0319783 -0.00428808 0)
(-0.0301503 -0.00454496 0)
(-0.0282256 -0.00475532 0)
(-0.0262236 -0.00491539 0)
(-0.0241648 -0.00502204 0)
(-0.0220709 -0.00507288 0)
(-0.0199643 -0.00506635 0)
(-0.0178679 -0.00500177 0)
(-0.0158045 -0.00487939 0)
(-0.0137967 -0.00470047 0)
(-0.0118665 -0.00446729 0)
(-0.0100347 -0.00418316 0)
(-0.00832047 -0.00385247 0)
(-0.00674119 -0.00348069 0)
(-0.00531181 -0.00307437 0)
(-0.00404446 -0.00264127 0)
(-0.002948 -0.00219038 0)
(-0.00202758 -0.00173211 0)
(-0.00128413 -0.00127851 0)
(-0.000713903 -0.000843635 0)
(-0.00030789 -0.000443968 0)
(-5.13246e-05 -9.90739e-05 0)
(7.66714e-05 0.000167711 0)
(0.00010361 0.000328652 0)
(6.75154e-05 0.000351009 0)
(1.96676e-05 0.000194154 0)
(-1.36942e-05 -3.75375e-05 0)
(-0.000132832 0.000197356 0)
(-0.000435827 0.000626907 0)
(-0.00092465 0.00117036 0)
(-0.00160393 0.00177177 0)
(-0.00247624 0.00239027 0)
(-0.00353773 0.00299679 0)
(-0.0047797 0.00357155 0)
(-0.00619006 0.00410168 0)
(-0.00775429 0.00457943 0)
(-0.00945626 0.00500072 0)
(-0.0112789 0.00536405 0)
(-0.0132047 0.00566967 0)
(-0.0152162 0.00591894 0)
(-0.0172961 0.00611385 0)
(-0.0194274 0.00625665 0)
(-0.0215937 0.00634964 0)
(-0.0237791 0.00639494 0)
(-0.025968 0.00639442 0)
(-0.0281453 0.00634965 0)
(-0.0302964 0.00626186 0)
(-0.0324069 0.00613199 0)
(-0.0344624 0.00596069 0)
(-0.0364492 0.00574846 0)
(-0.0383533 0.00549563 0)
(-0.0401612 0.00520253 0)
(-0.0418595 0.00486954 0)
(-0.043435 0.00449719 0)
(-0.0448749 0.00408624 0)
(-0.0461669 0.00363779 0)
(-0.0472989 0.00315331 0)
(-0.0482598 0.00263478 0)
(-0.0490393 0.00208466 0)
(-0.0496278 0.00150602 0)
(-0.0500173 0.000902484 0)
(-0.0502008 0.000278319 0)
(-0.0501729 -0.000361613 0)
(-0.0499299 -0.00101186 0)
(-0.0494701 -0.00166641 0)
(-0.0487936 -0.00231876 0)
(-0.0479027 -0.00296198 0)
(-0.0468019 -0.0035888 0)
(-0.0454981 -0.00419173 0)
(-0.0440005 -0.00476314 0)
(-0.0423207 -0.00529543 0)
(-0.0404725 -0.00578117 0)
(-0.0384721 -0.00621323 0)
(-0.0363377 -0.00658493 0)
(-0.0340896 -0.00689021 0)
(-0.0317497 -0.00712377 0)
(-0.0293414 -0.00728122 0)
(-0.0268896 -0.0073592 0)
(-0.0244196 -0.00735549 0)
(-0.0219575 -0.00726915 0)
(-0.0195296 -0.00710056 0)
(-0.0171615 -0.0068515 0)
(-0.0148783 -0.00652522 0)
(-0.0127039 -0.00612644 0)
(-0.0106603 -0.00566139 0)
(-0.00876744 -0.00513786 0)
(-0.0070426 -0.00456518 0)
(-0.00549989 -0.00395434 0)
(-0.00414975 -0.00331805 0)
(-0.00299856 -0.00267089 0)
(-0.0020481 -0.0020296 0)
(-0.00129508 -0.00141338 0)
(-0.000730737 -0.000844362 0)
(-0.000340333 -0.000348228 0)
(-0.000102912 4.50432e-05 0)
(9.16533e-06 0.00030051 0)
(3.25031e-05 0.000377355 0)
(1.36223e-05 0.000224536 0)
(-2.51863e-05 4.40893e-05 0)
(-0.000200015 0.000461271 0)
(-0.000614091 0.00108708 0)
(-0.00125293 0.00183476 0)
(-0.00211207 0.00264243 0)
(-0.00318936 0.00346385 0)
(-0.00447723 0.00426539 0)
(-0.00596396 0.0050236 0)
(-0.00763506 0.00572285 0)
(-0.00947397 0.00635347 0)
(-0.0114627 0.00691013 0)
(-0.0135825 0.00739067 0)
(-0.015814 0.0077951 0)
(-0.0181381 0.00812486 0)
(-0.0205357 0.0083822 0)
(-0.0229881 0.0085698 0)
(-0.025477 0.00869039 0)
(-0.0279847 0.00874657 0)
(-0.0304937 0.00874065 0)
(-0.0329871 0.00867458 0)
(-0.0354483 0.00854993 0)
(-0.037861 0.00836791 0)
(-0.0402093 0.00812943 0)
(-0.0424772 0.00783517 0)
(-0.0446493 0.00748568 0)
(-0.0467102 0.00708151 0)
(-0.0486447 0.00662329 0)
(-0.0504381 0.00611187 0)
(-0.0520761 0.00554844 0)
(-0.0535446 0.0049346 0)
(-0.0548305 0.00427251 0)
(-0.0559214 0.00356495 0)
(-0.0568057 0.00281535 0)
(-0.0574731 0.00202795 0)
(-0.0579144 0.0012077 0)
(-0.0581222 0.000360407 0)
(-0.0580907 -0.000507373 0)
(-0.0578158 -0.0013883 0)
(-0.0572957 -0.00227434 0)
(-0.0565307 -0.00315679 0)
(-0.0555233 -0.00402642 0)
(-0.0542789 -0.00487358 0)
(-0.0528048 -0.0056883 0)
(-0.0511116 -0.00646049 0)
(-0.0492118 -0.00718009 0)
(-0.0471209 -0.00783726 0)
(-0.0448568 -0.00842256 0)
(-0.0424397 -0.00892717 0)
(-0.0398918 -0.00934306 0)
(-0.0372375 -0.00966323 0)
(-0.0345028 -0.00988185 0)
(-0.0317149 -0.00999445 0)
(-0.0289022 -0.00999811 0)
(-0.0260935 -0.00989152 0)
(-0.0233179 -0.0096752 0)
(-0.020604 -0.00935148 0)
(-0.0179799 -0.00892465 0)
(-0.0154721 -0.00840096 0)
(-0.0131053 -0.0077887 0)
(-0.0109021 -0.00709816 0)
(-0.00888181 -0.00634175 0)
(-0.00706072 -0.00553397 0)
(-0.00545103 -0.00469156 0)
(-0.00406057 -0.00383363 0)
(-0.00289235 -0.00298187 0)
(-0.00194408 -0.00216088 0)
(-0.0012078 -0.0013986 0)
(-0.000669589 -0.000726861 0)
(-0.00030922 -0.000182173 0)
(-9.98571e-05 0.00019366 0)
(-7.71147e-06 0.000352514 0)
(6.8614e-06 0.00023501 0)
(-3.63409e-05 0.00016046 0)
(-0.000266947 0.000814501 0)
(-0.000793765 0.00167976 0)
(-0.00158567 0.00266622 0)
(-0.00262849 0.0037082 0)
(-0.00391468 0.00475564 0)
(-0.00543226 0.0057715 0)
(-0.00716596 0.0067295 0)
(-0.00909843 0.00761183 0)
(-0.0112108 0.00840723 0)
(-0.0134832 0.00910935 0)
(-0.0158949 0.00971548 0)
(-0.0184251 0.0102254 0)
(-0.021053 0.0106407 0)
(-0.0237578 0.0109639 0)
(-0.0265194 0.0111981 0)
(-0.0293179 0.0113463 0)
(-0.0321339 0.0114116 0)
(-0.0349483 0.0113969 0)
(-0.0377427 0.0113043 0)
(-0.0404988 0.0111359 0)
(-0.0431986 0.0108931 0)
(-0.0458245 0.010577 0)
(-0.0483591 0.0101886 0)
(-0.0507852 0.00972867 0)
(-0.053086 0.00919803 0)
(-0.0552447 0.00859761 0)
(-0.0572453 0.00792865 0)
(-0.0590718 0.00719284 0)
(-0.0607091 0.00639239 0)
(-0.0621428 0.00553024 0)
(-0.0633593 0.00461007 0)
(-0.064346 0.00363645 0)
(-0.0650917 0.00261487 0)
(-0.0655867 0.00155182 0)
(-0.0658227 0.000454745 0)
(-0.0657934 -0.000667901 0)
(-0.0654945 -0.00180673 0)
(-0.0649241 -0.00295146 0)
(-0.0640824 -0.00409104 0)
(-0.0629723 -0.00521372 0)
(-0.0615994 -0.00630725 0)
(-0.0599718 -0.00735899 0)
(-0.0581006 -0.00835617 0)
(-0.0559996 -0.00928604 0)
(-0.0536855 -0.0101361 0)
(-0.0511774 -0.0108945 0)
(-0.0484972 -0.01155 0)
(-0.045669 -0.0120925 0)
(-0.0427191 -0.0125129 0)
(-0.0396758 -0.012804 0)
(-0.0365686 -0.01296 0)
(-0.0334283 -0.0129771 0)
(-0.0302864 -0.0128536 0)
(-0.0271746 -0.0125902 0)
(-0.0241244 -0.0121896 0)
(-0.0211663 -0.0116573 0)
(-0.0183297 -0.0110011 0)
(-0.015642 -0.0102315 0)
(-0.0131281 -0.00936143 0)
(-0.0108098 -0.00840656 0)
(-0.00870551 -0.00738515 0)
(-0.00682944 -0.00631819 0)
(-0.00519121 -0.00522954 0)
(-0.0037954 -0.00414604 0)
(-0.0026412 -0.00309784 0)
(-0.001722 -0.00211874 0)
(-0.00102525 -0.00124672 0)
(-0.000532106 -0.000524565 0)
(-0.000217217 -5.05514e-07 0)
(-5.04607e-05 0.000270916 0)
(-8.40287e-08 0.000223868 0)
(-4.70619e-05 0.000310937 0)
(-0.000332644 0.00125695 0)
(-0.000971853 0.00240589 0)
(-0.00191724 0.00366663 0)
(-0.00314478 0.0049714 0)
(-0.00464113 0.00626786 0)
(-0.00638946 0.00751675 0)
(-0.00837049 0.00868985 0)
(-0.0105637 0.00976784 0)
(-0.0129477 0.0107383 0)
(-0.0155004 0.0115943 0)
(-0.0181993 0.0123327 0)
(-0.0210219 0.0129533 0)
(-0.0239458 0.0134577 0)
(-0.026949 0.0138488 0)
(-0.0300098 0.01413 0)
(-0.0331068 0.0143049 0)
(-0.0362194 0.0143771 0)
(-0.0393272 0.0143496 0)
(-0.04241 0.0142251 0)
(-0.0454483 0.0140059 0)
(-0.0484227 0.0136937 0)
(-0.0513142 0.0132901 0)
(-0.0541039 0.012796 0)
(-0.0567732 0.0122127 0)
(-0.0593038 0.0115411 0)
(-0.0616779 0.0107827 0)
(-0.0638779 0.00993904 0)
(-0.0658868 0.00901242 0)
(-0.0676882 0.00800575 0)
(-0.0692666 0.0069228 0)
(-0.0706073 0.00576828 0)
(-0.0716969 0.00454797 0)
(-0.0725234 0.00326878 0)
(-0.073076 0.00193877 0)
(-0.0733462 0.00056724 0)
(-0.073327 -0.000835366 0)
(-0.0730138 -0.00225745 0)
(-0.0724042 -0.00368635 0)
(-0.0714986 -0.00510847 0)
(-0.0702998 -0.00650939 0)
(-0.0688135 -0.00787408 0)
(-0.0670484 -0.00918705 0)
(-0.065016 -0.0104326 0)
(-0.0627309 -0.0115952 0)
(-0.0602107 -0.0126596 0)
(-0.0574758 -0.0136109 0)
(-0.0545492 -0.0144357 0)
(-0.0514566 -0.0151212 0)
(-0.0482263 -0.0156566 0)
(-0.0448881 -0.0160326 0)
(-0.0414739 -0.0162421 0)
(-0.0380168 -0.0162805 0)
(-0.0345506 -0.0161454 0)
(-0.0311096 -0.0158374 0)
(-0.0277278 -0.0153599 0)
(-0.0244386 -0.0147194 0)
(-0.021274 -0.0139254 0)
(-0.018264 -0.0129905 0)
(-0.0154362 -0.0119304 0)
(-0.0128149 -0.0107643 0)
(-0.0104209 -0.00951434 0)
(-0.00827062 -0.00820586 0)
(-0.00637581 -0.00686763 0)
(-0.00474305 -0.00553181 0)
(-0.00337336 -0.00423419 0)
(-0.00226198 -0.00301446 0)
(-0.00139818 -0.00191664 0)
(-0.000764997 -0.0009896 0)
(-0.00033901 -0.000287512 0)
(-9.41853e-05 0.000129452 0)
(-6.94374e-06 0.00019046 0)
(-5.7337e-05 0.000494617 0)
(-0.000396625 0.0017874 0)
(-0.00114662 0.00326462 0)
(-0.00224412 0.0048356 0)
(-0.00365537 0.00643202 0)
(-0.00536105 0.00800057 0)
(-0.00733923 0.0095009 0)
(-0.00956633 0.0109038 0)
(-0.0120184 0.0121891 0)
(-0.0146713 0.013344 0)
(-0.0175005 0.014361 0)
(-0.0204818 0.015237 0)
(-0.0235909 0.015972 0)
(-0.026804 0.0165679 0)
(-0.0300976 0.017028 0)
(-0.0334488 0.017356 0)
(-0.0368351 0.017556 0)
(-0.0402344 0.017632 0)
(-0.0436251 0.0175875 0)
(-0.046986 0.0174255 0)
(-0.0502962 0.0171487 0)
(-0.0535352 0.016759 0)
(-0.0566826 0.0162582 0)
(-0.0597183 0.0156477 0)
(-0.0626226 0.0149288 0)
(-0.065376 0.0141029 0)
(-0.0679594 0.0131718 0)
(-0.070354 0.0121376 0)
(-0.0725419 0.0110032 0)
(-0.0745054 0.00977228 0)
(-0.0762282 0.00844945 0)
(-0.0776945 0.00704055 0)
(-0.0788901 0.00555265 0)
(-0.079802 0.00399414 0)
(-0.0804189 0.0023748 0)
(-0.0807313 0.000705829 0)
(-0.0807318 -0.0010002 0)
(-0.0804154 -0.00272938 0)
(-0.0797791 -0.00446654 0)
(-0.0788232 -0.0061954 0)
(-0.0775502 -0.00789873 0)
(-0.0759659 -0.00955857 0)
(-0.0740791 -0.0111564 0)
(-0.0719016 -0.0126735 0)
(-0.0694485 -0.0140913 0)
(-0.066738 -0.0153913 0)
(-0.0637913 -0.0165561 0)
(-0.0606327 -0.0175692 0)
(-0.0572892 -0.0184154 0)
(-0.0537903 -0.0190816 0)
(-0.0501678 -0.0195564 0)
(-0.0464555 -0.0198314 0)
(-0.0426886 -0.0199005 0)
(-0.0389032 -0.0197609 0)
(-0.0351362 -0.019413 0)
(-0.0314241 -0.0188606 0)
(-0.0278031 -0.0181112 0)
(-0.0243079 -0.0171758 0)
(-0.0209713 -0.0160694 0)
(-0.0178237 -0.0148106 0)
(-0.0148922 -0.0134219 0)
(-0.0122002 -0.0119295 0)
(-0.00976678 -0.0103633 0)
(-0.00760604 -0.00875706 0)
(-0.00572692 -0.00714841 0)
(-0.00413272 -0.00557882 0)
(-0.00282088 -0.00409387 0)
(-0.0017829 -0.00274357 0)
(-0.00100402 -0.00158266 0)
(-0.000463018 -0.000670903 0)
(-0.000138067 -7.34925e-05 0)
(-1.36019e-05 0.000134704 0)
(-6.7184e-05 0.000710466 0)
(-0.000458664 0.00240392 0)
(-0.00131706 0.00425383 0)
(-0.0025641 0.00617116 0)
(-0.00415655 0.00808825 0)
(-0.00606912 0.009952 0)
(-0.00827464 0.011722 0)
(-0.0107451 0.013369 0)
(-0.0134529 0.0148728 0)
(-0.016371 0.0162205 0)
(-0.0194725 0.0174049 0)
(-0.0227311 0.0184231 0)
(-0.0261209 0.0192755 0)
(-0.0296166 0.0199644 0)
(-0.0331934 0.0204937 0)
(-0.0368273 0.0208675 0)
(-0.0404945 0.0210906 0)
(-0.0441719 0.0211672 0)
(-0.047837 0.0211013 0)
(-0.0514673 0.0208963 0)
(-0.055041 0.0205551 0)
(-0.0585364 0.0200801 0)
(-0.0619321 0.0194732 0)
(-0.0652071 0.0187361 0)
(-0.0683405 0.0178705 0)
(-0.0713118 0.016878 0)
(-0.0741008 0.0157608 0)
(-0.0766878 0.0145216 0)
(-0.0790536 0.0131639 0)
(-0.08118 0.0116922 0)
(-0.0830492 0.010112 0)
(-0.084645 0.00843033 0)
(-0.0859519 0.00665559 0)
(-0.0869563 0.00479771 0)
(-0.0876459 0.00286825 0)
(-0.0880107 0.000880364 0)
(-0.0880425 -0.00115116 0)
(-0.0877354 -0.00321001 0)
(-0.0870863 -0.00527841 0)
(-0.0860946 -0.00733732 0)
(-0.0847628 -0.00936657 0)
(-0.0830962 -0.0113451 0)
(-0.0811036 -0.0132513 0)
(-0.0787968 -0.0150632 0)
(-0.0761911 -0.0167588 0)
(-0.0733051 -0.0183167 0)
(-0.0701607 -0.0197162 0)
(-0.0667828 -0.0209378 0)
(-0.0631997 -0.0219637 0)
(-0.059442 -0.022778 0)
(-0.0555433 -0.0233674 0)
(-0.0515389 -0.0237215 0)
(-0.0474663 -0.0238329 0)
(-0.0433639 -0.0236979 0)
(-0.0392709 -0.0233166 0)
(-0.0352267 -0.0226931 0)
(-0.0312701 -0.0218358 0)
(-0.0274388 -0.0207573 0)
(-0.0237687 -0.0194747 0)
(-0.0202931 -0.0180096 0)
(-0.0170422 -0.0163878 0)
(-0.0140424 -0.0146398 0)
(-0.0113155 -0.0128 0)
(-0.00887863 -0.0109074 0)
(-0.00674337 -0.00900504 0)
(-0.00491563 -0.00714014 0)
(-0.0033954 -0.00536427 0)
(-0.00217674 -0.00373336 0)
(-0.00124732 -0.00230794 0)
(-0.00058823 -0.00115312 0)
(-0.00018178 -0.000338757 0)
(-2.0032e-05 5.67685e-05 0)
(-7.66272e-05 0.000957405 0)
(-0.000518655 0.00310421 0)
(-0.00148257 0.00537066 0)
(-0.00287573 0.00767022 0)
(-0.00464577 0.00993695 0)
(-0.00676152 0.012119 0)
(-0.00919058 0.0141769 0)
(-0.0119004 0.0160821 0)
(-0.0148598 0.0178151 0)
(-0.0180385 0.0193636 0)
(-0.0214073 0.0207211 0)
(-0.0249377 0.0218854 0)
(-0.0286022 0.0228575 0)
(-0.0323741 0.0236405 0)
(-0.0362273 0.0242387 0)
(-0.0401365 0.024657 0)
(-0.0440772 0.0249007 0)
(-0.0480253 0.0249745 0)
(-0.0519571 0.0248829 0)
(-0.0558496 0.0246296 0)
(-0.0596797 0.0242178 0)
(-0.0634252 0.0236502 0)
(-0.0670635 0.022929 0)
(-0.0705729 0.0220561 0)
(-0.0739314 0.0210335 0)
(-0.0771177 0.0198632 0)
(-0.0801108 0.0185478 0)
(-0.0828898 0.0170906 0)
(-0.085435 0.0154955 0)
(-0.0877268 0.013768 0)
(-0.089747 0.0119146 0)
(-0.091478 0.00994334 0)
(-0.0929038 0.00786409 0)
(-0.0940096 0.00568833 0)
(-0.0947826 0.00342941 0)
(-0.0952116 0.00110251 0)
(-0.0952877 -0.00127535 0)
(-0.0950043 -0.00368539 0)
(-0.0943574 -0.00610717 0)
(-0.0933458 -0.00851878 0)
(-0.0919713 -0.010897 0)
(-0.0902389 -0.0132177 0)
(-0.0881568 -0.0154557 0)
(-0.0857366 -0.0175859 0)
(-0.0829936 -0.0195829 0)
(-0.0799465 -0.0214218 0)
(-0.0766174 -0.0230784 0)
(-0.073032 -0.0245303 0)
(-0.0692192 -0.0257563 0)
(-0.065211 -0.026738 0)
(-0.0610422 -0.0274596 0)
(-0.05675 -0.0279084 0)
(-0.0523737 -0.0280757 0)
(-0.047954 -0.0279565 0)
(-0.0435327 -0.0275504 0)
(-0.0391519 -0.0268615 0)
(-0.0348535 -0.0258991 0)
(-0.0306783 -0.0246772 0)
(-0.0266653 -0.0232151 0)
(-0.0228514 -0.0215371 0)
(-0.0192699 -0.0196726 0)
(-0.0159506 -0.0176562 0)
(-0.0129187 -0.015527 0)
(-0.0101945 -0.0133291 0)
(-0.00779248 -0.0111113 0)
(-0.00572171 -0.00892668 0)
(-0.00398499 -0.00683277 0)
(-0.00257917 -0.00489151 0)
(-0.00149453 -0.00316917 0)
(-0.000714489 -0.00173618 0)
(-0.000225324 -0.000666906 0)
(-2.62606e-05 -4.31298e-05 0)
(-8.56882e-05 0.00123435 0)
(-0.00057655 0.00388575 0)
(-0.00164278 0.00661167 0)
(-0.00317803 0.00932886 0)
(-0.00512121 0.0119739 0)
(-0.00743542 0.0144972 0)
(-0.0100831 0.0168609 0)
(-0.0130273 0.0190382 0)
(-0.016233 0.0210109 0)
(-0.0196669 0.022768 0)
(-0.0232972 0.0243041 0)
(-0.0270935 0.0256181 0)
(-0.0310264 0.0267119 0)
(-0.0350679 0.0275895 0)
(-0.0391907 0.0282561 0)
(-0.0433685 0.0287175 0)
(-0.0475758 0.0289793 0)
(-0.0517876 0.0290471 0)
(-0.0559796 0.0289255 0)
(-0.0601278 0.0286189 0)
(-0.0642087 0.0281308 0)
(-0.068199 0.027464 0)
(-0.0720756 0.026621 0)
(-0.0758159 0.0256041 0)
(-0.0793972 0.0244154 0)
(-0.0827974 0.0230574 0)
(-0.0859946 0.021533 0)
(-0.0889674 0.019846 0)
(-0.0916948 0.018001 0)
(-0.0941568 0.0160043 0)
(-0.096334 0.0138633 0)
(-0.098208 0.0115873 0)
(-0.099762 0.00918738 0)
(-0.10098 0.00667671 0)
(-0.101849 0.00407037 0)
(-0.102356 0.0013856 0)
(-0.102491 -0.00135833 0)
(-0.102247 -0.00414016 0)
(-0.101618 -0.00693674 0)
(-0.100604 -0.00972324 0)
(-0.099204 -0.0124733 0)
(-0.0974229 -0.0151595 0)
(-0.0952683 -0.0177535 0)
(-0.0927512 -0.0202262 0)
(-0.0898865 -0.0225489 0)
(-0.0866926 -0.0246929 0)
(-0.0831918 -0.0266307 0)
(-0.0794102 -0.028336 0)
(-0.0753772 -0.0297847 0)
(-0.0711257 -0.0309551 0)
(-0.0666919 -0.0318285 0)
(-0.0621145 -0.0323901 0)
(-0.0574348 -0.032629 0)
(-0.0526958 -0.032539 0)
(-0.047942 -0.0321188 0)
(-0.0432183 -0.0313724 0)
(-0.0385698 -0.0303095 0)
(-0.0340407 -0.0289455 0)
(-0.0296737 -0.0273016 0)
(-0.025509 -0.025405 0)
(-0.021584 -0.0232886 0)
(-0.017932 -0.020991 0)
(-0.0145819 -0.0185562 0)
(-0.0115577 -0.0160336 0)
(-0.00887734 -0.0134777 0)
(-0.00655318 -0.0109475 0)
(-0.0045912 -0.00850685 0)
(-0.00299126 -0.00622368 0)
(-0.00174637 -0.00417017 0)
(-0.000842242 -0.00242214 0)
(-0.000268921 -0.00105858 0)
(-3.23462e-05 -0.000164857 0)
(-9.43821e-05 0.00154019 0)
(-0.00063231 0.00474581 0)
(-0.00179739 0.00797306 0)
(-0.00347027 0.0111425 0)
(-0.00558146 0.0141942 0)
(-0.00808859 0.0170813 0)
(-0.0109491 0.0197687 0)
(-0.0141216 0.0222319 0)
(-0.0175674 0.0244546 0)
(-0.0212502 0.0264278 0)
(-0.0251356 0.0281477 0)
(-0.0291911 0.0296146 0)
(-0.0333858 0.030832 0)
(-0.0376901 0.0318048 0)
(-0.0420757 0.0325393 0)
(-0.0465153 0.0330422 0)
(-0.0509825 0.0333198 0)
(-0.0554517 0.0333784 0)
(-0.0598978 0.0332231 0)
(-0.0642962 0.0328587 0)
(-0.0686228 0.032289 0)
(-0.0728538 0.0315172 0)
(-0.0769653 0.0305459 0)
(-0.0809342 0.0293777 0)
(-0.0847372 0.0280151 0)
(-0.0883514 0.0264607 0)
(-0.0917543 0.0247179 0)
(-0.0949238 0.0227909 0)
(-0.0978381 0.0206851 0)
(-0.100476 0.0184073 0)
(-0.102818 0.015966 0)
(-0.104845 0.0133715 0)
(-0.106538 0.0106364 0)
(-0.107881 0.00777521 0)
(-0.108859 0.00480486 0)
(-0.109458 0.00174457 0)
(-0.109668 -0.00138414 0)
(-0.109481 -0.00455754 0)
(-0.108889 -0.00774975 0)
(-0.10789 -0.010933 0)
(-0.106483 -0.0140778 0)
(-0.104672 -0.0171532 0)
(-0.102463 -0.0201273 0)
(-0.0998658 -0.0229677 0)
(-0.0968955 -0.0256415 0)
(-0.0935697 -0.0281163 0)
(-0.0899105 -0.0303608 0)
(-0.085944 -0.0323449 0)
(-0.0817 -0.0340408 0)
(-0.0772123 -0.0354233 0)
(-0.0725179 -0.0364709 0)
(-0.0676573 -0.0371656 0)
(-0.0626737 -0.0374944 0)
(-0.0576123 -0.0374493 0)
(-0.0525204 -0.0370279 0)
(-0.0474461 -0.0362338 0)
(-0.0424376 -0.0350768 0)
(-0.037543 -0.0335735 0)
(-0.0328087 -0.0317469 0)
(-0.0282792 -0.0296269 0)
(-0.0239958 -0.0272497 0)
(-0.0199962 -0.0246582 0)
(-0.0163133 -0.0219013 0)
(-0.012975 -0.0190337 0)
(-0.0100033 -0.0161157 0)
(-0.00741423 -0.0132127 0)
(-0.00521719 -0.0103948 0)
(-0.00341529 -0.00773621 0)
(-0.00200434 -0.0053153 0)
(-0.000972367 -0.0032135 0)
(-0.000312941 -0.00151477 0)
(-3.83668e-05 -0.000308451 0)
(-0.000102717 0.00187383 0)
(-0.000685891 0.00568157 0)
(-0.00194618 0.00945068 0)
(-0.0037518 0.0131062 0)
(-0.00602532 0.0165921 0)
(-0.00871913 0.0198653 0)
(-0.0117859 0.0228939 0)
(-0.0151798 0.0256564 0)
(-0.0188587 0.0281394 0)
(-0.0227831 0.0303361 0)
(-0.0269164 0.032245 0)
(-0.031224 0.0338682 0)
(-0.0356731 0.0352108 0)
(-0.0402331 0.0362794 0)
(-0.0448744 0.0370813 0)
(-0.0495689 0.0376243 0)
(-0.0542894 0.0379157 0)
(-0.0590097 0.0379623 0)
(-0.0637042 0.0377701 0)
(-0.0683477 0.037344 0)
(-0.0729157 0.0366883 0)
(-0.0773837 0.0358065 0)
(-0.0817276 0.0347015 0)
(-0.0859237 0.033376 0)
(-0.0899481 0.0318327 0)
(-0.0937775 0.0300746 0)
(-0.0973887 0.0281054 0)
(-0.100759 0.0259298 0)
(-0.103866 0.0235537 0)
(-0.106687 0.0209846 0)
(-0.109203 0.0182318 0)
(-0.111393 0.0153069 0)
(-0.113237 0.0122235 0)
(-0.114718 0.00899765 0)
(-0.11582 0.00564801 0)
(-0.116529 0.00219574 0)
(-0.116832 -0.00133546 0)
(-0.11672 -0.0049194 0)
(-0.116183 -0.0085275 0)
(-0.115219 -0.012129 0)
(-0.113825 -0.0156913 0)
(-0.112003 -0.0191799 0)
(-0.109758 -0.0225593 0)
(-0.1071 -0.0257932 0)
(-0.104041 -0.0288448 0)
(-0.1006 -0.0316777 0)
(-0.096796 -0.0342563 0)
(-0.0926566 -0.0365465 0)
(-0.0882114 -0.0385164 0)
(-0.0834945 -0.0401372 0)
(-0.0785443 -0.0413835 0)
(-0.0734023 -0.0422344 0)
(-0.0681138 -0.0426741 0)
(-0.0627264 -0.0426923 0)
(-0.05729 -0.0422851 0)
(-0.0518561 -0.0414553 0)
(-0.0464766 -0.0402126 0)
(-0.0412034 -0.0385744 0)
(-0.0360874 -0.0365654 0)
(-0.0311773 -0.0342179 0)
(-0.0265192 -0.0315717 0)
(-0.0221552 -0.0286735 0)
(-0.0181231 -0.0255774 0)
(-0.0144551 -0.0223435 0)
(-0.0111776 -0.0190384 0)
(-0.00831058 -0.0157336 0)
(-0.00586735 -0.0125059 0)
(-0.00385442 -0.00943641 0)
(-0.00227056 -0.00660975 0)
(-0.00110605 -0.00411349 0)
(-0.000357857 -0.00203697 0)
(-4.44124e-05 -0.000474178 0)
(-0.000110692 0.00223414 0)
(-0.000737233 0.00669004 0)
(-0.00208887 0.0110401 0)
(-0.00402201 0.0152144 0)
(-0.00645169 0.0191614 0)
(-0.00932531 0.0228423 0)
(-0.0125909 0.0262293 0)
(-0.0161986 0.0293046 0)
(-0.0201027 0.0320579 0)
(-0.0242609 0.0344855 0)
(-0.0286341 0.0365884 0)
(-0.0331857 0.0383713 0)
(-0.0378816 0.039841 0)
(-0.0426895 0.041006 0)
(-0.0475791 0.0418751 0)
(-0.0525213 0.0424571 0)
(-0.0574884 0.0427606 0)
(-0.0624535 0.0427931 0)
(-0.0673907 0.0425611 0)
(-0.0722743 0.0420702 0)
(-0.0770794 0.0413249 0)
(-0.0817812 0.0403291 0)
(-0.0863554 0.0390859 0)
(-0.0907776 0.0375982 0)
(-0.0950238 0.0358689 0)
(-0.0990701 0.0339013 0)