/*--------------------------------*- C++ -*----------------------------------*\
  =========                 |
  \\      /  F ield         | OpenFOAM: The Open Source CFD Toolbox
   \\    /   O peration     | Website:  https://openfoam.org
    \\  /    A nd           | Version:  dev
     \\/     M anipulation  |
\*---------------------------------------------------------------------------*/
FoamFile
{
    format      ascii;
    class       volScalarField;
    location    "33.3";
    object      Ux;
}
// * * * * * * * * * * * * * * * * * * * * * * * * * * * * * * * * * * * * * //

dimensions      [0 1 -1 0 0 0 0];

internalField   nonuniform List<scalar> 
5184
(
1.23341e-05
4.51795e-05
8.0341e-05
9.60059e-05
8.21792e-05
3.64804e-05
-4.05396e-05
-0.00014686
-0.000279689
-0.000435971
-0.000612586
-0.000806498
-0.00101484
-0.00123495
-0.00146436
-0.00170083
-0.00194226
-0.00218676
-0.00243253
-0.00267789
-0.00292123
-0.00316101
-0.00339567
-0.00362371
-0.00384359
-0.00405377
-0.0042527
-0.00443881
-0.0046105
-0.00476622
-0.00490439
-0.00502349
-0.00512206
-0.00519873
-0.00525223
-0.00528144
-0.00528543
-0.00526347
-0.00521505
-0.00513995
-0.00503822
-0.00491025
-0.00475674
-0.00457875
-0.00437767
-0.00415526
-0.00391362
-0.00365517
-0.00338265
-0.00309905
-0.00280761
-0.00251177
-0.00221508
-0.00192121
-0.00163383
-0.00135659
-0.001093
-0.000846464
-0.000620109
-0.000416791
-0.000239008
-8.88383e-05
3.21303e-05
0.000122883
0.000183088
0.000213247
0.00021495
0.000191247
0.000147168
9.08063e-05
3.663e-05
6.22627e-06
2.08523e-05
6.56418e-05
9.47498e-05
7.28534e-05
-1.8886e-05
-0.000187282
-0.000432915
-0.000752568
-0.0011407
-0.00159052
-0.00209469
-0.00264576
-0.00323643
-0.00385969
-0.00450894
-0.00517799
-0.00586103
-0.00655262
-0.00724763
-0.00794116
-0.00862852
-0.00930516
-0.00996661
-0.0106084
-0.0112262
-0.0118156
-0.0123721
-0.0128913
-0.0133689
-0.0138006
-0.014182
-0.014509
-0.0147778
-0.0149848
-0.0151267
-0.0152006
-0.0152041
-0.0151355
-0.0149937
-0.0147783
-0.0144897
-0.0141291
-0.0136986
-0.0132012
-0.012641
-0.0120227
-0.0113522
-0.010636
-0.00988156
-0.00909694
-0.00829085
-0.00747247
-0.00665134
-0.00583719
-0.00503982
-0.00426888
-0.00353376
-0.00284338
-0.00220602
-0.00162916
-0.00111927
-0.000681666
-0.000320246
-3.72978e-05
0.000166811
0.000294003
0.000349028
0.000340157
0.000279887
0.00018607
8.6377e-05
1.96812e-05
1.76426e-05
4.13521e-05
1.9634e-05
-8.39626e-05
-0.000290222
-0.000607889
-0.00103823
-0.00157742
-0.00221831
-0.00295169
-0.00376731
-0.00465444
-0.00560237
-0.00660062
-0.00763915
-0.0087084
-0.00979927
-0.0109032
-0.0120119
-0.0131176
-0.0142127
-0.0152898
-0.0163417
-0.0173612
-0.0183413
-0.019275
-0.0201551
-0.0209748
-0.0217271
-0.0224053
-0.0230029
-0.0235134
-0.0239311
-0.0242504
-0.0244664
-0.0245749
-0.0245726
-0.0244568
-0.0242261
-0.0238802
-0.0234199
-0.0228474
-0.022166
-0.0213807
-0.0204977
-0.0195247
-0.0184704
-0.0173453
-0.0161606
-0.0149289
-0.0136633
-0.012378
-0.0110875
-0.00980656
-0.00855018
-0.00733302
-0.00616933
-0.00507265
-0.0040555
-0.00312918
-0.00230341
-0.00158609
-0.000982966
-0.000497257
-0.000129277
0.000124043
0.000269799
0.000319841
0.000291306
0.000207425
0.000102465
2.49795e-05
8.84458e-06
-6.99381e-06
-0.000107556
-0.00032234
-0.000669586
-0.0011577
-0.00178743
-0.00255401
-0.0034489
-0.00446106
-0.00557802
-0.00678656
-0.0080733
-0.00942495
-0.0108286
-0.0122719
-0.0137428
-0.0152301
-0.0167226
-0.01821
-0.0196819
-0.0211284
-0.0225398
-0.0239064
-0.0252186
-0.026467
-0.0276422
-0.028735
-0.0297362
-0.030637
-0.0314288
-0.0321034
-0.0326531
-0.033071
-0.0333508
-0.0334872
-0.0334761
-0.0333143
-0.0330004
-0.0325339
-0.0319163
-0.0311506
-0.0302415
-0.0291956
-0.0280211
-0.026728
-0.025328
-0.0238344
-0.0222622
-0.0206272
-0.0189469
-0.0172394
-0.0155234
-0.0138181
-0.0121427
-0.0105161
-0.00895679
-0.00748208
-0.00610816
-0.00484952
-0.00371865
-0.00272567
-0.0018779
-0.00117947
-0.00063086
-0.000228352
3.65261e-05
0.00017767
0.00021481
0.000174119
9.30413e-05
2.40304e-05
-2.12221e-06
-6.72827e-05
-0.000264097
-0.000609759
-0.00111677
-0.00179133
-0.00263246
-0.00363377
-0.00478515
-0.00607387
-0.0074856
-0.00900506
-0.0106167
-0.0123049
-0.0140544
-0.0158504
-0.0176785
-0.0195248
-0.0213761
-0.0232193
-0.0250419
-0.0268314
-0.028576
-0.0302635
-0.0318823
-0.0334207
-0.0348672
-0.0362105
-0.0374395
-0.0385434
-0.039512
-0.0403354
-0.0410044
-0.0415109
-0.0418475
-0.042008
-0.0419876
-0.0417829
-0.0413922
-0.0408154
-0.0400544
-0.0391129
-0.037997
-0.0367145
-0.0352755
-0.0336921
-0.0319783
-0.0301503
-0.0282256
-0.0262236
-0.0241648
-0.0220709
-0.0199643
-0.0178679
-0.0158045
-0.0137967
-0.0118665
-0.0100347
-0.00832047
-0.00674119
-0.00531181
-0.00404446
-0.002948
-0.00202758
-0.00128413
-0.000713903
-0.00030789
-5.13246e-05
7.66714e-05
0.00010361
6.75154e-05
1.96676e-05
-1.36942e-05
-0.000132832
-0.000435827
-0.00092465
-0.00160393
-0.00247624
-0.00353773
-0.0047797
-0.00619006
-0.00775429
-0.00945626
-0.0112789
-0.0132047
-0.0152162
-0.0172961
-0.0194274
-0.0215937
-0.0237791
-0.025968
-0.0281453
-0.0302964
-0.0324069
-0.0344624
-0.0364492
-0.0383533
-0.0401612
-0.0418595
-0.043435
-0.0448749
-0.0461669
-0.0472989
-0.0482598
-0.0490393
-0.0496278
-0.0500173
-0.0502008
-0.0501729
-0.0499299
-0.0494701
-0.0487936
-0.0479027
-0.0468019
-0.0454981
-0.0440005
-0.0423207
-0.0404725
-0.0384721
-0.0363377
-0.0340896
-0.0317497
-0.0293414
-0.0268896
-0.0244196
-0.0219575
-0.0195296
-0.0171615
-0.0148783
-0.0127039
-0.0106603
-0.00876744
-0.0070426
-0.00549989
-0.00414975
-0.00299856
-0.0020481
-0.00129508
-0.000730737
-0.000340333
-0.000102912
9.16533e-06
3.25031e-05
1.36223e-05
-2.51863e-05
-0.000200015
-0.000614091
-0.00125293
-0.00211207
-0.00318936
-0.00447723
-0.00596396
-0.00763506
-0.00947397
-0.0114627
-0.0135825
-0.015814
-0.0181381
-0.0205357
-0.0229881
-0.025477
-0.0279847
-0.0304937
-0.0329871
-0.0354483
-0.037861
-0.0402093
-0.0424772
-0.0446493
-0.0467102
-0.0486447
-0.0504381
-0.0520761
-0.0535446
-0.0548305
-0.0559214
-0.0568057
-0.0574731
-0.0579144
-0.0581222
-0.0580907
-0.0578158
-0.0572957
-0.0565307
-0.0555233
-0.0542789
-0.0528048
-0.0511116
-0.0492118
-0.0471209
-0.0448568
-0.0424397
-0.0398918
-0.0372375
-0.0345028
-0.0317149
-0.0289022
-0.0260935
-0.0233179
-0.020604
-0.0179799
-0.0154721
-0.0131053
-0.0109021
-0.00888181
-0.00706072
-0.00545103
-0.00406057
-0.00289235
-0.00194408
-0.0012078
-0.000669589
-0.00030922
-9.98571e-05
-7.71147e-06
6.8614e-06
-3.63409e-05
-0.000266947
-0.000793765
-0.00158567
-0.00262849
-0.00391468
-0.00543226
-0.00716596
-0.00909843
-0.0112108
-0.0134832
-0.0158949
-0.0184251
-0.021053
-0.0237578
-0.0265194
-0.0293179
-0.0321339
-0.0349483
-0.0377427
-0.0404988
-0.0431986
-0.0458245
-0.0483591
-0.0507852
-0.053086
-0.0552447
-0.0572453
-0.0590718
-0.0607091
-0.0621428
-0.0633593
-0.064346
-0.0650917
-0.0655867
-0.0658227
-0.0657934
-0.0654945
-0.0649241
-0.0640824
-0.0629723
-0.0615994
-0.0599718
-0.0581006
-0.0559996
-0.0536855
-0.0511774
-0.0484972
-0.045669
-0.0427191
-0.0396758
-0.0365686
-0.0334283
-0.0302864
-0.0271746
-0.0241244
-0.0211663
-0.0183297
-0.015642
-0.0131281
-0.0108098
-0.00870551
-0.00682944
-0.00519121
-0.0037954
-0.0026412
-0.001722
-0.00102525
-0.000532106
-0.000217217
-5.04607e-05
-8.40287e-08
-4.70619e-05
-0.000332644
-0.000971853
-0.00191724
-0.00314478
-0.00464113
-0.00638946
-0.00837049
-0.0105637
-0.0129477
-0.0155004
-0.0181993
-0.0210219
-0.0239458
-0.026949
-0.0300098
-0.0331068
-0.0362194
-0.0393272
-0.04241
-0.0454483
-0.0484227
-0.0513142
-0.0541039
-0.0567732
-0.0593038
-0.0616779
-0.0638779
-0.0658868
-0.0676882
-0.0692666
-0.0706073
-0.0716969
-0.0725234
-0.073076
-0.0733462
-0.073327
-0.0730138
-0.0724042
-0.0714986
-0.0702998
-0.0688135
-0.0670484
-0.065016
-0.0627309
-0.0602107
-0.0574758
-0.0545492
-0.0514566
-0.0482263
-0.0448881
-0.0414739
-0.0380168
-0.0345506
-0.0311096
-0.0277278
-0.0244386
-0.021274
-0.018264
-0.0154362
-0.0128149
-0.0104209
-0.00827062
-0.00637581
-0.00474305
-0.00337336
-0.00226198
-0.00139818
-0.000764997
-0.00033901
-9.41853e-05
-6.94374e-06
-5.7337e-05
-0.000396625
-0.00114662
-0.00224412
-0.00365537
-0.00536105
-0.00733923
-0.00956633
-0.0120184
-0.0146713
-0.0175005
-0.0204818
-0.0235909
-0.026804
-0.0300976
-0.0334488
-0.0368351
-0.0402344
-0.0436251
-0.046986
-0.0502962
-0.0535352
-0.0566826
-0.0597183
-0.0626226
-0.065376
-0.0679594
-0.070354
-0.0725419
-0.0745054
-0.0762282
-0.0776945
-0.0788901
-0.079802
-0.0804189
-0.0807313
-0.0807318
-0.0804154
-0.0797791
-0.0788232
-0.0775502
-0.0759659
-0.0740791
-0.0719016
-0.0694485
-0.066738
-0.0637913
-0.0606327
-0.0572892
-0.0537903
-0.0501678
-0.0464555
-0.0426886
-0.0389032
-0.0351362
-0.0314241
-0.0278031
-0.0243079
-0.0209713
-0.0178237
-0.0148922
-0.0122002
-0.00976678
-0.00760604
-0.00572692
-0.00413272
-0.00282088
-0.0017829
-0.00100402
-0.000463018
-0.000138067
-1.36019e-05
-6.7184e-05
-0.000458664
-0.00131706
-0.0025641
-0.00415655
-0.00606912
-0.00827464
-0.0107451
-0.0134529
-0.016371
-0.0194725
-0.0227311
-0.0261209
-0.0296166
-0.0331934
-0.0368273
-0.0404945
-0.0441719
-0.047837
-0.0514673
-0.055041
-0.0585364
-0.0619321
-0.0652071
-0.0683405
-0.0713118
-0.0741008
-0.0766878
-0.0790536
-0.08118
-0.0830492
-0.084645
-0.0859519
-0.0869563
-0.0876459
-0.0880107
-0.0880425
-0.0877354
-0.0870863
-0.0860946
-0.0847628
-0.0830962
-0.0811036
-0.0787968
-0.0761911
-0.0733051
-0.0701607
-0.0667828
-0.0631997
-0.059442
-0.0555433
-0.0515389
-0.0474663
-0.0433639
-0.0392709
-0.0352267
-0.0312701
-0.0274388
-0.0237687
-0.0202931
-0.0170422
-0.0140424
-0.0113155
-0.00887863
-0.00674337
-0.00491563
-0.0033954
-0.00217674
-0.00124732
-0.00058823
-0.00018178
-2.0032e-05
-7.66272e-05
-0.000518655
-0.00148257
-0.00287573
-0.00464577
-0.00676152
-0.00919058
-0.0119004
-0.0148598
-0.0180385
-0.0214073
-0.0249377
-0.0286022
-0.0323741
-0.0362273
-0.0401365
-0.0440772
-0.0480253
-0.0519571
-0.0558496
-0.0596797
-0.0634252
-0.0670635
-0.0705729
-0.0739314
-0.0771177
-0.0801108
-0.0828898
-0.085435
-0.0877268
-0.089747
-0.091478
-0.0929038
-0.0940096
-0.0947826
-0.0952116
-0.0952877
-0.0950043
-0.0943574
-0.0933458
-0.0919713
-0.0902389
-0.0881568
-0.0857366
-0.0829936
-0.0799465
-0.0766174
-0.073032
-0.0692192
-0.065211
-0.0610422
-0.05675
-0.0523737
-0.047954
-0.0435327
-0.0391519
-0.0348535
-0.0306783
-0.0266653
-0.0228514
-0.0192699
-0.0159506
-0.0129187
-0.0101945
-0.00779248
-0.00572171
-0.00398499
-0.00257917
-0.00149453
-0.000714489
-0.000225324
-2.62606e-05
-8.56882e-05
-0.00057655
-0.00164278
-0.00317803
-0.00512121
-0.00743542
-0.0100831
-0.0130273
-0.016233
-0.0196669
-0.0232972
-0.0270935
-0.0310264
-0.0350679
-0.0391907
-0.0433685
-0.0475758
-0.0517876
-0.0559796
-0.0601278
-0.0642087
-0.068199
-0.0720756
-0.0758159
-0.0793972
-0.0827974
-0.0859946
-0.0889674
-0.0916948
-0.0941568
-0.096334
-0.098208
-0.099762
-0.10098
-0.101849
-0.102356
-0.102491
-0.102247
-0.101618
-0.100604
-0.099204
-0.0974229
-0.0952683
-0.0927512
-0.0898865
-0.0866926
-0.0831918
-0.0794102
-0.0753772
-0.0711257
-0.0666919
-0.0621145
-0.0574348
-0.0526958
-0.047942
-0.0432183
-0.0385698
-0.0340407
-0.0296737
-0.025509
-0.021584
-0.017932
-0.0145819
-0.0115577
-0.00887734
-0.00655318
-0.0045912
-0.00299126
-0.00174637
-0.000842242
-0.000268921
-3.23462e-05
-9.43821e-05
-0.00063231
-0.00179739
-0.00347027
-0.00558146
-0.00808859
-0.0109491
-0.0141216
-0.0175674
-0.0212502
-0.0251356
-0.0291911
-0.0333858
-0.0376901
-0.0420757
-0.0465153
-0.0509825
-0.0554517
-0.0598978
-0.0642962
-0.0686228
-0.0728538
-0.0769653
-0.0809342
-0.0847372
-0.0883514
-0.0917543
-0.0949238
-0.0978381
-0.100476
-0.102818
-0.104845
-0.106538
-0.107881
-0.108859
-0.109458
-0.109668
-0.109481
-0.108889
-0.10789
-0.106483
-0.104672
-0.102463
-0.0998658
-0.0968955
-0.0935697
-0.0899105
-0.085944
-0.0817
-0.0772123
-0.0725179
-0.0676573
-0.0626737
-0.0576123
-0.0525204
-0.0474461
-0.0424376
-0.037543
-0.0328087
-0.0282792
-0.0239958
-0.0199962
-0.0163133
-0.012975
-0.0100033
-0.00741423
-0.00521719
-0.00341529
-0.00200434
-0.000972367
-0.000312941
-3.83668e-05
-0.000102717
-0.000685891
-0.00194618
-0.0037518
-0.00602532
-0.00871913
-0.0117859
-0.0151798
-0.0188587
-0.0227831
-0.0269164
-0.031224
-0.0356731
-0.0402331
-0.0448744
-0.0495689
-0.0542894
-0.0590097
-0.0637042
-0.0683477
-0.0729157
-0.0773837
-0.0817276
-0.0859237
-0.0899481
-0.0937775
-0.0973887
-0.100759
-0.103866
-0.106687
-0.109203
-0.111393
-0.113237
-0.114718
-0.11582
-0.116529
-0.116832
-0.11672
-0.116183
-0.115219
-0.113825
-0.112003
-0.109758
-0.1071
-0.104041
-0.1006
-0.096796
-0.0926566
-0.0882114
-0.0834945
-0.0785443
-0.0734023
-0.0681138
-0.0627264
-0.05729
-0.0518561
-0.0464766
-0.0412034
-0.0360874
-0.0311773
-0.0265192
-0.0221552
-0.0181231
-0.0144551
-0.0111776
-0.00831058
-0.00586735
-0.00385442
-0.00227056
-0.00110605
-0.000357857
-4.44124e-05
-0.000110692
-0.000737233
-0.00208887
-0.00402201
-0.00645169
-0.00932531
-0.0125909
-0.0161986
-0.0201027
-0.0242609
-0.0286341
-0.0331857
-0.0378816
-0.0426895
-0.0475791
-0.0525213
-0.0574884
-0.0624535
-0.0673907
-0.0722743
-0.0770794
-0.0817812
-0.0863554
-0.0907776
-0.0950238
-0.0990701
-0.102893
-0.106469
-0.109774
-0.112788
-0.115487
-0.117851
-0.11986
-0.121494
-0.122737
-0.123573
-0.123987
-0.123969
-0.123509
-0.1226
-0.12124
-0.119428
-0.117168
-0.114468
-0.11134
-0.107799
-0.103866
-0.0995668
-0.094931
-0.0899931
-0.0847922
-0.0793712
-0.073777
-0.0680598
-0.0622723
-0.0564695
-0.0507071
-0.0450414
-0.0395278
-0.0342201
-0.0291693
-0.0244228
-0.0200233
-0.0160082
-0.0124086
-0.00924908
-0.00654694
-0.00431247
-0.00254753
-0.00124467
-0.000404211
-5.05807e-05
-0.000118301
-0.000786252
-0.00222517
-0.00428028
-0.00685948
-0.00990544
-0.0133618
-0.0171749
-0.0212956
-0.0256788
-0.0302832
-0.0350702
-0.0400042
-0.0450519
-0.0501817
-0.0553641
-0.0605707
-0.0657741
-0.070948
-0.0760667
-0.0811047
-0.0860373
-0.0908396
-0.0954872
-0.0999557
-0.104221
-0.108259
-0.112045
-0.115557
-0.118771
-0.121664
-0.124214
-0.126401
-0.128204
-0.129604
-0.130585
-0.131131
-0.131228
-0.130865
-0.130034
-0.12873
-0.126951
-0.124698
-0.121978
-0.118799
-0.115178
-0.111133
-0.106688
-0.101874
-0.0967248
-0.0912796
-0.0855829
-0.0796831
-0.0736329
-0.0674881
-0.0613069
-0.0551495
-0.0490767
-0.0431489
-0.0374253
-0.0319625
-0.0268136
-0.0220271
-0.0176457
-0.013706
-0.0102374
-0.00726193
-0.00479375
-0.00283807
-0.00138979
-0.000452592
-5.69742e-05
-0.000125532
-0.000832844
-0.00235477
-0.00452594
-0.00724754
-0.0104578
-0.0140963
-0.0181056
-0.0224335
-0.0270323
-0.0318583
-0.0368713
-0.0420342
-0.0473126
-0.0526742
-0.0580886
-0.0635269
-0.0689617
-0.0743661
-0.0797143
-0.0849808
-0.0901406
-0.0951689
-0.100041
-0.104732
-0.109218
-0.113475
-0.117477
-0.121201
-0.124624
-0.127722
-0.130471
-0.13285
-0.134837
-0.136413
-0.137558
-0.138255
-0.138488
-0.138246
-0.137516
-0.136292
-0.134569
-0.132347
-0.129628
-0.126422
-0.122741
-0.118602
-0.11403
-0.109051
-0.103702
-0.0980205
-0.0920529
-0.0858491
-0.0794639
-0.0729561
-0.0663878
-0.0598234
-0.0533286
-0.0469695
-0.0408109
-0.0349157
-0.0293432
-0.0241481
-0.0193796
-0.0150799
-0.0112839
-0.0080187
-0.00530289
-0.00314521
-0.00154306
-0.000503621
-6.36978e-05
-0.000132367
-0.000876883
-0.00247728
-0.00475826
-0.00761469
-0.0109807
-0.014792
-0.0189876
-0.0235125
-0.0283165
-0.0333538
-0.0385826
-0.0439645
-0.0494639
-0.0550478
-0.0606854
-0.0663473
-0.0720057
-0.0776338
-0.0832055
-0.0886955
-0.0940786
-0.0993299
-0.104425
-0.109339
-0.114047
-0.118525
-0.122748
-0.126692
-0.130332
-0.133644
-0.136605
-0.13919
-0.141377
-0.143146
-0.144474
-0.145343
-0.145736
-0.145636
-0.145032
-0.143912
-0.142271
-0.140104
-0.137414
-0.134204
-0.130485
-0.126274
-0.121592
-0.116466
-0.11093
-0.105024
-0.0987926
-0.0922882
-0.0855677
-0.0786929
-0.0717297
-0.0647469
-0.0578157
-0.0510079
-0.0443947
-0.0380458
-0.0320272
-0.0264008
-0.0212224
-0.0165408
-0.0123972
-0.008824
-0.00584475
-0.0034721
-0.00170619
-0.00055794
-7.08584e-05
-0.000138783
-0.000918225
-0.00259232
-0.00497645
-0.00795966
-0.0114722
-0.0154463
-0.0198178
-0.0245288
-0.0295269
-0.0347644
-0.0401979
-0.0457878
-0.0514977
-0.0572938
-0.0631448
-0.0690212
-0.0748948
-0.0807388
-0.0865273
-0.0922348
-0.0978364
-0.103307
-0.108623
-0.113759
-0.11869
-0.123392
-0.12784
-0.132009
-0.135874
-0.13941
-0.142593
-0.145398
-0.147801
-0.149779
-0.15131
-0.152373
-0.152946
-0.153014
-0.15256
-0.151572
-0.150038
-0.147954
-0.145317
-0.14213
-0.1384
-0.13414
-0.129371
-0.124117
-0.118411
-0.112293
-0.105808
-0.099009
-0.0919554
-0.0847116
-0.0773473
-0.0699362
-0.0625549
-0.0552814
-0.0481939
-0.0413693
-0.0348813
-0.0287993
-0.0231867
-0.0180997
-0.0135862
-0.00968474
-0.00642434
-0.00382201
-0.00188095
-0.000616203
-7.85633e-05
-0.000144756
-0.000956712
-0.00269943
-0.0051797
-0.00828115
-0.0119306
-0.0160568
-0.0205929
-0.0254783
-0.0306586
-0.0360843
-0.0417106
-0.0474968
-0.0534057
-0.0594029
-0.0654568
-0.0715374
-0.0776168
-0.0836681
-0.0896655
-0.0955837
-0.101398
-0.107084
-0.112617
-0.117972
-0.123126
-0.128053
-0.132728
-0.137127
-0.141224
-0.144993
-0.148409
-0.151446
-0.154079
-0.156284
-0.158036
-0.159312
-0.16009
-0.160349
-0.160071
-0.15924
-0.157843
-0.15587
-0.153315
-0.150179
-0.146465
-0.142183
-0.137351
-0.131992
-0.126137
-0.119824
-0.113099
-0.106015
-0.0986331
-0.091021
-0.083252
-0.0754045
-0.0675608
-0.0598056
-0.0522244
-0.044902
-0.0379205
-0.0313576
-0.0252852
-0.0197674
-0.0148598
-0.0106079
-0.00704674
-0.00419824
-0.00206913
-0.000679074
-8.69209e-05
-0.000150257
-0.000992173
-0.00279816
-0.00536714
-0.00857782
-0.0123538
-0.016621
-0.0213096
-0.0263571
-0.0317068
-0.0373078
-0.0431142
-0.049084
-0.0551794
-0.0613656
-0.0676106
-0.0738844
-0.080159
-0.0864077
-0.0926049
-0.0987255
-0.104745
-0.11064
-0.116385
-0.121957
-0.127331
-0.132483
-0.137387
-0.142019
-0.146352
-0.15036
-0.154018
-0.157299
-0.160176
-0.162623
-0.164614
-0.166124
-0.167128
-0.167602
-0.167526
-0.16688
-0.165647
-0.163815
-0.161373
-0.158319
-0.154651
-0.150377
-0.145511
-0.140074
-0.134093
-0.127606
-0.120658
-0.113302
-0.105602
-0.0976254
-0.089451
-0.0811615
-0.0728452
-0.0645938
-0.0565004
-0.0486585
-0.041159
-0.0340892
-0.0275299
-0.0215546
-0.016227
-0.0116005
-0.00771705
-0.00460413
-0.00227254
-0.000747222
-9.60402e-05
-0.000155256
-0.00102443
-0.00288805
-0.00553791
-0.0088483
-0.01274
-0.0171362
-0.0219648
-0.027161
-0.0326667
-0.0384294
-0.044402
-0.0505418
-0.0568103
-0.0631723
-0.0695955
-0.07605
-0.082508
-0.0889428
-0.0953293
-0.101643
-0.107859
-0.113955
-0.119906
-0.125689
-0.13128
-0.136654
-0.141786
-0.146651
-0.151224
-0.155477
-0.159384
-0.162918
-0.16605
-0.168753
-0.171
-0.172762
-0.174012
-0.174726
-0.174877
-0.174443
-0.173405
-0.171744
-0.169448
-0.166507
-0.162919
-0.158687
-0.153818
-0.148333
-0.142255
-0.135619
-0.12847
-0.120861
-0.112854
-0.104523
-0.0959462
-0.0872127
-0.0784164
-0.0696562
-0.0610338
-0.0526513
-0.0446099
-0.0370066
-0.0299327
-0.0234715
-0.0176964
-0.0126695
-0.00844033
-0.00504301
-0.00249299
-0.000821319
-0.000106031
-0.000159724
-0.00105332
-0.00296862
-0.00569114
-0.00909127
-0.0130873
-0.0176
-0.0225552
-0.0278864
-0.0335336
-0.0394434
-0.0455675
-0.0518626
-0.0582896
-0.064813
-0.0714004
-0.078022
-0.08465
-0.0912582
-0.0978218
-0.104317
-0.110719
-0.117006
-0.123155
-0.129141
-0.134943
-0.140534
-0.145891
-0.150989
-0.155802
-0.160302
-0.164463
-0.168256
-0.171653
-0.174625
-0.177141
-0.179172
-0.180689
-0.181664
-0.182067
-0.181874
-0.181059
-0.179602
-0.177484
-0.174693
-0.17122
-0.167064
-0.16223
-0.15673
-0.150588
-0.143834
-0.136512
-0.128672
-0.120378
-0.111704
-0.102734
-0.093558
-0.0842781
-0.0749998
-0.0658335
-0.0568911
-0.0482843
-0.0401212
-0.0325043
-0.0255281
-0.0192765
-0.0138215
-0.00922159
-0.00551816
-0.00273228
-0.000902036
-0.000117004
-0.000163632
-0.00107866
-0.00303944
-0.00582603
-0.00930546
-0.0133939
-0.01801
-0.0230779
-0.0285292
-0.034303
-0.0403444
-0.0466045
-0.0530392
-0.0596089
-0.0662781
-0.0730143
-0.0797878
-0.086571
-0.0933383
-0.100065
-0.106728
-0.113304
-0.119771
-0.126106
-0.132286
-0.138289
-0.144091
-0.149668
-0.154994
-0.160044
-0.164791
-0.169208
-0.173265
-0.176933
-0.180181
-0.182979
-0.185295
-0.187096
-0.188353
-0.189032
-0.189105
-0.188544
-0.187322
-0.185418
-0.182813
-0.179493
-0.175453
-0.170691
-0.165217
-0.159048
-0.152212
-0.144748
-0.136707
-0.128151
-0.119154
-0.109802
-0.100192
-0.0904289
-0.0806269
-0.0709051
-0.0613857
-0.0521915
-0.0434428
-0.0352545
-0.0277333
-0.0209752
-0.0150631
-0.0100657
-0.00603285
-0.0029922
-0.000990047
-0.000129071
-0.000166951
-0.00110031
-0.0031001
-0.00594181
-0.00948971
-0.0136581
-0.0183641
-0.02353
-0.0290862
-0.0349706
-0.0411274
-0.0475068
-0.0540643
-0.0607601
-0.0675582
-0.0744264
-0.0813351
-0.0882572
-0.0951673
-0.102042
-0.108857
-0.115592
-0.122225
-0.128733
-0.135094
-0.141288
-0.14729
-0.153077
-0.158624
-0.163907
-0.168897
-0.173568
-0.177889
-0.181831
-0.185363
-0.188451
-0.191063
-0.193164
-0.194721
-0.195698
-0.196064
-0.195784
-0.19483
-0.193174
-0.190792
-0.187666
-0.183783
-0.179137
-0.173732
-0.167579
-0.160702
-0.153136
-0.144928
-0.13614
-0.126846
-0.117133
-0.107101
-0.0968615
-0.0865351
-0.07625
-0.0661395
-0.0563382
-0.0469795
-0.0381918
-0.0300955
-0.0227998
-0.0164004
-0.0109773
-0.00659023
-0.00327451
-0.00108602
-0.000142345
-0.000169659
-0.00111811
-0.00315022
-0.00603784
-0.00964298
-0.0138785
-0.0186602
-0.023909
-0.0295542
-0.0355326
-0.0417876
-0.0482689
-0.0549315
-0.0617353
-0.0686443
-0.0756263
-0.0826521
-0.0896948
-0.0967298
-0.103734
-0.110685
-0.117561
-0.124342
-0.131008
-0.137536
-0.143905
-0.150094
-0.156079
-0.161837
-0.167342
-0.172568
-0.177488
-0.182071
-0.186287
-0.190104
-0.193488
-0.196405
-0.198818
-0.20069
-0.201985
-0.202666
-0.202696
-0.202041
-0.200668
-0.198548
-0.195657
-0.191975
-0.187491
-0.182201
-0.176112
-0.169241
-0.161618
-0.153286
-0.144305
-0.134747
-0.124699
-0.114266
-0.103562
-0.0927159
-0.081865
-0.0711532
-0.0607282
-0.050737
-0.0413231
-0.0326218
-0.0247572
-0.0178392
-0.0119609
-0.0071934
-0.00358097
-0.00119063
-0.000156941
-0.000171734
-0.00113197
-0.00318953
-0.00611357
-0.00976446
-0.014054
-0.0188968
-0.0242129
-0.0299305
-0.0359856
-0.0423211
-0.0488859
-0.0556348
-0.0625275
-0.069528
-0.0766043
-0.0837273
-0.0908708
-0.0980107
-0.105124
-0.112191
-0.119189
-0.1261
-0.132903
-0.139579
-0.146107
-0.152466
-0.158634
-0.164587
-0.170302
-0.175753
-0.180912
-0.185749
-0.190235
-0.194336
-0.198017
-0.201243
-0.203976
-0.206177
-0.207806
-0.208823
-0.209187
-0.208861
-0.207805
-0.205985
-0.203372
-0.199937
-0.195664
-0.190542
-0.184568
-0.177755
-0.170127
-0.161721
-0.152592
-0.14281
-0.132463
-0.121656
-0.110509
-0.0991547
-0.0877411
-0.0764231
-0.0653615
-0.0547184
-0.0446532
-0.0353178
-0.0268531
-0.0193847
-0.0130208
-0.0078453
-0.00391326
-0.00130453
-0.000172976
-0.000173162
-0.0011418
-0.00321782
-0.00616865
-0.00985358
-0.0141837
-0.0190728
-0.0244401
-0.0302131
-0.0363271
-0.0427244
-0.0493537
-0.0561692
-0.0631306
-0.070202
-0.0773514
-0.0845504
-0.0917731
-0.098996
-0.106197
-0.113357
-0.120455
-0.127474
-0.134393
-0.141195
-0.14786
-0.154369
-0.1607
-0.166831
-0.172739
-0.178398
-0.183783
-0.188863
-0.193609
-0.197986
-0.201962
-0.205497
-0.208554
-0.211091
-0.213066
-0.214437
-0.215159
-0.215188
-0.214482
-0.213001
-0.210707
-0.207568
-0.203557
-0.198655
-0.192855
-0.186158
-0.178582
-0.170158
-0.160935
-0.15098
-0.140378
-0.129234
-0.117671
-0.105829
-0.0938634
-0.0819403
-0.0702344
-0.0589237
-0.0481848
-0.038188
-0.0290924
-0.0210416
-0.0141608
-0.00854875
-0.00427304
-0.00142839
-0.00019057
-0.000173934
-0.00114755
-0.003235
-0.00620289
-0.00991004
-0.0142671
-0.0191875
-0.0245897
-0.0304007
-0.0365554
-0.0429954
-0.0496691
-0.0565307
-0.0635395
-0.0706599
-0.0778602
-0.0851121
-0.0923905
-0.0996726
-0.106937
-0.114166
-0.121339
-0.12844
-0.135451
-0.142355
-0.149133
-0.155767
-0.162237
-0.168523
-0.174602
-0.180451
-0.186042
-0.191349
-0.19634
-0.200984
-0.205244
-0.209084
-0.212464
-0.215341
-0.217671
-0.219408
-0.220506
-0.220915
-0.22059
-0.219483
-0.217551
-0.214754
-0.211058
-0.206435
-0.200868
-0.194351
-0.186892
-0.178514
-0.16926
-0.159189
-0.148385
-0.13695
-0.12501
-0.112709
-0.10021
-0.0876901
-0.0753384
-0.0633493
-0.051918
-0.0412346
-0.0314786
-0.0228138
-0.0153843
-0.00930637
-0.00466188
-0.00156285
-0.000209845
-0.00017405
-0.00114925
-0.0032411
-0.00621637
-0.00993394
-0.0143044
-0.0192409
-0.0246616
-0.030493
-0.0366696
-0.0431327
-0.0498304
-0.0567165
-0.0637507
-0.0708971
-0.0781244
-0.0854049
-0.0927138
-0.100029
-0.107331
-0.114602
-0.121823
-0.128979
-0.136053
-0.14303
-0.149893
-0.156625
-0.163207
-0.169621
-0.175846
-0.181858
-0.187633
-0.193144
-0.198362
-0.203255
-0.207787
-0.211922
-0.215618
-0.218833
-0.22152
-0.223633
-0.22512
-0.225931
-0.226012
-0.225314
-0.223784
-0.221376
-0.218048
-0.213762
-0.208493
-0.202223
-0.194952
-0.186691
-0.177475
-0.167357
-0.156414
-0.144746
-0.132477
-0.119755
-0.106751
-0.0936516
-0.0806599
-0.0679877
-0.0558498
-0.0444579
-0.0340139
-0.0247042
-0.0166944
-0.0101205
-0.00508129
-0.00170855
-0.000230924
-0.000173519
-0.00114696
-0.00323629
-0.0062094
-0.00992577
-0.0142962
-0.0192337
-0.0246564
-0.0304906
-0.0366702
-0.0431364
-0.049837
-0.0567257
-0.063762
-0.0709104
-0.0781398
-0.0854228
-0.0927355
-0.100057
-0.107367
-0.11465
-0.121889
-0.12907
-0.136177
-0.143196
-0.150112
-0.15691
-0.163574
-0.170085
-0.176424
-0.182571
-0.188502
-0.194191
-0.199611
-0.20473
-0.209514
-0.213927
-0.217928
-0.221473
-0.224516
-0.227007
-0.228893
-0.23012
-0.230631
-0.23037
-0.229281
-0.227307
-0.224399
-0.220511
-0.215605
-0.209654
-0.202644
-0.194579
-0.18548
-0.175392
-0.164383
-0.152549
-0.140011
-0.126919
-0.113449
-0.0997965
-0.0861795
-0.0728267
-0.0599738
-0.0478557
-0.0366989
-0.0267147
-0.0180934
-0.0109933
-0.00553267
-0.0018661
-0.000253933
-0.000172361
-0.00114079
-0.00322094
-0.00618265
-0.00988648
-0.0142437
-0.0191676
-0.024576
-0.0303952
-0.036559
-0.0430081
-0.0496901
-0.0565587
-0.0635734
-0.0706987
-0.0779039
-0.0851622
-0.0924503
-0.0997477
-0.107037
-0.114301
-0.121525
-0.128697
-0.135803
-0.14283
-0.149765
-0.156594
-0.163303
-0.169876
-0.176295
-0.182543
-0.188596
-0.194432
-0.200023
-0.205341
-0.210353
-0.215022
-0.219309
-0.223171
-0.22656
-0.229426
-0.231714
-0.233367
-0.234326
-0.234528
-0.233912
-0.232415
-0.229978
-0.226546
-0.22207
-0.216511
-0.209844
-0.202058
-0.193162
-0.18319
-0.172199
-0.160277
-0.147542
-0.134142
-0.120256
-0.106089
-0.0918713
-0.077849
-0.0642797
-0.051423
-0.0395322
-0.0288463
-0.0195831
-0.0119266
-0.0060173
-0.0020361
-0.000279002
-0.000170606
-0.00113096
-0.00319558
-0.00613709
-0.00981757
-0.014149
-0.0190448
-0.0244232
-0.0302101
-0.0363391
-0.0427509
-0.0493927
-0.0562181
-0.0631867
-0.0702632
-0.077417
-0.0846221
-0.0918556
-0.0990981
-0.106333
-0.113544
-0.12072
-0.127848
-0.134916
-0.141913
-0.148828
-0.15565
-0.162366
-0.168962
-0.175423
-0.181732
-0.18787
-0.193816
-0.199544
-0.205028
-0.210235
-0.215133
-0.219682
-0.22384
-0.22756
-0.23079
-0.233477
-0.23556
-0.236977
-0.237663
-0.237549
-0.236566
-0.234648
-0.231729
-0.22775
-0.222658
-0.216415
-0.208996
-0.200396
-0.190634
-0.179755
-0.167836
-0.154988
-0.141355
-0.127117
-0.112485
-0.0977025
-0.0830318
-0.0687529
-0.0551515
-0.0425101
-0.0310983
-0.0211645
-0.0129217
-0.0065363
-0.00221912
-0.00030626
-0.000168297
-0.00111773
-0.00316097
-0.00607412
-0.00972114
-0.0140148
-0.018869
-0.024202
-0.0299398
-0.0360157
-0.04237
-0.0489498
-0.0557088
-0.0626063
-0.0696074
-0.0766818
-0.0838038
-0.0909516
-0.0981066
-0.105253
-0.112377
-0.119467
-0.126512
-0.133503
-0.140431
-0.147285
-0.154058
-0.160738
-0.167315
-0.173774
-0.180103
-0.186284
-0.192297
-0.198122
-0.203733
-0.2091
-0.214192
-0.218973
-0.2234
-0.227428
-0.231007
-0.234082
-0.236592
-0.238471
-0.239653
-0.240063
-0.239628
-0.238271
-0.235919
-0.2325
-0.22795
-0.222215
-0.215254
-0.207048
-0.197598
-0.186934
-0.17512
-0.162255
-0.148477
-0.133964
-0.118932
-0.103633
-0.088346
-0.0733739
-0.0590297
-0.0456268
-0.0334685
-0.0228375
-0.0139795
-0.00709063
-0.00241567
-0.000335836
-0.000165494
-0.00110148
-0.00311809
-0.00599554
-0.00959994
-0.0138449
-0.0186449
-0.0239182
-0.0295906
-0.0355954
-0.0418725
-0.0483689
-0.055038
-0.0618392
-0.0687377
-0.0757038
-0.0827122
-0.0897419
-0.0967752
-0.103797
-0.110796
-0.117762
-0.124685
-0.131557
-0.138372
-0.145123
-0.151802
-0.158401
-0.164912
-0.171324
-0.177626
-0.183803
-0.189839
-0.195715
-0.201409
-0.206894
-0.212142
-0.217116
-0.22178
-0.226088
-0.229991
-0.233436
-0.236361
-0.2387
-0.240383
-0.241333
-0.24147
-0.240711
-0.238974
-0.236175
-0.232239
-0.227095
-0.220687
-0.212976
-0.203946
-0.193609
-0.182012
-0.169239
-0.155418
-0.140722
-0.125368
-0.109614
-0.093756
-0.0781182
-0.0630418
-0.0488735
-0.0359531
-0.0246011
-0.0151005
-0.00768102
-0.00262624
-0.000367863
-0.00016227
-0.00108266
-0.0030682
-0.00590366
-0.00945745
-0.0136441
-0.0183783
-0.0235786
-0.0291706
-0.0350871
-0.0412679
-0.0476596
-0.0542154
-0.060895
-0.0676635
-0.0744918
-0.0813551
-0.0882332
-0.0951095
-0.101971
-0.108806
-0.115606
-0.122365
-0.129075
-0.135734
-0.142334
-0.148872
-0.155343
-0.161739
-0.168054
-0.174279
-0.180403
-0.186412
-0.19229
-0.198019
-0.203575
-0.208932
-0.214059
-0.218919
-0.223471
-0.227668
-0.231457
-0.234778
-0.237565
-0.239746
-0.241242
-0.241969
-0.241838
-0.240757
-0.238634
-0.235379
-0.230907
-0.225145
-0.218033
-0.209536
-0.199644
-0.188385
-0.175825
-0.162076
-0.147303
-0.13172
-0.115589
-0.0992192
-0.0829556
-0.067168
-0.0522384
-0.038546
-0.0264533
-0.0162845
-0.00830798
-0.00285124
-0.000402469
-0.000158717
-0.00106184
-0.00301284
-0.00580131
-0.00929798
-0.0134181
-0.0180767
-0.0231922
-0.0286898
-0.0345019
-0.040568
-0.0468343
-0.053254
-0.0597864
-0.0663973
-0.0730577
-0.0797438
-0.086436
-0.0931191
-0.0997808
-0.106412
-0.113005
-0.119556
-0.12606
-0.132514
-0.138917
-0.145265
-0.151556
-0.157787
-0.163953
-0.170049
-0.176066
-0.181995
-0.187823
-0.193535
-0.19911
-0.204527
-0.209758
-0.214769
-0.219523
-0.223976