/*--------------------------------*- C++ -*----------------------------------*\
  =========                 |
  \\      /  F ield         | OpenFOAM: The Open Source CFD Toolbox
   \\    /   O peration     | Website:  https://openfoam.org
    \\  /    A nd           | Version:  dev
     \\/     M anipulation  |
\*---------------------------------------------------------------------------*/
FoamFile
{
    format      ascii;
    class       volScalarField;
    location    "14.4";
    object      p;
}
// * * * * * * * * * * * * * * * * * * * * * * * * * * * * * * * * * * * * * //

dimensions      [0 2 -2 0 0 0 0];

internalField   nonuniform List<scalar> 
5184
(
-1.41216e-08
-1.26513e-05
-9.85883e-05
-0.00025116
-0.000450062
-0.000678095
-0.000921003
-0.00116692
-0.00140669
-0.00163319
-0.00184102
-0.00202618
-0.00218572
-0.00231757
-0.00242024
-0.00249275
-0.00253441
-0.0025448
-0.00252364
-0.00247077
-0.00238609
-0.00226961
-0.00212137
-0.00194152
-0.0017303
-0.00148808
-0.00121542
-0.000913072
-0.000582035
-0.000223578
0.000160714
0.000568918
0.000998747
0.00144753
0.00191222
0.00238937
0.00287518
0.00336549
0.00385584
0.0043415
0.00481753
0.00527888
0.00572043
0.00613711
0.00652397
0.00687632
0.0071898
0.0074605
0.00768504
0.00786069
0.00798545
0.00805812
0.00807833
0.00804666
0.00796459
0.00783456
0.00765995
0.00744506
0.00719509
0.00691607
0.00661484
0.006299
0.00597685
0.00565731
0.00534993
0.00506476
0.00481229
0.00460311
0.0044472
0.00435299
0.00432598
0.0043531
1.26396e-05
-3.76845e-08
-7.45415e-05
-0.000202001
-0.00036683
-0.000556544
-0.000760239
-0.00096835
-0.00117296
-0.00136771
-0.00154755
-0.0017086
-0.00184789
-0.0019632
-0.00205289
-0.00211577
-0.00215098
-0.00215793
-0.00213618
-0.00208546
-0.0020056
-0.0018965
-0.00175817
-0.00159074
-0.00139443
-0.00116961
-0.000916808
-0.000636767
-0.000330444
9.36738e-07
0.000355868
0.000732537
0.0011288
0.00154217
0.00196981
0.00240854
0.00285487
0.00330497
0.00375477
0.00419994
0.00463601
0.00505837
0.0054624
0.00584352
0.00619728
0.00651947
0.0068062
0.00705399
0.00725986
0.00742143
0.00753698
0.00760552
0.00762684
0.00760158
0.00753119
0.00741799
0.00726517
0.0070767
0.00685739
0.00661276
0.00634905
0.00607311
0.00579237
0.00551475
0.00524853
0.00500227
0.00478461
0.00460392
0.0044675
0.00438129
0.00435268
0.00438012
9.91018e-05
7.43213e-05
-8.95131e-07
-0.000118146
-0.000265446
-0.000433175
-0.00061264
-0.000796019
-0.000976638
-0.00114895
-0.00130846
-0.00145159
-0.00157554
-0.00167814
-0.00175776
-0.00181316
-0.00184341
-0.00184783
-0.00182591
-0.00177732
-0.0017018
-0.00159922
-0.00146955
-0.00131284
-0.0011293
-0.000919248
-0.000683194
-0.000421812
-0.000136004
0.000173084
0.000504038
0.000855158
0.00122443
0.00160955
0.00200785
0.00241639
0.00283189
0.00325082
0.00366937
0.00408353
0.00448915
0.00488197
0.00525769
0.0056121
0.00594108
0.00624075
0.00650753
0.00673824
0.00693017
0.00708114
0.00718963
0.00725479
0.0072765
0.0072554
0.00719293
0.00709133
0.00695358
0.00678344
0.0065854
0.00636458
0.00612675
0.00587819
0.00562564
0.0053762
0.00513723
0.00491618
0.00472049
0.00455723
0.00443242
0.00435128
0.00432345
0.00435389
0.000253871
0.000202442
0.000114782
-3.8705e-06
-0.000145898
-0.000303536
-0.000469677
-0.000637968
-0.000802877
-0.000959736
-0.00110468
-0.00123458
-0.00134694
-0.0014398
-0.00151164
-0.00156127
-0.00158781
-0.00159056
-0.00156899
-0.00152273
-0.00145148
-0.00135506
-0.0012334
-0.0010865
-0.000914509
-0.000717689
-0.000496477
-0.000251481
1.64851e-05
0.000306371
0.000616873
0.000946414
0.00129313
0.00165484
0.00202908
0.00241307
0.00280376
0.0031978
0.00359162
0.00398145
0.00436336
0.00473333
0.00508732
0.00542133
0.00573148
0.00601411
0.00626584
0.00648367
0.00666504
0.00680793
0.0069109
0.00697319
0.00699471
0.00697611
0.00691879
0.00682487
0.00669723
0.00653943
0.00635569
0.00615086
0.00593029
0.00569981
0.00546564
0.00523423
0.00501222
0.00480629
0.00462302
0.0044687
0.00434875
0.0042682
0.00423711
0.00426214
0.000458145
0.000369608
0.000261214
0.000133843
-1.00858e-05
-0.000164421
-0.000323413
-0.000482069
-0.000635987
-0.000781384
-0.000915086
-0.00103449
-0.00113748
-0.00122238
-0.00128787
-0.00133289
-0.00135662
-0.00135842
-0.00133777
-0.00129427
-0.00122761
-0.00113757
-0.00102401
-0.000886894
-0.000726289
-0.000542389
-0.000335538
-0.000106253
0.000144752
0.000416543
0.000707941
0.00101751
0.00134352
0.00168395
0.00203651
0.0023986
0.00276732
0.00313954
0.00351186
0.0038807
0.00424233
0.00459292
0.0049286
0.00524555
0.00554005
0.00580859
0.00604791
0.00625515
0.00642783
0.00656402
0.00666235
0.00672207
0.0067431
0.00672609
0.00667236
0.00658396
0.00646364
0.00631478
0.00614141
0.00594809
0.00573984
0.00552212
0.00530065
0.00508137
0.00487033
0.00467353
0.00449688
0.004346
0.00422584
0.00414115
0.00410072
0.00411033
0.000695802
0.000563961
0.000429073
0.000287415
0.000135952
-2.05573e-05
-0.000177525
-0.000331212
-0.000478293
-0.00061585
-0.000741418
-0.000852953
-0.00094879
-0.00102758
-0.00108824
-0.0011299
-0.00115185
-0.00115353
-0.00113447
-0.00109426
-0.00103258
-0.00094917
-0.000843849
-0.000716506
-0.000567134
-0.000395835
-0.000202853
1.14056e-05
0.000246347
0.000501165
0.000774817
0.001066
0.00137316
0.00169442
0.00202765
0.00237039
0.00271994
0.0030733
0.00342726
0.00377837
0.00412305
0.0044576
0.0047783
0.00508142
0.00536336
0.00562068
0.00585022
0.00604915
0.00621504
0.006346
0.00644065
0.00649825
0.0065187
0.00650258
0.00645118
0.00636644
0.006251
0.00610809
0.00594156
0.00575572
0.00555535
0.00534554
0.00513166
0.00491919
0.00471369
0.00452061
0.0043453
0.00419278
0.00406763
0.00397422
0.00391901
0.00390575
0.000953065
0.000774643
0.000609485
0.00044939
0.000285983
0.000122861
-3.63665e-05
-0.000189102
-0.00033302
-0.000466036
-0.000586386
-0.000692594
-0.000783466
-0.000858011
-0.000915435
-0.000955077
-0.000976383
-0.000978882
-0.000962157
-0.00092584
-0.000869597
-0.000793136
-0.000696217
-0.00057866
-0.00044037
-0.000281349
-0.000101728
9.8211e-05
0.000318008
0.000556995
0.000814278
0.00108871
0.00137887
0.00168307
0.00199929
0.00232527
0.00265841
0.00299588
0.00333457
0.00367118
0.00400221
0.00432406
0.00463309
0.00492562
0.0051981
0.00544713
0.00566954
0.00586252
0.00602364
0.00615095
0.00624306
0.00629919
0.00631917
0.00630353
0.00625346
0.00617083
0.00605815
0.00591853
0.00575566
0.00557367
0.00537711
0.0051708
0.0049598
0.00474924
0.00454427
0.00434994
0.00417108
0.00401226
0.00387771
0.00377145
0.00369715
0.00365601
0.00121788
0.000991548
0.000793874
0.000612499
0.000433955
0.000260877
9.6041e-05
-5.898e-05
-0.00020278
-0.000334067
-0.00045175
-0.000554924
-0.000642857
-0.000714946
-0.000770696
-0.000809673
-0.000831495
-0.000835808
-0.000822266
-0.000790529
-0.000740262
-0.000671146
-0.000582884
-0.000475217
-0.000347953
-0.000200985
-3.43188e-05
0.000151898
0.00035735
0.000581522
0.000823673
0.00108281
0.00135768
0.00164673
0.00194811
0.00225967
0.00257897
0.00290328
0.0032296
0.00355471
0.00387518
0.00418747
0.00448795
0.00477298
0.00503899
0.00528255
0.00550047
0.00568987
0.00584825
0.00597362
0.0060645
0.00612001
0.00613991
0.00612463
0.00607526
0.00599359
0.005882
0.00574351
0.00558165
0.00540041
0.00520416
0.00499751
0.00478528
0.00457234
0.00436352
0.00416353
0.00397683
0.00380759
0.00365981
0.0035372
0.00344049
0.00336825
0.00148001
0.00120556
0.000974211
0.000769729
0.000573835
0.000388354
0.000215365
5.55091e-05
-9.06538e-05
-0.000222572
-0.000339791
-0.000441965
-0.000528818
-0.000600133
-0.000655716
-0.000695371
-0.0007189
-0.000726069
-0.00071661
-0.000690216
-0.000646553
-0.000585271
-0.000506013
-0.000408439
-0.000292248
-0.000157216
-3.21406e-06
0.000169757
0.000361535
0.000571765
0.000799869
0.00104502
0.00130612
0.00158176
0.00187025
0.00216957
0.00247738
0.00279106
0.0031077
0.00342412
0.00373695
0.00404266
0.0043376
0.0046181
0.00488054
0.00512143
0.00533748
0.00552571
0.00568353
0.00580879
0.00589992
0.00595592
0.00597641
0.00596171
0.0059128
0.00583135
0.00571964
0.00558058
0.00541758
0.00523451
0.0050356
0.00482532
0.00460831
0.00438924
0.00417272
0.00396321
0.0037649
0.00358165
0.00341732
0.00327543
0.00315381
0.00304849
0.00173051
0.00140845
0.00114302
0.000914374
0.000699672
0.000500062
0.000317022
0.00015035
-1.78845e-07
-0.000134692
-0.000253345
-0.000356317
-0.000443783
-0.000515897
-0.000572761
-0.000614423
-0.000640861
-0.000651965
-0.000647544
-0.000627327
-0.000590978
-0.000538108
-0.000468297
-0.000381116
-0.000276154
-0.000153055
-1.15447e-05
0.00014853
0.00032717
0.00052419
0.000739183
0.000971491
0.00122017
0.00148398
0.00176136
0.00205041
0.00234892
0.00265434
0.00296382
0.00327423
0.0035822
0.00388418
0.00417649
0.00445539
0.00471716
0.00495819
0.00517507
0.00536465
0.0055242
0.00565141
0.00574452
0.00580237
0.00582445
0.00581091
0.00576259
0.00568104
0.00556843
0.00542756
0.00526173
0.00507472
0.00487067
0.00465395
0.00442909
0.00420061
0.00397301
0.00375057
0.00353731
0.0033369
0.00315316
0.00298955
0.0028411
0.00270148
0.00196147
0.00159274
0.00129337
0.00104006
0.000805668
0.000590769
0.000396306
0.000221308
6.48292e-05
-7.38997e-05
-0.000195605
-0.00030096
-0.000390574
-0.000464949
-0.000524484
-0.000569457
-0.000600012
-0.00061616
-0.000617783
-0.000604644
-0.000576396
-0.00053261
-0.000472793
-0.000396416
-0.000302952
-0.000191905
-6.28485e-05
8.45372e-05
0.000250428
0.000434817
0.000637472
0.000857909
0.00109535
0.00134872
0.00161659
0.00189719
0.00218841
0.00248777
0.00279247
0.0030994
0.00340518
0.00370622
0.00399877
0.00427897
0.00454299
0.00478703
0.00500753
0.00520114
0.00536491
0.00549633
0.00559343
0.00565484
0.00567983
0.0056684
0.00562122
0.00553967
0.00542581
0.00528232
0.00511244
0.00491985
0.00470863
0.0044831
0.00424773
0.004007
0.00376532
0.00352695
0.00329579
0.00307543
0.00286978
0.00268234
0.00250554
0.00233082
0.00216579
0.00175159
0.00141874
0.0011407
0.000886202
0.000655295
0.000448463
0.00026402
0.000100351
-4.39201e-05
-0.000170049
-0.000279184
-0.00037233
-0.000450331
-0.000513863
-0.000563419
-0.000599301
-0.000621633
-0.000630359
-0.000625265
-0.000605989
-0.000572052
-0.000522881
-0.000457841
-0.000376275
-0.000277538
-0.000161044
-2.62931e-05
0.000127074
0.000299234
0.000490144
0.000699501
0.000926707
0.00117084
0.00143061
0.00170439
0.00199015
0.00228549
0.00258764
0.00289351
0.00319969
0.00350252
0.00379813
0.00408256
0.00435177
0.00460181
0.00482887
0.00502936
0.00520008
0.00533826
0.00544166
0.00550866
0.0055383
0.00553033
0.00548523
0.00540423
0.00528922
0.00514278
0.00496805
0.00476867
0.00454868
0.00431239
0.00406427
0.00380881
0.00355045
0.00329345
0.00304176
0.00279895
0.00256915
0.00235602
0.00214953
0.00193904
0.00233693
0.00187863
0.00151306
0.00121052
0.000935821
0.00068854
0.000468732
0.000274043
0.000102223
-4.86645e-05
-0.000180382
-0.000294521
-0.000392459
-0.000475362
-0.000544163
-0.000599549
-0.000641972
-0.000671653
-0.000688591
-0.000692582
-0.000683237
-0.000660017
-0.000622261
-0.000569219
-0.000500094
-0.000414081
-0.000310419
-0.000188423
-4.75415e-05
0.000112602
0.000292163
0.000491031
0.000708789
0.000944682
0.00119758
0.00146598
0.00174793
0.00204113
0.00234284
0.00264995
0.00295902
0.0032663
0.00356781
0.00385941
0.00413687
0.004396
0.00463272
0.00484318
0.00502384
0.00517163
0.005284
0.00535901
0.00539542
0.00539271
0.00535111
0.00527165
0.00515606
0.00500678
0.00482687
0.00461993
0.00438999
0.00414139
0.00387864
0.00360632
0.00332896
0.00305096
0.00277633
0.0025088
0.00225278
0.00201222
0.00177476
0.00152778
0.00246886
0.00196795
0.00157056
0.00124399
0.00094926
0.00068551
0.000452385
0.0002469
6.62006e-05
-9.21786e-05
-0.000230477
-0.000350699
-0.000454584
-0.000543591
-0.000618883
-0.00068133
-0.000731518
-0.000769751
-0.000796065
-0.000810252
-0.00081189
-0.00080037
-0.000774928
-0.000734686
-0.0006787
-0.000605995
-0.000515621
-0.000406696
-0.000278463
-0.000130336
3.8052e-05
0.000226796
0.000435673
0.000664106
0.000911132
0.00117537
0.00145499
0.00174776
0.00205096
0.0023615
0.00267587
0.00299023
0.00330047
0.00360224
0.0038911
0.00416257
0.00441228
0.00463602
0.00482992
0.00499053
0.00511492
0.00520079
0.00524655
0.00525136
0.00521516
0.00513873
0.00502361
0.00487208
0.00468712
0.00447229
0.00423164
0.00396955
0.00369066
0.00339967
0.0031013
0.00280012
0.00250038
0.00220598
0.00192177
0.00165209
0.00138234
0.00109795
0.00255587
0.00201394
0.00158579
0.00123583
0.000921438
0.00064133
0.000394754
0.000178118
-1.20056e-05
-0.000178586
-0.000324319
-0.000451597
-0.000562496
-0.000658743
-0.000741714
-0.000812449
-0.000871643
-0.000919668
-0.000956582
-0.000982165
-0.000995944
-0.000997226
-0.000985136
-0.000958657
-0.000916682
-0.000858056
-0.000781627
-0.000686305
-0.000571114
-0.000435239
-0.000278092
-9.93568e-05
0.000100954
0.000322459
0.000564368
0.000825447
0.001104
0.00139784
0.00170434
0.00202036
0.00234235
0.00266639
0.00298817
0.00330318
0.00360669
0.00389392
0.00416015
0.0044008
0.00461156
0.00478857
0.00492847
0.00502852
0.00508671
0.00510181
0.00507344
0.00500206
0.00488898
0.00473631
0.00454692
0.00432434
0.00407262
0.00379627
0.00350006
0.0031889
0.00286774
0.00254144
0.00221453
0.00189123
0.00157689
0.00127636
0.000972844
0.000649866
0.00259259
0.0020113
0.00155357
0.001181
0.000847458
0.000551258
0.000291256
6.32694e-05
-0.000136678
-0.000312048
-0.000465961
-0.000601182
-0.000720095
-0.000824674
-0.000916499
-0.000996751
-0.00106622
-0.00112532
-0.00117414
-0.00121241
-0.0012396
-0.00125492
-0.00125737
-0.00124579
-0.00121889
-0.00117532
-0.00111372
-0.00103278
-0.000931271
-0.000808151
-0.000662583
-0.000494017
-0.000302236
-8.74069e-05
0.000149875
0.000408543
0.000687033
0.000983266
0.00129465
0.00161806
0.00194991
0.00228614
0.00262231
0.00295366
0.00327519
0.00358179
0.00386833
0.00412979
0.00436142
0.00455884
0.00471819
0.00483624
0.00491048
0.00493923
0.00492168
0.00485795
0.00474905
0.0045969
0.00440422
0.0041745
0.00391184
0.00362085
0.00330648
0.00297393
0.00262845
0.00227525
0.00191924
0.00156505
0.00121864
0.000885446
0.000546493
0.000183381
0.00257388
0.001955
0.00146896
0.00107466
0.000722613
0.000410709
0.000137424
-0.000101996
-0.000312066
-0.000496716
-0.000659475
-0.000803461
-0.000931341
-0.00104533
-0.00114717
-0.00123818
-0.00131923
-0.00139077
-0.00145286
-0.00150521
-0.00154721
-0.00157796
-0.00159631
-0.00160095
-0.0015904
-0.0015631
-0.00151746
-0.00145193
-0.00136503
-0.00125545
-0.00112211
-0.000964186
-0.000781209
-0.000573111
-0.00034027
-8.356e-05
0.000195613
0.000495291
0.000812948
0.00114549
0.00148928
0.00184016
0.00219353
0.00254438
0.00288743
0.00321717
0.00352805
0.00381458
0.00407146
0.00429375
0.00447702
0.00461744
0.00471194
0.0047583
0.00475521
0.00470237
0.00460043
0.00445105
0.0042568
0.00402109
0.00374806
0.00344246
0.00310948
0.00275461
0.0023835
0.00200179
0.00161485
0.0012278
0.000847308
0.000479504
0.000103191
-0.000302004
0.00249487
0.00184025
0.00132727
0.000912214
0.000542389
0.000215267
-7.10639e-05
-0.000321916
-0.00054233
-0.000736687
-0.000908905
-0.00106243
-0.00120021
-0.00132466
-0.00143771
-0.00154076
-0.00163474
-0.00172012
-0.00179697
-0.00186491
-0.00192325
-0.00197097
-0.00200677
-0.00202916
-0.00203646
-0.00202689
-0.00199861
-0.00194981
-0.00187875
-0.00178384
-0.00166369
-0.00151722
-0.00134368
-0.00114271
-0.000914468
-0.000659593
-0.000379305
-7.54128e-05
0.000249656
0.00059285
0.000950507
0.00131839
0.00169172
0.00206526
0.0024334
0.00279024
0.00312975
0.00344592
0.00373285
0.00398496
0.00419716
0.00436493
0.00448455
0.00455316
0.00456887
0.00453084
0.00443933
0.00429565
0.00410217
0.00386219
0.00357991
0.0032602
0.00290852
0.00253073
0.00213291
0.00172123
0.0013016
0.000879713
0.000463056
5.8532e-05
-0.000357349
-0.000807017
0.00235093
0.00166253
0.00112404
0.000689286
0.000302493
-3.92906e-05
-0.000338364
-0.000600592
-0.000831519
-0.00103596
-0.00121821
-0.00138204
-0.00153064
-0.00166663
-0.00179207
-0.00190847
-0.0020168
-0.00211754
-0.00221071
-0.00229588
-0.00237224
-0.00243865
-0.00249364
-0.00253553
-0.00256242
-0.0025723
-0.00256308
-0.00253265
-0.002479
-0.00240022
-0.00229462
-0.00216079
-0.00199768
-0.00180465
-0.00158155
-0.00132876
-0.00104728
-0.00073874
-0.000405427
-5.03202e-05
0.000322926
0.00071
0.00110598
0.00150538
0.00190226
0.00229031
0.002663
0.00301371
0.0033359
0.00362328
0.00386998
0.00407074
0.00422104
0.00431729
0.00435689
0.0043384
0.00426155
0.00412724
0.00393757
0.00369571
0.00340585
0.00307304
0.002703
0.00230201
0.00187666
0.00143371
0.000979706
0.000520997
6.59851e-05
-0.000377555
-0.000835521
-0.00133251
0.00213766
0.00141754
0.000855082
0.000401751
-1.14307e-06
-0.000356978
-0.000668444
-0.000941946
-0.00118352
-0.00139839
-0.00159124
-0.00176612
-0.00192647
-0.00207509
-0.00221416
-0.00234528
-0.00246944
-0.00258713
-0.0026983
-0.00280247
-0.00289869
-0.00298568
-0.00306181
-0.00312518
-0.00317368
-0.00320503
-0.00321686
-0.00320679
-0.00317246
-0.00311166
-0.00302235
-0.00290278
-0.00275154
-0.00256767
-0.00235067
-0.00210065
-0.00181832
-0.00150509
-0.00116306
-0.000795093
-0.000404808
3.44757e-06
0.000424618
0.000852994
0.0012823
0.00170579
0.00211641
0.00250688
0.00286997
0.00319857
0.00348597
0.00372603
0.00391333
0.0040434
0.00411284
0.00411946
0.00406234
0.00394191
0.00375988
0.00351924
0.00322416
0.00287982
0.00249226
0.00206818
0.00161476
0.00113942
0.000649419
0.00015188
-0.000343791
-0.000828841
-0.00133173
-0.00187938
0.00185093
0.00110127
0.000516459
4.57346e-05
-0.000372341
-0.000741575
-0.00106505
-0.00134969
-0.00160202
-0.00182768
-0.00203168
-0.00221837
-0.00239141
-0.00255377
-0.00270775
-0.002855
-0.00299656
-0.00313288
-0.00326387
-0.00338893
-0.00350702
-0.00361668
-0.00371611
-0.00380319
-0.00387557
-0.0039307
-0.00396592
-0.00397852
-0.00396583
-0.00392527
-0.00385442
-0.00375116
-0.00361371
-0.00344069
-0.00323127
-0.00298517
-0.0027028
-0.00238527
-0.00203447
-0.00165308
-0.00124464
-0.000813491
-0.000364786
9.55589e-05
0.000560943
0.00102419
0.00147766
0.00191342
0.00232344
0.00269973
0.00303465
0.00332102
0.00355243
0.00372338
0.00382951
0.00386775
0.00383641
0.00373527
0.00356561
0.00333012
0.00303291
0.00267926
0.00227554
0.00182892
0.00134721
0.000838565
0.000311067
-0.000227326
-0.000766068
-0.00129533
-0.00184632
-0.00244843
0.00148688
0.000709976
0.000104517
-0.000382359
-0.000814651
-0.0011966
-0.00153167
-0.00182731
-0.00209049
-0.00232727
-0.00254298
-0.00274225
-0.00292895
-0.00310621
-0.00327642
-0.0034413
-0.00360189
-0.00375862
-0.00391134
-0.00405934
-0.00420146
-0.00433608
-0.00446119
-0.00457445
-0.00467326
-0.00475479
-0.00481608
-0.00485407
-0.00486573
-0.00484808
-0.00479833
-0.00471393
-0.00459265
-0.00443271
-0.00423284
-0.00399236
-0.00371128
-0.00339037
-0.00303124
-0.00263633
-0.00220902
-0.00175361
-0.00127531
-0.000780196
-0.000275179
0.000232127
0.000733509
0.00122032
0.00168367
0.00211464
0.00250449
0.00284494
0.0031284
0.00334821
0.00349888
0.00357627
0.00357777
0.00350238
0.00335079
0.00312532
0.00282991
0.00246993
0.00205205
0.00158394
0.00107409
0.000531493
-3.48961e-05
-0.000616158
-0.00120049
-0.00177686
-0.00237944
-0.00304033
0.00104196
0.000240232
-0.000384096
-0.000885825
-0.00133133
-0.00172527
-0.00207151
-0.00237799
-0.00265213
-0.00290038
-0.00312838
-0.00334101
-0.00354236
-0.00373569
-0.0039235
-0.00410756
-0.0042889
-0.00446792
-0.00464439
-0.00481753
-0.004986
-0.00514804
-0.00530143
-0.0054436
-0.00557167
-0.00568254
-0.00577291
-0.00583936
-0.00587849
-0.0058869
-0.00586135
-0.00579885
-0.00569669
-0.0055526
-0.00536483
-0.00513224
-0.00485437
-0.00453159
-0.00416512
-0.00375711
-0.00331073
-0.00283014
-0.00232055
-0.00178816
-0.00124014
-0.000684544
-0.000130151
0.000413646
0.000937058
0.00143012
0.00188293
0.00228596
0.00263027
0.00290788
0.00311196
0.00323715
0.00327969
0.00323765
0.00311095
0.0029014
0.0026127
0.00225023
0.00182091
0.00133296
0.00079559
0.000218675
-0.000387826
-0.00101393
-0.00164645
-0.00227302
-0.00293104
-0.0036555
0.000512943
-0.00031106
-0.000952396
-0.00146763
-0.00192531
-0.0023305
-0.00268747
-0.00300463
-0.00328984
-0.00354989
-0.00379076
-0.00401757
-0.00423458
-0.0044452
-0.00465203
-0.00485686
-0.00506073
-0.005264
-0.00546637
-0.00566695
-0.00586426
-0.00605636
-0.00624083
-0.00641486
-0.00657531
-0.00671875
-0.00684155
-0.00693994
-0.00701006
-0.00704812
-0.00705038
-0.00701334
-0.00693379
-0.00680892
-0.00663642
-0.00641461
-0.00614252
-0.00582001
-0.00544784
-0.00502778
-0.0045627
-0.00405654
-0.00351444
-0.00294266
-0.00234859
-0.00174065
-0.0011282
-0.000521398
6.90345e-05
0.000632014
0.00115638
0.00163118
0.00204601
0.00239134
0.00265883
0.00284163
0.00293467
0.00293481
0.00284105
0.00265452
0.00237851
0.00201836
0.00158119
0.00107574
0.000511989
-9.92166e-05
-0.000746829
-0.00141969
-0.00210304
-0.00278307
-0.0035007
-0.00429401
-0.000103011
-0.00094663
-0.00160304
-0.00213039
-0.00259917
-0.00301486
-0.00338211
-0.00370978
-0.00400615
-0.00427837
-0.0045327
-0.00477449
-0.0050082
-0.00523736
-0.00546464
-0.00569188
-0.00592012
-0.00614967
-0.00638017
-0.0066106
-0.00683937
-0.00706433
-0.00728288
-0.00749195
-0.00768813
-0.00786768
-0.00802661
-0.00816074
-0.00826582
-0.00833755
-0.00837171
-0.00836424
-0.00831137
-0.00820968
-0.00805626
-0.0078488
-0.00758574
-0.00726634
-0.00689082
-0.00646047
-0.00597773
-0.00544627
-0.00487104
-0.00425827
-0.00361549
-0.00295147
-0.00227611
-0.00160031
-0.000935761
-0.000294731
0.000310247
0.000866693
0.00136254
0.00178652
0.00212854
0.00238003
0.00253432
0.00258685
0.00253544
0.00238033
0.00212426
0.00177234
0.00133188
0.000812085
0.00022374
-0.000421269
-0.0011107
-0.00183208
-0.00256895
-0.00330588
-0.00408757
-0.00495552
-0.000808357
-0.00166883
-0.0023383
-0.00287635
-0.00335513
-0.00378055
-0.00415761
-0.00449562
-0.00480326
-0.00508799
-0.00535635
-0.00561395
-0.00586539
-0.00611434
-0.00636353
-0.00661485
-0.00686933
-0.00712725
-0.00738816
-0.00765096
-0.00791389
-0.00817466
-0.00843043
-0.00867792
-0.00891342
-0.00913286
-0.0093319
-0.00950596
-0.00965033
-0.0097602
-0.00983083
-0.00985756
-0.00983599
-0.00976207
-0.00963219
-0.00944337
-0.00919331
-0.00888062
-0.00850487
-0.00806676
-0.00756819
-0.00701244
-0.00640415
-0.00574943
-0.00505587
-0.00433249
-0.00358967
-0.00283906
-0.00209331
-0.00136592
-0.000670873
-2.23254e-05
0.000565826
0.00108036
0.00150916
0.0018417
0.0020694
0.00218599
0.00218781
0.00207398
0.00184645
0.00150997
0.0010719
0.000541872
-6.85189e-05
-0.000746277
-0.00147785
-0.00224935
-0.00304239
-0.00383977
-0.00469028
-0.00563912
-0.00160511
-0.00247958
-0.00316006
-0.00370733
-0.00419501
-0.00462936
-0.00501576
-0.00536393
-0.00568291
-0.00598049
-0.00626347
-0.00653767
-0.00680787
-0.00707783
-0.00735038
-0.00762744
-0.00791004
-0.00819842
-0.00849208
-0.00878979
-0.00908968
-0.00938928
-0.00968557
-0.00997499
-0.0102536
-0.0105169
-0.0107604
-0.0109788
-0.0111672
-0.0113201
-0.0114322
-0.0114982
-0.0115132
-0.0114722
-0.011371
-0.0112058
-0.0109735
-0.0106719
-0.0102999
-0.00985734
-0.00934564
-0.00876744
-0.00812699
-0.00743015
-0.00668443
-0.00589902
-0.00508471
-0.0042538
-0.00341993
-0.00259783
-0.00180304
-0.00105147
-0.000359035
0.000258861
0.000787849
0.0012151
0.00152981
0.00172367
0.00179121
0.00173011
0.00154127
0.00122886
0.000800126
0.000265076
-0.000363914
-0.00107268
-0.00184628
-0.00266921
-0.00352102
-0.00438247
-0.00530685
-0.00634329
-0.00249483
-0.00338038
-0.00406977
-0.00462477
-0.0051202
-0.00556268
-0.00595793
-0.00631605
-0.00664644
-0.00695717
-0.00725532
-0.00754688
-0.0078368
-0.00812897
-0.0084263
-0.00873072
-0.00904329
-0.00936421
-0.00969293
-0.0100281
-0.0103678
-0.0107093
-0.0110495
-0.0113845
-0.01171
-0.0120215
-0.0123138
-0.0125814
-0.0128187
-0.0130198
-0.0131788
-0.0132898
-0.013347
-0.0133448
-0.013278
-0.013142
-0.012933
-0.0126477
-0.0122842
-0.0118416
-0.0113204
-0.0107225
-0.0100518
-0.00931352
-0.00851513
-0.0076658
-0.00677661
-0.00586047
-0.00493192
-0.00400695
-0.00310265
-0.00223683
-0.00142758
-0.000692691
-4.90725e-05
0.000487823
0.000904616
0.00119056
0.00133801
0.00134281
0.0012045
0.000926391
0.000515408
-1.81967e-05
-0.000661291
-0.00139852
-0.00221342
-0.00308878
-0.00400178
-0.00493098
-0.0059345
-0.00706571
-0.00347859
-0.00437224
-0.0050684
-0.00562964
-0.00613166
-0.00658145
-0.00698504
-0.00735289
-0.0076947
-0.00801885
-0.00833264
-0.00864226
-0.00895281
-0.00926831
-0.00959174
-0.00992507
-0.0102694
-0.0106249
-0.0109909
-0.0113661
-0.0117483
-0.0121348
-0.0125222
-0.0129065
-0.013283
-0.0136469
-0.0139926
-0.0143143
-0.0146058
-0.0148607
-0.0150724
-0.0152343
-0.0153399
-0.0153827
-0.0153567
-0.0152564
-0.0150768
-0.0148139
-0.0144646
-0.0140271
-0.0135009
-0.0128873
-0.0121891
-0.0114112
-0.0105607
-0.00964647
-0.00867991
-0.00767433
-0.00664514
-0.00560949
-0.00458609
-0.00359471
-0.00265573
-0.00178955
-0.00101591
-0.00035321
0.000182185
0.000576665
0.00081997
0.000905683
0.000831582
0.00059976
0.000216573
-0.00030767
-0.000959161
-0.00172133
-0.00257613
-0.00350444
-0.00448085
-0.00548146
-0.0065696
-0.00780317
-0.00455694
-0.00545569
-0.0061565
-0.00672245
-0.00722992
-0.00768617
-0.00809756
-0.00847486
-0.00882807
-0.00916583
-0.00949565
-0.00982393
-0.0101559
-0.0104957
-0.0108465
-0.0112101
-0.0115878
-0.0119798
-0.0123853
-0.0128029
-0.0132304
-0.0136649
-0.0141028
-0.0145399
-0.0149715
-0.0153921
-0.015796
-0.0161768
-0.0165279
-0.0168422
-0.0171126
-0.0173318
-0.0174923
-0.0175869
-0.0176086
-0.0175509
-0.0174078
-0.017174
-0.0168455
-0.0164192
-0.0158937
-0.0152691
-0.0145475
-0.0137329
-0.0128318
-0.011853
-0.0108076
-0.00970938
-0.00857438
-0.00742093
-0.00626925
-0.00514113
-0.00405937
-0.00304714
-0.00212731
-0.00132157
-0.000649683
-0.000128587
0.000228332
0.000411901
0.000417642
0.000246027
-9.75146e-05
-0.000602851
-0.00125563
-0.00203811
-0.00293054
-0.00391174
-0.00495348
-0.00602908
-0.00720748
-0.00855143
-0.00572992
-0.00663079
-0.00733412
-0.00790329
-0.00841504
-0.00887691
-0.00929552
-0.00968194
-0.0100464
-0.0103979
-0.010744
-0.0110914
-0.0114455
-0.0118105
-0.0121895
-0.0125848
-0.0129973
-0.0134274
-0.0138743
-0.0143365
-0.0148118
-0.0152972
-0.0157888
-0.0162824
-0.0167728
-0.0172544
-0.0177211
-0.0181661
-0.0185822
-0.0189618
-0.0192971
-0.0195801
-0.0198024
-0.0199559
-0.0200327
-0.0200251
-0.0199259
-0.0197288
-0.0194284
-0.0190204
-0.0185022
-0.0178727
-0.0171328
-0.0162857
-0.015337
-0.014295
-0.0131706
-0.0119777
-0.0107328
-0.00945533
-0.0081669
-0.00689132
-0.00565387
-0.00448067
-0.00339793
-0.00243101
-0.00160348
-0.000936137
-0.000446042
-0.000145698
-4.24032e-05
-0.000137821
-0.000427879
-0.000902948
-0.00154834
-0.00234516
-0.00327196
-0.00430531
-0.00541386
-0.00656788
-0.0078423
-0.00930499
-0.00699703
-0.0078971
-0.00860085
-0.00917178
-0.00968665
-0.0101532
-0.0105785
-0.0109736
-0.0113492
-0.0117142
-0.0120768
-0.0124436
-0.0128202
-0.0132109
-0.0136191
-0.0140469
-0.0144955
-0.0149652
-0.0154552
-0.015964
-0.0164894
-0.0170282
-0.0175765
-0.0181298
-0.0186828
-0.0192296
-0.0197636
-0.0202776
-0.0207641
-0.0212149
-0.0216213
-0.0219747
-0.0222658
-0.0224857
-0.0226252
-0.0226755
-0.0226284
-0.0224761
-0.0222119
-0.0218301
-0.0213268
-0.0206993
-0.0199476
-0.0190734
-0.0180814
-0.0169791
-0.015777
-0.0144887
-0.0131313
-0.0117247
-0.0102921
-0.00885908
-0.0074535
-0.00610452
-0.00484191
-0.00369501
-0.00269166
-0.00185702
-0.00121244
-0.000774422
-0.000553718
-0.000554753
-0.000775337
-0.00120677
-0.00183429
-0.00263801
-0.00359472
-0.00467863
-0.00585496
-0.00709059
-0.00846683
-0.010057
-0.00835724
-0.00925367
-0.00995585
-0.0105271
-0.0110439
-0.0115144
-0.0119455
-0.0123488
-0.0127351
-0.0131136
-0.0134926
-0.0138788
-0.014278
-0.0146949
-0.0151327
-0.0155937
-0.0160792
-0.0165895
-0.017124
-0.0176811
-0.0182585
-0.018853
-0.0194607
-0.0200767
-0.0206957
-0.0213114
-0.021917
-0.0225049
-0.0230669
-0.0235944
-0.0240782
-0.0245085
-0.0248755
-0.0251691
-0.0253792
-0.0254957
-0.025509
-0.0254101
-0.0251908
-0.0248439
-0.0243639
-0.0237467
-0.0229905
-0.022096
-0.0210664
-0.0199082
-0.0186312
-0.0172485
-0.0157773
-0.0142381
-0.0126552
-0.011056
-0.00947074
-0.00793167
-0.00647233
-0.00512632
-0.00392618
-0.00290198
-0.00208002
-0.00148149
-0.00112136
-0.00100754
-0.00114037
-0.0015126
-0.00210979
-0.00291126
-0.00389206
-0.00502392
-0.00626833
-0.00758842
-0.00907229
-0.0107989
-0.00980897
-0.0106991
-0.0113978
-0.011968
-0.0124857
-0.012959
-0.0133953
-0.0138062
-0.0142027
-0.0145943
-0.0149892
-0.0153946
-0.0158164
-0.0162593
-0.0167267
-0.0172213
-0.0177442
-0.0182959
-0.0188757
-0.0194823
-0.0201132
-0.0207652
-0.0214344
-0.0221157
-0.0228037
-0.0234918
-0.0241728
-0.0248389
-0.0254815
-0.0260911
-0.026658
-0.0271717
-0.0276215
-0.0279962
-0.0282846
-0.0284755
-0.028558
-0.0285215
-0.0283562
-0.0280535
-0.0276059
-0.0270079
-0.026256
-0.0253491
-0.024289
-0.0230808
-0.0217333
-0.020259
-0.0186747
-0.0170011
-0.0152635
-0.0134907
-0.0117154
-0.0099729
-0.00830048
-0.00673631
-0.00531799
-0.00408106
-0.00305742
-0.00227374
-0.00175004
-0.00149854
-0.00152292
-0.00181804
-0.00237026
-0.00315841
-0.00415592
-0.00533195
-0.00664394
-0.00805089
-0.0096481
-0.0115205
-0.0113502
-0.0122315
-0.012925
-0.0134928
-0.0140102
-0.0144856
-0.0149262
-0.015344
-0.0157499
-0.0161538
-0.016564
-0.016988
-0.0174318
-0.0179002
-0.0183971
-0.0189249
-0.0194851
-0.0200783
-0.0207039
-0.0213606
-0.022046
-0.0227569
-0.0234892
-0.0242379
-0.0249973
-0.0257607
-0.0265207
-0.0272689
-0.0279962
-0.0286929
-0.0293484
-0.0299515
-0.0304907
-0.0309536
-0.0313281
-0.0316016
-0.0317618
-0.0317967
-0.0316949
-0.0314459
-0.0310406
-0.0304716
-0.0297334
-0.0288232
-0.027741
-0.0264904
-0.0250786
-0.0235172
-0.0218223
-0.0200146
-0.0181197
-0.016168
-0.0141939
-0.0122359
-0.0103351
-0.00853423
-0.00687634
-0.00540294
-0.00415222
-0.00315716
-0.00244373
-0.00202944
-0.00192219
-0.00211978
-0.00261003
-0.00337168
-0.00437676
-0.0055918
-0.00696991
-0.00846554
-0.0101816
-0.0122092
-0.0129783
-0.0138487
-0.0145353
-0.0150995
-0.0156157
-0.0160921
-0.0165361
-0.0169597
-0.0173742
-0.0177894
-0.0182139
-0.0186554
-0.0191202
-0.0196132
-0.0201385
-0.0206988
-0.0212957
-0.02193
-0.0226012
-0.023308
-0.0240482