/*--------------------------------*- C++ -*----------------------------------*\
  =========                 |
  \\      /  F ield         | OpenFOAM: The Open Source CFD Toolbox
   \\    /   O peration     | Website:  https://openfoam.org
    \\  /    A nd           | Version:  dev
     \\/     M anipulation  |
\*---------------------------------------------------------------------------*/
FoamFile
{
    format      ascii;
    class       volVectorField;
    location    "14.4";
    object      U;
}
// * * * * * * * * * * * * * * * * * * * * * * * * * * * * * * * * * * * * * //

dimensions      [0 1 -1 0 0 0 0];

internalField   nonuniform List<vector> 
5184
(
(1.25115e-05 -1.24712e-05 0)
(4.53483e-05 -2.06893e-05 0)
(8.01763e-05 -1.71116e-05 0)
(9.55713e-05 -8.09919e-06 0)
(8.15764e-05 2.73809e-06 0)
(3.57869e-05 1.36585e-05 0)
(-4.12423e-05 2.38643e-05 0)
(-0.000147499 3.30408e-05 0)
(-0.000280203 4.10772e-05 0)
(-0.000436297 4.79778e-05 0)
(-0.00061267 5.38027e-05 0)
(-0.000806294 5.86374e-05 0)
(-0.00101431 6.25747e-05 0)
(-0.00123405 6.57042e-05 0)
(-0.00146307 6.8111e-05 0)
(-0.00169912 6.98699e-05 0)
(-0.00194012 7.10453e-05 0)
(-0.00218417 7.16905e-05 0)
(-0.00242949 7.18451e-05 0)
(-0.00267438 7.15393e-05 0)
(-0.00291726 7.07919e-05 0)
(-0.00315656 6.96133e-05 0)
(-0.00339076 6.80061e-05 0)
(-0.00361834 6.59677e-05 0)
(-0.00383777 6.34917e-05 0)
(-0.00404752 6.05681e-05 0)
(-0.00424604 5.71866e-05 0)
(-0.00443175 5.33371e-05 0)
(-0.00460309 4.90126e-05 0)
(-0.00475847 4.42104e-05 0)
(-0.00489635 3.89329e-05 0)
(-0.0050152 3.31892e-05 0)
(-0.00511357 2.69966e-05 0)
(-0.00519008 2.03814e-05 0)
(-0.00524347 1.33789e-05 0)
(-0.00527264 6.03472e-06 0)
(-0.00527664 -1.5953e-06 0)
(-0.00525475 -9.44529e-06 0)
(-0.00520646 -1.74391e-05 0)
(-0.00513155 -2.54904e-05 0)
(-0.00503009 -3.3505e-05 0)
(-0.00490243 -4.13818e-05 0)
(-0.00474929 -4.90144e-05 0)
(-0.00457171 -5.62918e-05 0)
(-0.0043711 -6.31017e-05 0)
(-0.00414921 -6.93328e-05 0)
(-0.00390811 -7.48766e-05 0)
(-0.00365024 -7.963e-05 0)
(-0.00337831 -8.34986e-05 0)
(-0.00309531 -8.63987e-05 0)
(-0.00280448 -8.82599e-05 0)
(-0.00250923 -8.90271e-05 0)
(-0.00221313 -8.86622e-05 0)
(-0.00191982 -8.71454e-05 0)
(-0.00163297 -8.44759e-05 0)
(-0.0013562 -8.06729e-05 0)
(-0.00109305 -7.57755e-05 0)
(-0.000846893 -6.98423e-05 0)
(-0.000620857 -6.29507e-05 0)
(-0.000417793 -5.51966e-05 0)
(-0.000240197 -4.6694e-05 0)
(-9.01451e-05 -3.75748e-05 0)
(3.07746e-05 -2.79928e-05 0)
(0.000121546 -1.81298e-05 0)
(0.000181834 -8.21103e-06 0)
(0.000212136 1.46809e-06 0)
(0.000214028 1.0487e-05 0)
(0.000190546 1.821e-05 0)
(0.000146703 2.36281e-05 0)
(9.05666e-05 2.50529e-05 0)
(3.65636e-05 1.98038e-05 0)
(6.22616e-06 6.24235e-06 0)
(2.09016e-05 -4.54369e-05 0)
(6.55629e-05 -6.51772e-05 0)
(9.42872e-05 -4.01028e-05 0)
(7.20498e-05 7.9792e-06 0)
(-1.99016e-05 6.58971e-05 0)
(-0.000188343 0.000126071 0)
(-0.000433842 0.000184239 0)
(-0.00075318 0.000238149 0)
(-0.00114082 0.000286674 0)
(-0.00159 0.000329373 0)
(-0.00209339 0.000366206 0)
(-0.00264354 0.000397364 0)
(-0.00323318 0.000423156 0)
(-0.00385533 0.000443947 0)
(-0.00450339 0.000460116 0)
(-0.00517118 0.000472019 0)
(-0.00585291 0.000479976 0)
(-0.00654316 0.000484265 0)
(-0.00723679 0.000485107 0)
(-0.00792894 0.000482674 0)
(-0.00861491 0.000477087 0)
(-0.00929017 0.000468421 0)
(-0.00995025 0.000456717 0)
(-0.0105907 0.000441983 0)
(-0.0112072 0.000424208 0)
(-0.0117953 0.000403369 0)
(-0.0123507 0.000379444 0)
(-0.0128688 0.000352412 0)
(-0.0133454 0.000322276 0)
(-0.0137761 0.000289062 0)
(-0.0141567 0.000252832 0)
(-0.0144831 0.000213686 0)
(-0.0147514 0.000171775 0)
(-0.0149579 0.000127301 0)
(-0.0150996 8.05236e-05 0)
(-0.0151734 3.17601e-05 0)
(-0.015177 -1.86118e-05 0)
(-0.0151087 -7.01556e-05 0)
(-0.0149673 -0.000122378 0)
(-0.0147525 -0.000174733 0)
(-0.0144646 -0.000226628 0)
(-0.0141049 -0.000277432 0)
(-0.0136755 -0.000326488 0)
(-0.0131794 -0.000373118 0)
(-0.0126205 -0.000416639 0)
(-0.0120037 -0.000456378 0)
(-0.0113348 -0.000491684 0)
(-0.0106202 -0.000521943 0)
(-0.00986746 -0.000546596 0)
(-0.00908456 -0.000565147 0)
(-0.00828019 -0.000577185 0)
(-0.00746352 -0.000582391 0)
(-0.00664406 -0.000580549 0)
(-0.00583151 -0.000571556 0)
(-0.00503565 -0.000555425 0)
(-0.00426612 -0.000532296 0)
(-0.00353227 -0.00050243 0)
(-0.00284302 -0.000466214 0)
(-0.00220663 -0.000424163 0)
(-0.00163056 -0.000376913 0)
(-0.0011213 -0.000325232 0)
(-0.000684122 -0.00027002 0)
(-0.000322953 -0.000212334 0)
(-4.00798e-05 -0.000153423 0)
(0.000164119 -9.47926e-05 0)
(0.000291551 -3.83204e-05 0)
(0.000346941 1.3546e-05 0)
(0.000338523 5.75075e-05 0)
(0.000278748 8.89833e-05 0)
(0.000185415 0.00010149 0)
(8.61216e-05 8.62726e-05 0)
(1.96365e-05 3.64217e-05 0)
(1.76034e-05 -8.08344e-05 0)
(4.11242e-05 -9.42301e-05 0)
(1.91041e-05 -1.83484e-05 0)
(-8.47241e-05 0.000106519 0)
(-0.000291031 0.000254943 0)
(-0.00060852 0.000410533 0)
(-0.00103842 0.000563011 0)
(-0.00157691 0.000706259 0)
(-0.00221683 0.000836842 0)
(-0.00294902 0.000953064 0)
(-0.00376322 0.00105433 0)
(-0.00464875 0.00114074 0)
(-0.0055949 0.0012128 0)
(-0.00659124 0.00127124 0)
(-0.00762774 0.00131688 0)
(-0.00869485 0.00135053 0)
(-0.00978352 0.00137297 0)
(-0.0108852 0.00138486 0)
(-0.0119916 0.00138678 0)
(-0.013095 0.00137915 0)
(-0.0141877 0.00136232 0)
(-0.0152626 0.0013365 0)
(-0.0163122 0.00130182 0)
(-0.0173296 0.00125835 0)
(-0.0183076 0.0012061 0)
(-0.0192392 0.00114505 0)
(-0.0201174 0.0010752 0)
(-0.0209353 0.000996558 0)
(-0.0216861 0.000909197 0)
(-0.0223628 0.00081325 0)
(-0.0229591 0.00070895 0)
(-0.0234686 0.000596638 0)
(-0.0238855 0.000476789 0)
(-0.0242042 0.000350015 0)
(-0.0244199 0.00021708 0)
(-0.0245284 7.89034e-05 0)
(-0.0245262 -6.34372e-05 0)
(-0.0244109 -0.00020871 0)
(-0.024181 -0.000355537 0)
(-0.0238361 -0.000502406 0)
(-0.0233771 -0.000647685 0)
(-0.0228061 -0.000789648 0)
(-0.0221265 -0.000926497 0)
(-0.0213432 -0.0010564 0)
(-0.0204624 -0.0011775 0)
(-0.0194918 -0.00128798 0)
(-0.0184401 -0.00138611 0)
(-0.0173176 -0.00147023 0)
(-0.0161357 -0.00153885 0)
(-0.0149067 -0.00159065 0)
(-0.0136439 -0.00162454 0)
(-0.0123613 -0.00163967 0)
(-0.0110735 -0.0016355 0)
(-0.00979519 -0.00161174 0)
(-0.00854128 -0.00156848 0)
(-0.00732642 -0.00150612 0)
(-0.00616483 -0.00142539 0)
(-0.00507003 -0.00132739 0)
(-0.00405452 -0.00121356 0)
(-0.00312958 -0.0010857 0)
(-0.00230492 -0.000945986 0)
(-0.00158844 -0.000796969 0)
(-0.000985865 -0.000641648 0)
(-0.000500442 -0.000483544 0)
(-0.000132502 -0.000326845 0)
(0.000121007 -0.000176626 0)
(0.000267147 -3.91881e-05 0)
(0.000317712 7.74719e-05 0)
(0.000289781 0.000163082 0)
(0.000206513 0.000204501 0)
(0.00010208 0.000185643 0)
(2.49017e-05 9.01576e-05 0)
(8.78673e-06 -9.71699e-05 0)
(-7.209e-06 -7.21171e-05 0)
(-0.000107928 8.57654e-05 0)
(-0.000322713 0.000318995 0)
(-0.000669713 0.000590192 0)
(-0.00115728 0.000873824 0)
(-0.00178613 0.00115292 0)
(-0.0025515 0.00141674 0)
(-0.00344485 0.00165883 0)
(-0.00445518 0.00187567 0)
(-0.00557002 0.00206571 0)
(-0.00677621 0.00222871 0)
(-0.00806037 0.00236523 0)
(-0.00940927 0.0024763 0)
(-0.01081 0.00256319 0)
(-0.0122503 0.00262722 0)
(-0.0137181 0.00266967 0)
(-0.0152022 0.0026917 0)
(-0.0166915 0.00269428 0)
(-0.0181757 0.00267819 0)
(-0.0196444 0.00264405 0)
(-0.0210878 0.00259226 0)
(-0.022496 0.00252311 0)
(-0.0238596 0.00243675 0)
(-0.0251689 0.00233327 0)
(-0.0264146 0.0022127 0)
(-0.0275872 0.0020751 0)
(-0.0286776 0.00192059 0)
(-0.0296767 0.00174937 0)
(-0.0305756 0.00156179 0)
(-0.0313657 0.00135837 0)
(-0.0320389 0.00113984 0)
(-0.0325876 0.000907184 0)
(-0.0330048 0.000661625 0)
(-0.0332842 0.000404676 0)
(-0.0334207 0.000138133 0)
(-0.0334099 -0.000135921 0)
(-0.0332489 -0.000415125 0)
(-0.032936 -0.00069685 0)
(-0.032471 -0.000978229 0)
(-0.0318552 -0.00125618 0)
(-0.0310916 -0.00152747 0)
(-0.030185 -0.00178872 0)
(-0.0291419 -0.0020365 0)
(-0.0279703 -0.00226737 0)
(-0.0266805 -0.00247795 0)
(-0.0252839 -0.00266501 0)
(-0.023794 -0.00282549 0)
(-0.0222254 -0.00295664 0)
(-0.0205943 -0.00305601 0)
(-0.0189178 -0.00312161 0)
(-0.017214 -0.00315189 0)
(-0.0155017 -0.00314581 0)
(-0.0137999 -0.00310294 0)
(-0.0121279 -0.00302341 0)
(-0.0105045 -0.00290801 0)
(-0.00894807 -0.00275815 0)
(-0.00747601 -0.00257594 0)
(-0.00610441 -0.00236411 0)
(-0.00484777 -0.00212611 0)
(-0.00371856 -0.00186608 0)
(-0.00272687 -0.00158889 0)
(-0.00188004 -0.00130025 0)
(-0.00118222 -0.0010068 0)
(-0.000633874 -0.000716338 0)
(-0.000231346 -0.000438118 0)
(3.3806e-05 -0.000183258 0)
(0.000175421 3.46671e-05 0)
(0.00021316 0.000198978 0)
(0.000173109 0.000289321 0)
(9.26043e-05 0.00028144 0)
(2.39387e-05 0.000146827 0)
(-2.16813e-06 -8.37351e-05 0)
(-6.7391e-05 2.2027e-05 0)
(-0.000264136 0.000296399 0)
(-0.000609479 0.000668384 0)
(-0.00111584 0.00109034 0)
(-0.00178937 0.00152846 0)
(-0.00262908 0.0019594 0)
(-0.00362858 0.00236773 0)
(-0.00477776 0.00274379 0)
(-0.00606394 0.00308194 0)
(-0.00747279 0.00337944 0)
(-0.0089891 0.00363547 0)
(-0.0105973 0.00385049 0)
(-0.0122819 0.00402574 0)
(-0.0140276 0.00416288 0)
(-0.0158197 0.00426371 0)
(-0.0176438 0.00433002 0)
(-0.0194861 0.00436347 0)
(-0.0213332 0.00436547 0)
(-0.0231723 0.00433719 0)
(-0.0249908 0.00427954 0)
(-0.0267763 0.00419318 0)
(-0.028517 0.00407857 0)
(-0.0302007 0.003936 0)
(-0.0318159 0.00376567 0)
(-0.0333509 0.00356774 0)
(-0.0347942 0.00334239 0)
(-0.0361345 0.00308989 0)
(-0.0373609 0.0028107 0)
(-0.0384625 0.00250546 0)
(-0.0394291 0.00217512 0)
(-0.0402509 0.00182096 0)
(-0.0409187 0.00144461 0)
(-0.0414244 0.00104812 0)
(-0.0417606 0.000633966 0)
(-0.0419212 0.000205054 0)
(-0.0419014 -0.000235264 0)
(-0.0416977 -0.000683214 0)
(-0.0413083 -0.00113462 0)
(-0.0407334 -0.00158494 0)
(-0.0399747 -0.00202932 0)
(-0.039036 -0.00246265 0)
(-0.0379232 -0.00287967 0)
(-0.0366441 -0.003275 0)
(-0.0352089 -0.00364328 0)
(-0.0336296 -0.00397923 0)
(-0.0319201 -0.00427782 0)
(-0.0300965 -0.00453432 0)
(-0.0281765 -0.00474442 0)
(-0.0261791 -0.00490437 0)
(-0.0241251 -0.00501105 0)
(-0.0220359 -0.00506206 0)
(-0.0199339 -0.00505585 0)
(-0.017842 -0.00499171 0)
(-0.0157828 -0.00486991 0)
(-0.0137791 -0.00469169 0)
(-0.0118526 -0.00445931 0)
(-0.0100242 -0.00417608 0)
(-0.00831299 -0.00384637 0)
(-0.00673636 -0.00347562 0)
(-0.00530921 -0.00307038 0)
(-0.00404368 -0.00263836 0)
(-0.00294862 -0.00218854 0)
(-0.00202918 -0.00173128 0)
(-0.00128633 -0.00127862 0)
(-0.000716345 -0.000844561 0)
(-0.000310264 -0.000445555 0)
(-5.33808e-05 -0.000101117 0)
(7.51115e-05 0.000165469 0)
(0.000102632 0.000326525 0)
(6.70846e-05 0.000349374 0)
(1.9576e-05 0.000193448 0)
(-1.37131e-05 -3.68184e-05 0)
(-0.000132773 0.000198408 0)
(-0.000435413 0.000627511 0)
(-0.000923519 0.00117003 0)
(-0.00160167 0.00177019 0)
(-0.00247239 0.00238728 0)
(-0.00353183 0.00299235 0)
(-0.00477131 0.00356567 0)
(-0.00617875 0.00409445 0)
(-0.00773966 0.00457096 0)
(-0.00943796 0.00499113 0)
(-0.0112566 0.00535348 0)
(-0.0131782 0.00565827 0)
(-0.0151852 0.00590684 0)
(-0.0172604 0.00610118 0)
(-0.0193869 0.00624354 0)
(-0.0215483 0.0063362 0)
(-0.0237287 0.00638129 0)
(-0.0259126 0.00638067 0)
(-0.0280849 0.00633591 0)
(-0.0302311 0.00624825 0)
(-0.0323367 0.0061186 0)
(-0.0343876 0.00594765 0)
(-0.0363698 0.00573586 0)
(-0.0382696 0.00548359 0)
(-0.0400735 0.00519116 0)
(-0.041768 0.00485895 0)
(-0.0433401 0.00448749 0)
(-0.044777 0.00407754 0)
(-0.0460662 0.00363018 0)
(-0.047196 0.0031469 0)
(-0.0481551 0.00262965 0)
(-0.0489332 0.0020809 0)
(-0.0495209 0.00150369 0)
(-0.04991 0.000901651 0)
(-0.0500937 0.000279023 0)
(-0.0500665 -0.000359343 0)
(-0.0498248 -0.00100801 0)
(-0.0493667 -0.001661 0)
(-0.0486925 -0.00231181 0)
(-0.0478044 -0.00295355 0)
(-0.0467069 -0.00357897 0)
(-0.0454068 -0.00418058 0)
(-0.0439133 -0.00475078 0)
(-0.042238 -0.00528202 0)
(-0.0403947 -0.00576685 0)
(-0.0383994 -0.00619816 0)
(-0.0362703 -0.00656929 0)
(-0.0340276 -0.0068742 0)
(-0.0316933 -0.00710759 0)
(-0.0292907 -0.00726507 0)
(-0.0268444 -0.00734327 0)
(-0.0243799 -0.00734 0)
(-0.0219232 -0.00725429 0)
(-0.0195003 -0.00708651 0)
(-0.0171371 -0.00683843 0)
(-0.0148584 -0.00651329 0)
(-0.0126881 -0.00611578 0)
(-0.0106483 -0.00565211 0)
(-0.00875876 -0.00513004 0)
(-0.00703679 -0.00455888 0)
(-0.00549645 -0.00394957 0)
(-0.00414822 -0.00331478 0)
(-0.00299847 -0.00266907 0)
(-0.002049 -0.00202913 0)
(-0.00129657 -0.00141409 0)
(-0.000732437 -0.000846033 0)
(-0.000341947 -0.000350592 0)
(-0.000104211 4.23285e-05 0)
(8.31819e-06 0.000297858 0)
(3.212e-05 0.000375267 0)
(1.3539e-05 0.000223607 0)
(-2.51726e-05 4.47473e-05 0)
(-0.000199758 0.000461982 0)
(-0.000613142 0.00108696 0)
(-0.00125081 0.00183325 0)
(-0.00210826 0.0026392 0)
(-0.00318334 0.00345873 0)
(-0.00446848 0.00425833 0)
(-0.00595199 0.00501464 0)
(-0.00761939 0.00571211 0)
(-0.00945417 0.00634109 0)
(-0.0114384 0.00689629 0)
(-0.0135533 0.00737555 0)
(-0.0157797 0.00777888 0)
(-0.0180984 0.00810773 0)
(-0.0204905 0.00836434 0)
(-0.0229372 0.00855137 0)
(-0.0254203 0.00867156 0)
(-0.0279221 0.0087275 0)
(-0.0304252 0.00872149 0)
(-0.0329128 0.00865548 0)
(-0.0353683 0.00853104 0)
(-0.0377755 0.00834939 0)
(-0.0401183 0.00811142 0)
(-0.0423811 0.00781782 0)
(-0.0445482 0.00746915 0)
(-0.0466045 0.00706595 0)
(-0.0485347 0.00660884 0)
(-0.0503242 0.00609869 0)
(-0.0519587 0.00553666 0)
(-0.0534242 0.00492436 0)
(-0.0547076 0.00426394 0)
(-0.0557965 0.00355816 0)
(-0.0566793 0.00281045 0)
(-0.0573458 0.00202502 0)
(-0.0577869 0.00120683 0)
(-0.057995 0.000361635 0)
(-0.0579644 -0.000504011 0)
(-0.057691 -0.0013828 0)
(-0.057173 -0.00226671 0)
(-0.0564106 -0.00314708 0)
(-0.0554065 -0.00401471 0)
(-0.0541658 -0.00485997 0)
(-0.0526961 -0.00567292 0)
(-0.0510076 -0.00644349 0)
(-0.049113 -0.00716166 0)
(-0.0470277 -0.0078176 0)
(-0.0447694 -0.00840189 0)
(-0.0423583 -0.00890573 0)
(-0.0398167 -0.00932111 0)
(-0.0371688 -0.00964103 0)
(-0.0344405 -0.00985967 0)
(-0.031659 -0.00997257 0)
(-0.0288526 -0.00997678 0)
(-0.0260501 -0.00987102 0)
(-0.0232804 -0.00965575 0)
(-0.0205722 -0.00933333 0)
(-0.0179534 -0.008908 0)
(-0.0154505 -0.00838599 0)
(-0.0130882 -0.00777554 0)
(-0.0108889 -0.00708694 0)
(-0.0088722 -0.00633252 0)
(-0.0070541 -0.00552677 0)
(-0.00544686 -0.00468637 0)
(-0.00405835 -0.00383037 0)
(-0.00289157 -0.00298041 0)
(-0.00194428 -0.00216101 0)
(-0.00120857 -0.00140006 0)
(-0.000670569 -0.000729307 0)
(-0.000310126 -0.000185176 0)
(-0.000100499 0.000190618 0)
(-8.01858e-06 0.000350057 0)
(6.79096e-06 0.000233891 0)
(-3.62888e-05 0.000160942 0)
(-0.000266468 0.000814585 0)
(-0.000792228 0.0016785 0)
(-0.00158246 0.00266303 0)
(-0.002623 0.00370272 0)
(-0.00390631 0.0047477 0)
(-0.00542044 0.00576109 0)
(-0.00715012 0.00671669 0)
(-0.00907809 0.00759677 0)
(-0.0111855 0.00839011 0)
(-0.0134525 0.0090904 0)
(-0.0158585 0.00969493 0)
(-0.0183827 0.0102035 0)
(-0.0210043 0.0106177 0)
(-0.0237027 0.01094 0)
(-0.0264577 0.0111734 0)
(-0.0292495 0.0113212 0)
(-0.0320588 0.0113863 0)
(-0.0348666 0.0113715 0)
(-0.0376544 0.0112791 0)
(-0.0404039 0.011111 0)
(-0.0430974 0.0108687 0)
(-0.0457173 0.0105533 0)
(-0.048246 0.0101659 0)
(-0.0506667 0.00970707 0)
(-0.0529622 0.00917775 0)
(-0.0551162 0.00857884 0)
(-0.0571125 0.00791158 0)
(-0.0589351 0.00717764 0)
(-0.0605692 0.00637925 0)
(-0.0620001 0.00551931 0)
(-0.0632144 0.00460149 0)
(-0.0641996 0.00363035 0)
(-0.0649445 0.00261137 0)
(-0.0654392 0.00155099 0)
(-0.0656756 0.000456652 0)
(-0.0656474 -0.000663223 0)
(-0.0653503 -0.00179928 0)
(-0.0647823 -0.00294127 0)
(-0.0639437 -0.00407816 0)
(-0.0628372 -0.00519827 0)
(-0.0614685 -0.00628934 0)
(-0.0598458 -0.00733881 0)
(-0.0579799 -0.00833391 0)
(-0.0558847 -0.00926193 0)
(-0.0535767 -0.0101104 0)
(-0.0510752 -0.0108675 0)
(-0.0484017 -0.011522 0)
(-0.0455806 -0.0120638 0)
(-0.0426379 -0.0124839 0)
(-0.0396017 -0.012775 0)
(-0.0365017 -0.0129313 0)
(-0.0333685 -0.0129491 0)
(-0.0302336 -0.0128267 0)
(-0.0271285 -0.0125645 0)
(-0.0240847 -0.0121656 0)
(-0.0211327 -0.0116352 0)
(-0.0183018 -0.0109811 0)
(-0.0156193 -0.0102137 0)
(-0.0131101 -0.00934612 0)
(-0.0107959 -0.00839378 0)
(-0.00869528 -0.00737493 0)
(-0.00682225 -0.00631053 0)
(-0.00518651 -0.00522433 0)
(-0.00379266 -0.00414313 0)
(-0.00263988 -0.003097 0)
(-0.00172165 -0.00211964 0)
(-0.00102545 -0.00124895 0)
(-0.000532524 -0.000527619 0)
(-0.0002176 -3.75873e-06 0)
(-5.06719e-05 0.000268208 0)
(-1.38517e-07 0.000222605 0)
(-4.69701e-05 0.000311125 0)
(-0.000331932 0.00125611 0)
(-0.000969694 0.00240305 0)
(-0.00191288 0.00366118 0)
(-0.00313752 0.00496301 0)
(-0.00463029 0.0062564 0)
(-0.0063744 0.00750222 0)
(-0.00835062 0.00867238 0)
(-0.0105385 0.00974762 0)
(-0.0129167 0.0107156 0)
(-0.0154631 0.0115694 0)
(-0.0181554 0.0123058 0)
(-0.0209711 0.0129248 0)
(-0.0238879 0.0134278 0)
(-0.0268837 0.0138179 0)
(-0.0299371 0.0140983 0)
(-0.0330267 0.0142728 0)
(-0.0361318 0.0143447 0)
(-0.039232 0.0143171 0)
(-0.0423075 0.0141929 0)
(-0.0453386 0.0139742 0)
(-0.048306 0.0136628 0)
(-0.0511908 0.0132601 0)
(-0.053974 0.0127673 0)
(-0.0566373 0.0121855 0)
(-0.0591623 0.0115157 0)
(-0.0615312 0.0107592 0)
(-0.0637265 0.00991772 0)
(-0.0657313 0.00899352 0)
(-0.0675291 0.00798947 0)
(-0.0691046 0.00690934 0)
(-0.070443 0.00575781 0)
(-0.071531 0.00454064 0)
(-0.0723566 0.00326471 0)
(-0.0729091 0.00193808 0)
(-0.0731797 0.000569977 0)
(-0.0731618 -0.00082916 0)
(-0.0728506 -0.00224778 0)
(-0.0722437 -0.00367326 0)
(-0.0713415 -0.00509204 0)
(-0.0701467 -0.00648976 0)
(-0.0686651 -0.0078514 0)
(-0.0669053 -0.00916154 0)
(-0.0648787 -0.0104046 0)
(-0.0626 -0.0115649 0)
(-0.0600866 -0.0126272 0)
(-0.0573588 -0.013577 0)
(-0.0544396 -0.0144004 0)
(-0.0513548 -0.0150851 0)
(-0.0481323 -0.01562 0)
(-0.044802 -0.015996 0)
(-0.0413958 -0.0162059 0)
(-0.0379465 -0.0162451 0)
(-0.034488 -0.0161112 0)
(-0.0310545 -0.0158048 0)
(-0.02768 -0.0153293 0)
(-0.0243976 -0.014691 0)
(-0.0212394 -0.0138996 0)
(-0.0182354 -0.0129674 0)
(-0.0154129 -0.0119104 0)
(-0.0127965 -0.0107473 0)
(-0.0104067 -0.00950049 0)
(-0.00826012 -0.00819513 0)
(-0.00636838 -0.00685993 0)
(-0.00473811 -0.00552696 0)
(-0.00337034 -0.00423192 0)
(-0.00226036 -0.00301441 0)
(-0.0013975 -0.00191832 0)
(-0.000764858 -0.000992425 0)
(-0.000339095 -0.000290764 0)
(-9.42866e-05 0.000126633 0)
(-6.97986e-06 0.000189107 0)
(-5.72048e-05 0.000494388 0)
(-0.000395674 0.0017853 0)
(-0.00114382 0.00325971 0)
(-0.00223859 0.00482731 0)
(-0.0036463 0.00642005 0)
(-0.00534768 0.00798483 0)
(-0.00732086 0.00948145 0)
(-0.00954233 0.0108808 0)
(-0.0119882 0.0121629 0)
(-0.0146344 0.0133148 0)
(-0.0174565 0.0143292 0)
(-0.0204303 0.015203 0)
(-0.0235316 0.0159361 0)
(-0.0267367 0.0165304 0)
(-0.0300222 0.0169893 0)
(-0.0333651 0.0173164 0)
(-0.0367431 0.0175159 0)
(-0.0401341 0.0175917 0)
(-0.0435166 0.0175473 0)
(-0.0468695 0.0173857 0)
(-0.0501719 0.0171096 0)
(-0.0534032 0.0167209 0)
(-0.0565432 0.0162214 0)
(-0.059572 0.0156125 0)
(-0.0624698 0.0148955 0)
(-0.0652171 0.0140718 0)
(-0.0677948 0.0131432 0)
(-0.0701845 0.0121117 0)
(-0.0723679 0.0109803 0)
(-0.0743277 0.00975265 0)
(-0.0760473 0.0084333 0)
(-0.0775113 0.00702809 0)
(-0.0787052 0.00554405 0)
(-0.0796162 0.00398954 0)
(-0.0802329 0.00237432 0)
(-0.080546 0.000709536 0)
(-0.080548 -0.000992277 0)
(-0.0802337 -0.00271725 0)
(-0.0796004 -0.00445026 0)
(-0.0786481 -0.00617508 0)
(-0.0773796 -0.00787453 0)
(-0.0758003 -0.00953069 0)
(-0.0739192 -0.0111251 0)
(-0.071748 -0.0126391 0)
(-0.0693018 -0.0140541 0)
(-0.0665986 -0.0153517 0)
(-0.0636597 -0.0165145 0)
(-0.0605091 -0.0175261 0)
(-0.0571739 -0.0183712 0)
(-0.0536835 -0.0190368 0)
(-0.0500697 -0.0195116 0)
(-0.046366 -0.0197869 0)
(-0.0426076 -0.019857 0)
(-0.0388307 -0.0197188 0)
(-0.0350719 -0.0193727 0)
(-0.0313678 -0.0188226 0)
(-0.0277543 -0.0180758 0)
(-0.0242663 -0.0171434 0)
(-0.0209364 -0.0160403 0)
(-0.0177949 -0.014785 0)
(-0.014869 -0.0134 0)
(-0.0121819 -0.0119113 0)
(-0.00975275 -0.0103489 0)
(-0.00759568 -0.0087463 0)
(-0.00571962 -0.00714109 0)
(-0.00412786 -0.00557464 0)
(-0.00281789 -0.00409243 0)
(-0.00178126 -0.00274432 0)
(-0.00100328 -0.00158495 0)
(-0.000462781 -0.000673918 0)
(-0.00013805 -7.62686e-05 0)
(-1.36182e-05 0.00013332 0)
(-6.7012e-05 0.000709697 0)
(-0.000457474 0.00240026 0)
(-0.00131362 0.0042464 0)
(-0.00255738 0.00615944 0)
(-0.00414565 0.00807202 0)
(-0.0060532 0.00993124 0)
(-0.00825294 0.0116969 0)
(-0.010717 0.0133398 0)
(-0.0134178 0.0148397 0)
(-0.0163283 0.016184 0)
(-0.0194218 0.0173653 0)
(-0.0226721 0.018381 0)
(-0.0260532 0.0192312 0)
(-0.0295401 0.0199184 0)
(-0.033108 0.0204463 0)
(-0.0367327 0.0208193 0)
(-0.0403909 0.0210418 0)
(-0.0440593 0.0211182 0)
(-0.0477154 0.0210526 0)
(-0.051337 0.0208482 0)
(-0.0549022 0.020508 0)
(-0.0583894 0.0200342 0)
(-0.0617773 0.019429 0)
(-0.0650448 0.0186939 0)
(-0.0681712 0.0178306 0)
(-0.071136 0.0168408 0)
(-0.0739191 0.0157267 0)
(-0.0765007 0.0144909 0)
(-0.0788619 0.0131368 0)
(-0.0809843 0.011669 0)
(-0.0828503 0.010093 0)
(-0.0844435 0.00841581 0)
(-0.0857487 0.00664569 0)
(-0.0867522 0.00479261 0)
(-0.0874418 0.00286806 0)
(-0.0878073 0.000885164 0)
(-0.0878406 -0.00114134 0)
(-0.0875359 -0.0031952 0)
(-0.08689 -0.00525869 0)
(-0.0859023 -0.00731281 0)
(-0.0845751 -0.00933746 0)
(-0.082914 -0.0113116 0)
(-0.0809274 -0.0132138 0)
(-0.0786273 -0.0150219 0)
(-0.0760289 -0.0167143 0)
(-0.0731507 -0.0182693 0)
(-0.0700145 -0.0196665 0)
(-0.0666452 -0.0208862 0)
(-0.063071 -0.0219107 0)
(-0.0593224 -0.0227243 0)
(-0.0554329 -0.0233136 0)
(-0.0514379 -0.023668 0)
(-0.0473746 -0.0237805 0)
(-0.0432813 -0.023647 0)
(-0.0391972 -0.0232678 0)
(-0.0351617 -0.0226469 0)
(-0.0312134 -0.0217926 0)
(-0.02739 -0.0207176 0)
(-0.0237273 -0.0194388 0)
(-0.0202586 -0.0179778 0)
(-0.0170139 -0.0163604 0)
(-0.0140197 -0.0146167 0)
(-0.0112978 -0.0127813 0)
(-0.0088652 -0.010893 0)
(-0.00673358 -0.0089947 0)
(-0.00490883 -0.00713355 0)
(-0.00339097 -0.00536099 0)
(-0.00217409 -0.0037328 0)
(-0.00124594 -0.00230936 0)
(-0.000587656 -0.00115565 0)
(-0.00018164 -0.000341326 0)
(-2.00285e-05 5.54147e-05 0)
(-7.64165e-05 0.000955976 0)
(-0.000517229 0.00309868 0)
(-0.00147849 0.00536023 0)
(-0.00286784 0.00765448 0)
(-0.00463306 0.00991577 0)
(-0.00674307 0.0120924 0)
(-0.00916559 0.0141452 0)
(-0.0118682 0.0160456 0)
(-0.0148197 0.0177742 0)
(-0.01799 0.0193189 0)
(-0.02135 0.020673 0)
(-0.0248712 0.0218344 0)
(-0.0285263 0.0228041 0)
(-0.0322885 0.0235852 0)
(-0.036132 0.0241819 0)
(-0.0400314 0.0245994 0)
(-0.0439623 0.0248425 0)
(-0.0479007 0.0249163 0)
(-0.051823 0.024825 0)
(-0.055706 0.0245725 0)
(-0.0595271 0.024162 0)
(-0.0632638 0.023596 0)
(-0.0668938 0.0228769 0)
(-0.0703952 0.0220065 0)
(-0.0737464 0.0209867 0)
(-0.0769258 0.0198197 0)
(-0.0799126 0.0185079 0)
(-0.0826861 0.0170547 0)
(-0.0852263 0.015464 0)
(-0.087514 0.0137411 0)
(-0.0895307 0.0118927 0)
(-0.0912592 0.00992668 0)
(-0.0926832 0.00785287 0)
(-0.0937881 0.00568274 0)
(-0.094561 0.00342956 0)
(-0.0949908 0.0011085 0)
(-0.0950686 -0.00126351 0)
(-0.0947877 -0.00366772 0)
(-0.0941441 -0.00608378 0)
(-0.0931367 -0.00848982 0)
(-0.0917672 -0.0108627 0)
(-0.0900404 -0.0131783 0)
(-0.0879647 -0.0154116 0)
(-0.0855516 -0.0175375 0)
(-0.0828163 -0.0195306 0)
(-0.0797774 -0.0213661 0)
(-0.076457 -0.02302 0)
(-0.0728807 -0.0244696 0)
(-0.0690773 -0.0256941 0)
(-0.0650788 -0.0266749 0)
(-0.0609198 -0.0273961 0)
(-0.0566375 -0.0278454 0)
(-0.052271 -0.0280137 0)
(-0.0478612 -0.0278962 0)
(-0.0434495 -0.0274924 0)
(-0.0390781 -0.0268065 0)
(-0.0347887 -0.0258476 0)
(-0.0306221 -0.0246296 0)
(-0.0266173 -0.0231718 0)
(-0.0228109 -0.0214985 0)
(-0.0192364 -0.0196389 0)
(-0.0159235 -0.0176274 0)
(-0.0128972 -0.0155033 0)
(-0.0101779 -0.0133104 0)
(-0.00778013 -0.0110974 0)
(-0.00571291 -0.00891715 0)
(-0.00397907 -0.00682717 0)
(-0.00257548 -0.00488921 0)
(-0.00149249 -0.00316939 0)
(-0.000713569 -0.00173795 0)
(-0.00022506 -0.000669097 0)
(-2.62376e-05 -4.439e-05 0)
(-8.54394e-05 0.00123213 0)
(-0.000574894 0.00387802 0)
(-0.00163808 0.00659778 0)
(-0.003169 0.00930852 0)
(-0.00510673 0.0119471 0)
(-0.00741451 0.0144641 0)
(-0.0100549 0.016822 0)
(-0.0129911 0.0189938 0)
(-0.0161881 0.0209616 0)
(-0.0196128 0.0227143 0)
(-0.0232335 0.0242466 0)
(-0.0270198 0.0255573 0)
(-0.0309425 0.0266485 0)
(-0.0349736 0.0275241 0)
(-0.0390859 0.0281893 0)
(-0.0432532 0.0286497 0)
(-0.04745 0.0289111 0)
(-0.0516515 0.0289789 0)
(-0.0558333 0.0288579 0)
(-0.0599716 0.0285524 0)
(-0.0640429 0.0280658 0)
(-0.0680239 0.027401 0)
(-0.0718917 0.0265605 0)
(-0.0756237 0.0255465 0)
(-0.0791972 0.0243613 0)
(-0.0825902 0.0230071 0)
(-0.0857809 0.021487 0)
(-0.0887478 0.0198047 0)
(-0.0914701 0.0179649 0)
(-0.0939278 0.0159736 0)
(-0.0961014 0.0138383 0)
(-0.0979728 0.0115684 0)
(-0.099525 0.00917481 0)
(-0.100742 0.00667062 0)
(-0.101611 0.00407092 0)
(-0.102118 0.00139286 0)
(-0.102255 -0.00134434 0)
(-0.102014 -0.00411949 0)
(-0.101389 -0.00690951 0)
(-0.100379 -0.00968963 0)
(-0.0989841 -0.0124336 0)
(-0.097209 -0.015114 0)
(-0.095061 -0.0177025 0)
(-0.0925512 -0.0201703 0)
(-0.0896945 -0.0224885 0)
(-0.0865091 -0.0246286 0)
(-0.0830175 -0.0265631 0)
(-0.0792453 -0.0282659 0)
(-0.0752222 -0.0297127 0)
(-0.0709809 -0.0308819 0)
(-0.0665574 -0.0317549 0)
(-0.0619905 -0.0323169 0)
(-0.0573213 -0.0325569 0)
(-0.0525928 -0.0324687 0)
(-0.0478493 -0.032051 0)
(-0.0431357 -0.0313078 0)
(-0.0384969 -0.0302487 0)
(-0.0339772 -0.0288891 0)
(-0.0296189 -0.0272501 0)
(-0.0254626 -0.0253587 0)
(-0.0215452 -0.0232478 0)
(-0.0179002 -0.0209559 0)
(-0.0145565 -0.0185269 0)
(-0.0115378 -0.01601 0)
(-0.00886237 -0.0134596 0)
(-0.00654233 -0.0109345 0)
(-0.00458376 -0.00849846 0)
(-0.00298652 -0.00621923 0)
(-0.00174366 -0.00416883 0)
(-0.000840973 -0.00242289 0)
(-0.000268532 -0.00106022 0)
(-3.2304e-05 -0.000165959 0)
(-9.40961e-05 0.00153708 0)
(-0.000630433 0.00473559 0)
(-0.00179211 0.00795525 0)
(-0.00346014 0.011117 0)
(-0.00556528 0.0141612 0)
(-0.00806531 0.017041 0)
(-0.0109178 0.0197217 0)
(-0.0140815 0.0221787 0)
(-0.0175179 0.0243959 0)
(-0.0211907 0.0263642 0)
(-0.0250657 0.02808 0)
(-0.0291105 0.0295434 0)
(-0.0332943 0.0307579 0)
(-0.0375875 0.0317286 0)
(-0.0419619 0.0324616 0)
(-0.0463903 0.0329635 0)
(-0.0508464 0.0332408 0)
(-0.0553047 0.0332996 0)
(-0.05974 0.0331452 0)
(-0.0641281 0.0327821 0)
(-0.0684446 0.0322143 0)
(-0.0726658 0.0314449 0)
(-0.0767682 0.0304767 0)
(-0.0807283 0.029312 0)
(-0.0845232 0.0279533 0)
(-0.08813 0.0264034 0)
(-0.0915261 0.0246656 0)
(-0.0946895 0.022744 0)
(-0.0975985 0.0206441 0)
(-0.100232 0.0183726 0)
(-0.102571 0.0159379 0)
(-0.104594 0.0133504 0)
(-0.106285 0.0106224 0)
(-0.107627 0.00776862 0)
(-0.108605 0.00480581 0)
(-0.109206 0.00175314 0)
(-0.109418 -0.00136795 0)
(-0.109233 -0.00453377 0)
(-0.108645 -0.00771855 0)
(-0.10765 -0.0108946 0)
(-0.106248 -0.0140324 0)
(-0.104443 -0.0171012 0)
(-0.102241 -0.0200692 0)
(-0.0996515 -0.0229039 0)
(-0.0966894 -0.0255726 0)
(-0.0933725 -0.0280431 0)
(-0.0897227 -0.0302838 0)
(-0.0857661 -0.0322649 0)
(-0.0815324 -0.0339585 0)
(-0.0770552 -0.0353396 0)
(-0.0723717 -0.0363866 0)
(-0.0675222 -0.0370816 0)
(-0.0625496 -0.0374115 0)
(-0.0574993 -0.0373683 0)
(-0.0524183 -0.0369496 0)
(-0.0473546 -0.036159 0)
(-0.0423566 -0.0350062 0)
(-0.037472 -0.0335077 0)
(-0.0327472 -0.0316865 0)
(-0.0282267 -0.0295722 0)
(-0.0239517 -0.0272012 0)
(-0.0199598 -0.0246161 0)
(-0.0162839 -0.0218657 0)
(-0.0129519 -0.0190045 0)
(-0.0099857 -0.0160928 0)
(-0.00740132 -0.0131957 0)
(-0.00520821 -0.0103831 0)
(-0.00340947 -0.00772917 0)
(-0.00200097 -0.00531204 0)
(-0.000970749 -0.00321296 0)
(-0.000312428 -0.00151568 0)
(-3.83053e-05 -0.000309331 0)
(-0.000102396 0.00186972 0)
(-0.000683804 0.00566855 0)
(-0.00194032 0.00942853 0)
(-0.00374062 0.013075 0)
(-0.00600754 0.0165522 0)
(-0.00869362 0.0198171 0)
(-0.0117517 0.0228382 0)
(-0.0151361 0.0255938 0)
(-0.0188048 0.0280707 0)
(-0.0227186 0.0302621 0)
(-0.0268408 0.0321664 0)
(-0.0311369 0.0337858 0)
(-0.0355745 0.0351254 0)
(-0.0401227 0.0361917 0)
(-0.0447522 0.0369921 0)
(-0.0494349 0.0375342 0)
(-0.0541438 0.0378254 0)
(-0.0588526 0.0378725 0)
(-0.0635359 0.0376813 0)
(-0.0681685 0.0372569 0)
(-0.0727259 0.0366035 0)
(-0.0771838 0.0357246 0)
(-0.0815182 0.0346231 0)
(-0.0857052 0.0333016 0)
(-0.0897213 0.031763 0)
(-0.0935429 0.0300101 0)
(-0.0971471 0.0280466 0)
(-0.100511 0.0258772 0)
(-0.103612 0.0235077 0)
(-0.10643 0.0209457 0)
(-0.108941 0.0182005 0)
(-0.111128 0.0152834 0)
(-0.11297 0.012208 0)
(-0.114451 0.00899052 0)
(-0.115553 0.00564936 0)
(-0.116263 0.00220563 0)
(-0.116567 -0.00131702 0)
(-0.116457 -0.00489248 0)
(-0.115925 -0.00849226 0)
(-0.114965 -0.0120857 0)
(-0.113576 -0.0156401 0)
(-0.111761 -0.0191214 0)
(-0.109523 -0.0224939 0)
(-0.106872 -0.0257215 0)
(-0.103822 -0.0287673 0)
(-0.100389 -0.0315952 0)
(-0.0965953 -0.0341695 0)
(-0.0924661 -0.0364562 0)
(-0.0880315 -0.0384235 0)
(-0.0833256 -0.0400425 0)
(-0.0783866 -0.041288 0)
(-0.0732562 -0.0421391 0)
(-0.0679792 -0.0425798 0)
(-0.0626034 -0.0426 0)
(-0.0571785 -0.0421957 0)
(-0.0517559 -0.0413696 0)
(-0.0463875 -0.0401315 0)
(-0.041125 -0.0384985 0)
(-0.0360192 -0.0364954 0)
(-0.0311188 -0.0341543 0)
(-0.0264698 -0.0315148 0)
(-0.0221142 -0.0286237 0)
(-0.0180898 -0.0255348 0)
(-0.0144287 -0.0223082 0)
(-0.0111573 -0.01901 0)
(-0.0082956 -0.0157119 0)
(-0.00585682 -0.0124904 0)
(-0.00384753 -0.00942635 0)
(-0.00226652 -0.00660423 0)
(-0.00110408 -0.00411138 0)
(-0.00035722 -0.00203698 0)
(-4.43318e-05 -0.000474773 0)
(-0.000110338 0.00222892 0)
(-0.000734949 0.00667397 0)
(-0.00208249 0.0110132 0)
(-0.00400987 0.015177 0)
(-0.00643242 0.019114 0)
(-0.00929772 0.0227856 0)
(-0.012554 0.0261642 0)
(-0.0161516 0.0292318 0)
(-0.0200448 0.0319784 0)
(-0.0241917 0.0344002 0)
(-0.0285532 0.0364982 0)
(-0.0330927 0.0382771 0)
(-0.0377763 0.0397436 0)
(-0.0425719 0.0409062 0)
(-0.0474491 0.0417737 0)
(-0.052379 0.0423551 0)
(-0.057334 0.0426585 0)
(-0.0622872 0.0426916 0)
(-0.0672127 0.042461 0)
(-0.072085 0.0419722 0)
(-0.0768792 0.0412296 0)
(-0.0815706 0.0402372 0)
(-0.0861349 0.0389981 0)
(-0.0905479 0.037515 0)
(-0.0947854 0.035791 0)
(-0.0988238 0.0338293 0)