/*--------------------------------*- C++ -*----------------------------------*\
  =========                 |
  \\      /  F ield         | OpenFOAM: The Open Source CFD Toolbox
   \\    /   O peration     | Website:  https://openfoam.org
    \\  /    A nd           | Version:  dev
     \\/     M anipulation  |
\*---------------------------------------------------------------------------*/
FoamFile
{
    format      ascii;
    class       volScalarField;
    location    "14.4";
    object      Uy;
}
// * * * * * * * * * * * * * * * * * * * * * * * * * * * * * * * * * * * * * //

dimensions      [0 1 -1 0 0 0 0];

internalField   nonuniform List<scalar> 
5184
(
-1.24712e-05
-2.06893e-05
-1.71116e-05
-8.09919e-06
2.73809e-06
1.36585e-05
2.38643e-05
3.30408e-05
4.10772e-05
4.79778e-05
5.38027e-05
5.86374e-05
6.25747e-05
6.57042e-05
6.8111e-05
6.98699e-05
7.10453e-05
7.16905e-05
7.18451e-05
7.15393e-05
7.07919e-05
6.96133e-05
6.80061e-05
6.59677e-05
6.34917e-05
6.05681e-05
5.71866e-05
5.33371e-05
4.90126e-05
4.42104e-05
3.89329e-05
3.31892e-05
2.69966e-05
2.03814e-05
1.33789e-05
6.03472e-06
-1.5953e-06
-9.44529e-06
-1.74391e-05
-2.54904e-05
-3.3505e-05
-4.13818e-05
-4.90144e-05
-5.62918e-05
-6.31017e-05
-6.93328e-05
-7.48766e-05
-7.963e-05
-8.34986e-05
-8.63987e-05
-8.82599e-05
-8.90271e-05
-8.86622e-05
-8.71454e-05
-8.44759e-05
-8.06729e-05
-7.57755e-05
-6.98423e-05
-6.29507e-05
-5.51966e-05
-4.6694e-05
-3.75748e-05
-2.79928e-05
-1.81298e-05
-8.21103e-06
1.46809e-06
1.0487e-05
1.821e-05
2.36281e-05
2.50529e-05
1.98038e-05
6.24235e-06
-4.54369e-05
-6.51772e-05
-4.01028e-05
7.9792e-06
6.58971e-05
0.000126071
0.000184239
0.000238149
0.000286674
0.000329373
0.000366206
0.000397364
0.000423156
0.000443947
0.000460116
0.000472019
0.000479976
0.000484265
0.000485107
0.000482674
0.000477087
0.000468421
0.000456717
0.000441983
0.000424208
0.000403369
0.000379444
0.000352412
0.000322276
0.000289062
0.000252832
0.000213686
0.000171775
0.000127301
8.05236e-05
3.17601e-05
-1.86118e-05
-7.01556e-05
-0.000122378
-0.000174733
-0.000226628
-0.000277432
-0.000326488
-0.000373118
-0.000416639
-0.000456378
-0.000491684
-0.000521943
-0.000546596
-0.000565147
-0.000577185
-0.000582391
-0.000580549
-0.000571556
-0.000555425
-0.000532296
-0.00050243
-0.000466214
-0.000424163
-0.000376913
-0.000325232
-0.00027002
-0.000212334
-0.000153423
-9.47926e-05
-3.83204e-05
1.3546e-05
5.75075e-05
8.89833e-05
0.00010149
8.62726e-05
3.64217e-05
-8.08344e-05
-9.42301e-05
-1.83484e-05
0.000106519
0.000254943
0.000410533
0.000563011
0.000706259
0.000836842
0.000953064
0.00105433
0.00114074
0.0012128
0.00127124
0.00131688
0.00135053
0.00137297
0.00138486
0.00138678
0.00137915
0.00136232
0.0013365
0.00130182
0.00125835
0.0012061
0.00114505
0.0010752
0.000996558
0.000909197
0.00081325
0.00070895
0.000596638
0.000476789
0.000350015
0.00021708
7.89034e-05
-6.34372e-05
-0.00020871
-0.000355537
-0.000502406
-0.000647685
-0.000789648
-0.000926497
-0.0010564
-0.0011775
-0.00128798
-0.00138611
-0.00147023
-0.00153885
-0.00159065
-0.00162454
-0.00163967
-0.0016355
-0.00161174
-0.00156848
-0.00150612
-0.00142539
-0.00132739
-0.00121356
-0.0010857
-0.000945986
-0.000796969
-0.000641648
-0.000483544
-0.000326845
-0.000176626
-3.91881e-05
7.74719e-05
0.000163082
0.000204501
0.000185643
9.01576e-05
-9.71699e-05
-7.21171e-05
8.57654e-05
0.000318995
0.000590192
0.000873824
0.00115292
0.00141674
0.00165883
0.00187567
0.00206571
0.00222871
0.00236523
0.0024763
0.00256319
0.00262722
0.00266967
0.0026917
0.00269428
0.00267819
0.00264405
0.00259226
0.00252311
0.00243675
0.00233327
0.0022127
0.0020751
0.00192059
0.00174937
0.00156179
0.00135837
0.00113984
0.000907184
0.000661625
0.000404676
0.000138133
-0.000135921
-0.000415125
-0.00069685
-0.000978229
-0.00125618
-0.00152747
-0.00178872
-0.0020365
-0.00226737
-0.00247795
-0.00266501
-0.00282549
-0.00295664
-0.00305601
-0.00312161
-0.00315189
-0.00314581
-0.00310294
-0.00302341
-0.00290801
-0.00275815
-0.00257594
-0.00236411
-0.00212611
-0.00186608
-0.00158889
-0.00130025
-0.0010068
-0.000716338
-0.000438118
-0.000183258
3.46671e-05
0.000198978
0.000289321
0.00028144
0.000146827
-8.37351e-05
2.2027e-05
0.000296399
0.000668384
0.00109034
0.00152846
0.0019594
0.00236773
0.00274379
0.00308194
0.00337944
0.00363547
0.00385049
0.00402574
0.00416288
0.00426371
0.00433002
0.00436347
0.00436547
0.00433719
0.00427954
0.00419318
0.00407857
0.003936
0.00376567
0.00356774
0.00334239
0.00308989
0.0028107
0.00250546
0.00217512
0.00182096
0.00144461
0.00104812
0.000633966
0.000205054
-0.000235264
-0.000683214
-0.00113462
-0.00158494
-0.00202932
-0.00246265
-0.00287967
-0.003275
-0.00364328
-0.00397923
-0.00427782
-0.00453432
-0.00474442
-0.00490437
-0.00501105
-0.00506206
-0.00505585
-0.00499171
-0.00486991
-0.00469169
-0.00445931
-0.00417608
-0.00384637
-0.00347562
-0.00307038
-0.00263836
-0.00218854
-0.00173128
-0.00127862
-0.000844561
-0.000445555
-0.000101117
0.000165469
0.000326525
0.000349374
0.000193448
-3.68184e-05
0.000198408
0.000627511
0.00117003
0.00177019
0.00238728
0.00299235
0.00356567
0.00409445
0.00457096
0.00499113
0.00535348
0.00565827
0.00590684
0.00610118
0.00624354
0.0063362
0.00638129
0.00638067
0.00633591
0.00624825
0.0061186
0.00594765
0.00573586
0.00548359
0.00519116
0.00485895
0.00448749
0.00407754
0.00363018
0.0031469
0.00262965
0.0020809
0.00150369
0.000901651
0.000279023
-0.000359343
-0.00100801
-0.001661
-0.00231181
-0.00295355
-0.00357897
-0.00418058
-0.00475078
-0.00528202
-0.00576685
-0.00619816
-0.00656929
-0.0068742
-0.00710759
-0.00726507
-0.00734327
-0.00734
-0.00725429
-0.00708651
-0.00683843
-0.00651329
-0.00611578
-0.00565211
-0.00513004
-0.00455888
-0.00394957
-0.00331478
-0.00266907
-0.00202913
-0.00141409
-0.000846033
-0.000350592
4.23285e-05
0.000297858
0.000375267
0.000223607
4.47473e-05
0.000461982
0.00108696
0.00183325
0.0026392
0.00345873
0.00425833
0.00501464
0.00571211
0.00634109
0.00689629
0.00737555
0.00777888
0.00810773
0.00836434
0.00855137
0.00867156
0.0087275
0.00872149
0.00865548
0.00853104
0.00834939
0.00811142
0.00781782
0.00746915
0.00706595
0.00660884
0.00609869
0.00553666
0.00492436
0.00426394
0.00355816
0.00281045
0.00202502
0.00120683
0.000361635
-0.000504011
-0.0013828
-0.00226671
-0.00314708
-0.00401471
-0.00485997
-0.00567292
-0.00644349
-0.00716166
-0.0078176
-0.00840189
-0.00890573
-0.00932111
-0.00964103
-0.00985967
-0.00997257
-0.00997678
-0.00987102
-0.00965575
-0.00933333
-0.008908
-0.00838599
-0.00777554
-0.00708694
-0.00633252
-0.00552677
-0.00468637
-0.00383037
-0.00298041
-0.00216101
-0.00140006
-0.000729307
-0.000185176
0.000190618
0.000350057
0.000233891
0.000160942
0.000814585
0.0016785
0.00266303
0.00370272
0.0047477
0.00576109
0.00671669
0.00759677
0.00839011
0.0090904
0.00969493
0.0102035
0.0106177
0.01094
0.0111734
0.0113212
0.0113863
0.0113715
0.0112791
0.011111
0.0108687
0.0105533
0.0101659
0.00970707
0.00917775
0.00857884
0.00791158
0.00717764
0.00637925
0.00551931
0.00460149
0.00363035
0.00261137
0.00155099
0.000456652
-0.000663223
-0.00179928
-0.00294127
-0.00407816
-0.00519827
-0.00628934
-0.00733881
-0.00833391
-0.00926193
-0.0101104
-0.0108675
-0.011522
-0.0120638
-0.0124839
-0.012775
-0.0129313
-0.0129491
-0.0128267
-0.0125645
-0.0121656
-0.0116352
-0.0109811
-0.0102137
-0.00934612
-0.00839378
-0.00737493
-0.00631053
-0.00522433
-0.00414313
-0.003097
-0.00211964
-0.00124895
-0.000527619
-3.75873e-06
0.000268208
0.000222605
0.000311125
0.00125611
0.00240305
0.00366118
0.00496301
0.0062564
0.00750222
0.00867238
0.00974762
0.0107156
0.0115694
0.0123058
0.0129248
0.0134278
0.0138179
0.0140983
0.0142728
0.0143447
0.0143171
0.0141929
0.0139742
0.0136628
0.0132601
0.0127673
0.0121855
0.0115157
0.0107592
0.00991772
0.00899352
0.00798947
0.00690934
0.00575781
0.00454064
0.00326471
0.00193808
0.000569977
-0.00082916
-0.00224778
-0.00367326
-0.00509204
-0.00648976
-0.0078514
-0.00916154
-0.0104046
-0.0115649
-0.0126272
-0.013577
-0.0144004
-0.0150851
-0.01562
-0.015996
-0.0162059
-0.0162451
-0.0161112
-0.0158048
-0.0153293
-0.014691
-0.0138996
-0.0129674
-0.0119104
-0.0107473
-0.00950049
-0.00819513
-0.00685993
-0.00552696
-0.00423192
-0.00301441
-0.00191832
-0.000992425
-0.000290764
0.000126633
0.000189107
0.000494388
0.0017853
0.00325971
0.00482731
0.00642005
0.00798483
0.00948145
0.0108808
0.0121629
0.0133148
0.0143292
0.015203
0.0159361
0.0165304
0.0169893
0.0173164
0.0175159
0.0175917
0.0175473
0.0173857
0.0171096
0.0167209
0.0162214
0.0156125
0.0148955
0.0140718
0.0131432
0.0121117
0.0109803
0.00975265
0.0084333
0.00702809
0.00554405
0.00398954
0.00237432
0.000709536
-0.000992277
-0.00271725
-0.00445026
-0.00617508
-0.00787453
-0.00953069
-0.0111251
-0.0126391
-0.0140541
-0.0153517
-0.0165145
-0.0175261
-0.0183712
-0.0190368
-0.0195116
-0.0197869
-0.019857
-0.0197188
-0.0193727
-0.0188226
-0.0180758
-0.0171434
-0.0160403
-0.014785
-0.0134
-0.0119113
-0.0103489
-0.0087463
-0.00714109
-0.00557464
-0.00409243
-0.00274432
-0.00158495
-0.000673918
-7.62686e-05
0.00013332
0.000709697
0.00240026
0.0042464
0.00615944
0.00807202
0.00993124
0.0116969
0.0133398
0.0148397
0.016184
0.0173653
0.018381
0.0192312
0.0199184
0.0204463
0.0208193
0.0210418
0.0211182
0.0210526
0.0208482
0.020508
0.0200342
0.019429
0.0186939
0.0178306
0.0168408
0.0157267
0.0144909
0.0131368
0.011669
0.010093
0.00841581
0.00664569
0.00479261
0.00286806
0.000885164
-0.00114134
-0.0031952
-0.00525869
-0.00731281
-0.00933746
-0.0113116
-0.0132138
-0.0150219
-0.0167143
-0.0182693
-0.0196665
-0.0208862
-0.0219107
-0.0227243
-0.0233136
-0.023668
-0.0237805
-0.023647
-0.0232678
-0.0226469
-0.0217926
-0.0207176
-0.0194388
-0.0179778
-0.0163604
-0.0146167
-0.0127813
-0.010893
-0.0089947
-0.00713355
-0.00536099
-0.0037328
-0.00230936
-0.00115565
-0.000341326
5.54147e-05
0.000955976
0.00309868
0.00536023
0.00765448
0.00991577
0.0120924
0.0141452
0.0160456
0.0177742
0.0193189
0.020673
0.0218344
0.0228041
0.0235852
0.0241819
0.0245994
0.0248425
0.0249163
0.024825
0.0245725
0.024162
0.023596
0.0228769
0.0220065
0.0209867
0.0198197
0.0185079
0.0170547
0.015464
0.0137411
0.0118927
0.00992668
0.00785287
0.00568274
0.00342956
0.0011085
-0.00126351
-0.00366772
-0.00608378
-0.00848982
-0.0108627
-0.0131783
-0.0154116
-0.0175375
-0.0195306
-0.0213661
-0.02302
-0.0244696
-0.0256941
-0.0266749
-0.0273961
-0.0278454
-0.0280137
-0.0278962
-0.0274924
-0.0268065
-0.0258476
-0.0246296
-0.0231718
-0.0214985
-0.0196389
-0.0176274
-0.0155033
-0.0133104
-0.0110974
-0.00891715
-0.00682717
-0.00488921
-0.00316939
-0.00173795
-0.000669097
-4.439e-05
0.00123213
0.00387802
0.00659778
0.00930852
0.0119471
0.0144641
0.016822
0.0189938
0.0209616
0.0227143
0.0242466
0.0255573
0.0266485
0.0275241
0.0281893
0.0286497
0.0289111
0.0289789
0.0288579
0.0285524
0.0280658
0.027401
0.0265605
0.0255465
0.0243613
0.0230071
0.021487
0.0198047
0.0179649
0.0159736
0.0138383
0.0115684
0.00917481
0.00667062
0.00407092
0.00139286
-0.00134434
-0.00411949
-0.00690951
-0.00968963
-0.0124336
-0.015114
-0.0177025
-0.0201703
-0.0224885
-0.0246286
-0.0265631
-0.0282659
-0.0297127
-0.0308819
-0.0317549
-0.0323169
-0.0325569
-0.0324687
-0.032051
-0.0313078
-0.0302487
-0.0288891
-0.0272501
-0.0253587
-0.0232478
-0.0209559
-0.0185269
-0.01601
-0.0134596
-0.0109345
-0.00849846
-0.00621923
-0.00416883
-0.00242289
-0.00106022
-0.000165959
0.00153708
0.00473559
0.00795525
0.011117
0.0141612
0.017041
0.0197217
0.0221787
0.0243959
0.0263642
0.02808
0.0295434
0.0307579
0.0317286
0.0324616
0.0329635
0.0332408
0.0332996
0.0331452
0.0327821
0.0322143
0.0314449
0.0304767
0.029312
0.0279533
0.0264034
0.0246656
0.022744
0.0206441
0.0183726
0.0159379
0.0133504
0.0106224
0.00776862
0.00480581
0.00175314
-0.00136795
-0.00453377
-0.00771855
-0.0108946
-0.0140324
-0.0171012
-0.0200692
-0.0229039
-0.0255726
-0.0280431
-0.0302838
-0.0322649
-0.0339585
-0.0353396
-0.0363866
-0.0370816
-0.0374115
-0.0373683
-0.0369496
-0.036159
-0.0350062
-0.0335077
-0.0316865
-0.0295722
-0.0272012
-0.0246161
-0.0218657
-0.0190045
-0.0160928
-0.0131957
-0.0103831
-0.00772917
-0.00531204
-0.00321296
-0.00151568
-0.000309331
0.00186972
0.00566855
0.00942853
0.013075
0.0165522
0.0198171
0.0228382
0.0255938
0.0280707
0.0302621
0.0321664
0.0337858
0.0351254
0.0361917
0.0369921
0.0375342
0.0378254
0.0378725
0.0376813
0.0372569
0.0366035
0.0357246
0.0346231
0.0333016
0.031763
0.0300101
0.0280466
0.0258772
0.0235077
0.0209457
0.0182005
0.0152834
0.012208
0.00899052
0.00564936
0.00220563
-0.00131702
-0.00489248
-0.00849226
-0.0120857
-0.0156401
-0.0191214
-0.0224939
-0.0257215
-0.0287673
-0.0315952
-0.0341695
-0.0364562
-0.0384235
-0.0400425
-0.041288
-0.0421391
-0.0425798
-0.0426
-0.0421957
-0.0413696
-0.0401315
-0.0384985
-0.0364954
-0.0341543
-0.0315148
-0.0286237
-0.0255348
-0.0223082
-0.01901
-0.0157119
-0.0124904
-0.00942635
-0.00660423
-0.00411138
-0.00203698
-0.000474773
0.00222892
0.00667397
0.0110132
0.015177
0.019114
0.0227856
0.0261642
0.0292318
0.0319784
0.0344002
0.0364982
0.0382771
0.0397436
0.0409062
0.0417737
0.0423551
0.0426585
0.0426916
0.042461
0.0419722
0.0412296
0.0402372
0.0389981
0.037515
0.035791
0.0338293
0.0316338
0.0292094
0.0265627
0.0237017
0.0206365
0.0173794
0.0139452
0.0103513
0.00661789
0.00276788
-0.001173
-0.00517624
-0.0092107
-0.0132428
-0.0172366
-0.0211546
-0.0249573
-0.0286046
-0.0320556
-0.0352697
-0.0382069
-0.0408287
-0.0430989
-0.0449845
-0.0464561
-0.047489
-0.0480644
-0.0481691
-0.0477972
-0.0469501
-0.0456372
-0.043876
-0.0416927
-0.0391217
-0.0362058
-0.0329961
-0.0295512
-0.025937
-0.0222258
-0.0184961
-0.0148313
-0.0113194
-0.00805171
-0.00512227
-0.00262625
-0.000662822
0.00261354
0.00774875
0.0127048
0.0174172
0.0218399
0.0259392
0.029692
0.0330846
0.0361108
0.0387703
0.0410673
0.0430089
0.0446045
0.0458644
0.0467991
0.047419
0.0477335
0.0477511
0.0474791
0.0469234
0.0460891
0.0449803
0.0436003
0.0419521
0.0400389
0.0378639
0.0354315
0.0327468
0.0298167
0.0266498
0.0232569
0.019651
0.0158481
0.0118668
0.00772872
0.00345846
-0.000916212
-0.00536451
-0.00985271
-0.0143443
-0.0188003
-0.0231794
-0.0274386
-0.0315335
-0.035419
-0.0390497
-0.0423811
-0.0453698
-0.0479749
-0.0501584
-0.0518865
-0.0531304
-0.0538672
-0.0540806
-0.0537621
-0.0529113
-0.0515366
-0.0496556
-0.0472955
-0.0444927
-0.0412933
-0.0377523
-0.0339335
-0.0299085
-0.0257565
-0.0215627
-0.0174182
-0.0134183
-0.00966213
-0.00625083
-0.00328638
-0.00087431
0.00302238
0.00888967
0.0144981
0.0197893
0.0247226
0.0292698
0.033413
0.0371433
0.0404589
0.0433634
0.0458646
0.0479726
0.0496995
0.0510579
0.0520603
0.0527186
0.0530435
0.0530446
0.0527298
0.052106
0.0511783
0.0499513
0.0484284
0.0466128
0.0445078
0.0421168
0.0394442
0.0364954
0.0332776
0.0297997
0.0260731
0.0221116
0.0179318
0.0135536
0.00899984
0.00429675
-0.00052607
-0.0054357
-0.0103959
-0.0153675
-0.0203081
-0.0251731
-0.0299156
-0.0344868
-0.0388373
-0.0429168
-0.0466757
-0.0500654
-0.0530398
-0.0555556
-0.0575739
-0.0590609
-0.0599894
-0.0603391
-0.0600983
-0.0592641
-0.0578433
-0.0558533
-0.0533216
-0.0502866
-0.0467973
-0.0429128
-0.0387019
-0.0342424
-0.0296202
-0.0249282
-0.0202652
-0.0157349
-0.0114446
-0.0075034
-0.00402105
-0.00111038
0.0034542
0.0100933
0.0163882
0.0222867
0.0277543
0.0327688
0.0373181
0.0413984
0.0450129
0.0481697
0.0508803
0.0531584
0.0550192
0.0564776
0.0575486
0.0582456
0.0585809
0.0585652
0.0582074
0.0575147
0.0564931
0.0551471
0.0534805
0.0514967
0.0491989
0.0465906
0.0436762
0.0404613
0.0369531
0.033161
0.0290965
0.0247742
0.0202112
0.0154284
0.0104497
0.00530267
1.86819e-05
-0.0053674
-0.010817
-0.0162883
-0.0217358
-0.0271113
-0.0323641
-0.0374412
-0.0422883
-0.0468501
-0.0510718
-0.054899
-0.0582799
-0.0611653
-0.0635106
-0.0652766
-0.0664306
-0.0669478
-0.0668125
-0.0660185
-0.0645707
-0.0624851
-0.0597895
-0.0565238
-0.0527395
-0.0484998
-0.0438786
-0.03896
-0.0338371
-0.0286108
-0.0233884
-0.0182826
-0.0134096
-0.00888758
-0.00483476
-0.00137251
0.00390767
0.0113561
0.0183694
0.0249022
0.0309268
0.0364271
0.0413973
0.0458396
0.0497624
0.0531785
0.0561038
0.058556
0.0605533
0.0621138
0.0632546
0.0639912
0.0643376
0.0643055
0.0639049
0.0631438
0.0620286
0.0605641
0.0587544
0.0566028
0.0541126
0.0512873
0.0481311
0.0446498
0.0408506
0.0367427
0.0323382
0.0276517
0.0227012
0.0175078
0.0120966
0.00649632
0.000739685
-0.00513661
-0.0110919
-0.0170816
-0.0230576
-0.0289681
-0.0347584
-0.0403713
-0.0457475
-0.0508267
-0.0555481
-0.0598515
-0.0636786
-0.0669741
-0.0696867
-0.0717709
-0.0731881
-0.073908
-0.0739098
-0.0731836
-0.0717312
-0.0695668
-0.0667178
-0.0632249
-0.0591422
-0.0545365
-0.0494871
-0.0440844
-0.0384292
-0.0326308
-0.0268059
-0.0210768
-0.0155695
-0.0104123
-0.00573291
-0.0016625
0.0043814
0.0126741
0.0204359
0.0276286
0.0342312
0.0402349
0.0456403
0.050456
0.0546959
0.0583783
0.0615237
0.064154
0.0662909
0.0679557
0.069168
0.0699457
0.0703043
0.070257
0.0698148
0.0689866
0.0677792
0.0661978
0.0642467
0.0619291
0.0592484
0.0562079
0.0528117
0.0490654
0.0449761
0.0405531
0.0358083
0.0307564
0.0254158
0.019808
0.0139587
0.00789762
0.00165862
-0.00472004
-0.0111958
-0.0177217
-0.0242468
-0.030716
-0.0370708
-0.0432496
-0.0491882
-0.0548207
-0.0600804
-0.0649007
-0.0692165
-0.0729654
-0.0760889
-0.0785345
-0.0802566
-0.0812184
-0.0813935
-0.0807667
-0.0793362
-0.0771134
-0.0741247
-0.070411
-0.0660284
-0.0610474
-0.0555524
-0.0496405
-0.0434204
-0.0370106
-0.0305377
-0.0241345
-0.0179381
-0.0120876
-0.00672176
-0.0019825
0.00487392
0.0140435
0.0225816
0.0304577
0.0376582
0.0441817
0.0500358
0.0552356
0.0598014
0.0637569
0.0671277
0.0699402
0.07222
0.0739916
0.0752776
0.0760982
0.0764708
0.0764101
0.0759284
0.0750352
0.073738
0.0720424
0.0699527
0.0674723
0.0646044
0.061352
0.0577193
0.0537113
0.0493348
0.044599
0.0395156
0.0340992
0.0283681
0.0223441
0.0160533
0.00952593
0.00279684
-0.00409447
-0.0111037
-0.018182
-0.0252756
-0.0323264
-0.0392721
-0.0460467
-0.052581
-0.0588036
-0.0646414
-0.0700211
-0.0748703
-0.0791187
-0.0827003
-0.0855542
-0.087627
-0.0888746
-0.0892635
-0.0887726
-0.0873949
-0.0851385
-0.0820275
-0.0781027
-0.0734214
-0.0680576
-0.0621005
-0.0556544
-0.0488363
-0.0417742
-0.0346056
-0.0274748
-0.0205309
-0.0139252
-0.0078085
-0.00233498
0.00538364
0.0154599
0.0248
0.0333813
0.0411981
0.0482566
0.054572
0.0601662
0.0650661
0.0693013
0.0729027
0.0759015
0.0783275
0.0802089
0.0815711
0.0824368
0.0828257
0.0827542
0.0822355
0.0812803
0.0798966
0.0780904
0.0758663
0.0732275
0.070177
0.0667178
0.0628534
0.0585886
0.0539298
0.0488856
0.0434673
0.0376894
0.0315696
0.0251299
0.0183964
0.0113995
0.00417489
-0.00323717
-0.010791
-0.0184359
-0.0261157
-0.0337695
-0.0413314
-0.048731
-0.0558943
-0.0627439
-0.0692005
-0.0751836
-0.0806128
-0.0854098
-0.0894996
-0.0928125
-0.0952863
-0.0968682
-0.0975164
-0.0972027
-0.095914
-0.0936535
-0.0904423
-0.0863198
-0.0813442
-0.0755924
-0.0691586
-0.0621539
-0.0547041
-0.0469476
-0.0390334
-0.0311185
-0.0233651
-0.0159379
-0.00900117
-0.00272278
0.00590892
0.0169188
0.0270842
0.0363905
0.0448404
0.052448
0.0592363
0.0652345
0.0704762
0.0749974
0.0788346
0.0820239
0.0845996
0.0865936
0.0880348
0.0889485
0.0893565
0.089277
0.0887247
0.0877111
0.0862451
0.084333
0.0819795
0.0791878
0.0759608
0.072301
0.0682115
0.0636965
0.0587619
0.0534157
0.0476684
0.041534
0.0350298
0.0281773
0.0210022
0.0135352
0.00581203
-0.00212639
-0.0102334
-0.0184568
-0.0267385
-0.0350149
-0.0432165
-0.0512692
-0.0590938
-0.0666074
-0.0737237
-0.080355
-0.0864127
-0.0918095
-0.0964608
-0.100287
-0.103217
-0.105186
-0.106144
-0.106055
-0.104897
-0.102667
-0.0993825
-0.0950805
-0.0898191
-0.0836772
-0.076754
-0.0691675
-0.0610524
-0.0525583
-0.0438467
-0.0350881
-0.0264593
-0.0181398
-0.0103088
-0.00314906
0.00644801
0.0184156
0.0294269
0.0394762
0.0485743
0.0567438
0.0640156
0.0704266
0.0760174
0.0808305
0.0849083
0.0882922
0.0910211
0.093131
0.094654
0.0956186
0.0960488
0.0959648
0.0953827
0.0943151
0.0927716
0.0907591
0.0882822
0.0853443
0.0819479
0.0780951
0.0737885
0.0690317
0.0638296
0.0581895
0.0521212
0.0456377
0.0387555
0.0314955
0.0238828
0.0159477
0.00772575
-0.000741856
-0.00940791
-0.0182191
-0.0271156
-0.0360315
-0.0448946
-0.0536265
-0.0621435
-0.0703568
-0.0781737
-0.0854985
-0.0922342
-0.0982838
-0.103553
-0.107951
-0.111394
-0.113809
-0.115134
-0.115321
-0.114341
-0.112184
-0.108859
-0.104401
-0.0988666
-0.0923366
-0.0849142
-0.0767242
-0.0679109
-0.0586354
-0.0490726
-0.039408
-0.029834
-0.0205466
-0.0117411
-0.00361733
0.00699908
0.0199453
0.0318208
0.0426286
0.0523885
0.0611313
0.0688962
0.075728
0.0816745
0.086785
0.0911081
0.0946904
0.0975759
0.0998047
0.101413
0.102431
0.102887
0.102802
0.102195
0.101078
0.0994624
0.0973554
0.094762
0.0916855
0.0881279
0.084091
0.0795766
0.0745876
0.0691281
0.0632043
0.0568249
0.0500018
0.0427507
0.035091
0.0270473
0.018649
0.00993112
0.000934646
-0.00829305
-0.017698
-0.0272192
-0.0367889
-0.046332
-0.0557669
-0.0650051
-0.0739525
-0.0825096
-0.090573
-0.0980366
-0.104794
-0.110738
-0.115769
-0.119789
-0.122713
-0.124467
-0.12499
-0.124242
-0.122204
-0.118878
-0.114294
-0.108506
-0.101594
-0.0936661
-0.0848535
-0.0753101
-0.0652091
-0.0547399
-0.0441039
-0.033511
-0.0231749
-0.013309
-0.00413146
0.00756021
0.0215027
0.034258
0.0458379
0.0562711
0.0655972
0.0738638
0.0811235
0.0874317
0.0928446
0.0974171
0.101201
0.104247
0.106598
0.108294
0.109369
0.109854
0.109773
0.109144
0.107983
0.106301
0.104106
0.101404
0.0981972
0.0944875
0.0902763
0.0855648
0.0803548
0.0746495
0.0684538
0.0617752
0.0546244
0.0470155
0.0389668
0.0305016
0.021648
0.0124403
0.00291866
-0.00686976
-0.0168708
-0.027023
-0.0372568
-0.0474954
-0.0576537
-0.0676392
-0.0773526
-0.0866878
-0.0955336
-0.103775
-0.111295
-0.117975
-0.123702
-0.128366
-0.131867
-0.134116
-0.13504
-0.134586
-0.132722
-0.129443
-0.124769
-0.118751
-0.11147
-0.103035
-0.0935843
-0.0832808
-0.0723105
-0.0608783
-0.049203
-0.0375134
-0.0260427
-0.0150241
-0.00469564
0.00812943
0.0230827
0.0367304
0.0490938
0.0602102
0.0701281
0.0789036
0.0865973
0.0932725
0.0989922
0.103818
0.107807
0.111016
0.113491
0.115278
0.116414
0.116931
0.116856
0.116211
0.115011
0.11327
0.110994
0.108191
0.104862
0.10101
0.0966358
0.0917387
0.0863201
0.0803819
0.0739279
0.066964
0.0594993
0.0515463
0.0431219
0.0342475
0.0249498
0.0152618
0.00522243
-0.00512191
-0.0157175
-0.0265025
-0.037407
-0.048352
-0.0592502
-0.0700055
-0.0805134
-0.0906618
-0.100332
-0.1094
-0.117737
-0.125214
-0.131703
-0.137081
-0.14123
-0.144048
-0.145445
-0.145353
-0.143727
-0.140548
-0.13583
-0.129615
-0.121984
-0.113046
-0.102945
-0.0918534
-0.0799712
-0.0675189
-0.0547341
-0.041866
-0.0291693
-0.0168988
-0.00531442
0.00870472
0.0246798
0.03923
0.0523857
0.0641934
0.07471
0.0840004
0.0921334
0.0991798
0.10521
0.110292
0.114489
0.117863
0.120465
0.122346
0.123544
0.124097
0.124033
0.123376
0.122143
0.120347
0.117998
0.115102
0.111661
0.107677
0.10315
0.0980803
0.0924665
0.0863098
0.0796124
0.0723788
0.0646161
0.0563352
0.0475508
0.0382826
0.0285553
0.0184
0.00785431
-0.00303696
-0.0142209
-0.0256363
-0.0372128
-0.0488707
-0.0605205
-0.0720633
-0.0833902
-0.0943834
-0.104917
-0.114857
-0.124065
-0.1324
-0.139718
-0.145882
-0.150757
-0.154222
-0.15617
-0.156516
-0.155198
-0.152184
-0.147474
-0.141105
-0.133149
-0.123718
-0.112961
-0.101058
-0.0882228
-0.0746931
-0.0607264
-0.0465944
-0.0325749
-0.0189464
-0.00599268
0.00928402
0.0262884
0.0417483
0.0557031
0.0682079
0.0793288
0.0891387
0.097715
0.105136
0.111479
0.11682
0.121228
0.124768
0.1275
0.129475
0.130739
0.131331
0.131281
0.130615
0.129353
0.12751
0.125094
0.122113
0.11857
0.114465
0.109798
0.104568
0.0987731
0.0924133
0.0854889
0.0780027
0.0699599
0.0613693
0.0522434
0.0425996
0.0324605
0.0218548
0.0108181
-0.000606639
-0.0123681
-0.0244062
-0.0366509
-0.0490225
-0.0614302
-0.0737728
-0.0859379
-0.0978025
-0.109234
-0.120089
-0.13022
-0.139472
-0.147687
-0.15471
-0.16039
-0.164585
-0.16717
-0.168037
-0.167108
-0.164331
-0.159693
-0.153219
-0.144975
-0.13507
-0.123656
-0.110923
-0.0970966
-0.0824328
-0.0672106
-0.0517254
-0.0362809
-0.0211811
-0.00673566
0.00986525
0.0279032
0.044277
0.0590351
0.0722413
0.08397
0.0943029
0.103325
0.111123
0.117782
0.123382
0.128001
0.13171
0.134572
0.136644
0.137975
0.138607
0.138574
0.137904
0.136618
0.134732
0.132257
0.129199
0.125562
0.121347
0.116552
0.111176
0.105215
0.0986682
0.0915343
0.0838141
0.0755108
0.0666308
0.0571843
0.0471861
0.0366562
0.0256207
0.0141126
0.0021724
-0.0101507
-0.0227982
-0.0357017
-0.0487817
-0.0619474
-0.0750959
-0.0881122
-0.100869
-0.113227
-0.125037
-0.136138
-0.146364
-0.155542
-0.163499
-0.170065
-0.175078
-0.17839
-0.17987
-0.179418
-0.176961
-0.172469
-0.165952
-0.157465
-0.147115
-0.135052
-0.121475
-0.106623
-0.0907697
-0.0742173
-0.0572869
-0.0403096
-0.0236176
-0.00754892
0.0104464
0.0295186
0.0468079
0.0623713
0.0762808
0.0886196
0.0994773
0.108947
0.117123
0.124098
0.129959
0.13479
0.138667
0.141659
0.143828
0.145227
0.145901
0.145887
0.145215
0.143909
0.141986
0.139458
0.136331
0.13261
0.128294
0.123384
0.117874
0.111763
0.105046
0.0977211
0.0897867
0.0812439
0.0720968
0.0623529
0.0520242
0.0411277
0.0296866
0.0177308
0.00529806
-0.00756538
-0.0208035
-0.0343499
-0.0481266
-0.0620433
-0.0759967
-0.0898702
-0.103533
-0.116841
-0.129637
-0.141751
-0.153004
-0.163208
-0.172174
-0.17971
-0.185631
-0.189765
-0.191956
-0.192079
-0.190036
-0.185775
-0.179287
-0.170616
-0.159857
-0.147163
-0.132737
-0.11683
-0.0997348
-0.0817775
-0.0633069
-0.0446841
-0.0262717
-0.00843833
0.0110253
0.0311294
0.0493329
0.0657011
0.0803143
0.0932633
0.104646
0.114564
0.123118
0.130408
0.136529
0.141571
0.145615
0.148737
0.151003
0.152469
0.153185
0.153191
0.15252
0.151197
0.149241
0.146664
0.143476
0.139679
0.135274
0.130259
0.124631
0.118384
0.111514
0.104017
0.0958893
0.0871295
0.0777392
0.0677231
0.0570902
0.0458545
0.0340356
0.0216601
0.00876223
-0.00461507
-0.0184191
-0.0325861
-0.0470406
-0.0616939
-0.0764435
-0.091172
-0.105747
-0.120019
-0.133826
-0.146989
-0.159317
-0.170608
-0.180654
-0.189242
-0.196163
-0.201219
-0.204227
-0.20503
-0.203506
-0.199573
-0.1932
-0.184414
-0.173298
-0.160001
-0.144729
-0.127744
-0.109358
-0.0899221
-0.0698143
-0.0494281
-0.0291595
-0.00941013
0.0116003
0.0327304
0.0518442
0.0690147
0.0843296
0.0978876
0.109794
0.120158
0.129089
0.136693
0.143072
0.148322
0.152532
0.155782
0.158142
0.159674
0.160432
0.160458
0.159788
0.15845
0.156464
0.153844
0.150599
0.146734
0.142249
0.137142
0.131408
0.125041
0.118036
0.110386
0.102086
0.0931326
0.0835244
0.0732632
0.062355
0.05081
0.0386446
0.0258813
0.0125505
-0.00130889
-0.0156479
-0.0304067
-0.0455129
-0.0608805
-0.076409
-0.0919816
-0.107465
-0.122708
-0.137542
-0.151782
-0.165226
-0.177657
-0.18885
-0.198571
-0.206585
-0.212667
-0.216601
-0.2182
-0.217307
-0.213811
-0.207654
-0.198837
-0.187429
-0.173569
-0.157464
-0.139387
-0.119667
-0.0986809
-0.0768377
-0.0545661
-0.0322979
-0.0104708
0.0121693
0.0343168
0.0543345
0.0723025
0.0883154
0.102479
0.114907
0.125715
0.135019
0.142933
0.149567
0.155022
0.159394
0.162767
0.165218
0.166814
0.16761
0.167655
0.166986
0.165633
0.163619
0.160959
0.157664
0.153737
0.149181
0.143992
0.138165
0.131693
0.12457
0.116787
0.108337
0.0992138
0.0894141
0.0789365
0.0677836
0.0559621
0.0434844
0.030369
0.0166418
0.00233727
-0.0125002
-0.027815
-0.0435393
-0.0595908
-0.075872
-0.0922684
-0.108647
-0.124857
-0.140725
-0.15606
-0.170651
-0.184269
-0.19667
-0.2076
-0.216799
-0.22401
-0.228985
-0.231501
-0.231365
-0.228428
-0.222599
-0.213851
-0.20223
-0.187863
-0.170953
-0.151779
-0.130688
-0.108083
-0.0844056
-0.0601225
-0.0357042
-0.0116272
0.0127309
0.0358843
0.0567973
0.0755559
0.0922613
0.107026
0.11997
0.131217
0.14089
0.14911
0.155993
0.161648
0.166175
0.169667
0.172205
0.173859
0.17469
0.17475
0.174079
0.172711
0.17067
0.167972
0.16463
0.160648
0.156028
0.150767
0.144859
0.138297
0.131072
0.123175
0.114597
0.105329
0.0953651
0.084701
0.0733358
0.0612727
0.0485198
0.0350912
0.0210083
0.00630052
-0.00899291
-0.0248217
-0.041123
-0.0578196
-0.0748183
-0.0920082
-0.109259
-0.126419
-0.143316
-0.159754
-0.175513
-0.190354
-0.204017
-0.216227
-0.226698
-0.235141
-0.241275
-0.244836
-0.245589
-0.243346
-0.237973
-0.229409
-0.217673
-0.202869
-0.185194
-0.164932
-0.142442
-0.118155
-0.092546
-0.0661222
-0.0393962
-0.0128865
0.0132835
0.0374291
0.0592265
0.0787671
0.0961577
0.111517
0.124971
0.136651
0.146686
0.155204
0.162329
0.168176
0.172853
0.176456
0.179073
0.180779
0.181639
0.181709
0.181034
0.179647
0.177577
0.174843
0.171456
0.167423
0.162745
0.157421
0.151443
0.144804
0.137495
0.129503
0.120818
0.11143
0.10133
0.09051
0.0789663
0.0666981
0.0537095
0.04001
0.0256157
0.010551
-0.00515075
-0.0214451
-0.0382752
-0.0555699
-0.0732416
-0.0911844
-0.109272
-0.127357
-0.145265
-0.1628
-0.179736
-0.195825
-0.210793
-0.224345
-0.236169
-0.245945
-0.253355
-0.258092
-0.259877
-0.258472
-0.253699
-0.245452
-0.233714
-0.218563
-0.200183
-0.178852
-0.154948
-0.128921
-0.101285
-0.0725896
-0.0433918
-0.0142558
0.0138259
0.0389481
0.0616174
0.0819298
0.0999965
0.115942
0.129898
0.142002
0.15239
0.161199
0.168557
0.174587
0.179402
0.183107
0.185793
0.187543
0.188425
0.188498
0.187811
0.186403
0.184301
0.181528
0.178098
0.174016
0.169287
0.163906
0.157869
0.151166
0.143787
0.135719
0.126949
0.117466
0.107257
0.0963128
0.0846253
0.0721902
0.0590072
0.0450813
0.0304233
0.0150519
-0.00100559
-0.0177113
-0.0350152
-0.052853
-0.0711441
-0.0897892
-0.108668
-0.127637
-0.146527
-0.165139
-0.183248
-0.200596
-0.216899
-0.231843
-0.245093
-0.256297
-0.265099
-0.271146
-0.27411
-0.2737
-0.269683
-0.261903
-0.250297
-0.23491
-0.215899
-0.193541
-0.168216
-0.140403
-0.110649
-0.0795491
-0.0477093
-0.0157429
0.0143573
0.0404389
0.0639665
0.0850389
0.103771
0.120293
0.134741
0.147259
0.15799
0.167077
0.174656
0.180856
0.185799
0.189594
0.192338
0.19412
0.195013
0.195081
0.194375
0.192938
0.1908
0.187986
0.18451
0.180382
0.175604
0.170174
0.164086
0.157331
0.149896
0.14177
0.132936
0.123382
0.113093
0.102055
0.090259
0.077696
0.0643616
0.0502558
0.0353844
0.01976
0.00340356
-0.0136541
-0.0313704
-0.049689
-0.0685373
-0.0878242