/*--------------------------------*- C++ -*----------------------------------*\
  =========                 |
  \\      /  F ield         | OpenFOAM: The Open Source CFD Toolbox
   \\    /   O peration     | Website:  https://openfoam.org
    \\  /    A nd           | Version:  dev
     \\/     M anipulation  |
\*---------------------------------------------------------------------------*/
FoamFile
{
    format      ascii;
    class       surfaceScalarField;
    location    "30.15";
    object      phi;
}
// * * * * * * * * * * * * * * * * * * * * * * * * * * * * * * * * * * * * * //

dimensions      [0 3 -1 0 0 0 0];

internalField   nonuniform List<scalar> 
10224
(
3.37476e-08
-3.49248e-08
8.78242e-08
-5.40785e-08
1.24389e-07
-3.65648e-08
1.25355e-07
-9.62783e-10
8.37287e-08
4.16275e-08
-1.75888e-09
8.54866e-08
-1.29279e-07
1.2752e-07
-2.95528e-07
1.6625e-07
-4.96446e-07
2.00918e-07
-7.27733e-07
2.31286e-07
-9.85118e-07
2.57384e-07
-1.26451e-06
2.7939e-07
-1.56207e-06
2.97558e-07
-1.87423e-06
3.1217e-07
-2.19775e-06
3.23511e-07
-2.5296e-06
3.31848e-07
-2.86702e-06
3.37418e-07
-3.20744e-06
3.40422e-07
-3.54846e-06
3.41021e-07
-3.88779e-06
3.39337e-07
-4.22325e-06
3.35455e-07
-4.55268e-06
3.29429e-07
-4.87396e-06
3.21283e-07
-5.18498e-06
3.11019e-07
-5.4836e-06
2.98626e-07
-5.76769e-06
2.84083e-07
-6.03506e-06
2.67368e-07
-6.28352e-06
2.48464e-07
-6.51089e-06
2.27366e-07
-6.71498e-06
2.04089e-07
-6.89365e-06
1.7867e-07
-7.04483e-06
1.51179e-07
-7.16654e-06
1.21715e-07
-7.25696e-06
9.04198e-08
-7.31443e-06
5.74726e-08
-7.33753e-06
2.30963e-08
-7.32508e-06
-1.24433e-08
-7.27625e-06
-4.88378e-08
-7.19051e-06
-8.57381e-08
-7.06775e-06
-1.22757e-07
-6.90828e-06
-1.59474e-07
-6.71284e-06
-1.95439e-07
-6.48265e-06
-2.30183e-07
-6.21943e-06
-2.63222e-07
-5.92536e-06
-2.94069e-07
-5.60312e-06
-3.22242e-07
-5.25584e-06
-3.47276e-07
-4.88711e-06
-3.68731e-07
-4.50091e-06
-3.86205e-07
-4.10156e-06
-3.99345e-07
-3.69371e-06
-4.07855e-07
-3.2822e-06
-4.11504e-07
-2.87207e-06
-4.10138e-07
-2.46839e-06
-4.0368e-07
-2.07624e-06
-3.92142e-07
-1.70062e-06
-3.75618e-07
-1.34633e-06
-3.54295e-07
-1.01788e-06
-3.28445e-07
-7.19454e-07
-2.9843e-07
-4.54753e-07
-2.647e-07
-2.26959e-07
-2.27792e-07
-3.86178e-08
-1.88341e-07
1.08464e-07
-1.47083e-07
2.13347e-07
-1.04888e-07
2.76147e-07
-6.28037e-08
2.98297e-07
-2.21502e-08
2.82976e-07
1.53244e-08
2.35777e-07
4.72024e-08
1.65762e-07
7.00205e-08
8.72236e-08
7.85462e-08
2.25419e-08
6.46897e-08
2.25428e-08
5.38761e-08
-8.88029e-08
1.12386e-07
-1.12592e-07
1.18195e-07
-4.23698e-08
3.88947e-08
7.83372e-08
-1.41918e-07
2.22439e-07
-4.29564e-07
3.73134e-07
-8.2228e-07
5.20238e-07
-1.31392e-06
6.57893e-07
-1.89592e-06
7.82922e-07
-2.55847e-06
8.93837e-07
-3.2913e-06
9.90208e-07
-4.08415e-06
1.07224e-06
-4.92711e-06
1.14051e-06
-5.81073e-06
1.19579e-06
-6.72612e-06
1.23891e-06
-7.66497e-06
1.27069e-06
-8.61945e-06
1.29191e-06
-9.58224e-06
1.30321e-06
-1.05464e-05
1.30515e-06
-1.15052e-05
1.29816e-06
-1.24523e-05
1.28255e-06
-1.33814e-05
1.25852e-06
-1.42863e-05
1.2262e-06
-1.51609e-05
1.18563e-06
-1.59991e-05
1.13682e-06
-1.67947e-05
1.07973e-06
-1.75417e-05
1.01434e-06
-1.82339e-05
9.40655e-07
-1.88653e-05
8.58715e-07
-1.94298e-05
7.68635e-07
-1.99218e-05
6.70619e-07
-2.03356e-05
5.64977e-07
-2.0666e-05
4.52142e-07
-2.09082e-05
3.32685e-07
-2.10581e-05
2.07317e-07
-2.11119e-05
7.69044e-08
-2.10668e-05
-5.75386e-08
-2.09208e-05
-1.94847e-07
-2.06728e-05
-3.33712e-07
-2.03229e-05
-4.72698e-07
-1.98721e-05
-6.10252e-07
-1.93228e-05
-7.44729e-07
-1.86786e-05
-8.74411e-07
-1.79443e-05
-9.97544e-07
-1.7126e-05
-1.11236e-06
-1.62311e-05
-1.21713e-06
-1.52682e-05
-1.31017e-06
-1.4247e-05
-1.38991e-06
-1.31783e-05
-1.45491e-06
-1.20737e-05
-1.50392e-06
-1.09457e-05
-1.53588e-06
-9.80721e-06
-1.54998e-06
-8.67166e-06
-1.54568e-06
-7.5526e-06
-1.52274e-06
-6.46354e-06
-1.4812e-06
-5.4177e-06
-1.42146e-06
-4.4278e-06
-1.3442e-06
-3.50577e-06
-1.25047e-06
-2.66257e-06
-1.14163e-06
-1.90789e-06
-1.01939e-06
-1.2499e-06
-8.85786e-07
-6.94999e-07
-7.43242e-07
-2.47497e-07
-5.94585e-07
9.07603e-08
-4.43143e-07
3.20851e-07
-2.92892e-07
4.47374e-07
-1.48672e-07
4.79329e-07
-1.66255e-08
4.31194e-07
9.53445e-08
3.24407e-07
1.76808e-07
1.88978e-07
2.13962e-07
6.43681e-08
1.89275e-07
8.69174e-08
3.73299e-08
-1.26133e-07
4.32988e-08
-1.18556e-07
-4.33002e-08
4.4229e-08
-2.58747e-07
2.93783e-07
-6.22658e-07
5.86351e-07
-1.14215e-06
8.92628e-07
-1.81549e-06
1.19358e-06
-2.63502e-06
1.47743e-06
-3.58938e-06
1.73728e-06
-4.66505e-06
1.9695e-06
-5.84744e-06
2.1726e-06
-7.12168e-06
2.34648e-06
-8.47306e-06
2.49189e-06
-9.88734e-06
2.61006e-06
-1.13509e-05
2.70246e-06
-1.28508e-05
2.77058e-06
-1.43747e-05
2.81584e-06
-1.5911e-05
2.83953e-06
-1.74486e-05
2.84272e-06
-1.89767e-05
2.82626e-06
-2.0485e-05
2.7908e-06
-2.19632e-05
2.73678e-06
-2.34015e-05
2.6645e-06
-2.479e-05
2.57409e-06
-2.61188e-05
2.46562e-06
-2.73782e-05
2.33912e-06
-2.85584e-05
2.19462e-06
-2.965e-05
2.03219e-06
-3.06433e-05
1.85203e-06
-3.15291e-05
1.65449e-06
-3.22986e-05
1.44007e-06
-3.29432e-05
1.20954e-06
-3.34549e-05
9.63894e-07
-3.38266e-05
7.04429e-07
-3.40521e-05
4.32726e-07
-3.41258e-05
1.5068e-07
-3.40439e-05
-1.39507e-07
-3.38034e-05
-4.35326e-07
-3.34031e-05
-7.33984e-07
-3.28434e-05
-1.03243e-06
-3.21263e-05
-1.32737e-06
-3.12557e-05
-1.61534e-06
-3.02373e-05
-1.89273e-06
-2.9079e-05
-2.15588e-06
-2.77903e-05
-2.4011e-06
-2.63826e-05
-2.62477e-06
-2.48694e-05
-2.8234e-06
-2.32656e-05
-2.99373e-06
-2.15877e-05
-3.1328e-06
-1.98536e-05
-3.23799e-06
-1.80824e-05
-3.30714e-06
-1.62938e-05
-3.33858e-06
-1.45082e-05
-3.33123e-06
-1.27464e-05
-3.28459e-06
-1.10288e-05
-3.1988e-06
-9.37553e-06
-3.0747e-06
-7.80593e-06
-2.9138e-06
-6.33809e-06
-2.71831e-06
-4.98854e-06
-2.49118e-06
-3.77187e-06
-2.23605e-06
-2.70033e-06
-1.95733e-06
-1.78338e-06
-1.66019e-06
-1.02726e-06
-1.3507e-06
-4.34435e-07
-1.03596e-06
-2.99929e-09
-7.24329e-07
2.74124e-07
-4.258e-07
4.10007e-07
-1.5251e-07
4.24892e-07
8.04643e-08
3.47408e-07
2.543e-07
2.15751e-07
3.45619e-07
7.86373e-08
3.2638e-07
1.65562e-07
1.9031e-09
-1.28034e-07
-7.89564e-08
-3.76958e-08
-2.9765e-07
2.62921e-07
-6.87899e-07
6.84034e-07
-1.26802e-06
1.16648e-06
-2.0443e-06
1.66891e-06
-3.01394e-06
2.16322e-06
-4.16768e-06
2.63117e-06
-5.49194e-06
3.06153e-06
-6.97038e-06
3.44794e-06
-8.58515e-06
3.78738e-06
-1.03178e-05
4.07912e-06
-1.21498e-05
4.32388e-06
-1.4063e-05
4.52324e-06
-1.60397e-05
4.67923e-06
-1.80632e-05
4.79405e-06
-2.01172e-05
4.86984e-06
-2.21862e-05
4.90853e-06
-2.42553e-05
4.9118e-06
-2.631e-05
4.88101e-06
-2.83365e-05
4.81721e-06
-3.03208e-05
4.72115e-06
-3.22497e-05
4.59333e-06
-3.41096e-05
4.43408e-06
-3.58876e-05
4.24358e-06
-3.75704e-05
4.02197e-06
-3.91452e-05
3.76941e-06
-4.05992e-05
3.48618e-06
-4.19199e-05
3.17272e-06
-4.30952e-05
2.82974e-06
-4.41133e-05
2.45826e-06
-4.49635e-05
2.05967e-06
-4.56354e-05
1.63579e-06
-4.61199e-05
1.18892e-06
-4.6409e-05
7.21816e-07
-4.6496e-05
2.37765e-07
-4.63761e-05
-2.59452e-07
-4.60459e-05
-7.65558e-07
-4.5504e-05
-1.27581e-06
-4.47514e-05
-1.78506e-06
-4.3791e-05
-2.28777e-06
-4.26282e-05
-2.77813e-06
-4.12708e-05
-3.25012e-06
-3.97291e-05
-3.69761e-06
-3.80157e-05
-4.11448e-06
-3.61458e-05
-4.49469e-06
-3.41367e-05
-4.8325e-06
-3.20079e-05
-5.12248e-06
-2.9781e-05
-5.35972e-06
-2.74791e-05
-5.53992e-06
-2.51267e-05
-5.65951e-06
-2.27495e-05
-5.71577e-06
-2.03739e-05
-5.70688e-06
-1.80264e-05
-5.63206e-06
-1.57336e-05
-5.4916e-06
-1.35214e-05
-5.28692e-06
-1.14146e-05
-5.02058e-06
-9.43653e-06
-4.69636e-06
-7.6085e-06
-4.31921e-06
-5.94925e-06
-3.89531e-06
-4.47445e-06
-3.43212e-06
-3.19623e-06
-2.93841e-06
-2.12254e-06
-2.42439e-06
-1.25658e-06
-1.90192e-06
-5.96107e-07
-1.3848e-06
-1.32681e-07
-8.89232e-07
1.49201e-07
-4.34401e-07
2.73005e-07
-4.33455e-08
2.71196e-07
2.56111e-07
1.86274e-07
4.30548e-07
7.22062e-08
4.40451e-07
2.37773e-07
-4.20527e-08
-8.59825e-08
-2.30024e-07
1.50277e-07
-6.06529e-07
6.39426e-07
-1.19815e-06
1.27566e-06
-2.01863e-06
1.98696e-06
-3.07115e-06
2.72143e-06
-4.35052e-06
3.44259e-06
-5.84531e-06
4.12596e-06
-7.53966e-06
4.75588e-06
-9.41477e-06
5.32304e-06
-1.14501e-05
5.82269e-06
-1.36242e-05
6.25321e-06
-1.59154e-05
6.61512e-06
-1.83024e-05
6.91021e-06
-2.07642e-05
7.14103e-06
-2.32805e-05
7.3104e-06
-2.58319e-05
7.42116e-06
-2.83993e-05
7.47593e-06
-3.09645e-05
7.47701e-06
-3.35098e-05
7.42628e-06
-3.60178e-05
7.32525e-06
-3.84717e-05
7.17501e-06
-4.08547e-05
6.97635e-06
-4.31504e-05
6.72981e-06
-4.53426e-05
6.43575e-06
-4.74151e-05
6.09452e-06
-4.93522e-05
5.7065e-06
-5.11383e-05
5.27225e-06
-5.27582e-05
4.79262e-06
-5.41973e-05
4.26881e-06
-5.54415e-05
3.70252e-06
-5.64779e-05
3.096e-06
-5.72942e-05
2.4521e-06
-5.78796e-05
1.77437e-06
-5.82249e-05
1.06706e-06
-5.83223e-05
3.35154e-07
-5.81661e-05
-4.15635e-07
-5.77527e-05
-1.17889e-06
-5.7081e-05
-1.94754e-06
-5.61522e-05
-2.7139e-06
-5.49702e-05
-3.46977e-06
-5.35418e-05
-4.20656e-06
-5.18765e-05
-4.91538e-06
-4.99869e-05
-5.58721e-06
-4.78883e-05
-6.21303e-06
-4.5599e-05
-6.78402e-06
-4.31398e-05
-7.29171e-06
-4.05341e-05
-7.72817e-06
-3.78076e-05
-8.08622e-06
-3.4988e-05
-8.35954e-06
-3.21045e-05
-8.54293e-06
-2.91879e-05
-8.63239e-06
-2.62695e-05
-8.6253e-06
-2.3381e-05
-8.52051e-06
-2.05542e-05
-8.31848e-06
-1.78198e-05
-8.02132e-06
-1.52075e-05
-7.63285e-06
-1.27452e-05
-7.15867e-06
-1.04582e-05
-6.60615e-06
-8.36908e-06
-5.98447e-06
-6.49651e-06
-5.30469e-06
-4.8551e-06
-4.57981e-06
-3.45459e-06
-3.82489e-06
-2.29921e-06
-3.0573e-06
-1.38699e-06
-2.29702e-06
-7.0909e-07
-1.56713e-06
-2.49035e-07
-8.94456e-07
1.80261e-08
-3.1041e-07
1.26147e-07
1.47985e-07
1.19481e-07
4.37219e-07
5.36534e-08
5.06284e-07
2.91429e-07
-8.94337e-08
3.44927e-09
-3.95324e-07
4.56168e-07
-9.45053e-07
1.18916e-06
-1.7552e-06
2.08581e-06
-2.83257e-06
3.06434e-06
-4.17541e-06
4.06426e-06
-5.77486e-06
5.04204e-06
-7.61653e-06
5.96764e-06
-9.68197e-06
6.82132e-06
-1.19499e-05
7.59095e-06
-1.43972e-05
8.27e-06
-1.69999e-05
8.85595e-06
-1.97338e-05
9.34897e-06
-2.25746e-05
9.75101e-06
-2.54986e-05
1.0065e-05
-2.84826e-05
1.02944e-05
-3.15042e-05
1.04427e-05
-3.45414e-05
1.05132e-05
-3.7573e-05
1.05087e-05
-4.05784e-05
1.04317e-05
-4.35374e-05
1.02842e-05
-4.643e-05
1.00676e-05
-4.92367e-05
9.78308e-06
-5.19383e-05
9.43139e-06
-5.45157e-05
9.01318e-06
-5.69502e-05
8.52904e-06
-5.92234e-05
7.97967e-06
-6.13172e-05
7.36604e-06
-6.32141e-05
6.68949e-06
-6.48972e-05
5.95191e-06
-6.63505e-05
5.15581e-06
-6.7559e-05
4.30449e-06
-6.85089e-05
3.40206e-06
-6.91881e-05
2.45356e-06
-6.9586e-05
1.46497e-06
-6.96941e-05
4.43279e-07
-6.95062e-05
-6.03589e-07
-6.90183e-05
-1.66675e-06
-6.82294e-05
-2.73645e-06
-6.71412e-05
-3.80214e-06
-6.57584e-05
-4.85259e-06
-6.40889e-05
-5.87606e-06
-6.21438e-05
-6.86041e-06
-5.99377e-05
-7.79335e-06
-5.74881e-05
-8.66262e-06
-5.48159e-05
-9.45622e-06
-5.1945e-05
-1.01626e-05
-4.8902e-05
-1.07711e-05
-4.57163e-05
-1.12719e-05
-4.24195e-05
-1.16564e-05
-3.90448e-05
-1.19176e-05
-3.56273e-05
-1.20499e-05
-3.22027e-05
-1.20499e-05
-2.88073e-05
-1.1916e-05
-2.54771e-05
-1.16487e-05
-2.22474e-05
-1.1251e-05
-1.91522e-05
-1.07281e-05
-1.62233e-05
-1.00876e-05
-1.34899e-05
-9.33951e-06
-1.09779e-05
-8.4965e-06
-8.70897e-06
-7.57361e-06
-6.70022e-06
-6.58856e-06
-4.96334e-06
-5.56178e-06
-3.50398e-06
-4.51666e-06
-2.3211e-06
-3.4799e-06
-1.40634e-06
-2.48189e-06
-7.43382e-07
-1.55741e-06
-3.07399e-07
-7.46394e-07
-6.44143e-08
-9.50067e-08
2.93359e-08
3.43469e-07
2.83072e-08
5.07317e-07
3.19737e-07
-1.37636e-07
1.41084e-07
-5.6628e-07
8.84814e-07
-1.2974e-06
1.92027e-06
-2.33608e-06
3.12449e-06
-3.68064e-06
4.40889e-06
-5.32299e-06
5.70662e-06
-7.24955e-06
6.96859e-06
-9.44219e-06
8.16028e-06
-1.18794e-05
9.25849e-06
-1.45371e-05
1.02487e-05
-1.73898e-05
1.11227e-05
-2.04111e-05
1.18772e-05
-2.35743e-05
1.25121e-05
-2.68527e-05
1.30295e-05
-3.02202e-05
1.34325e-05
-3.36512e-05
1.37254e-05
-3.71205e-05
1.3912e-05
-4.06037e-05
1.39964e-05
-4.4077e-05
1.3982e-05
-4.75172e-05
1.38719e-05
-5.09014e-05
1.36683e-05
-5.42071e-05
1.33733e-05
-5.74123e-05
1.29883e-05
-6.04952e-05
1.25143e-05
-6.34344e-05
1.19523e-05
-6.62085e-05
1.13032e-05
-6.87971e-05
1.05682e-05
-7.11796e-05
9.74861e-06
-7.33366e-05
8.8465e-06
-7.52492e-05
7.86452e-06
-7.68996e-05
6.8062e-06
-7.82711e-05
5.67601e-06
-7.93486e-05
4.47953e-06
-8.01185e-05
3.22349e-06
-8.05694e-05
1.91585e-06
-8.0692e-05
5.65808e-07
-8.04793e-05
-8.1622e-07
-7.99275e-05
-2.21862e-06
-7.90352e-05
-3.62867e-06
-7.78047e-05
-5.03265e-06
-7.62413e-05
-6.41601e-06
-7.43539e-05
-7.76352e-06
-7.21548e-05
-9.0595e-06
-6.966e-05
-1.02881e-05
-6.68893e-05
-1.14334e-05
-6.38655e-05
-1.248e-05
-6.06151e-05
-1.3413e-05
-5.71677e-05
-1.42185e-05
-5.35556e-05
-1.4884e-05
-4.98138e-05
-1.53983e-05
-4.59791e-05
-1.57522e-05
-4.20903e-05
-1.59387e-05
-3.81871e-05
-1.59532e-05
-3.43095e-05
-1.57935e-05
-3.04979e-05
-1.54604e-05
-2.67914e-05
-1.49575e-05
-2.32279e-05
-1.42915e-05
-1.98432e-05
-1.34723e-05
-1.66699e-05
-1.25128e-05
-1.37372e-05
-1.14292e-05
-1.10699e-05
-1.02409e-05
-8.68762e-06
-8.97081e-06
-6.60438e-06
-7.64502e-06
-4.82768e-06
-6.29336e-06
-3.35802e-06
-4.94956e-06
-2.1883e-06
-3.65161e-06
-1.30331e-06
-2.44239e-06
-6.79322e-07
-1.37038e-06
-2.83707e-07
-4.90628e-07
-7.4597e-08
1.34357e-07
-5.8534e-10
4.33306e-07
3.1915e-07
-1.85411e-07
3.26496e-07
-7.38002e-07
1.43741e-06
-1.65379e-06
2.83606e-06
-2.92577e-06
4.39648e-06
-4.54289e-06
6.026e-06
-6.48981e-06
7.65353e-06
-8.74732e-06
9.2261e-06
-1.12929e-05
1.07059e-05
-1.41014e-05
1.2067e-05
-1.71459e-05
1.32932e-05
-2.03983e-05
1.4375e-05
-2.38296e-05
1.53086e-05
-2.7411e-05
1.60936e-05
-3.11137e-05
1.67322e-05
-3.49093e-05
1.72281e-05
-3.87699e-05
1.75859e-05
-4.26682e-05
1.78103e-05
-4.65776e-05
1.79058e-05
-5.0472e-05
1.78764e-05
-5.43258e-05
1.77257e-05
-5.8114e-05
1.74566e-05
-6.18119e-05
1.70712e-05
-6.53951e-05
1.65715e-05
-6.88395e-05
1.59587e-05
-7.21216e-05
1.52344e-05
-7.5218e-05
1.43997e-05
-7.8106e-05
1.34562e-05
-8.07633e-05
1.24059e-05
-8.31685e-05
1.12517e-05
-8.53009e-05
9.99693e-06
-8.71411e-05
8.64639e-06
-8.8671e-05
7.20588e-06
-8.9874e-05
5.68257e-06
-9.07356e-05
4.08508e-06
-9.12432e-05
2.4235e-06
-9.13869e-05
7.09465e-07
-9.11592e-05
-1.0439e-06
-9.05558e-05
-2.82204e-06
-8.95754e-05
-4.60901e-06
-8.82204e-05
-6.3877e-06
-8.64964e-05
-8.13995e-06
-8.44132e-05
-9.8468e-06
-8.19839e-05
-1.14887e-05
-7.9226e-05
-1.3046e-05
-7.61605e-05
-1.44989e-05
-7.28122e-05
-1.58282e-05
-6.92098e-05
-1.70154e-05
-6.53851e-05
-1.80432e-05
-6.13732e-05
-1.88959e-05
-5.72118e-05
-1.95596e-05
-5.29412e-05
-2.00228e-05
-4.86032e-05
-2.02767e-05
-4.42412e-05
-2.03152e-05
-3.98989e-05
-2.01358e-05
-3.56202e-05
-1.9739e-05
-3.14483e-05
-1.91294e-05
-2.74247e-05
-1.83151e-05
-2.35888e-05
-1.73082e-05
-1.99769e-05
-1.61247e-05
-1.66216e-05
-1.47845e-05
-1.35507e-05
-1.33118e-05
-1.07868e-05
-1.17347e-05
-8.34659e-06
-1.00853e-05
-6.23983e-06
-8.40012e-06
-4.46917e-06
-6.72022e-06
-3.02944e-06
-5.09133e-06
-1.90733e-06
-3.56449e-06
-1.08108e-06
-2.19663e-06
-5.20315e-07
-1.05139e-06
-1.86086e-07
-1.99872e-07
-3.10676e-08
2.78288e-07
2.88079e-07
-2.3212e-07
5.58615e-07
-9.07733e-07
2.11302e-06
-2.00823e-06
3.93655e-06
-3.51455e-06
5.9028e-06
-5.40582e-06
7.91727e-06
-7.65889e-06
9.90661e-06
-1.02483e-05
1.18155e-05
-1.31467e-05
1.36042e-05
-1.63248e-05
1.52452e-05
-1.97525e-05
1.67209e-05
-2.33988e-05
1.80214e-05
-2.72326e-05
1.91424e-05
-3.12226e-05
2.00836e-05
-3.5338e-05
2.08476e-05
-3.95484e-05
2.14385e-05
-4.3824e-05
2.18615e-05
-4.81356e-05
2.21219e-05
-5.24546e-05
2.22247e-05
-5.67529e-05
2.21747e-05
-6.1003e-05
2.19759e-05
-6.51779e-05
2.16314e-05
-6.92508e-05
2.11441e-05
-7.31954e-05
2.05161e-05
-7.69858e-05
1.97491e-05
-8.05964e-05
1.8845e-05
-8.4002e-05
1.78053e-05
-8.7178e-05
1.66322e-05
-9.01005e-05
1.53284e-05
-9.27462e-05
1.38974e-05
-9.5093e-05
1.23437e-05
-9.71199e-05
1.06733e-05
-9.88075e-05
8.89349e-06
-0.000100138
7.0131e-06
-0.000101096
5.0428e-06
-0.000101667
2.99499e-06
-0.000101842
8.83867e-07
-0.000101611
-1.27456e-06
-0.00010097
-3.46259e-06
-9.99186e-05
-5.66091e-06
-9.84575e-05
-7.84876e-06
-9.65933e-05
-1.00042e-05
-9.43358e-05
-1.21042e-05
-9.16992e-05
-1.41254e-05
-8.87016e-05
-1.60437e-05
-8.53652e-05
-1.78353e-05
-8.17163e-05
-1.94771e-05
-7.77853e-05
-2.09465e-05
-7.3606e-05
-2.22225e-05
-6.92158e-05
-2.32862e-05
-6.46549e-05
-2.41205e-05
-5.99664e-05
-2.47113e-05
-5.51953e-05
-2.50478e-05
-5.0388e-05
-2.51225e-05
-4.5592e-05
-2.49318e-05
-4.08545e-05
-2.44765e-05
-3.62225e-05
-2.37614e-05
-3.17412e-05
-2.27964e-05
-2.74538e-05
-2.15956e-05
-2.34002e-05
-2.01782e-05
-1.96165e-05
-1.85682e-05
-1.61341e-05
-1.67943e-05
-1.29786e-05
-1.48901e-05
-1.01699e-05
-1.28941e-05
-7.72041e-06
-1.08496e-05
-5.63559e-06
-8.80504e-06
-3.91279e-06
-6.81413e-06
-2.54123e-06
-4.93606e-06
-1.50176e-06
-3.2361e-06
-7.6694e-07
-1.78621e-06
-3.01316e-07
-6.65493e-07
-6.2038e-08
3.901e-08
2.26039e-07
-2.77482e-07
8.36096e-07
-1.07393e-06
2.90947e-06
-2.35708e-06
5.21969e-06
-4.09609e-06
7.64181e-06
-6.26025e-06
1.00814e-05
-8.81827e-06
1.24646e-05
-1.17381e-05
1.47354e-05
-1.4987e-05
1.68531e-05
-1.85316e-05
1.87897e-05
-2.2338e-05
2.05273e-05
-2.63724e-05
2.20558e-05
-3.06011e-05
2.33711e-05
-3.49908e-05
2.44733e-05
-3.95086e-05
2.53654e-05
-4.41224e-05
2.60522e-05
-4.88004e-05
2.65396e-05
-5.35118e-05
2.68333e-05
-5.82264e-05
2.69393e-05
-6.29143e-05
2.68626e-05
-6.75463e-05
2.66079e-05
-7.20936e-05
2.61788e-05
-7.65279e-05
2.55784e-05
-8.0821e-05
2.48093e-05
-8.49455e-05
2.38736e-05
-8.88739e-05
2.27734e-05
-9.25794e-05
2.15109e-05
-9.60359e-05
2.00887e-05
-9.92178e-05
1.85103e-05
-0.0001021
1.67799e-05
-0.00010466
1.49034e-05
-0.000106874
1.28878e-05
-0.000108723
1.07419e-05
-0.000110186
8.47656e-06
-0.000111248
6.10447e-06
-0.000111893
3.64043e-06
-0.000112111
1.10136e-06
-0.000111892
-1.49375e-06
-0.00011123
-4.1239e-06
-0.000110125
-6.76625e-06
-0.000108578
-9.39625e-06
-0.000106594
-1.19879e-05
-0.000104184
-1.45142e-05
-0.000101362
-1.69472e-05
-9.8147e-05
-1.92587e-05
-9.45618e-05
-2.14205e-05
-9.06338e-05
-2.3405e-05
-8.63947e-05
-2.51855e-05
-8.18801e-05
-2.67372e-05
-7.71291e-05
-2.80372e-05
-7.21844e-05
-2.90652e-05
-6.70915e-05
-2.98042e-05
-6.18982e-05
-3.02411e-05
-5.66542e-05
-3.03665e-05
-5.14102e-05
-3.01759e-05
-4.6217e-05
-2.96696e-05
-4.11252e-05
-2.88532e-05
-3.61839e-05
-2.77376e-05
-3.14402e-05
-2.63393e-05
-2.69378e-05
-2.46806e-05
-2.27167e-05
-2.27893e-05
-1.8812e-05
-2.0699e-05
-1.5253e-05
-1.8449e-05
-1.20629e-05
-1.60841e-05
-9.25779e-06
-1.36547e-05
-6.84603e-06
-1.12168e-05
-4.82816e-06
-8.832e-06
-3.19644e-06
-6.56777e-06
-1.93487e-06
-4.49767e-06
-1.01935e-06
-2.70173e-06
-4.18177e-07
-1.26666e-06
-9.29432e-08
-2.86224e-07
1.33095e-07
-3.21386e-07
1.15748e-06
-1.23576e-06
3.82383e-06
-2.6981e-06
6.68203e-06
-4.66629e-06
9.61001e-06
-7.09989e-06
1.2515e-05
-9.95944e-06
1.53242e-05
-1.32061e-05
1.79821e-05
-1.68015e-05
2.04485e-05
-2.07078e-05
2.26959e-05
-2.48874e-05
2.47069e-05
-2.93033e-05
2.64718e-05
-3.39195e-05
2.79872e-05
-3.87003e-05
2.92541e-05
-4.3611e-05
3.02761e-05
-4.86176e-05
3.10588e-05
-5.36869e-05
3.16089e-05
-5.87865e-05
3.1933e-05
-6.38847e-05
3.20374e-05
-6.89501e-05
3.1928e-05
-7.39521e-05
3.16099e-05
-7.88604e-05
3.10871e-05
-8.36452e-05
3.03632e-05
-8.8277e-05
2.9441e-05
-9.27266e-05
2.83232e-05
-9.69654e-05
2.70121e-05
-0.000100965
2.55105e-05
-0.000104698
2.38215e-05
-0.000108137
2.19493e-05
-0.000111256
1.98992e-05
-0.000114031
1.76778e-05
-0.000116437
1.52938e-05
-0.000118452
1.27575e-05
-0.000120057
1.00816e-05
-0.000121234
7.2809e-06
-0.000121966
4.37278e-06
-0.000122242
1.37689e-06
-0.000122051
-1.68469e-06
-0.000121387
-4.7876e-06
-0.000120248
-7.90531e-06
-0.000118635
-1.10094e-05
-0.000116553
-1.40697e-05
-0.000114012
-1.70548e-05
-0.000111027
-1.99324e-05
-0.000107616
-2.26695e-05
-0.000103803
-2.52335e-05
-9.96164e-05
-2.75921e-05
-9.50877e-05
-2.97142e-05
-9.02544e-05
-3.15705e-05
-8.51573e-05
-3.31342e-05
-7.98411e-05
-3.43813e-05
-7.43536e-05
-3.52917e-05
-6.87454e-05
-3.58493e-05
-6.3069e-05
-3.60429e-05
-5.73785e-05
-3.58665e-05
-5.17283e-05
-3.53198e-05
-4.61729e-05
-3.44087e-05
-4.07653e-05
-3.31452e-05
-3.55566e-05
-3.1548e-05
-3.05949e-05
-2.96423e-05
-2.59242e-05
-2.74599e-05
-2.15839e-05
-2.50394e-05
-1.76075e-05
-2.24255e-05
-1.40219e-05
-1.96697e-05
-1.08472e-05
-1.68295e-05
-8.09542e-06
-1.39686e-05
-5.7707e-06
-1.11567e-05
-3.86882e-06
-8.46966e-06
-2.37726e-06
-5.98922e-06
-1.27554e-06
-3.80345e-06
-5.35738e-07
-2.00646e-06
-1.2358e-07
-6.98383e-07
9.51715e-09
-3.63789e-07
1.52127e-06
-1.39272e-06
4.85276e-06
-3.02988e-06
8.31919e-06
-5.22239e-06
1.18025e-05
-7.92035e-06
1.5213e-05
-1.10762e-05
1.848e-05
-1.46443e-05
2.15501e-05
-1.85806e-05
2.43848e-05
-2.28424e-05
2.69578e-05
-2.73885e-05
2.9253e-05
-3.21788e-05
3.12621e-05
-3.71744e-05
3.29829e-05
-4.23377e-05
3.44173e-05
-4.7632e-05
3.55703e-05
-5.30217e-05
3.64486e-05
-5.84722e-05
3.70594e-05
-6.39496e-05
3.74104e-05
-6.94209e-05
3.75087e-05
-7.48535e-05
3.73607e-05
-8.02156e-05
3.69719e-05
-8.54757e-05
3.63471e-05
-9.06025e-05
3.54901e-05
-9.55655e-05
3.4404e-05
-0.000100334
3.30919e-05
-0.000104879
3.15565e-05
-0.000109169
2.98011e-05
-0.000113177
2.78294e-05
-0.000116874
2.56463e-05
-0.000120233
2.32578e-05
-0.000123227
2.0672e-05
-0.000125832
1.78985e-05
-0.000128024
1.49496e-05
-0.000129782
1.18396e-05
-0.000131086
8.58567e-06
-0.000131921
5.20758e-06
-0.000132272
1.72781e-06
-0.000132128
-1.82842e-06
-0.000131483
-5.43332e-06
-0.000130331
-9.05664e-06
-0.000128675
-1.26659e-05
-0.000126518
-1.62267e-05
-0.000123869
-1.97032e-05
-0.000120743
-2.30583e-05
-0.000117159
-2.62544e-05
-0.000113138
-2.92537e-05
-0.000108711
-3.20193e-05
-0.00010391
-3.45152e-05
-9.87734e-05
-3.67074e-05
-9.33429e-05
-3.85647e-05
-8.76652e-05
-4.0059e-05
-8.17903e-05
-4.11666e-05
-7.57712e-05
-4.18683e-05
-6.96636e-05
-4.21505e-05
-6.35248e-05
-4.20053e-05
-5.7413e-05
-4.14316e-05
-5.13865e-05
-4.04352e-05
-4.55028e-05
-3.9029e-05
-3.98172e-05
-3.72336e-05
-3.43825e-05
-3.5077e-05
-2.92474e-05
-3.25951e-05
-2.44558e-05
-2.9831e-05
-2.00457e-05
-2.68355e-05
-1.60488e-05
-2.36666e-05
-1.24893e-05
-2.0389e-05
-9.38358e-06
-1.70743e-05
-6.73978e-06
-1.38005e-05
-4.5576e-06
-1.06518e-05
-2.82832e-06
-7.7185e-06
-1.53515e-06
-5.09661e-06
-6.53893e-07
-2.88771e-06
-1.53972e-07
-1.1983e-06
-1.44453e-07
-4.04677e-07
1.92595e-06
-1.54452e-06
5.99261e-06
-3.35147e-06
1.01261e-05
-5.76243e-06
1.42135e-05
-8.71839e-06
1.81689e-05
-1.21639e-05
2.19255e-05
-1.60465e-05
2.54327e-05
-2.03164e-05
2.86548e-05
-2.49264e-05
3.15678e-05
-2.98313e-05
3.41578e-05
-3.49878e-05
3.64186e-05
-4.03544e-05
3.83495e-05
-4.58913e-05
3.99542e-05
-5.156e-05
4.1239e-05
-5.73233e-05
4.22119e-05
-6.31454e-05
4.28814e-05
-6.8991e-05
4.32561e-05
-7.48261e-05
4.33437e-05
-8.0617e-05
4.31516e-05
-8.63308e-05
4.26857e-05
-9.19349e-05
4.19512e-05
-9.73972e-05
4.09524e-05
-0.000102686
3.96927e-05
-0.00010777
3.81756e-05
-0.000112617
3.64042e-05
-0.000117198
3.4382e-05
-0.000121482
3.21136e-05
-0.00012544
2.96043e-05
-0.000129044
2.68612e-05
-0.000132265
2.38933e-05
-0.000135078
2.07117e-05
-0.000137459
1.733e-05
-0.000139384
1.37646e-05
-0.000140833
1.00348e-05
-0.000141788
6.16274e-06
-0.000142234
2.17376e-06
-0.000142159
-1.90383e-06
-0.000141553
-6.03876e-06
-0.000140413
-1.0197e-05
-0.000138737
-1.43421e-05
-0.000136528
-1.84351e-05
-0.000133796
-2.24357e-05
-0.000130552
-2.63019e-05
-0.000126815
-2.99911e-05
-0.000122609
-3.34604e-05
-0.00011796
-3.66676e-05
-0.000112904
-3.95716e-05
-0.000107478
-4.21334e-05
-0.000101726
-4.4317e-05
-9.56951e-05
-4.60897e-05
-8.94381e-05
-4.74236e-05
-8.30104e-05
-4.82961e-05
-7.64705e-05
-4.86904e-05
-6.98791e-05
-4.85967e-05
-6.32983e-05
-4.80124e-05
-5.67906e-05
-4.69428e-05
-5.0418e-05
-4.54016e-05
-4.42409e-05
-4.34108e-05
-3.83167e-05
-4.10012e-05
-3.26995e-05
-3.82123e-05
-2.74383e-05
-3.50922e-05
-2.25763e-05
-3.16975e-05
-1.81502e-05
-2.80927e-05
-1.41891e-05
-2.435e-05
-1.07142e-05
-2.05492e-05
-7.73802e-06
-1.67767e-05
-5.26462e-06
-1.31252e-05
-3.28928e-06
-9.69384e-06
-1.799e-06
-6.58689e-06
-7.73111e-07
-3.9136e-06
-1.84297e-07
-1.78712e-06
-3.28749e-07
-4.4404e-07
2.36998e-06
-1.69095e-06
7.23952e-06
-3.66218e-06
1.20974e-05
-6.28494e-06
1.68362e-05
-9.49149e-06
2.13755e-05
-1.32187e-05
2.56527e-05
-1.74076e-05
2.96216e-05
-2.20028e-05
3.325e-05
-2.69523e-05
3.65173e-05
-3.22071e-05
3.94126e-05
-3.77207e-05
4.19322e-05
-4.3449e-05
4.40778e-05
-4.93501e-05
4.58553e-05
-5.53837e-05
4.72727e-05
-6.15113e-05
4.83395e-05
-6.76956e-05
4.90657e-05
-7.39005e-05
4.94609e-05
-8.00907e-05
4.95339e-05
-8.62318e-05
4.92927e-05
-9.22899e-05
4.87439e-05
-9.82318e-05
4.78931e-05
-0.000104024
4.67449e-05
-0.000109635
4.53034e-05
-0.000115031
4.3572e-05
-0.000120181
4.15543e-05
-0.000125054
3.92544e-05
-0.000129617
3.66772e-05
-0.000133842
3.38286e-05
-0.000137697
3.07167e-05
-0.000141155
2.73514e-05
-0.000144189
2.37451e-05
-0.000146772
1.99129e-05
-0.00014888
1.58729e-05
-0.000150492
1.16465e-05
-0.000151587
7.25832e-06
-0.00015215
2.73643e-06
-0.000152166
-1.8878e-06
-0.000151625
-6.57968e-06
-0.000150521
-1.13014e-05
-0.00014885
-1.60124e-05
-0.000146616
-2.06694e-05
-0.000143825
-2.52271e-05
-0.000140488
-2.96388e-05
-0.000136622
-3.38564e-05
-0.000132251
-3.78319e-05
-0.000127401
-4.15174e-05
-0.000122106
-4.48664e-05
-0.000116405
-4.78343e-05
-0.000110342
-5.03798e-05
-0.000103967
-5.24653e-05
-9.73324e-05
-5.40581e-05
-9.0497e-05
-5.51315e-05
-8.35221e-05
-5.56652e-05
-7.64721e-05
-5.56467e-05
-6.9413e-05
-5.50715e-05
-6.24119e-05
-5.3944e-05
-5.55355e-05
-5.22779e-05
-4.88495e-05
-5.00967e-05
-4.24171e-05
-4.74336e-05
-3.62977e-05
-4.43317e-05
-3.05462e-05
-4.08437e-05
-2.52117e-05
-3.7032e-05
-2.03364e-05
-3.2968e-05
-1.5955e-05
-2.87315e-05
-1.20938e-05
-2.44104e-05
-8.77053e-06
-2.01e-05
-5.99365e-06
-1.59021e-05
-3.76278e-06
-1.19247e-05
-2.06875e-06
-8.28092e-06
-8.94263e-07
-5.08808e-06
-2.14834e-07
-2.46654e-06
-5.43583e-07
-4.81854e-07
2.85184e-06
-1.83181e-06
8.58948e-06
-3.96139e-06
1.42269e-05
-6.78863e-06
1.96635e-05
-1.02375e-05
2.48244e-05
-1.42375e-05
2.96528e-05
-1.87233e-05
3.41074e-05
-2.36341e-05
3.81607e-05
-2.89133e-05
4.17965e-05
-3.4508e-05
4.50073e-05
-4.03687e-05
4.77928e-05
-4.64487e-05
5.01579e-05
-5.2704e-05
5.21106e-05
-5.90927e-05
5.36614e-05
-6.55748e-05
5.48217e-05
-7.2112e-05
5.56029e-05
-7.86671e-05
5.6016e-05
-8.52041e-05
5.60709e-05
-9.16878e-05
5.57764e-05
-9.80837e-05
5.51398e-05
-0.000104358
5.41671e-05
-0.000110476
5.28635e-05
-0.000116406
5.12331e-05
-0.000122114
4.92799e-05
-0.000127567
4.70077e-05
-0.000132734
4.44209e-05
-0.000137581
4.15248e-05
-0.000142079
3.83261e-05
-0.000146195
3.48334e-05
-0.000149902
3.10576e-05
-0.000153169
2.70123e-05
-0.00015597
2.27139e-05
-0.000158279
1.81822e-05
-0.000160073
1.34407e-05
-0.000161331
8.51618e-06
-0.000162034
3.43935e-06
-0.000162167
-1.75539e-06
-0.000161716
-7.03e-06
-0.000160675
-1.2343e-05
-0.000159038
-1.76496e-05
-0.000156805
-2.29021e-05
-0.000153981
-2.80506e-05
-0.000150577
-3.30429e-05
-0.000146608
-3.78258e-05
-0.000142094
-4.23455e-05
-0.000137064
-4.65482e-05
-0.000131548
-5.03815e-05
-0.000125588
-5.37951e-05
-0.000119226
-5.67415e-05
-0.000112514
-5.91777e-05
-0.000105506
-6.10657e-05
-9.82636e-05
-6.2374e-05
-9.08506e-05
-6.30782e-05
-8.3335e-05
-6.31623e-05
-7.57871e-05
-6.26194e-05
-6.82786e-05
-6.14524e-05
-6.08817e-05
-5.96748e-05
-5.36678e-05
-5.73107e-05
-4.6706e-05
-5.43954e-05
-4.00622e-05
-5.09755e-05
-3.37975e-05
-4.71083e-05
-2.79675e-05
-4.2862e-05
-2.26208e-05
-3.83147e-05
-1.77981e-05
-3.35542e-05
-1.35316e-05
-2.86769e-05
-9.84432e-06
-2.37872e-05
-6.74994e-06
-1.89965e-05
-4.25248e-06
-1.44222e-05
-2.34668e-06
-1.01867e-05
-1.0185e-06
-6.41626e-06
-2.4593e-07
-3.23911e-06
-7.89512e-07
-5.18086e-07
3.36992e-06
-1.96686e-06
1.00383e-05
-4.24849e-06
1.65086e-05
-7.27233e-06
2.26873e-05
-1.09545e-05
2.85065e-05
-1.52174e-05
3.39157e-05
-1.99897e-05
3.88797e-05
-2.52053e-05
4.33763e-05
-3.08032e-05
4.73944e-05
-3.67268e-05
5.09309e-05
-4.29235e-05
5.39896e-05
-4.93442e-05
5.65786e-05
-5.5943e-05
5.87093e-05
-6.26762e-05
6.03946e-05
-6.95028e-05
6.16482e-05
-7.63831e-05
6.24833e-05
-8.32795e-05
6.29123e-05
-9.0155e-05
6.29465e-05
-9.69739e-05
6.25954e-05
-0.000103701
6.18671e-05
-0.000110302
6.07682e-05
-0.000116743
5.93042e-05
-0.00012299
5.74797e-05
-0.000129009
5.52988e-05
-0.000134767
5.27656e-05
-0.000140231
4.98848e-05
-0.000145368
4.6662e-05
-0.000150146
4.31045e-05
-0.000154534
3.92214e-05
-0.000158501
3.50244e-05
-0.000162017
3.05281e-05
-0.000165053
2.57502e-05
-0.000167583
2.07121e-05
-0.000169581
1.54389e-05
-0.000171025
9.95971e-06
-0.000171893
4.30767e-06
-0.000172168
-1.47998e-06
-0.000171836
-7.36195e-06
-0.000170886
-1.32931e-05
-0.000169311
-1.92246e-05
-0.000167109
-2.51043e-05
-0.000164282
-3.08774e-05
-0.000160839
-3.64865e-05
-0.000156792
-4.18727e-05
-0.000152161
-4.69763e-05
-0.000146972
-5.17375e-05
-0.000141256
-5.60973e-05
-0.000135052
-5.9999e-05
-0.000128405
-6.33889e-05
-0.000121365
-6.62176e-05
-0.000113989
-6.84411e-05
-0.000106341
-7.00225e-05
-9.84865e-05
-7.09324e-05
-9.0498e-05
-7.11507e-05
-8.24501e-05
-7.06673e-05
-7.44196e-05
-6.9483e-05
-6.64843e-05
-6.76101e-05
-5.87218e-05
-6.50732e-05
-5.12078e-05
-6.19094e-05
-4.40151e-05
-5.81681e-05
-3.72122e-05
-5.39113e-05
-3.08615e-05
-4.92127e-05
-2.50186e-05
-4.41575e-05
-1.97313e-05
-3.88416e-05
-1.5038e-05
-3.33702e-05
-1.09678e-05
-2.78574e-05
-7.5398e-06
-2.24245e-05
-4.76277e-06
-1.71992e-05
-2.63552e-06
-1.2314e-05
-1.14718e-06
-7.9046e-06
-2.77977e-07
-4.10831e-06
-1.06749e-06
-5.5268e-07
3.9226e-06
-2.09586e-06
1.15814e-05
-4.52286e-06
1.89356e-05
-7.73484e-06
2.58993e-05
-1.16405e-05
3.24121e-05
-1.61556e-05
3.84309e-05
-2.12029e-05
4.3927e-05
-2.67115e-05
4.88849e-05
-3.2616e-05
5.32988e-05
-3.88563e-05
5.71712e-05
-4.5377e-05
6.05103e-05
-5.21266e-05
6.33282e-05
-5.90571e-05
6.56398e-05
-6.61237e-05
6.74612e-05
-7.32838e-05
6.88083e-05
-8.04972e-05
6.96967e-05
-8.77253e-05
7.01404e-05
-9.49307e-05
7.01519e-05
-0.000102077
6.97419e-05
-0.000109129