/*--------------------------------*- C++ -*----------------------------------*\
  =========                 |
  \\      /  F ield         | OpenFOAM: The Open Source CFD Toolbox
   \\    /   O peration     | Website:  https://openfoam.org
    \\  /    A nd           | Version:  dev
     \\/     M anipulation  |
\*---------------------------------------------------------------------------*/
FoamFile
{
    format      ascii;
    class       volScalarField;
    location    "42.3";
    object      p;
}
// * * * * * * * * * * * * * * * * * * * * * * * * * * * * * * * * * * * * * //

dimensions      [0 2 -2 0 0 0 0];

internalField   nonuniform List<scalar> 
5184
(
1.24748e-06
-1.04286e-05
-9.63562e-05
-0.000249288
-0.000448764
-0.000677513
-0.000921303
-0.00116815
-0.0014089
-0.00163642
-0.00184528
-0.00203146
-0.00219201
-0.00232485
-0.00242849
-0.00250193
-0.00254451
-0.00255578
-0.00253546
-0.00248339
-0.00239948
-0.00228371
-0.00213614
-0.00195689
-0.00174622
-0.00150448
-0.00123223
-0.00093021
-0.000599418
-0.000241124
0.000143086
0.000551286
0.000981182
0.0014301
0.00189498
0.00237236
0.00285844
0.00334905
0.00383971
0.00432567
0.00480199
0.0052636
0.00570537
0.00612222
0.00650919
0.00686158
0.00717501
0.00744556
0.00766986
0.00784516
0.00796945
0.00804154
0.00806107
0.0080286
0.00794565
0.00781466
0.00763902
0.00742304
0.00717195
0.00689181
0.00658948
0.00627256
0.00594938
0.00562889
0.00532065
0.00503474
0.00478168
0.00457208
0.00441592
0.00432164
0.00429473
0.00432203
1.46476e-05
2.16753e-06
-7.2462e-05
-0.000200282
-0.0003656
-0.00055594
-0.000760381
-0.000969321
-0.00117483
-0.0013705
-0.00155129
-0.00171329
-0.00185353
-0.00196978
-0.00206039
-0.00212417
-0.00216027
-0.00216808
-0.00214716
-0.00209724
-0.00201814
-0.00190976
-0.00177212
-0.00160532
-0.00140959
-0.00118528
-0.000932933
-0.000653272
-0.000347257
-1.61079e-05
0.000338669
0.000715255
0.0011115
0.00152491
0.00195264
0.00239152
0.00283801
0.00328831
0.0037383
0.00418368
0.00461993
0.00504246
0.00544663
0.00582784
0.00618164
0.00650381
0.00679044
0.00703805
0.00724365
0.00740485
0.00751994
0.00758792
0.00760859
0.00758258
0.00751137
0.00739728
0.0072435
0.00705405
0.00683372
0.00658807
0.00632336
0.00604645
0.00576479
0.00548632
0.00521933
0.0049724
0.00475421
0.00457313
0.00443647
0.00435015
0.0043216
0.00434922
0.000101316
7.66042e-05
1.24714e-06
-0.000116341
-0.000264113
-0.000432426
-0.000612571
-0.000796716
-0.000978158
-0.00115134
-0.00131173
-0.00145576
-0.00158061
-0.00168411
-0.00176462
-0.0018209
-0.00185201
-0.00185727
-0.00183619
-0.00178839
-0.00171365
-0.0016118
-0.00148283
-0.00132678
-0.00114385
-0.000934355
-0.000698791
-0.000437837
-0.00015239
0.000156406
0.000487139
0.000838106
0.00120729
0.00159237
0.0019907
0.00239929
0.00281488
0.00323392
0.00365258
0.00406687
0.00447261
0.00486552
0.00524132
0.00559576
0.00592473
0.00622434
0.00649099
0.00672149
0.00691312
0.00706372
0.00717176
0.00723637
0.00725745
0.00723564
0.0071724
0.00706995
0.0069313
0.00676024
0.00656125
0.00633949
0.00610073
0.00585127
0.00559786
0.00534764
0.00510797
0.00488629
0.00469012
0.00452649
0.00440144
0.0043202
0.00429241
0.00432307
0.000256399
0.000204987
0.00011717
-1.81959e-06
-0.000144312
-0.000302523
-0.000469322
-0.000638338
-0.00080403
-0.000961707
-0.0011075
-0.00123825
-0.00135148
-0.00144521
-0.00151791
-0.00156841
-0.0015958
-0.00159939
-0.00157865
-0.00153319
-0.00146273
-0.00136707
-0.00124613
-0.00109992
-0.000928567
-0.000732342
-0.000511666
-0.000267144
4.09801e-07
0.000289949
0.00060017
0.000929495
0.00127605
0.00163766
0.00201185
0.00239584
0.00278655
0.00318063
0.00357451
0.00396441
0.00434638
0.0047164
0.00507041
0.00540442
0.00571452
0.00599706
0.00624863
0.00646623
0.0066473
0.00678981
0.00689232
0.00695408
0.00697498
0.0069557
0.00689763
0.0068029
0.00667441
0.00651573
0.0063311
0.00612537
0.00590391
0.00567259
0.0054376
0.00520544
0.00498277
0.00477626
0.00459253
0.00443785
0.00431766
0.004237
0.00420596
0.00423123
0.00046122
0.000372602
0.000263987
0.000136255
-8.14679e-06
-0.000163055
-0.000322696
-0.000482059
-0.000636733
-0.000782916
-0.000917428
-0.00103765
-0.00114149
-0.00122724
-0.00129357
-0.00133944
-0.00136403
-0.00136667
-0.00134685
-0.00130417
-0.00123831
-0.00114905
-0.00103624
-0.000899848
-0.000739924
-0.000556658
-0.000350391
-0.000121632
0.000128907
0.000400296
0.000691355
0.00100064
0.00132643
0.0016667
0.00201915
0.00238116
0.00274985
0.00312205
0.00349438
0.00386324
0.00422489
0.00457548
0.00491115
0.00522806
0.00552249
0.0057909
0.00603005
0.00623705
0.00640942
0.00654524
0.00664311
0.0067023
0.00672274
0.00670506
0.0066506
0.00656143
0.00644029
0.00629059
0.00611636
0.00592217
0.00571308
0.00549453
0.00527228
0.00505228
0.0048406
0.00464325
0.00446614
0.0043149
0.0041945
0.0041097
0.00406931
0.00407916
0.000699607
0.000567566
0.000432371
0.000290294
0.000138324
-1.87723e-05
-0.000176389
-0.000330777
-0.000478597
-0.000616921
-0.000743278
-0.000855619
-0.000952275
-0.0010319
-0.0010934
-0.0011359
-0.00115871
-0.00116124
-0.00114302
-0.00110365
-0.00104279
-0.000960194
-0.000855661
-0.000729077
-0.000580426
-0.000409807
-0.000217456
-3.77627e-06
0.000230643
0.000484999
0.000758251
0.0010491
0.00135597
0.00167701
0.00201006
0.00235268
0.00270213
0.00305543
0.00340935
0.00376043
0.00410509
0.00443963
0.00476029
0.00506335
0.00534519
0.00560238
0.00583173
0.0060304
0.00619599
0.00632657
0.00642077
0.00647785
0.00649772
0.00648096
0.00642885
0.00634335
0.00622711
0.00608339
0.00591602
0.00572934
0.00552815
0.00531754
0.0051029
0.00488973
0.00468359
0.00448997
0.00431419
0.00416132
0.00403591
0.00394237
0.00388718
0.00387412
0.000957767
0.000778986
0.000613411
0.000452827
0.000288863
0.000125126
-3.4765e-05
-0.000188206
-0.000332859
-0.000466634
-0.000587759
-0.000694764
-0.000786444
-0.000861817
-0.000920081
-0.000960573
-0.00098274
-0.000986104
-0.000970247
-0.000934792
-0.000879404
-0.000803787
-0.000707693
-0.000590938
-0.000453416
-0.000295125
-0.000116187
8.31181e-05
0.000302335
0.000540801
0.000797624
0.00107166
0.00136148
0.00166539
0.00198138
0.00230717
0.00264018
0.00297754
0.00331616
0.0036527
0.00398369
0.0043055
0.00461446
0.00490692
0.0051793
0.00542818
0.0056504
0.00584313
0.00600394
0.00613088
0.00622255
0.00627817
0.00629759
0.00628131
0.00623055
0.00614718
0.00603372
0.0058933
0.00572961
0.0055468
0.00534942
0.00514233
0.00493058
0.00471933
0.00451373
0.00431884
0.00413951
0.00398031
0.00384549
0.00373907
0.00366476
0.00362376
0.00122358
0.000996716
0.000798506
0.00061656
0.000437397
0.00026366
9.81373e-05
-5.75996e-05
-0.000202141
-0.000334188
-0.000452644
-0.000556611
-0.000645355
-0.000718275
-0.000774871
-0.000814712
-0.000837413
-0.000842613
-0.000829964
-0.000799123
-0.00074975
-0.000681519
-0.000594127
-0.000487309
-0.000360865
-0.000214681
-4.87554e-05
0.000136769
0.000341582
0.000565171
0.000806799
0.00106548
0.00133994
0.00162865
0.00192975
0.00224108
0.00256019
0.00288436
0.00321057
0.00353559
0.003856
0.00416823
0.00446864
0.00475359
0.00501949
0.00526291
0.00548064
0.00566979
0.00582788
0.00595289
0.00604334
0.00609835
0.0061177
0.0061018
0.00605176
0.00596936
0.00585701
0.00571772
0.00555505
0.005373
0.00517594
0.00496852
0.00475555
0.00454191
0.00433246
0.00413189
0.0039447
0.00377506
0.00362697
0.00350416
0.00340739
0.00333522
0.00148677
0.0012116
0.000979592
0.000774455
0.000577872
0.000391684
0.000217974
5.73824e-05
-8.95346e-05
-0.000222219
-0.000340221
-0.000443194
-0.000530868
-0.000603025
-0.000659471
-0.000700015
-0.000724447
-0.000732534
-0.000724003
-0.000698545
-0.000655822
-0.000595475
-0.000517138
-0.000420466
-0.000305153
-0.000170965
-1.77661e-05
0.000154449
0.000345523
0.000555106
0.000782624
0.00102725
0.00128788
0.00156313
0.00185128
0.00215032
0.00245791
0.00277141
0.00308792
0.00340423
0.00371699
0.00402262
0.0043175
0.00459792
0.00486026
0.00510102
0.00531689
0.00550489
0.00566242
0.00578735
0.00587807
0.00593359
0.00595354
0.00593824
0.00588867
0.00580651
0.00569405
0.0055542
0.0053904
0.00520652
0.00500681
0.00479575
0.004578
0.00435822
0.00414105
0.00393095
0.00373211
0.00354842
0.00338375
0.00324162
0.00311986
0.00301453
0.00173837
0.0014154
0.00114917
0.000919779
0.000704317
0.000503945
0.000320143
0.000152707
1.4077e-06
-0.000133888
-0.000253339
-0.000357127
-0.000445432
-0.000518408
-0.000576164
-0.000618744
-0.00064612
-0.000658181
-0.000654732
-0.000635501
-0.000600144
-0.000548265
-0.000479436
-0.00039322
-0.000289199
-0.000167009
-2.63706e-05
0.000132879
0.000310747
0.000507052
0.000721391
0.000953108
0.00120126
0.00146462
0.00174161
0.00203034
0.00232859
0.0026338
0.00294313
0.00325342
0.00356131
0.00386322
0.00415547
0.0044343
0.00469599
0.0049369
0.00515362
0.00534301
0.0055023
0.00562919
0.00572192
0.00577932
0.00580088
0.00578676
0.0057378
0.00565556
0.00554221
0.00540056
0.00523393
0.00504612
0.00484127
0.00462376
0.00439814
0.00416894
0.00394066
0.00371761
0.0035038
0.0033029
0.00311877
0.00295485
0.0028062
0.00266648
0.00197043
0.00160059
0.00130027
0.00104613
0.000810908
0.000595189
0.000399921
0.000224126
6.68496e-05
-7.26847e-05
-0.000195209
-0.000301407
-0.000391885
-0.000467154
-0.000527615
-0.000573542
-0.000605078
-0.000622232
-0.000624884
-0.000612787
-0.000585593
-0.000542862
-0.000484094
-0.000408753
-0.000316303
-0.000206239
-7.81275e-05
6.83598e-05
0.000233405
0.000417004
0.000618935
0.000838716
0.00107558
0.00132843
0.00159586
0.0018761
0.00216702
0.00246615
0.00277068
0.00307748
0.00338318
0.00368417
0.00397667
0.00425682
0.00452077
0.00476474
0.00498511
0.00517856
0.00534211
0.00547324
0.00557
0.00563098
0.0056555
0.00564351
0.00559571
0.00551349
0.00539891
0.00525466
0.00508398
0.00489059
0.00467856
0.00445224
0.00421608
0.00397461
0.00373224
0.00349322
0.00326147
0.00304058
0.00283448
0.00264667
0.00246958
0.00229465
0.00217579
0.00176029
0.00142637
0.0011474
0.000891993
0.000660212
0.00045253
0.000267254
0.000102753
-4.23516e-05
-0.000169329
-0.000279336
-0.000373382
-0.000452318
-0.000516818
-0.000567374
-0.000604289
-0.000627685
-0.000637502
-0.000633518
-0.000615366
-0.000582558
-0.000534512
-0.000470587
-0.000390116
-0.000292445
-0.000176976
-4.3205e-05
0.000109235
0.000280529
0.000470641
0.000679273
0.000905831
0.00114939
0.00140868
0.00168206
0.00196749
0.00226257
0.00256454
0.00287029
0.00317639
0.00347917
0.00377476
0.00405916
0.00432836
0.00457835
0.00480532
0.0050057
0.00517625
0.00531419
0.00541729
0.00548391
0.00551311
0.00550462
0.00545894
0.00537728
0.00526157
0.00511438
0.00493887
0.0047387
0.0045179
0.0042808
0.00403188
0.00377565
0.00351656
0.00325888
0.00300655
0.00276316
0.00253284
0.00231927
0.00211241
0.00190159
0.00234791
0.00188813
0.00152135
0.00121778
0.000942101
0.000693889
0.000473185
0.000277622
0.000104935
-4.68219e-05
-0.000179424
-0.000294471
-0.000393352
-0.000477236
-0.000547054
-0.000603496
-0.000647015
-0.000677827
-0.000695927
-0.000701104
-0.000692963
-0.000670957
-0.000634413
-0.000582574
-0.000514633
-0.000429776
-0.00032723
-0.000206303
-6.6434e-05
9.27619e-05
0.000271447
0.000469516
0.00068656
0.000921826
0.00117419
0.00144214
0.00172374
0.00201666
0.00231818
0.00262517
0.00293417
0.00324142
0.00354294
0.00383456
0.00411204
0.00437118
0.00460787
0.00481826
0.00499881
0.00514643
0.00525856
0.00533325
0.00536926
0.00536608
0.00532394
0.00524386
0.00512759
0.00497758
0.00479691
0.00458918
0.00435843
0.004109
0.00384543
0.00357232
0.0032942
0.00301547
0.00274016
0.00247199
0.00221538
0.00197431
0.0017364
0.00148898
0.0024807
0.00197814
0.00157941
0.00125173
0.000955942
0.000691201
0.000457131
0.00025073
6.91251e-05
-9.01626e-05
-0.000229387
-0.000350564
-0.00045544
-0.000545478
-0.000621845
-0.000685415
-0.000736769
-0.000776207
-0.000803763
-0.000819224
-0.000822157
-0.000811944
-0.000787811
-0.000748872
-0.000694169
-0.000622719
-0.000533559
-0.000425799
-0.000298671
-0.000151579
1.58502e-05
0.000203719
0.000411811
0.000639558
0.000885995
0.00114974
0.00142899
0.00172146
0.00202447
0.00233489
0.00264921
0.00296358
0.00327386
0.00357569
0.00386462
0.00413616
0.00438591
0.00460965
0.00480351
0.00496402
0.00508824
0.00517387
0.0052193
0.00522369
0.005187
0.00510999
0.00499423
0.004842
0.0046563
0.0044407
0.00419923
0.00393632
0.00365659
0.00336478
0.00306561
0.00276366
0.00246317
0.00216808
0.00188322
0.00161295
0.00134265
0.00105773
0.00256845
0.00202469
0.00159509
0.00124393
0.000928407
0.000647247
0.000399677
0.000182082
-8.98757e-06
-0.000176522
-0.000323226
-0.00045151
-0.000563453
-0.00066079
-0.000744905
-0.000816835
-0.000877274
-0.000926589
-0.000964836
-0.000991788
-0.00100696
-0.00100966
-0.000998983
-0.000973916
-0.000933334
-0.00087607
-0.000800964
-0.000706911
-0.000592924
-0.000458179
-0.000302079
-0.0001243
7.51546e-05
0.000295909
0.000537178
0.000797729
0.00107587
0.00136941
0.0016757
0.00199162
0.00231359
0.00263766
0.00295954
0.00327466
0.0035783
0.00386568
0.00413202
0.00437275
0.00458356
0.00476056
0.00490038
0.00500026
0.0050582
0.00507297
0.00504417
0.00497227
0.00485859
0.00470527
0.00451517
0.00429182
0.00403931
0.00376213
0.00346506
0.00315305
0.00283105
0.00250394
0.00217623
0.00185217
0.00153712
0.00123593
0.000931777
0.000608151
0.00260572
0.00202245
0.00156316
0.0011893
0.000854575
0.000557267
0.000296221
6.72303e-05
-0.00013371
-0.000310079
-0.000465014
-0.000601294
-0.000721311
-0.00082705
-0.000920093
-0.00100162
-0.00107242
-0.00113291
-0.00118316
-0.0012229
-0.0012516
-0.00126845
-0.00127244
-0.00126239
-0.001237
-0.00119491
-0.00113475
-0.00105519
-0.00095499
-0.000833101
-0.000688676
-0.000521153
-0.000330305
-0.000116291
0.000120296
0.000378395
0.000656443
0.000952359
0.00126354
0.00158686
0.00191871
0.00225502
0.00259133
0.00292287
0.00324461
0.00355142
0.00383817
0.00409981
0.00433159
0.0045291
0.00468848
0.00480646
0.00488055
0.00490905
0.00489116
0.00482698
0.00471756
0.0045648
0.00437145
0.00414099
0.00387754
0.00358572
0.00327049
0.00293706
0.00259071
0.00223665
0.00187979
0.00152478
0.00117758
0.000843653
0.000503977
0.000140106
0.00258738
0.00196638
0.00147867
0.00108301
0.000729714
0.000416651
0.000142276
-9.81948e-05
-0.000309305
-0.000495004
-0.000658839
-0.000803943
-0.000932995
-0.00104821
-0.00115136
-0.00124373
-0.00132621
-0.00139923
-0.00146287
-0.00151681
-0.00156044
-0.00159284
-0.00161286
-0.00161916
-0.00161026
-0.00158456
-0.00154049
-0.00147646
-0.00139099
-0.00128275
-0.00115065
-0.000993862
-0.0008119
-0.000604689
-0.000372599
-0.000116502
0.000162201
0.000461547
0.000779004
0.00111147
0.00145529
0.0018063
0.00215987
0.00251098
0.00285431
0.00318436
0.00349556
0.00378238
0.00403952
0.00426203
0.00444544
0.00458592
0.00468039
0.0047266
0.00472328
0.00467008
0.0045677
0.00441778
0.0042229
0.00398649
0.0037127
0.00340628
0.00307243
0.00271667
0.00234465
0.00196203
0.00157419
0.00118625
0.000804907
0.000436293
5.91674e-05
-0.000346897
0.00250852
0.00185165
0.00133691
0.000920424
0.000549294
0.000220964
-6.65014e-05
-0.000318452
-0.000539954
-0.000735409
-0.00090876
-0.00106347
-0.00120249
-0.00132826
-0.00144269
-0.0015472
-0.00164272
-0.00172971
-0.00180821
-0.00187787
-0.00193797
-0.00198748
-0.00202509
-0.00204928
-0.00205837
-0.00205054
-0.00202396
-0.00197679
-0.00190729
-0.00181384
-0.00169505
-0.00154981
-0.00137736
-0.00117736
-0.000949931
-0.000695715
-0.000415928
-0.000112384
0.000212485
0.000555619
0.000913343
0.0012814
0.001655
0.00202888
0.0023974
0.00275465
0.0030946
0.00341118
0.00369851
0.00395097
0.00416344
0.00433141
0.00445114
0.00451974
0.00453533
0.00449708
0.00440522
0.00426109
0.00406704
0.00382642
0.0035434
0.00322288
0.00287034
0.00249164
0.00209289
0.00168026
0.00125968
0.00083684
0.000419259
1.38488e-05
-0.000402933
-0.000853578
0.00236448
0.00167371
0.00113339
0.000697149
0.000309001
-3.40363e-05
-0.000334288
-0.000597657
-0.000829717
-0.00103531
-0.00121876
-0.00138384
-0.00153376
-0.00167115
-0.00179808
-0.00191604
-0.00202602
-0.00212848
-0.00222344
-0.00231047
-0.00238873
-0.00245707
-0.00251402
-0.00255787
-0.0025867
-0.00259847
-0.00259109
-0.00256244
-0.00251048
-0.00243328
-0.00232915
-0.00219667
-0.00203476
-0.00184277
-0.00162054
-0.00136847
-0.00108753
-0.00077935
-0.000446238
-9.1175e-05
0.000282172
0.000669474
0.00106579
0.00146561
0.00186298
0.00225157
0.00262481
0.00297609
0.00329882
0.0035867
0.00383384
0.00403496
0.00418552
0.00428191
0.00432155
0.00430297
0.00422589
0.00409123
0.00390109
0.00365864
0.0033681
0.00303451
0.00266362
0.00226172
0.00183542
0.00139148
0.000936468
0.000476751
2.07439e-05
-0.000423757
-0.000882711
-0.00138078
0.00215084
0.00142826
0.000863904
0.000409039
4.74751e-06
-0.000352381
-0.000665065
-0.000939747
-0.0011825
-0.00139859
-0.00159269
-0.0017689
-0.00193065
-0.00208076
-0.00222142
-0.00235421
-0.00248014
-0.00259968
-0.00271279
-0.00281895
-0.00291724
-0.00300632
-0.00308457
-0.00315005
-0.00320065
-0.00323405
-0.00324789
-0.00323974
-0.00320725
-0.00314817
-0.00306046
-0.00294234
-0.00279241
-0.00260966
-0.00239362
-0.00214437
-0.00186262
-0.00154977
-0.00120794
-0.000840005
-0.000449585
-4.1048e-05
0.00038053
0.00080942
0.00123933
0.00166349
0.00207481
0.00246601
0.0028298
0.00315909
0.00344711
0.0036877
0.00387543
0.00400582
0.00407547
0.00408215
0.00402496
0.0039043
0.00372191
0.00348077
0.00318506
0.00283999
0.00245159
0.00202661
0.00157222
0.00109586
0.000604818
0.000106212
-0.000390517
-0.0008766
-0.00138056
-0.00192939
0.00186345
0.00111126
0.000524499
5.22031e-05
-0.000367302
-0.000737862
-0.00106259
-0.00134845
-0.00160201
-0.00182893
-0.00203425
-0.00222234
-0.00239687
-0.00256082
-0.0027165
-0.00286555
-0.003009
-0.00314732
-0.00328038
-0.0034076
-0.00352791
-0.00363984
-0.00374155
-0.00383092
-0.00390556
-0.00396292
-0.00400031
-0.00401501
-0.0040043
-0.00396561
-0.0038965
-0.00379482
-0.00365877
-0.00348698
-0.00327859
-0.00303333
-0.00275158
-0.00243446
-0.00208387
-0.0017025
-0.00129389
-0.000862402
-0.000413213
4.77438e-05
0.000513849
0.000977899
0.00143223
0.0018689
0.00227981
0.00265698
0.00299271
0.00327983
0.00351187
0.00368334
0.00378987
0.00382835
0.0037971
0.00369588
0.00352598
0.0032901
0.00299235
0.00263803
0.00223351
0.001786
0.00130331
0.000793635
0.000265051
-0.000274457
-0.000814317
-0.00134468
-0.00189682
-0.00250022
0.00149843
0.000718949
0.000111507
-0.000376966
-0.000810711
-0.00119401
-0.00153036
-0.00182726
-0.00209172
-0.00232982
-0.00254692
-0.00274766
-0.00293594
-0.00311489
-0.00328691
-0.00345371
-0.00361634
-0.00377521
-0.00393016
-0.00408049
-0.004225
-0.00436205
-0.00448963
-0.00460536
-0.00470662
-0.00479056
-0.00485419
-0.00489444
-0.00490825
-0.00489264
-0.00484477
-0.00476208
-0.00464233
-0.00448372
-0.00428497
-0.00404539
-0.00376498
-0.00344452
-0.00308561
-0.0026907
-0.0022632
-0.0018074
-0.00132853
-0.000832705
-0.000326842
0.000181416
0.000683831
0.00117173
0.00163618
0.00206823
0.00245912
0.00280054
0.00308486
0.00330541
0.00345669
0.00353452
0.0035363
0.00346101
0.00330933
0.0030836
0.00278775
0.00242719
0.00200856
0.00153959
0.00102878
0.00048513
-8.23735e-05
-0.00066479
-0.00125029
-0.00182782
-0.00243164
-0.00309391
0.00105222
0.000247897
-0.000378431
-0.000881772
-0.00132874
-0.00172405
-0.0020716
-0.00237937
-0.00265484
-0.00290445
-0.00313391
-0.0033481
-0.00355112
-0.00374625
-0.00393599
-0.0041221
-0.00430562
-0.00448694
-0.00466582
-0.00484144
-0.00501249
-0.00517714
-0.00533318
-0.00547801
-0.00560873
-0.00572219
-0.00581509
-0.00588399
-0.00592545
-0.00593605
-0.00591255
-0.0058519
-0.00575139
-0.00560875
-0.00542219
-0.00519057
-0.00491344
-0.00459115
-0.00422491
-0.00381691
-0.0033703
-0.00288927
-0.00237903
-0.00184583
-0.00129684
-0.000740132
-0.000184531
0.000360546
0.000885274
0.00137965
0.00183375
0.00223798
0.00258341
0.002862
0.00306693
0.0031928
0.00323584
0.00319409
0.00306748
0.00285783
0.00256881
0.00220585
0.00177587
0.00128711
0.00074879
0.000170827
-0.000436804
-0.0010641
-0.00169783
-0.00232562
-0.00298495
-0.00371089
0.000521603
-0.000305003
-0.000948337
-0.00146519
-0.00192434
-0.00233092
-0.00268921
-0.00300769
-0.00329426
-0.00355574
-0.00379813
-0.00402658
-0.00424536
-0.0044579
-0.00466678
-0.00487379
-0.00508
-0.00528573
-0.00549067
-0.00569392
-0.00589398
-0.00608889
-0.0062762
-0.00645309
-0.00661638
-0.00676262
-0.00688815
-0.00698917
-0.00706182
-0.00710224
-0.0071067
-0.00707167
-0.00699392
-0.00687061
-0.00669943
-0.00647868
-0.00620739
-0.00588541
-0.0055135
-0.00509346
-0.00462812
-0.00412147
-0.00357866
-0.00300595
-0.00241077
-0.00180157
-0.00118773
-0.000579446
1.25292e-05
0.000577068
0.00110297
0.00157925
0.00199546
0.00234206
0.00261066
0.0027944
0.00288817
0.00288884
0.00279537
0.00260891
0.00233275
0.00197222
0.00153449
0.00102829
0.000463639
-0.000148598
-0.000797342
-0.00147141
-0.00215602
-0.00283733
-0.00355634
-0.00435123
-9.62845e-05
-0.000942488
-0.00160088
-0.00212984
-0.00260008
-0.00301716
-0.00338575
-0.00371477
-0.00401254
-0.00428624
-0.00454215
-0.00478567
-0.00502125
-0.00525243
-0.0054819
-0.00571147
-0.0059422
-0.00617438
-0.00640763
-0.00664091
-0.00687262
-0.00710059
-0.00732218
-0.00753431
-0.00773354
-0.00791609
-0.00807795
-0.00821492
-0.00832271
-0.00839699
-0.00843352
-0.00842823
-0.00837729
-0.00827729
-0.00812531
-0.00791901
-0.00765682
-0.00733801
-0.00696279
-0.00653245
-0.00604945
-0.00551745
-0.00494142
-0.00432762
-0.00368361
-0.00301817
-0.00234123
-0.00166374
-0.000997416
-0.000354574
0.000252213
0.000810424
0.00130795
0.00173349
0.00207692
0.00232963
0.00248493
0.00253824
0.00248735
0.00233251
0.00207646
0.00172432
0.00128341
0.000762964
0.000173776
-0.00047223
-0.00116278
-0.00188539
-0.00262354
-0.0033618
-0.00414494
-0.00501455
-0.000803889
-0.0016669
-0.00233833
-0.00287795
-0.00335819
-0.00378499
-0.0041634
-0.00450278
-0.00481184
-0.00509811
-0.00536814
-0.00562754
-0.00588095
-0.00613204
-0.00638355
-0.00663734
-0.00689447
-0.00715519
-0.00741903
-0.00768487
-0.00795094
-0.00821491
-0.00847394
-0.00872469
-0.00896345
-0.00918611
-0.00938829
-0.0095654
-0.00971267
-0.00982529
-0.00989847
-0.00992754
-0.00990806
-0.00983597
-0.00970765
-0.00952008
-0.00927099
-0.00895895
-0.00858354
-0.00814545
-0.00764661
-0.00709028
-0.00648112
-0.00582528
-0.00513035
-0.00440539
-0.00366081
-0.00290829
-0.00216053
-0.00143106
-0.000733927
-8.33148e-05
0.00050683
0.00102324
0.00145377
0.00178785
0.00201685
0.00213449
0.0021371
0.00202378
0.00179648
0.00145995
0.00102157
0.000490997
-0.000120155
-0.000798858
-0.00153154
-0.00230426
-0.00309862
-0.00389735
-0.00474938
-0.00569997
-0.00160322
-0.00248017
-0.00316255
-0.00371136
-0.00420046
-0.00463618
-0.00502393
-0.00537349
-0.00569393
-0.0059931
-0.00627781
-0.0065539
-0.00682616
-0.00709839
-0.00737339
-0.00765308
-0.00793848
-0.00822983
-0.0085266
-0.00882755
-0.00913078
-0.00943379
-0.00973353
-0.0100264
-0.0103085
-0.0105753
-0.0108221
-0.0110438
-0.0112352
-0.0113911
-0.0115059
-0.0115745
-0.0115917
-0.0115527
-0.0114532
-0.0112893
-0.0110581
-0.0107572
-0.0103856
-0.00994311
-0.00943112
-0.00885231
-0.00821094
-0.00751288
-0.00676567
-0.00597852
-0.00516225
-0.00432922
-0.0034931
-0.00266867
-0.00187149
-0.00111755
-0.000422794
0.000197319
0.000728373
0.00115749
0.00147383
0.00166905
0.00173766
0.00167733
0.00148896
0.00117671
0.000747835
0.000212372
-0.000417277
-0.00112692
-0.00190158
-0.00272574
-0.00357886
-0.0044417
-0.00536764
-0.00640591
-0.00249584
-0.00338376
-0.00407498
-0.00463147
-0.00512829
-0.00557212
-0.00596872
-0.00632824
-0.00666012
-0.00697249
-0.00727243
-0.00756596
-0.00785806
-0.00815261
-0.00845252
-0.00875972
-0.00907525
-0.00939932
-0.00973133
-0.0100699
-0.0104132
-0.0107583
-0.0111021
-0.0114408
-0.0117701
-0.0120852
-0.012381
-0.0126521
-0.0128927
-0.013097
-0.013259
-0.0133726
-0.0134322
-0.0134321
-0.0133672
-0.0132327
-0.0130248
-0.0127403
-0.0123773
-0.0119347
-0.0114132
-0.0108147
-0.010143
-0.00940345
-0.00860345
-0.00775223
-0.00686092
-0.00594244
-0.00501141
-0.00408383
-0.00317685
-0.00230835
-0.00149644
-0.000758986
-0.000112948
0.000426167
0.000844937
0.00113257
0.00128141
0.00128728
0.0011497
0.000871977
0.000461053
-7.28026e-05
-0.000716434
-0.00145445
-0.00227037
-0.00314691
-0.00406123
-0.00499184
-0.00599696
-0.00713007
-0.00348278
-0.00437869
-0.0050766
-0.00563926
-0.00614263
-0.00659374
-0.00699867
-0.00736792
-0.00771126
-0.00803709
-0.00835273
-0.00866441
-0.00897724
-0.00929523
-0.00962137
-0.00995763
-0.0103051
-0.0106639
-0.0110334
-0.0114122
-0.0117982
-0.0121885
-0.0125798
-0.0129679
-0.0133484
-0.0137162
-0.0140657
-0.014391
-0.014686
-0.0149443
-0.0151591
-0.0153239
-0.015432
-0.0154771
-0.0154531
-0.0153544
-0.015176
-0.014914
-0.0145652
-0.0141278
-0.0136014
-0.012987
-0.0122878
-0.0115086
-0.0106563
-0.00974011
-0.00877125
-0.00776315
-0.00673122
-0.00569271
-0.00466635
-0.00367197
-0.00273
-0.0018609
-0.00108447
-0.00041919
0.000118548
0.000515083
0.000760119
0.000847218
0.000774134
0.000542962
0.000160057
-0.00036425
-0.00101613
-0.00177898
-0.00263472
-0.00356416
-0.00454188
-0.0055439
-0.00663368
-0.00786921
-0.00456461
-0.00546547
-0.00616792
-0.00673523
-0.00724399
-0.00770153
-0.00811424
-0.00849295
-0.0088477
-0.00918717
-0.00951891
-0.00984933
-0.0101837
-0.0105261
-0.0108797
-0.0112464
-0.0116274
-0.0120228
-0.012432
-0.0128534
-0.0132848
-0.0137234
-0.0141654
-0.0146066
-0.0150423
-0.015467
-0.0158749
-0.0162596
-0.0166143
-0.0169322
-0.017206
-0.0174282
-0.0175914
-0.0176885
-0.0177123
-0.0176563
-0.0175145
-0.0172817
-0.0169537
-0.0165276
-0.0160018
-0.0153766
-0.0146539
-0.0138379
-0.012935
-0.011954
-0.0109062
-0.00980524
-0.0086673
-0.00751073
-0.00635581
-0.00522438
-0.0041393
-0.00312381
-0.00220083
-0.00139213
-0.000717512
-0.000193983
0.000165032
0.00035033
0.000357408
0.000186728
-0.000156278
-0.000661467
-0.00131447
-0.00209749
-0.00299075
-0.00397303
-0.00501604
-0.00609305
-0.00727311
-0.00861906
-0.00574132
-0.00664414
-0.00734898
-0.00791944
-0.00843241
-0.00889552
-0.00931542
-0.00970325
-0.0100693
-0.0104225
-0.0107706
-0.0111202
-0.0114768
-0.0118445
-0.0122265
-0.0126249
-0.0130409
-0.0134746
-0.0139254
-0.0143916
-0.014871
-0.0153606
-0.0158565
-0.0163544
-0.0168492
-0.0173351
-0.017806
-0.018255
-0.018675
-0.0190584
-0.0193972
-0.0196833
-0.0199086
-0.0200647
-0.0201437
-0.0201379
-0.0200402
-0.0198441
-0.0195443
-0.0191365
-0.0186181
-0.0179879
-0.0172469
-0.0163983
-0.0154478
-0.0144035
-0.0132765
-0.0120807
-0.0108327
-0.00955187
-0.00825994
-0.00698076
-0.00573967
-0.00456286
-0.0034766
-0.00250634
-0.0016757
-0.00100554
-0.000512964
-0.000210527
-0.000105552
-0.000199723
-0.000488968
-0.000963649
-0.00160905
-0.00240626
-0.00333377
-0.00436812
-0.00547789
-0.0066333
-0.00790939
-0.00937412
-0.0070124
-0.00791423
-0.00861937
-0.00919148
-0.0097075
-0.0101753
-0.0106018
-0.0109983
-0.0113754
-0.0117423
-0.0121069
-0.012476
-0.0128551
-0.0132487
-0.0136599
-0.0140911
-0.0145433
-0.0150167
-0.0155107
-0.0160238
-0.0165534
-0.0170966
-0.0176495
-0.0182073
-0.0187648
-0.019316
-0.0198544
-0.0203727
-0.0208633
-0.021318
-0.0217281
-0.0220848
-0.022379
-0.0226016
-0.0227434
-0.0227957
-0.0227501
-0.0225989
-0.0223354
-0.0219539
-0.0214503
-0.0208222
-0.0200693
-0.0191936
-0.0181997
-0.0170951
-0.0158902
-0.0145989
-0.0132382
-0.011828
-0.0103917
-0.00895481
-0.00754529
-0.00619237
-0.00492589
-0.00377528
-0.00276843
-0.00193058
-0.00128313
-0.000842638
-0.000619893
-0.000619345
-0.000838814
-0.00126959
-0.0018969
-0.00270082
-0.0036581
-0.0047429
-0.00592038
-0.00715736
-0.00853527
-0.0101275
-0.00837678
-0.00927478
-0.00997819
-0.0105505
-0.0110684
-0.01154
-0.0119723
-0.0123771
-0.0127649
-0.0131453
-0.0135262
-0.0139148
-0.0143167
-0.0147364
-0.0151774
-0.0156419
-0.0161312
-0.0166454
-0.0171841
-0.0177455
-0.0183274
-0.0189265
-0.0195388
-0.0201595
-0.0207832
-0.0214035
-0.0220137
-0.022606
-0.0231724
-0.0237039
-0.0241915
-0.0246253
-0.0249955
-0.025292
-0.0255045
-0.025623
-0.025638
-0.0255403
-0.0253217
-0.0249752
-0.0244949
-0.023877
-0.0231198
-0.0222237
-0.0211921
-0.0200315
-0.0187516
-0.0173658
-0.0158911
-0.0143482
-0.0127614
-0.011158
-0.00956853
-0.00802523
-0.00656169
-0.00521161
-0.0040076
-0.0029798
-0.00215458
-0.00155319
-0.00119065
-0.00107488
-0.00120627
-0.00157756
-0.00217429
-0.00297574
-0.00395695
-0.00508958
-0.00633505
-0.00765644
-0.00914195
-0.0108707
-0.00983288
-0.0107243
-0.0114241
-0.0119952
-0.0125139
-0.0129883
-0.0134258
-0.0138381
-0.0142362
-0.0146295
-0.0150265
-0.0154343
-0.0158588
-0.0163047
-0.0167755
-0.0172736
-0.0178003
-0.0183561
-0.0189403
-0.0195513
-0.0201869
-0.0208436
-0.0215176
-0.0222038
-0.0228966
-0.0235895
-0.0242753
-0.024946
-0.025593
-0.0262068
-0.0267776
-0.027295
-0.0277481
-0.0281258
-0.0284168
-0.0286098
-0.028694
-0.0286587
-0.0284942
-0.0281918
-0.0277441
-0.0271454
-0.0263924
-0.0254838
-0.0244217
-0.0232111
-0.0218607
-0.0203831
-0.0187952
-0.0171177
-0.015376
-0.0135989
-0.0118191
-0.0100721
-0.00839518
-0.00682662
-0.00540407
-0.00416317
-0.00313589
-0.00234896
-0.00182247
-0.00156867
-0.00159126
-0.00188512
-0.00243661
-0.00322452
-0.00422225
-0.0053989
-0.00671185
-0.00812002
-0.00971883
-0.0115933
-0.0113786
-0.012261
-0.0129554
-0.013524
-0.0140424
-0.0145187
-0.0149604
-0.0153795
-0.015787
-0.0161927
-0.0166051
-0.0170315
-0.0174781
-0.0179496
-0.0184498
-0.0189813
-0.0195455
-0.0201429
-0.0207729
-0.0214342
-0.0221244
-0.0228401
-0.0235774
-0.0243311
-0.0250955
-0.0258639
-0.0266287
-0.0273817
-0.0281136
-0.0288146
-0.0294741
-0.030081
-0.0306236
-0.0310896
-0.0314667
-0.0317424
-0.0319044
-0.0319405
-0.0318395
-0.0315909
-0.0311854
-0.0306158
-0.0298764
-0.0289646
-0.0278803
-0.0266272
-0.0252124
-0.0236477
-0.0219491
-0.0201374
-0.0182382
-0.016282
-0.0143033
-0.0123406
-0.010435
-0.00862943
-0.006967
-0.00548929
-0.00423457
-0.00323588
-0.00251929
-0.00210232
-0.00199293
-0.00218895
-0.00267817
-0.00343934
-0.00444443
-0.00565991
-0.00703885
-0.00853563
-0.0102533
-0.0122829
-0.0130113
-0.0138825
-0.0145699
-0.0151348
-0.0156518
-0.016129
-0.0165741
-0.016999
-0.017415
-0.017832
-0.0182587
-0.0187027
-0.0191703
-0.0196665
-0.0201952
-0.0207592
-0.0213602
-0.0219987
-0.0226745
-0.023386
-0.0241311
-0.0249065
-0.025708