/*--------------------------------*- C++ -*----------------------------------*\
  =========                 |
  \\      /  F ield         | OpenFOAM: The Open Source CFD Toolbox
   \\    /   O peration     | Website:  https://openfoam.org
    \\  /    A nd           | Version:  dev
     \\/     M anipulation  |
\*---------------------------------------------------------------------------*/
FoamFile
{
    format      ascii;
    class       surfaceScalarField;
    location    "42.3";
    object      phi;
}
// * * * * * * * * * * * * * * * * * * * * * * * * * * * * * * * * * * * * * //

dimensions      [0 3 -1 0 0 0 0];

internalField   nonuniform List<scalar> 
10224
(
3.39342e-08
-3.47679e-08
8.79583e-08
-5.40212e-08
1.24513e-07
-3.65562e-08
1.25477e-07
-9.61766e-10
8.3846e-08
4.16361e-08
-1.65655e-09
8.55064e-08
-1.29209e-07
1.27549e-07
-2.95507e-07
1.66295e-07
-4.96488e-07
2.00981e-07
-7.27849e-07
2.31364e-07
-9.8532e-07
2.57473e-07
-1.26481e-06
2.79488e-07
-1.56247e-06
2.97663e-07
-1.87476e-06
3.12282e-07
-2.19839e-06
3.2363e-07
-2.53036e-06
3.31972e-07
-2.86791e-06
3.37546e-07
-3.20846e-06
3.40552e-07
-3.54961e-06
3.41152e-07
-3.88908e-06
3.39469e-07
-4.22466e-06
3.35587e-07
-4.55422e-06
3.29558e-07
-4.87563e-06
3.21409e-07
-5.18677e-06
3.11142e-07
-5.48552e-06
2.98744e-07
-5.76971e-06
2.84195e-07
-6.03718e-06
2.67473e-07
-6.28574e-06
2.4856e-07
-6.5132e-06
2.27454e-07
-6.71736e-06
2.04166e-07
-6.8961e-06
1.78736e-07
-7.04733e-06
1.51231e-07
-7.16909e-06
1.21754e-07
-7.25953e-06
9.04445e-08
-7.31701e-06
5.74822e-08
-7.3401e-06
2.30903e-08
-7.32764e-06
-1.24654e-08
-7.27876e-06
-4.88761e-08
-7.19297e-06
-8.57925e-08
-7.07014e-06
-1.22827e-07
-6.91058e-06
-1.59559e-07
-6.71504e-06
-1.95538e-07
-6.48474e-06
-2.30296e-07
-6.2214e-06
-2.63347e-07
-5.92719e-06
-2.94205e-07
-5.6048e-06
-3.22388e-07
-5.25737e-06
-3.4743e-07
-4.88848e-06
-3.6889e-07
-4.50212e-06
-3.86367e-07
-4.10261e-06
-3.99508e-07
-3.69459e-06
-4.08016e-07
-3.28293e-06
-4.11662e-07
-2.87264e-06
-4.10291e-07
-2.46881e-06
-4.03826e-07
-2.07653e-06
-3.92277e-07
-1.70079e-06
-3.75742e-07
-1.34639e-06
-3.54405e-07
-1.01784e-06
-3.28541e-07
-7.19335e-07
-2.98511e-07
-4.54571e-07
-2.64764e-07
-2.26732e-07
-2.27839e-07
-3.83627e-08
-1.88369e-07
1.08731e-07
-1.47093e-07
2.13612e-07
-1.0488e-07
2.76395e-07
-6.27823e-08
2.98514e-07
-2.21186e-08
2.83148e-07
1.5364e-08
2.359e-07
4.72474e-08
1.65834e-07
7.00648e-08
8.72531e-08
7.85811e-08
2.25453e-08
6.47088e-08
2.25483e-08
5.39976e-08
-8.87628e-08
1.12567e-07
-1.12578e-07
1.18393e-07
-4.23835e-08
3.90851e-08
7.83364e-08
-1.41768e-07
2.22478e-07
-4.29487e-07
3.73227e-07
-8.22316e-07
5.20386e-07
-1.31411e-06
6.58096e-07
-1.89631e-06
7.83178e-07
-2.55909e-06
8.94144e-07
-3.29218e-06
9.9056e-07
-4.08532e-06
1.07263e-06
-4.92859e-06
1.14093e-06
-5.81254e-06
1.19623e-06
-6.72828e-06
1.23937e-06
-7.66749e-06
1.27118e-06
-8.62234e-06
1.2924e-06
-9.58551e-06
1.30372e-06
-1.055e-05
1.30566e-06
-1.15092e-05
1.29867e-06
-1.24567e-05
1.28305e-06
-1.33861e-05
1.25902e-06
-1.42914e-05
1.22669e-06
-1.51664e-05
1.1861e-06
-1.60049e-05
1.13727e-06
-1.68009e-05
1.08015e-06
-1.75481e-05
1.01474e-06
-1.82406e-05
9.41019e-07
-1.88722e-05
8.59042e-07
-1.94369e-05
7.68921e-07
-1.99291e-05
6.7086e-07
-2.0343e-05
5.65169e-07
-2.06735e-05
4.52282e-07
-2.09158e-05
3.32769e-07
-2.10657e-05
2.07345e-07
-2.11195e-05
7.68725e-08
-2.10743e-05
-5.76305e-08
-2.09282e-05
-1.94999e-07
-2.06801e-05
-3.33925e-07
-2.03299e-05
-4.7297e-07
-1.98789e-05
-6.10581e-07
-1.93293e-05
-7.45112e-07
-1.86848e-05
-8.74845e-07
-1.79501e-05
-9.98024e-07
-1.71314e-05
-1.11288e-06
-1.62361e-05
-1.21769e-06
-1.52728e-05
-1.31075e-06
-1.42512e-05
-1.39051e-06
-1.3182e-05
-1.45553e-06
-1.2077e-05
-1.50454e-06
-1.09485e-05
-1.53649e-06
-9.80957e-06
-1.55058e-06
-8.6736e-06
-1.54627e-06
-7.55413e-06
-1.52329e-06
-6.46469e-06
-1.48172e-06
-5.4185e-06
-1.42193e-06
-4.42828e-06
-1.34463e-06
-3.50597e-06
-1.25084e-06
-2.66254e-06
-1.14195e-06
-1.90766e-06
-1.01964e-06
-1.24953e-06
-8.85977e-07
-6.94525e-07
-7.43369e-07
-2.46966e-07
-5.94651e-07
9.13072e-08
-4.43153e-07
3.21377e-07
-2.92852e-07
4.47845e-07
-1.48587e-07
4.79717e-07
-1.65083e-08
4.3148e-07
9.54858e-08
3.24587e-07
1.76958e-07
1.89068e-07
2.14099e-07
6.4403e-08
1.89374e-07
8.69518e-08
3.74034e-08
-1.26168e-07
4.34355e-08
-1.18611e-07
-4.31413e-08
4.41968e-08
-2.5862e-07
2.93816e-07
-6.22624e-07
5.86479e-07
-1.14227e-06
8.92871e-07
-1.81582e-06
1.19394e-06
-2.63563e-06
1.47791e-06
-3.59033e-06
1.73787e-06
-4.66638e-06
1.9702e-06
-5.84921e-06
2.17339e-06
-7.12394e-06
2.34735e-06
-8.47583e-06
2.49283e-06
-9.89066e-06
2.61106e-06
-1.13548e-05
2.7035e-06
-1.28552e-05
2.77165e-06
-1.43798e-05
2.81694e-06
-1.59167e-05
2.84065e-06
-1.74549e-05
2.84384e-06
-1.89836e-05
2.82738e-06
-2.04925e-05
2.79191e-06
-2.19713e-05
2.73787e-06
-2.34102e-05
2.66556e-06
-2.47992e-05
2.57511e-06
-2.61285e-05
2.4666e-06
-2.73884e-05
2.34004e-06
-2.85691e-05
2.19547e-06
-2.96611e-05
2.03297e-06
-3.06548e-05
1.85273e-06
-3.1541e-05
1.65509e-06
-3.23107e-05
1.44058e-06
-3.29554e-05
1.20994e-06
-3.34673e-05
9.64181e-07
-3.38392e-05
7.04595e-07
-3.40646e-05
4.32768e-07
-3.41383e-05
1.50594e-07
-3.40562e-05
-1.39722e-07
-3.38155e-05
-4.35672e-07
-3.3415e-05
-7.34459e-07
-3.2855e-05
-1.03303e-06
-3.21374e-05
-1.32809e-06
-3.12664e-05
-1.61617e-06
-3.02475e-05
-1.89368e-06
-2.90886e-05
-2.15693e-06
-2.77993e-05
-2.40223e-06
-2.6391e-05
-2.62597e-06
-2.48771e-05
-2.82466e-06
-2.32726e-05
-2.99504e-06
-2.1594e-05
-3.13413e-06
-1.98592e-05
-3.23932e-06
-1.80872e-05
-3.30846e-06
-1.62979e-05
-3.33989e-06
-1.45117e-05
-3.33249e-06
-1.27492e-05
-3.28579e-06
-1.1031e-05
-3.19993e-06
-9.3772e-06
-3.07574e-06
-7.80709e-06
-2.91473e-06
-6.33879e-06
-2.71914e-06
-4.98885e-06
-2.49189e-06
-3.77186e-06
-2.23663e-06
-2.70006e-06
-1.95777e-06
-1.78293e-06
-1.6605e-06
-1.02669e-06
-1.35089e-06
-4.33806e-07
-1.03603e-06
-2.37116e-09
-7.24287e-07
2.74709e-07
-4.25666e-07
4.10506e-07
-1.52302e-07
4.25274e-07
8.07208e-08
3.47659e-07
2.54576e-07
2.15885e-07
3.45877e-07
7.86863e-08
3.26572e-07
1.65638e-07
1.94924e-09
-1.28115e-07
-7.88831e-08
-3.77881e-08
-2.97592e-07
2.62907e-07
-6.87928e-07
6.84155e-07
-1.26822e-06
1.16677e-06
-2.04475e-06
1.6694e-06
-3.01471e-06
2.16391e-06
-4.16887e-06
2.63207e-06
-5.49361e-06
3.06262e-06
-6.9726e-06
3.44919e-06
-8.588e-06
3.78879e-06
-1.03213e-05
4.08066e-06
-1.2154e-05
4.32553e-06
-1.40679e-05
4.52499e-06
-1.60455e-05
4.68106e-06
-1.80698e-05
4.79594e-06
-2.01246e-05
4.87176e-06
-2.21944e-05
4.91048e-06
-2.42643e-05
4.91376e-06
-2.63199e-05
4.88296e-06
-2.83472e-05
4.81913e-06
-3.03323e-05
4.72303e-06
-3.22619e-05
4.59517e-06
-3.41227e-05
4.43585e-06
-3.59013e-05
4.24526e-06
-3.75848e-05
4.02355e-06
-3.91602e-05
3.77087e-06
-4.06148e-05
3.48751e-06
-4.19359e-05
3.17391e-06
-4.31116e-05
2.83077e-06
-4.41301e-05
2.45911e-06
-4.49805e-05
2.06033e-06
-4.56526e-05
1.63626e-06
-4.61372e-05
1.18918e-06
-4.64263e-05
7.21864e-07
-4.65133e-05
2.37593e-07
-4.63932e-05
-2.59846e-07
-4.60627e-05
-7.66175e-07
-4.55205e-05
-1.27665e-06
-4.47674e-05
-1.78611e-06
-4.38064e-05
-2.28903e-06
-4.2643e-05
-2.77959e-06
-4.1285e-05
-3.25176e-06
-3.97425e-05
-3.69941e-06
-3.80283e-05
-4.11642e-06
-3.61575e-05
-4.49676e-06
-3.41475e-05
-4.83466e-06
-3.20178e-05
-5.12471e-06
-2.97899e-05
-5.362e-06
-2.74871e-05
-5.54221e-06
-2.51337e-05
-5.6618e-06
-2.27556e-05
-5.71801e-06
-2.0379e-05
-5.70905e-06
-1.80307e-05
-5.63413e-06
-1.57371e-05
-5.49355e-06
-1.35241e-05
-5.28872e-06
-1.14166e-05
-5.02222e-06
-9.43795e-06
-4.69781e-06
-7.60938e-06
-4.32045e-06
-5.94966e-06
-3.89635e-06
-4.47449e-06
-3.43294e-06
-3.19599e-06
-2.93901e-06
-2.1221e-06
-2.42478e-06
-1.25602e-06
-1.90211e-06
-5.95502e-07
-1.38481e-06
-1.32093e-07
-8.89074e-07
1.49722e-07
-4.34115e-07
2.73418e-07
-4.2976e-08
2.71478e-07
2.56515e-07
1.86428e-07
4.3093e-07
7.22591e-08
4.40742e-07
2.37896e-07
-4.20318e-08
-8.60766e-08
-2.30023e-07
1.50194e-07
-6.06609e-07
6.39489e-07
-1.1984e-06
1.27594e-06
-2.01914e-06
1.98752e-06
-3.07202e-06
2.72228e-06
-4.35185e-06
3.44374e-06
-5.8472e-06
4.12742e-06
-7.5422e-06
4.75761e-06
-9.41803e-06
5.32502e-06
-1.14541e-05
5.82489e-06
-1.36291e-05
6.25562e-06
-1.59212e-05
6.61769e-06
-1.83092e-05
6.91292e-06
-2.0772e-05
7.14385e-06
-2.32893e-05
7.31331e-06
-2.58417e-05
7.42412e-06
-2.84101e-05
7.47893e-06
-3.09764e-05
7.48001e-06
-3.35227e-05
7.42927e-06
-3.60318e-05
7.32819e-06
-3.84866e-05
7.17789e-06
-4.08706e-05
6.97914e-06
-4.31672e-05
6.73249e-06
-4.53603e-05
6.4383e-06
-4.74336e-05
6.09691e-06
-4.93715e-05
5.70871e-06
-5.11582e-05
5.27426e-06
-5.27787e-05
4.79439e-06
-5.42183e-05
4.27034e-06
-5.5463e-05
3.70378e-06
-5.64996e-05
3.09697e-06
-5.73161e-05
2.45277e-06
-5.79017e-05
1.77473e-06
-5.82469e-05
1.0671e-06
-5.83442e-05
3.3486e-07
-5.81877e-05
-4.16265e-07
-5.77741e-05
-1.17986e-06
-5.71019e-05
-1.94883e-06
-5.61725e-05
-2.71551e-06
-5.49898e-05
-3.47169e-06
-5.35606e-05
-4.20878e-06
-5.18945e-05
-4.91787e-06
-5.0004e-05
-5.58994e-06
-4.79044e-05
-6.21598e-06
-4.5614e-05
-6.78715e-06
-4.31537e-05
-7.29498e-06
-4.05469e-05
-7.73155e-06
-3.78192e-05
-8.08966e-06
-3.49984e-05
-8.36301e-06
-3.21138e-05
-8.54638e-06
-2.9196e-05
-8.63578e-06
-2.62765e-05
-8.62858e-06
-2.3387e-05
-8.52365e-06
-2.05591e-05
-8.32144e-06
-1.78237e-05
-8.02407e-06
-1.52106e-05
-7.63536e-06
-1.27475e-05
-7.16091e-06
-1.04599e-05
-6.60809e-06
-8.3701e-06
-5.98611e-06
-6.49703e-06
-5.30601e-06
-4.85523e-06
-4.58081e-06
-3.45443e-06
-3.82558e-06
-2.29885e-06
-3.05769e-06
-1.38652e-06
-2.29713e-06
-7.08589e-07
-1.567e-06
-2.48567e-07
-8.94135e-07
1.8412e-08
-3.09955e-07
1.26423e-07
1.48503e-07
1.19635e-07
4.3772e-07
5.37047e-08
5.06674e-07
2.916e-07
-8.94416e-08
3.36895e-09
-3.95403e-07
4.56158e-07
-9.45292e-07
1.18938e-06
-1.75571e-06
2.08636e-06
-2.83345e-06
3.06527e-06
-4.17678e-06
4.06561e-06
-5.77683e-06
5.0438e-06
-7.61922e-06
5.96981e-06
-9.68547e-06
6.82386e-06
-1.19543e-05
7.59383e-06
-1.44026e-05
8.27319e-06
-1.70064e-05
8.85941e-06
-1.97413e-05
9.35266e-06
-2.25833e-05
9.75488e-06
-2.55085e-05
1.0069e-05
-2.84937e-05
1.02986e-05
-3.15165e-05
1.04469e-05
-3.4555e-05
1.05174e-05
-3.75879e-05
1.05129e-05
-4.05945e-05
1.04359e-05
-4.35546e-05
1.02883e-05
-4.64484e-05
1.00717e-05
-4.92563e-05
9.787e-06
-5.19589e-05
9.43515e-06
-5.45374e-05
9.01674e-06
-5.69728e-05
8.53237e-06
-5.92469e-05
7.98274e-06
-6.13414e-05
7.36882e-06
-6.3239e-05
6.69195e-06
-6.49226e-05
5.95401e-06
-6.63764e-05
5.15754e-06
-6.75852e-05
4.30581e-06
-6.85354e-05
3.40296e-06
-6.92147e-05
2.45401e-06
-6.96126e-05
1.46498e-06
-6.97205e-05
4.42823e-07
-6.95323e-05
-6.0451e-07
-6.9044e-05
-1.66814e-06
-6.82546e-05
-2.73829e-06
-6.71657e-05
-3.80442e-06
-6.5782e-05
-4.8553e-06
-6.41116e-05
-5.87917e-06
-6.21656e-05
-6.86389e-06
-5.99584e-05
-7.79717e-06
-5.75076e-05
-8.66673e-06
-5.48342e-05
-9.46058e-06
-5.1962e-05
-1.01672e-05
-4.89177e-05
-1.07758e-05
-4.57306e-05
-1.12767e-05
-4.24324e-05
-1.16613e-05
-3.90564e-05
-1.19224e-05
-3.56375e-05
-1.20546e-05
-3.22116e-05
-1.20545e-05
-2.88149e-05
-1.19204e-05
-2.54835e-05
-1.16529e-05
-2.22527e-05
-1.12549e-05
-1.91564e-05
-1.07316e-05
-1.62266e-05
-1.00907e-05
-1.34924e-05
-9.34229e-06
-1.09796e-05
-8.49886e-06
-8.7101e-06
-7.57555e-06
-6.70084e-06
-6.59006e-06
-4.96357e-06
-5.56286e-06
-3.50392e-06
-4.51734e-06
-2.32085e-06
-3.4802e-06
-1.406e-06
-2.48186e-06
-7.43024e-07
-1.55711e-06
-3.07082e-07
-7.45896e-07
-6.41752e-08
-9.44021e-08
2.94752e-08
3.44072e-07
2.83529e-08
5.07795e-07
3.19951e-07
-1.37673e-07
1.41039e-07
-5.66446e-07
8.8494e-07
-1.29781e-06
1.92074e-06
-2.33687e-06
3.12542e-06
-3.68192e-06
4.41033e-06
-5.32491e-06
5.7086e-06
-7.25223e-06
6.97111e-06
-9.44574e-06
8.16332e-06
-1.18839e-05
9.26202e-06
-1.45427e-05
1.02526e-05
-1.73966e-05
1.11271e-05
-2.04191e-05
1.18819e-05
-2.35836e-05
1.25171e-05
-2.68634e-05
1.30347e-05
-3.02323e-05
1.3438e-05
-3.36647e-05
1.37309e-05
-3.71354e-05
1.39176e-05
-4.06201e-05
1.40021e-05
-4.40948e-05
1.39877e-05
-4.75364e-05
1.38775e-05
-5.0922e-05
1.36739e-05
-5.4229e-05
1.33787e-05
-5.74355e-05
1.29935e-05
-6.05197e-05
1.25193e-05
-6.34599e-05
1.1957e-05
-6.62352e-05
1.13076e-05
-6.88246e-05
1.05722e-05
-7.12081e-05
9.75225e-06
-7.33658e-05
8.8497e-06
-7.52791e-05
7.86726e-06
-7.693e-05
6.80843e-06
-7.83018e-05
5.6777e-06
-7.93795e-05
4.48066e-06
-8.01496e-05
3.22404e-06
-8.06004e-05
1.91581e-06
-8.07227e-05
5.65152e-07
-8.05097e-05
-8.17487e-07
-7.99574e-05
-2.22049e-06
-7.90645e-05
-3.63114e-06
-7.78333e-05
-5.0357e-06
-7.6269e-05
-6.41962e-06
-7.43805e-05
-7.76765e-06
-7.21802e-05
-9.06412e-06
-6.96843e-05
-1.02931e-05
-6.69122e-05
-1.14388e-05
-6.3887e-05
-1.24858e-05
-6.06352e-05
-1.3419e-05
-5.71863e-05
-1.42248e-05
-5.35727e-05
-1.48903e-05
-4.98293e-05
-1.54047e-05
-4.59931e-05
-1.57586e-05
-4.21027e-05
-1.5945e-05
-3.81979e-05
-1.59593e-05
-3.4319e-05
-1.57993e-05
-3.05059e-05
-1.54659e-05
-2.67981e-05
-1.49627e-05
-2.32335e-05
-1.42963e-05
-1.98476e-05
-1.34766e-05
-1.66734e-05
-1.25166e-05
-1.37398e-05
-1.14324e-05
-1.10717e-05
-1.02436e-05
-8.68883e-06
-8.97295e-06
-6.60508e-06
-7.6466e-06
-4.82799e-06
-6.29442e-06
-3.35806e-06
-4.95013e-06
-2.18817e-06
-3.65175e-06
-1.3031e-06
-2.44217e-06
-6.79104e-07
-1.36989e-06
-2.83526e-07
-4.89979e-07
-7.44857e-08
1.35032e-07
-5.4851e-10
4.33856e-07
3.19403e-07
-1.85474e-07
3.26511e-07
-7.38259e-07
1.43773e-06
-1.65438e-06
2.83687e-06
-2.92686e-06
4.39789e-06
-4.54461e-06
6.02808e-06
-6.49231e-06
7.6563e-06
-8.75073e-06
9.22954e-06
-1.12974e-05
1.07099e-05
-1.4107e-05
1.20717e-05
-1.71528e-05
1.32984e-05
-2.04065e-05
1.43808e-05
-2.38393e-05
1.53147e-05
-2.74222e-05
1.61001e-05
-3.11265e-05
1.67389e-05
-3.49236e-05
1.72351e-05
-3.87858e-05
1.75931e-05
-4.26857e-05
1.78176e-05
-4.65967e-05
1.79131e-05
-5.04927e-05
1.78837e-05
-5.43482e-05
1.77329e-05
-5.81379e-05
1.74636e-05
-6.18373e-05
1.70781e-05
-6.54218e-05
1.65781e-05
-6.88676e-05
1.59651e-05
-7.2151e-05
1.52403e-05
-7.52486e-05
1.44052e-05
-7.81376e-05
1.34613e-05
-8.07959e-05
1.24105e-05
-8.32019e-05
1.12557e-05
-8.53349e-05
1.00003e-05
-8.71757e-05
8.64916e-06
-8.87059e-05
7.20797e-06
-8.99092e-05
5.68394e-06
-9.07709e-05
4.08571e-06
-9.12785e-05
2.42338e-06
-9.14219e-05
7.08572e-07
-9.11938e-05
-1.04557e-06
-9.05898e-05
-2.82447e-06
-8.96088e-05
-4.61219e-06
-8.82529e-05
-6.39161e-06
-8.65279e-05
-8.14456e-06
-8.44435e-05
-9.85206e-06
-8.2013e-05
-1.14946e-05
-7.92537e-05
-1.30524e-05
-7.61867e-05
-1.45058e-05
-7.2837e-05
-1.58355e-05
-6.92329e-05
-1.70231e-05
-6.54065e-05
-1.80511e-05
-6.13929e-05
-1.8904e-05
-5.72299e-05
-1.95677e-05
-5.29575e-05
-2.00309e-05
-4.86178e-05
-2.02847e-05
-4.42541e-05
-2.0323e-05
-3.99102e-05
-2.01432e-05
-3.563e-05
-1.97461e-05
-3.14566e-05
-1.91361e-05
-2.74316e-05
-1.83212e-05
-2.35945e-05
-1.73137e-05
-1.99815e-05
-1.61296e-05
-1.66251e-05
-1.47888e-05
-1.35533e-05
-1.33154e-05
-1.07887e-05
-1.17376e-05
-8.34785e-06
-1.00875e-05
-6.24059e-06
-8.40168e-06
-4.46955e-06
-6.72117e-06
-3.02957e-06
-5.09174e-06
-1.90731e-06
-3.56444e-06
-1.08098e-06
-2.19622e-06
-5.20208e-07
-1.05075e-06
-1.86011e-07
-1.99164e-07
-3.10416e-08
2.78885e-07
2.88362e-07
-2.32206e-07
5.58717e-07
-9.0808e-07
2.1136e-06
-2.00901e-06
3.9378e-06
-3.51594e-06
5.90482e-06
-5.40798e-06
7.92013e-06
-7.66199e-06
9.91031e-06
-1.02525e-05
1.18201e-05
-1.31521e-05
1.36095e-05
-1.63315e-05
1.52512e-05
-1.97607e-05
1.67276e-05
-2.34086e-05
1.80286e-05
-2.72439e-05
1.91501e-05
-3.12356e-05
2.00917e-05
-3.53528e-05
2.08561e-05
-3.95649e-05
2.14473e-05
-4.38423e-05
2.18705e-05
-4.81557e-05
2.21309e-05
-5.24765e-05
2.22338e-05
-5.67765e-05
2.21838e-05
-6.10284e-05
2.19848e-05
-6.52049e-05
2.16402e-05
-6.92795e-05
2.11526e-05
-7.32257e-05
2.05243e-05
-7.70175e-05
1.97569e-05
-8.06295e-05
1.88523e-05
-8.40364e-05
1.78121e-05
-8.72135e-05
1.66384e-05
-9.0137e-05
1.5334e-05
-9.27836e-05
1.39023e-05
-9.51311e-05
1.23479e-05
-9.71586e-05
1.06767e-05
-9.88466e-05
8.89599e-06
-0.000100177
7.01472e-06
-0.000101135
5.04351e-06
-0.000101707
2.99476e-06
-0.000101881
8.82701e-07
-0.00010165
-1.27667e-06
-0.000101008
-3.46564e-06
-9.99558e-05
-5.66487e-06
-9.84938e-05
-7.85361e-06
-9.66285e-05
-1.00099e-05
-9.43698e-05
-1.21107e-05
-9.17318e-05
-1.41326e-05
-8.87327e-05
-1.60516e-05
-8.53947e-05
-1.78438e-05
-8.17442e-05
-1.9486e-05
-7.78114e-05
-2.09558e-05
-7.36303e-05
-2.22322e-05
-6.92382e-05
-2.32961e-05
-6.46755e-05
-2.41304e-05
-5.99851e-05
-2.47213e-05
-5.52121e-05
-2.50576e-05
-5.04031e-05
-2.51321e-05
-4.56052e-05
-2.49411e-05
-4.08661e-05
-2.44853e-05
-3.62324e-05
-2.37697e-05
-3.17496e-05
-2.2804e-05
-2.74608e-05
-2.16026e-05
-2.34059e-05
-2.01845e-05
-1.96211e-05
-1.85736e-05
-1.61376e-05
-1.67989e-05
-1.29813e-05
-1.48939e-05
-1.01717e-05
-1.2897e-05
-7.72165e-06
-1.08517e-05
-5.63636e-06
-8.80646e-06
-3.91321e-06
-6.81488e-06
-2.54141e-06
-4.93624e-06
-1.5018e-06
-3.23583e-06
-7.66915e-07
-1.78564e-06
-3.01283e-07
-6.64797e-07
-6.20232e-08
3.96254e-08
2.2634e-07
-2.77592e-07
8.36313e-07
-1.07437e-06
2.91038e-06
-2.35805e-06
5.22148e-06
-4.09779e-06
7.64457e-06
-6.26286e-06
1.00852e-05
-8.82198e-06
1.24694e-05
-1.17431e-05
1.47412e-05
-1.49934e-05
1.68598e-05
-1.85394e-05
1.87972e-05
-2.23475e-05
2.05356e-05
-2.63836e-05
2.20648e-05
-3.06141e-05
2.33806e-05
-3.50057e-05
2.44833e-05
-3.95254e-05
2.53758e-05
-4.41411e-05
2.60629e-05
-4.88211e-05
2.65505e-05
-5.35345e-05
2.68443e-05
-5.8251e-05
2.69503e-05
-6.29408e-05
2.68736e-05
-6.75747e-05
2.66187e-05
-7.21238e-05
2.61893e-05
-7.65599e-05
2.55886e-05
-8.08547e-05
2.48191e-05
-8.49807e-05
2.38829e-05
-8.89106e-05
2.27822e-05
-9.26175e-05
2.1519e-05
-9.60752e-05
2.00961e-05
-9.92582e-05
1.85169e-05
-0.000102142
1.67858e-05
-0.000104702
1.49083e-05
-0.000106917
1.28917e-05
-0.000108766
1.07448e-05
-0.00011023
8.47843e-06
-0.000111291
6.10524e-06
-0.000111937
3.64009e-06
-0.000112154
1.09989e-06
-0.000111934
-1.49634e-06
-0.000111272
-4.12761e-06
-0.000110166
-6.77105e-06
-0.000108618
-9.40211e-06
-0.000106633
-1.19948e-05
-0.000104221
-1.4522e-05
-0.000101398
-1.69559e-05
-9.81814e-05
-1.92682e-05
-9.45945e-05
-2.14307e-05
-9.06647e-05
-2.34158e-05
-8.64238e-05
-2.51968e-05
-8.19072e-05
-2.67489e-05
-7.71542e-05
-2.8049e-05
-7.22075e-05
-2.90771e-05
-6.71126e-05
-2.98162e-05
-6.19173e-05
-3.02529e-05
-5.66714e-05
-3.0378e-05
-5.14254e-05
-3.01871e-05
-4.62303e-05
-2.96803e-05
-4.11367e-05
-2.88633e-05
-3.61938e-05
-2.7747e-05
-3.14485e-05
-2.63479e-05
-2.69447e-05
-2.46883e-05
-2.27223e-05
-2.2796e-05
-1.88164e-05
-2.07048e-05
-1.52564e-05
-1.84538e-05
-1.20654e-05
-1.6088e-05
-9.25956e-06
-1.36576e-05
-6.84722e-06
-1.12188e-05
-4.82889e-06
-8.8332e-06
-3.19685e-06
-6.56828e-06
-1.93506e-06
-4.49762e-06
-1.01941e-06
-2.70129e-06
-4.18185e-07
-1.26602e-06
-9.29387e-08
-2.85621e-07
1.33402e-07
-3.21521e-07
1.15784e-06
-1.23628e-06
3.82514e-06
-2.69925e-06
6.68445e-06
-4.6683e-06
9.61362e-06
-7.10296e-06
1.25199e-05
-9.96375e-06
1.53302e-05
-1.32118e-05
1.79892e-05
-1.68088e-05
2.04568e-05
-2.07168e-05
2.27052e-05
-2.48981e-05
2.4717e-05
-2.9316e-05
2.64827e-05
-3.39342e-05
2.79988e-05
-3.8717e-05
2.92661e-05
-4.36298e-05
3.02886e-05
-4.86385e-05
3.10717e-05
-5.37099e-05
3.16219e-05
-5.88117e-05
3.19461e-05
-6.39119e-05
3.20505e-05
-6.89794e-05
3.19411e-05
-7.39834e-05
3.16227e-05
-7.88937e-05
3.10996e-05
-8.36804e-05
3.03753e-05
-8.83139e-05
2.94527e-05
-9.27652e-05
2.83342e-05
-9.70055e-05
2.70225e-05
-0.000101007
2.55201e-05
-0.000104741
2.38303e-05
-0.000108181
2.19571e-05
-0.000111301
1.9906e-05
-0.000114076
1.76835e-05
-0.000116483
1.52983e-05
-0.000118499
1.27609e-05
-0.000120104
1.00837e-05
-0.000121281
7.28173e-06
-0.000122013
4.3723e-06
-0.000122288
1.37509e-06
-0.000122097
-1.68781e-06
-0.000121432
-4.79202e-06
-0.000120292
-7.911e-06
-0.000118678
-1.10163e-05
-0.000116595
-1.40778e-05
-0.000114053
-1.7064e-05
-0.000111067
-1.99426e-05
-0.000107654
-2.26807e-05
-0.000103839
-2.52455e-05
-9.96503e-05
-2.76048e-05
-9.51197e-05
-2.97274e-05
-9.02843e-05
-3.15842e-05
-8.51851e-05
-3.31482e-05
-7.98668e-05
-3.43955e-05
-7.43772e-05
-3.53058e-05
-6.87668e-05
-3.58633e-05
-6.30883e-05
-3.60565e-05
-5.73956e-05
-3.58797e-05
-5.17435e-05
-3.53325e-05
-4.61861e-05
-3.44207e-05
-4.07767e-05
-3.31564e-05
-3.55663e-05
-3.15583e-05
-3.0603e-05
-2.96516e-05
-2.59309e-05
-2.74681e-05
-2.15893e-05
-2.50464e-05
-1.76117e-05
-2.24314e-05
-1.40251e-05
-1.96745e-05
-1.08495e-05
-1.68332e-05
-8.09704e-06
-1.39713e-05
-5.77177e-06
-1.11585e-05
-3.86946e-06
-8.47059e-06
-2.37761e-06
-5.98947e-06
-1.27569e-06
-3.8032e-06
-5.35789e-07
-2.00593e-06
-1.23585e-07
-6.97825e-07
9.81673e-09
-3.63949e-07
1.52178e-06
-1.39333e-06
4.85452e-06
-3.03121e-06
8.32233e-06
-5.2247e-06
1.18071e-05
-7.92385e-06
1.5219e-05
-1.10811e-05
1.84875e-05
-1.46508e-05
2.15589e-05
-1.85888e-05
2.43948e-05
-2.28525e-05
2.69689e-05
-2.74005e-05
2.92651e-05
-3.21929e-05
3.12751e-05
-3.71907e-05
3.29966e-05
-4.23562e-05
3.44316e-05
-4.76527e-05
3.55851e-05
-5.30447e-05
3.64636e-05
-5.84975e-05
3.70747e-05
-6.39772e-05
3.74258e-05
-6.94507e-05
3.7524e-05
-7.48855e-05
3.73759e-05
-8.02497e-05
3.69869e-05
-8.55118e-05
3.63617e-05
-9.06407e-05
3.55041e-05
-9.56055e-05
3.44175e-05
-0.000100376
3.31047e-05
-0.000104922
3.15685e-05
-0.000109214
2.98122e-05
-0.000113223
2.78395e-05
-0.000116921
2.56552e-05
-0.000120281
2.32656e-05
-0.000123276
2.06785e-05
-0.000125881
1.79037e-05
-0.000128074
1.49534e-05
-0.000129832
1.1842e-05
-0.000131137
8.58655e-06
-0.000131972
5.20695e-06
-0.000132322
1.72566e-06
-0.000132178
-1.83209e-06
-0.000131532
-5.43848e-06
-0.000130379
-9.06326e-06
-0.000128722
-1.26739e-05
-0.000126563
-1.62361e-05
-0.000123913
-1.97139e-05
-0.000120786
-2.30701e-05
-0.000117199
-2.62673e-05
-0.000113177
-2.92676e-05
-0.000108748
-3.20339e-05
-0.000103945
-3.45305e-05
-9.8806e-05
-3.67232e-05
-9.33733e-05
-3.85809e-05
-8.76934e-05
-4.00754e-05
-8.18162e-05
-4.1183e-05
-7.57949e-05
-4.18846e-05
-6.9685e-05
-4.21664e-05
-6.3544e-05
-4.20207e-05
-5.743e-05
-4.14464e-05
-5.14015e-05
-4.04492e-05
-4.55157e-05
-3.90421e-05
-3.98283e-05
-3.72457e-05
-3.43919e-05
-3.5088e-05
-2.92552e-05
-3.26049e-05
-2.44621e-05
-2.98395e-05
-2.00507e-05
-2.68428e-05
-1.60527e-05
-2.36725e-05
-1.24922e-05
-2.03937e-05
-9.38565e-06
-1.70778e-05
-6.74119e-06
-1.38029e-05
-4.55849e-06
-1.06533e-05
-2.82883e-06
-7.71913e-06
-1.5354e-06
-5.09663e-06
-6.53988e-07
-2.88735e-06
-1.53989e-07
-1.19782e-06
-1.44173e-07
-4.04861e-07
1.92664e-06
-1.54522e-06
5.99489e-06
-3.35299e-06
1.01301e-05
-5.76503e-06
1.42191e-05
-8.72232e-06
1.81763e-05
-1.21693e-05
2.19345e-05
-1.60536e-05
2.54432e-05
-2.03255e-05
2.86666e-05
-2.49376e-05
3.15809e-05
-2.98446e-05
3.41721e-05
-3.50033e-05
3.64338e-05
-4.03722e-05
3.83655e-05
-4.59114e-05
3.99708e-05
-5.15825e-05
4.12562e-05
-5.73483e-05
4.22294e-05
-6.31728e-05
4.28991e-05
-6.90208e-05
4.32738e-05
-7.48582e-05
4.33615e-05
-8.06515e-05
4.31691e-05
-8.63675e-05
4.27029e-05
-9.19738e-05
4.1968e-05
-9.74382e-05
4.09685e-05
-0.000102729
3.97082e-05
-0.000107814
3.81902e-05
-0.000112664
3.64179e-05
-0.000117246
3.43947e-05
-0.000121532
3.2125e-05
-0.000125491
2.96145e-05
-0.000129095
2.687e-05
-0.000132318
2.39007e-05
-0.000135131
2.07175e-05
-0.000137512
1.73343e-05
-0.000139438
1.37673e-05
-0.000140887
1.00357e-05
-0.000141842
6.16196e-06
-0.000142287
2.17125e-06
-0.000142211
-1.90806e-06
-0.000141605
-6.04469e-06
-0.000140464
-1.02046e-05
-0.000138787
-1.43513e-05
-0.000136577
-1.84459e-05
-0.000133843
-2.24479e-05
-0.000130598
-2.63154e-05
-0.000126859
-3.00058e-05
-0.00012265
-3.34762e-05
-0.000118
-3.66843e-05
-0.000112942
-3.95891e-05
-0.000107513
-4.21515e-05
-0.000101759
-4.43354e-05
-9.57257e-05
-4.61084e-05
-8.94663e-05
-4.74424e-05
-8.30362e-05
-4.83147e-05
-7.64939e-05
-4.87087e-05
-6.99002e-05
-4.86145e-05
-6.33171e-05
-4.80295e-05
-5.68073e-05
-4.69591e-05
-5.04325e-05
-4.54168e-05
-4.42534e-05
-4.34249e-05
-3.83273e-05
-4.1014e-05
-3.27084e-05
-3.82238e-05
-2.74455e-05
-3.51024e-05
-2.25821e-05
-3.17062e-05
-1.81548e-05
-2.80999e-05
-1.41926e-05
-2.43559e-05
-1.07167e-05
-2.05537e-05
-7.73978e-06
-1.67799e-05
-5.26576e-06
-1.31273e-05
-3.28996e-06
-9.69494e-06
-1.79935e-06
-6.58724e-06
-7.7325e-07
-3.91344e-06
-1.84326e-07
-1.78675e-06
-3.28499e-07
-4.44245e-07
2.37089e-06
-1.69173e-06
7.24237e-06
-3.66386e-06
1.21022e-05
-6.28781e-06
1.68431e-05
-9.49582e-06
2.13843e-05
-1.32247e-05
2.56634e-05
-1.74155e-05
2.9634e-05
-2.20127e-05
3.32639e-05
-2.69644e-05
3.65326e-05
-3.22215e-05
3.94291e-05
-3.77375e-05
4.19498e-05
-4.34683e-05
4.40963e-05
-4.93718e-05
4.58744e-05
-5.5408e-05
4.72924e-05
-6.15382e-05
4.83596e-05
-6.7725e-05
4.9086e-05
-7.39323e-05
4.94812e-05
-8.0125e-05
4.95541e-05
-8.62685e-05
4.93126e-05
-9.2329e-05
4.87634e-05
-9.82731e-05
4.79121e-05
-0.000104068
4.67632e-05
-0.00010968
4.53209e-05
-0.000115079
4.35885e-05
-0.000120231
4.15698e-05
-0.000125105
3.92687e-05
-0.00012967
3.66901e-05
-0.000133895
3.38401e-05
-0.000137752
3.07266e-05
-0.000141211
2.73597e-05
-0.000144245
2.37516e-05
-0.000146828
1.99176e-05
-0.000148937
1.58758e-05
-0.000150549
1.16475e-05
-0.000151644
7.25737e-06
-0.000152206
2.73354e-06
-0.000152222
-1.89261e-06
-0.00015168
-6.58639e-06
-0.000150575
-1.131e-05
-0.000148903
-1.60227e-05
-0.000146668
-2.06814e-05
-0.000143875
-2.52408e-05
-0.000140536
-2.9654e-05
-0.000136669
-3.3873e-05
-0.000132295
-3.78497e-05
-0.000127443
-4.15363e-05
-0.000122146
-4.48861e-05
-0.000116443
-4.78547e-05
-0.000110378
-5.04007e-05
-0.000104
-5.24864e-05
-9.73629e-05
-5.40794e-05
-9.0525e-05
-5.51526e-05
-8.35477e-05
-5.5686e-05
-7.64952e-05
-5.56669e-05
-6.94337e-05
-5.5091e-05
-6.24302e-05
-5.39626e-05
-5.55516e-05
-5.22954e-05
-4.88635e-05
-5.0113e-05
-4.2429e-05
-4.74485e-05
-3.63077e-05
-4.43451e-05
-3.05545e-05
-4.08556e-05
-2.52184e-05
-3.70423e-05
-2.03417e-05
-3.29766e-05
-1.59591e-05
-2.87385e-05
-1.20968e-05
-2.44159e-05
-8.77264e-06
-2.01041e-05
-5.99505e-06
-1.59049e-05
-3.76363e-06
-1.19264e-05
-2.0692e-06
-8.28167e-06
-8.94447e-07
-5.08819e-06
-2.14876e-07
-2.46632e-06
-5.43375e-07
-4.8208e-07
2.85296e-06
-1.83266e-06
8.59295e-06
-3.96323e-06
1.42328e-05
-6.79177e-06
1.96716e-05
-1.02422e-05
2.48348e-05
-1.42441e-05
2.96652e-05
-1.87319e-05
3.41218e-05
-2.36448e-05
3.81768e-05
-2.89263e-05
4.18141e-05
-3.45235e-05
4.50263e-05
-4.03867e-05
4.7813e-05
-4.64693e-05
5.01789e-05
-5.27272e-05
5.21324e-05
-5.91186e-05
5.36837e-05
-6.56034e-05
5.48444e-05
-7.21432e-05
5.56258e-05
-7.87009e-05
5.60389e-05
-8.52405e-05
5.60937e-05
-9.17267e-05
5.57989e-05
-9.81251e-05
5.51617e-05
-0.000104401
5.41884e-05
-0.000110522
5.2884e-05
-0.000116454
5.12527e-05
-0.000122164
4.92984e-05
-0.000127619
4.70249e-05
-0.000132787
4.44368e-05
-0.000137636
4.15391e-05
-0.000142135
3.83388e-05
-0.000146253
3.48444e-05
-0.00014996
3.10668e-05
-0.000153228
2.70195e-05
-0.000156029
2.27191e-05
-0.000158339
1.81854e-05
-0.000160133
1.34417e-05
-0.000161391
8.51508e-06
-0.000162093
3.43611e-06
-0.000162225
-1.76077e-06
-0.000161774
-7.03749e-06
-0.000160732
-1.23525e-05
-0.000159093
-1.76611e-05
-0.000156859
-2.29156e-05
-0.000154034
-2.80658e-05
-0.000150628
-3.30598e-05
-0.000146657
-3.78443e-05
-0.000142141
-4.23653e-05
-0.000137108
-4.65692e-05
-0.000131591
-5.04035e-05
-0.000125628
-5.38178e-05
-0.000119264
-5.67648e-05
-0.000112549
-5.92013e-05
-0.000105539
-6.10895e-05
-9.82938e-05
-6.23977e-05
-9.08782e-05
-6.31016e-05
-8.336e-05
-6.31851e-05
-7.58096e-05
-6.26415e-05
-6.82986e-05
-6.14735e-05
-6.08994e-05
-5.96947e-05
-5.36832e-05
-5.73292e-05
-4.67192e-05
-5.44125e-05
-4.00733e-05
-5.0991e-05
-3.38068e-05
-4.71221e-05
-2.79751e-05
-4.2874e-05
-2.26268e-05
-3.83249e-05
-1.78027e-05
-3.35626e-05
-1.3535e-05
-2.86836e-05
-9.84679e-06
-2.37923e-05
-6.75159e-06
-1.90001e-05
-4.25349e-06
-1.44245e-05
-2.34723e-06
-1.01879e-05
-1.01873e-06
-6.41669e-06
-2.45984e-07
-3.23907e-06
-7.89358e-07
-5.1833e-07
3.3713e-06
-1.96779e-06
1.00424e-05
-4.25047e-06
1.65155e-05
-7.2757e-06
2.26969e-05
-1.09595e-05
2.85186e-05
-1.52244e-05
3.39301e-05
-1.99988e-05
3.88962e-05
-2.52167e-05
4.33947e-05
-3.0817e-05
4.74144e-05
-3.67432e-05
5.09524e-05
-4.29426e-05
5.40123e-05
-4.9366e-05
5.66024e-05
-5.59675e-05
5.87339e-05
-6.27036e-05
6.04198e-05
-6.95329e-05
6.16737e-05
-7.6416e-05
6.25089e-05
-8.3315e-05
6.29379e-05
-9.01932e-05
6.29719e-05
-9.70147e-05
6.26204e-05
-0.000103745
6.18915e-05
-0.000110348
6.07919e-05
-0.000116791
5.93271e-05
-0.00012304
5.75015e-05
-0.000129061
5.53193e-05
-0.000134821
5.27847e-05
-0.000140286
4.99024e-05
-0.000145425
4.66779e-05
-0.000150205
4.31185e-05
-0.000154594
3.92335e-05
-0.000158561
3.50345e-05
-0.000162078
3.0536e-05
-0.000165115
2.57559e-05
-0.000167645
2.07155e-05
-0.000169643
1.544e-05
-0.000171087
9.95847e-06
-0.000171955
4.30406e-06
-0.000172229
-1.48593e-06
-0.000171897
-7.37022e-06
-0.000170946
-1.33036e-05
-0.000169369
-1.92373e-05
-0.000167166
-2.51191e-05
-0.000164338
-3.08942e-05
-0.000160892
-3.65051e-05
-0.000156843
-4.1893e-05
-0.000152211
-4.69981e-05
-0.000147019
-5.17606e-05
-0.000141301
-5.61216e-05
-0.000135095
-6.00242e-05
-0.000128445
-6.34147e-05
-0.000121402
-6.62438e-05
-0.000114024
-6.84676e-05
-0.000106373
-7.00488e-05
-9.85161e-05
-7.09585e-05
-9.0525e-05
-7.11762e-05
-8.24744e-05
-7.0692e-05
-7.44413e-05
-6.95066e-05
-6.65035e-05
-6.76325e-05
-5.87385e-05
-6.50942e-05
-5.12222e-05
-6.19288e-05
-4.40274e-05
-5.81858e-05
-3.72225e-05
-5.39271e-05
-3.08699e-05
-4.92266e-05
-2.50254e-05
-4.41694e-05
-1.97365e-05
-3.88515e-05
-1.50419e-05
-3.33782e-05
-1.09706e-05
-2.78636e-05
-7.54171e-06
-2.2429e-05
-4.76396e-06
-1.72022e-05
-2.63616e-06
-1.23157e-05
-1.14745e-06
-7.9054e-06
-2.78042e-07
-4.10847e-06
-1.0674e-06
-5.52941e-07
3.92424e-06
-2.09685e-06
1.15863e-05
-4.52497e-06
1.89436e-05
-7.73843e-06
2.59103e-05
-1.16458e-05
3.2426e-05
-1.6163e-05
3.84473e-05
-2.12126e-05
4.39458e-05
-2.67236e-05
4.89057e-05
-3.26306e-05
5.33215e-05
-3.88736e-05
5.71955e-05
-4.53971e-05
6.05358e-05
-5.21495e-05
6.33548e-05
-5.90829e-05
6.56673e-05
-6.61523e-05
6.74892e-05
-7.33153e-05
6.88367e-05
-8.05315e-05
6.97252e-05
-8.77624e-05
7.01688e-05
-9.49705e-05
7.018e-05