/*--------------------------------*- C++ -*----------------------------------*\
  =========                 |
  \\      /  F ield         | OpenFOAM: The Open Source CFD Toolbox
   \\    /   O peration     | Website:  https://openfoam.org
    \\  /    A nd           | Version:  dev
     \\/     M anipulation  |
\*---------------------------------------------------------------------------*/
FoamFile
{
    format      ascii;
    class       volVectorField;
    location    "42.3";
    object      U;
}
// * * * * * * * * * * * * * * * * * * * * * * * * * * * * * * * * * * * * * //

dimensions      [0 1 -1 0 0 0 0];

internalField   nonuniform List<vector> 
5184
(
(1.23739e-05 -1.2668e-05 0)
(4.52522e-05 -2.08701e-05 0)
(8.04021e-05 -1.72442e-05 0)
(9.60586e-05 -8.19565e-06 0)
(8.22316e-05 2.67031e-06 0)
(3.6533e-05 1.36195e-05 0)
(-4.04947e-05 2.38481e-05 0)
(-0.000146834 3.30533e-05 0)
(-0.00027969 4.11143e-05 0)
(-0.000436005 4.80356e-05 0)
(-0.000612657 5.38781e-05 0)
(-0.000806613 5.87273e-05 0)
(-0.001015 6.26762e-05 0)
(-0.00123516 6.58161e-05 0)
(-0.00146463 6.82317e-05 0)
(-0.00170114 6.99981e-05 0)
(-0.00194264 7.11797e-05 0)
(-0.00218719 7.18291e-05 0)
(-0.00243301 7.19871e-05 0)
(-0.00267843 7.16833e-05 0)
(-0.00292184 7.0937e-05 0)
(-0.00316167 6.97586e-05 0)
(-0.00339639 6.81511e-05 0)
(-0.00362448 6.61115e-05 0)
(-0.00384442 6.36325e-05 0)
(-0.00405465 6.07045e-05 0)
(-0.00425363 5.7317e-05 0)
(-0.00443978 5.34602e-05 0)
(-0.00461152 4.91271e-05 0)
(-0.00476727 4.43147e-05 0)
(-0.00490547 3.90254e-05 0)
(-0.0050246 3.32687e-05 0)
(-0.00512319 2.70616e-05 0)
(-0.00519987 2.04301e-05 0)
(-0.00525337 1.34101e-05 0)
(-0.00528259 6.04711e-06 0)
(-0.00528658 -1.60257e-06 0)
(-0.0052646 -9.47247e-06 0)
(-0.00521616 -1.74861e-05 0)
(-0.00514103 -2.55574e-05 0)
(-0.00503927 -3.35921e-05 0)
(-0.00491126 -4.14885e-05 0)
(-0.0047577 -4.91394e-05 0)
(-0.00457965 -5.64337e-05 0)
(-0.00437851 -6.3259e-05 0)
(-0.00415604 -6.95031e-05 0)
(-0.00391433 -7.50573e-05 0)
(-0.00365582 -7.98185e-05 0)
(-0.00338322 -8.36922e-05 0)
(-0.00309955 -8.65944e-05 0)
(-0.00280804 -8.84547e-05 0)
(-0.00251212 -8.92179e-05 0)
(-0.00221537 -8.88457e-05 0)
(-0.00192143 -8.73185e-05 0)
(-0.00163399 -8.46359e-05 0)
(-0.00135669 -8.08172e-05 0)
(-0.00109305 -7.59019e-05 0)
(-0.000846466 -6.99487e-05 0)
(-0.000620072 -6.30352e-05 0)
(-0.000416723 -5.52576e-05 0)
(-0.000238917 -4.673e-05 0)
(-8.8731e-05 -3.75855e-05 0)
(3.22462e-05 -2.7979e-05 0)
(0.000123001 -1.80932e-05 0)
(0.000183201 -8.1537e-06 0)
(0.00021335 1.54486e-06 0)
(0.000215036 1.05783e-05 0)
(0.000191312 1.83098e-05 0)
(0.000147211 2.37268e-05 0)
(9.08293e-05 2.51368e-05 0)
(3.66381e-05 1.98537e-05 0)
(6.2273e-06 6.24427e-06 0)
(2.08819e-05 -4.58335e-05 0)
(6.57117e-05 -6.56902e-05 0)
(9.48309e-05 -4.05608e-05 0)
(7.29363e-05 7.63102e-06 0)
(-1.88112e-05 6.56862e-05 0)
(-0.000187228 0.000126013 0)
(-0.0004329 0.00018433 0)
(-0.000752612 0.000238392 0)
(-0.00114082 0.000287057 0)
(-0.00159074 0.000329881 0)
(-0.00209503 0.000366824 0)
(-0.00264622 0.000398074 0)
(-0.00323702 0.000423946 0)
(-0.00386043 0.000444805 0)
(-0.00450984 0.000461028 0)
(-0.00517904 0.000472976 0)
(-0.00586225 0.000480969 0)
(-0.006554 0.000485284 0)
(-0.00724918 0.000486145 0)
(-0.00794288 0.000483721 0)
(-0.00863041 0.000478136 0)
(-0.00930721 0.000469465 0)
(-0.00996881 0.000457748 0)
(-0.0106108 0.000442992 0)
(-0.0112287 0.000425186 0)
(-0.0118182 0.000404307 0)
(-0.0123749 0.000380331 0)
(-0.0128943 0.00035324 0)
(-0.013372 0.000323035 0)
(-0.0138037 0.000289742 0)
(-0.0141852 0.000253423 0)
(-0.0145123 0.00021418 0)
(-0.0147812 0.000172162 0)
(-0.0149882 0.000127574 0)
(-0.0151301 8.06752e-05 0)
(-0.0152039 3.17842e-05 0)
(-0.0152075 -1.87197e-05 0)
(-0.0151388 -7.0398e-05 0)
(-0.014997 -0.000122755 0)
(-0.0147815 -0.000175244 0)
(-0.0144928 -0.000227271 0)
(-0.014132 -0.000278202 0)
(-0.0137014 -0.000327376 0)
(-0.0132039 -0.000374114 0)
(-0.0126435 -0.000417732 0)
(-0.0120251 -0.000457553 0)
(-0.0113543 -0.000492926 0)
(-0.010638 -0.000523236 0)
(-0.00988331 -0.00054792 0)
(-0.00909848 -0.000566485 0)
(-0.00829219 -0.000578517 0)
(-0.00747361 -0.000583698 0)
(-0.00665229 -0.000581811 0)
(-0.00583795 -0.000572754 0)
(-0.0050404 -0.000556543 0)
(-0.0042693 -0.000533316 0)
(-0.00353403 -0.000503337 0)
(-0.00284352 -0.000466996 0)
(-0.00220605 -0.000424809 0)
(-0.00162909 -0.000377415 0)
(-0.00111914 -0.000325584 0)
(-0.000681473 -0.00027022 0)
(-0.000320018 -0.000212386 0)
(-3.70551e-05 -0.000153334 0)
(0.000167052 -9.45765e-05 0)
(0.000294225 -3.79901e-05 0)
(0.000349218 1.39625e-05 0)
(0.000340308 5.79761e-05 0)
(0.000279992 8.94567e-05 0)
(0.00018613 0.000101905 0)
(8.64017e-05 8.65517e-05 0)
(1.96864e-05 3.64983e-05 0)
(1.76581e-05 -8.13107e-05 0)
(4.13952e-05 -9.5052e-05 0)
(1.96944e-05 -1.91551e-05 0)
(-8.39013e-05 0.000105928 0)
(-0.000290185 0.000254684 0)
(-0.000607905 0.000410662 0)
(-0.00103832 0.000563542 0)
(-0.00157763 0.000707185 0)
(-0.00221865 0.00083814 0)
(-0.0029522 0.000954698 0)
(-0.00376801 0.00105626 0)
(-0.00465535 0.00114293 0)
(-0.0056035 0.00121522 0)
(-0.00660199 0.00127384 0)
(-0.00764077 0.00131963 0)
(-0.00871027 0.00135341 0)
(-0.00980141 0.00137594 0)
(-0.0109056 0.00138791 0)
(-0.0120146 0.00138986 0)
(-0.0131205 0.00138226 0)
(-0.0142159 0.00136542 0)
(-0.0152933 0.00133957 0)
(-0.0163454 0.00130484 0)
(-0.0173652 0.00126129 0)
(-0.0183456 0.00120893 0)
(-0.0192794 0.00114775 0)
(-0.0201598 0.00107774 0)
(-0.0209796 0.000998918 0)
(-0.0217321 0.000911343 0)
(-0.0224105 0.000815156 0)
(-0.0230082 0.000710589 0)
(-0.0235188 0.000597987 0)
(-0.0239366 0.000477825 0)
(-0.0242559 0.000350716 0)
(-0.024472 0.000217429 0)
(-0.0245805 7.88853e-05 0)
(-0.0245781 -6.38328e-05 0)
(-0.0244622 -0.00020949 0)
(-0.0242315 -0.000356702 0)
(-0.0238854 -0.00050395 0)
(-0.023425 -0.000649599 0)
(-0.0228522 -0.000791915 0)
(-0.0221706 -0.000929095 0)
(-0.0213851 -0.0010593 0)
(-0.0205019 -0.00118067 0)
(-0.0195285 -0.00129138 0)
(-0.018474 -0.0013897 0)
(-0.0173486 -0.00147396 0)
(-0.0161636 -0.00154266 0)
(-0.0149315 -0.0015945 0)
(-0.0136656 -0.00162838 0)
(-0.01238 -0.00164344 0)
(-0.0110891 -0.00163914 0)
(-0.00980795 -0.00161522 0)
(-0.00855129 -0.00157174 0)
(-0.00733387 -0.0015091 0)
(-0.00616994 -0.00142807 0)
(-0.00507304 -0.00132972 0)
(-0.00405571 -0.00121552 0)
(-0.00312923 -0.00108728 0)
(-0.00230334 -0.000947154 0)
(-0.00158592 -0.000797727 0)
(-0.000982729 -0.000642004 0)
(-0.000496981 -0.000483518 0)
(-0.000128989 -0.000326469 0)
(0.000124318 -0.000175947 0)
(0.000270042 -3.82723e-05 0)
(0.000320039 7.85376e-05 0)
(0.000291448 0.000164182 0)
(0.000207508 0.000205492 0)
(0.000102499 0.000186356 0)
(2.49866e-05 9.04236e-05 0)
(8.85435e-06 -9.77809e-05 0)
(-6.96988e-06 -7.31972e-05 0)
(-0.00010753 8.47574e-05 0)
(-0.000322333 0.000318386 0)
(-0.000669633 0.000590184 0)
(-0.00115784 0.000874521 0)
(-0.0017877 0.00115436 0)
(-0.00255445 0.0014189 0)
(-0.00344954 0.00166167 0)
(-0.00446193 0.00187914 0)
(-0.00557916 0.00206975 0)
(-0.00678799 0.00223324 0)
(-0.00807504 0.00237018 0)
(-0.00942702 0.0024816 0)
(-0.010831 0.00256877 0)
(-0.0122747 0.00263303 0)
(-0.013746 0.00267566 0)
(-0.0152336 0.00269781 0)
(-0.0167265 0.00270046 0)
(-0.0182142 0.00268439 0)
(-0.0196865 0.00265022 0)
(-0.0211334 0.00259836 0)
(-0.0225451 0.00252908 0)
(-0.023912 0.00244255 0)
(-0.0252246 0.00233884 0)
(-0.0264733 0.00221799 0)
(-0.0276488 0.00208006 0)
(-0.0287418 0.00192517 0)
(-0.0297433 0.00175351 0)
(-0.0306443 0.00156544 0)
(-0.0314362 0.00136148 0)
(-0.0321109 0.00114238 0)
(-0.0326607 0.000909092 0)
(-0.0330786 0.000662872 0)
(-0.0333585 0.000405231 0)
(-0.0334949 0.000137971 0)
(-0.0334837 -0.000136819 0)
(-0.0333219 -0.000416766 0)
(-0.0330077 -0.000699235 0)
(-0.0325411 -0.000981346 0)
(-0.0319233 -0.00126001 0)
(-0.0311573 -0.00153197 0)
(-0.030248 -0.00179386 0)
(-0.0292017 -0.00204221 0)
(-0.0280268 -0.00227359 0)
(-0.0267333 -0.00248462 0)
(-0.0253329 -0.00267203 0)
(-0.023839 -0.00283278 0)
(-0.0222663 -0.0029641 0)
(-0.020631 -0.00306355 0)
(-0.0189503 -0.00312912 0)
(-0.0172423 -0.00315927 0)
(-0.0155259 -0.00315297 0)
(-0.0138202 -0.00310977 0)
(-0.0121444 -0.00302983 0)
(-0.0105175 -0.00291393 0)
(-0.00895783 -0.0027635 0)
(-0.00748283 -0.00258064 0)
(-0.00610865 -0.00236812 0)
(-0.00484979 -0.00212939 0)
(-0.00371874 -0.0018686 0)
(-0.00272561 -0.00159064 0)
(-0.00187774 -0.00130125 0)
(-0.00117924 -0.00100708 0)
(-0.000630591 -0.000715963 0)
(-0.000228079 -0.000437175 0)
(3.6776e-05 -0.000181861 0)
(0.00017788 3.63638e-05 0)
(0.000214966 0.000200778 0)
(0.000174213 0.000290984 0)
(9.3081e-05 0.000282684 0)
(2.40389e-05 0.000147339 0)
(-2.11582e-06 -8.44605e-05 0)
(-6.72749e-05 2.08371e-05 0)
(-0.000264112 0.000295447 0)
(-0.000609829 0.000668114 0)
(-0.00111693 0.00109102 0)
(-0.00179163 0.00153023 0)
(-0.00263294 0.00196232 0)
(-0.00363449 0.00237178 0)
(-0.00478614 0.0027489 0)
(-0.00607517 0.00308803 0)
(-0.00748724 0.00338641 0)
(-0.00900708 0.0036432 0)
(-0.0106191 0.00385888 0)
(-0.0123077 0.00403468 0)
(-0.0140577 0.00417226 0)
(-0.0158541 0.00427345 0)
(-0.0176827 0.00434003 0)
(-0.0195295 0.00437365 0)
(-0.0213812 0.00437574 0)
(-0.0232249 0.00434747 0)
(-0.0250479 0.00428975 0)
(-0.0268379 0.00420323 0)
(-0.0285828 0.00408839 0)
(-0.0302708 0.0039455 0)
(-0.03189 0.00377477 0)
(-0.0334288 0.00357635 0)
(-0.0348756 0.00335043 0)
(-0.0362192 0.00309728 0)
(-0.0374485 0.00281734 0)
(-0.0385527 0.00251129 0)
(-0.0395214 0.00218006 0)
(-0.0403449 0.00182493 0)
(-0.0410141 0.00144755 0)
(-0.0415207 0.00104998 0)
(-0.0418573 0.000634692 0)
(-0.0420178 0.000204612 0)
(-0.0419973 -0.000236899 0)
(-0.0417925 -0.00068605 0)
(-0.0414015 -0.00113865 0)
(-0.0408245 -0.00159014 0)
(-0.0400632 -0.00203566 0)
(-0.0391215 -0.00247008 0)
(-0.0380052 -0.00288811 0)
(-0.0367223 -0.00328436 0)
(-0.0352828 -0.00365345 0)
(-0.033699 -0.00399011 0)
(-0.0319847 -0.00428926 0)
(-0.0301562 -0.00454619 0)
(-0.028231 -0.00475657 0)
(-0.0262284 -0.00491664 0)
(-0.0241691 -0.00502328 0)
(-0.0220747 -0.00507411 0)
(-0.0199677 -0.00506754 0)
(-0.0178707 -0.0050029 0)
(-0.0158069 -0.00488045 0)
(-0.0137987 -0.00470145 0)
(-0.0118681 -0.00446818 0)
(-0.0100359 -0.00418395 0)
(-0.00832132 -0.00385316 0)
(-0.00674175 -0.00348126 0)
(-0.00531213 -0.00307483 0)
(-0.00404459 -0.00264161 0)
(-0.00294798 -0.00219061 0)
(-0.00202745 -0.00173223 0)
(-0.00128394 -0.00127853 0)
(-0.000713677 -0.000843565 0)
(-0.000307668 -0.000443827 0)
(-5.11311e-05 -9.88844e-05 0)
(7.68199e-05 0.00016792 0)
(0.000103703 0.00032885 0)
(6.75566e-05 0.000351161 0)
(1.96768e-05 0.00019422 0)
(-1.36926e-05 -3.75766e-05 0)
(-0.000132844 0.000197332 0)
(-0.000435889 0.000626963 0)
(-0.000924808 0.00117054 0)
(-0.00160424 0.0017721 0)
(-0.00247674 0.00239075 0)
(-0.00353847 0.00299743 0)
(-0.00478074 0.00357234 0)
(-0.00619145 0.00410262 0)
(-0.00775607 0.0045805 0)
(-0.00945846 0.00500191 0)
(-0.0112816 0.00536534 0)
(-0.0132079 0.00567104 0)
(-0.0152199 0.00592039 0)
(-0.0173002 0.00611535 0)
(-0.0194321 0.0062582 0)
(-0.021599 0.00635121 0)
(-0.0237849 0.00639652 0)
(-0.0259743 0.00639601 0)
(-0.0281523 0.00635122 0)
(-0.0303039 0.00626341 0)
(-0.0324148 0.0061335 0)
(-0.0344709 0.00596216 0)
(-0.0364581 0.00574986 0)
(-0.0383627 0.00549696 0)
(-0.0401711 0.00520377 0)
(-0.0418697 0.00487069 0)
(-0.0434456 0.00449823 0)
(-0.0448859 0.00408716 0)
(-0.0461781 0.00363857 0)
(-0.0473103 0.00315395 0)
(-0.0482714 0.00263527 0)
(-0.049051 0.002085 0)
(-0.0496396 0.00150618 0)
(-0.0500291 0.00090248 0)
(-0.0502125 0.000278142 0)
(-0.0501845 -0.000361964 0)
(-0.0499414 -0.00101238 0)
(-0.0494814 -0.0016671 0)
(-0.0488046 -0.00231962 0)
(-0.0479133 -0.002963 0)
(-0.0468122 -0.00358998 0)
(-0.045508 -0.00419304 0)
(-0.0440099 -0.00476457 0)
(-0.0423296 -0.00529698 0)
(-0.0404809 -0.00578281 0)
(-0.0384799 -0.00621495 0)
(-0.0363449 -0.0065867 0)
(-0.0340962 -0.00689201 0)
(-0.0317557 -0.00712559 0)
(-0.0293468 -0.00728303 0)
(-0.0268944 -0.00736097 0)
(-0.0244238 -0.00735722 0)
(-0.0219612 -0.0072708 0)
(-0.0195327 -0.00710211 0)
(-0.017164 -0.00685295 0)
(-0.0148804 -0.00652654 0)
(-0.0127055 -0.00612761 0)
(-0.0106615 -0.00566241 0)
(-0.00876835 -0.00513872 0)
(-0.00704322 -0.00456588 0)
(-0.00550025 -0.00395488 0)
(-0.00414992 -0.00331842 0)
(-0.00299858 -0.00267111 0)
(-0.00204801 -0.00202969 0)
(-0.00129494 -0.00141334 0)
(-0.000730571 -0.000844216 0)
(-0.000340176 -0.000348009 0)
(-0.000102785 4.52998e-05 0)
(9.24817e-06 0.00030076 0)
(3.25413e-05 0.000377551 0)
(1.36311e-05 0.000224623 0)
(-2.51897e-05 4.40642e-05 0)
(-0.000200049 0.000461298 0)
(-0.000614207 0.00108723 0)
(-0.00125319 0.00183508 0)
(-0.00211253 0.00264295 0)
(-0.00319007 0.00346459 0)
(-0.00447825 0.00426634 0)
(-0.00596536 0.00502475 0)
(-0.00763687 0.00572419 0)
(-0.00947625 0.00635498 0)
(-0.0114655 0.0069118 0)
(-0.0135858 0.00739247 0)
(-0.0158179 0.00779702 0)
(-0.0181426 0.00812686 0)
(-0.0205408 0.00838428 0)
(-0.0229938 0.00857193 0)
(-0.0254834 0.00869256 0)
(-0.0279917 0.00874875 0)
(-0.0305013 0.00874283 0)
(-0.0329953 0.00867674 0)
(-0.0354572 0.00855205 0)
(-0.0378705 0.00836998 0)
(-0.0402193 0.00813143 0)
(-0.0424878 0.00783708 0)
(-0.0446605 0.00748749 0)
(-0.0467218 0.0070832 0)
(-0.0486568 0.00662484 0)
(-0.0504506 0.00611327 0)
(-0.0520889 0.00554967 0)
(-0.0535577 0.00493565 0)
(-0.0548439 0.00427336 0)
(-0.055935 0.00356559 0)
(-0.0568194 0.00281578 0)
(-0.0574868 0.00202815 0)
(-0.0579282 0.00120768 0)
(-0.0581359 0.000360145 0)
(-0.0581043 -0.000507871 0)
(-0.0578292 -0.00138904 0)
(-0.0573088 -0.0022753 0)
(-0.0565435 -0.00315798 0)
(-0.0555358 -0.00402782 0)
(-0.0542909 -0.00487518 0)
(-0.0528164 -0.00569009 0)
(-0.0511226 -0.00646245 0)
(-0.0492222 -0.0071822 0)
(-0.0471308 -0.00783949 0)
(-0.044866 -0.00842489 0)
(-0.0424482 -0.00892957 0)
(-0.0398997 -0.00934551 0)
(-0.0372447 -0.0096657 0)
(-0.0345093 -0.0098843 0)
(-0.0317207 -0.00999687 0)
(-0.0289073 -0.0100004 0)
(-0.026098 -0.00989377 0)
(-0.0233217 -0.00967733 0)
(-0.0206073 -0.00935346 0)
(-0.0179826 -0.00892646 0)
(-0.0154743 -0.00840259 0)
(-0.013107 -0.00779013 0)
(-0.0109034 -0.00709938 0)
(-0.00888277 -0.00634275 0)
(-0.00706138 -0.00553475 0)
(-0.00545143 -0.00469213 0)
(-0.00406078 -0.003834 0)
(-0.00289241 -0.00298205 0)
(-0.00194404 -0.0021609 0)
(-0.00120771 -0.00139847 0)
(-0.000669484 -0.000726633 0)
(-0.000309126 -0.000181888 0)
(-9.97918e-05 0.000193949 0)
(-7.68001e-06 0.000352746 0)
(6.86885e-06 0.000235115 0)
(-3.6348e-05 0.000160457 0)
(-0.000267003 0.000814604 0)
(-0.000793939 0.00168004 0)
(-0.00158603 0.00266674 0)
(-0.0026291 0.00370898 0)
(-0.00391561 0.00475669 0)
(-0.00543358 0.00577282 0)
(-0.00716772 0.00673107 0)
(-0.00910069 0.00761365 0)
(-0.0112136 0.00840926 0)
(-0.0134866 0.00911158 0)
(-0.0158989 0.00971788 0)
(-0.0184298 0.010228 0)
(-0.0210583 0.0106434 0)
(-0.0237639 0.0109667 0)
(-0.0265262 0.0112009 0)
(-0.0293254 0.0113491 0)
(-0.0321421 0.0114145 0)
(-0.0349573 0.0113997 0)
(-0.0377523 0.0113072 0)
(-0.0405091 0.0111387 0)
(-0.0432096 0.0108958 0)
(-0.0458361 0.0105796 0)
(-0.0483713 0.0101911 0)
(-0.0507981 0.00973101 0)
(-0.0530993 0.0092002 0)
(-0.0552586 0.0085996 0)
(-0.0572595 0.00793044 0)
(-0.0590864 0.00719441 0)
(-0.0607241 0.00639373 0)
(-0.0621581 0.00553132 0)
(-0.0633747 0.00461088 0)
(-0.0643616 0.00363697 0)
(-0.0651074 0.00261511 0)
(-0.0656023 0.00155176 0)
(-0.0658382 0.00045438 0)
(-0.0658088 -0.00066857 0)
(-0.0655098 -0.0018077 0)
(-0.064939 -0.00295273 0)
(-0.064097 -0.00409259 0)
(-0.0629865 -0.00521555 0)
(-0.0616131 -0.00630933 0)
(-0.0599849 -0.00736131 0)
(-0.0581132 -0.00835871 0)
(-0.0560116 -0.00928877 0)
(-0.0536968 -0.010139 0)
(-0.051188 -0.0108975 0)
(-0.048507 -0.0115531 0)
(-0.0456781 -0.0120956 0)
(-0.0427275 -0.0125161 0)
(-0.0396834 -0.0128072 0)
(-0.0365754 -0.0129631 0)
(-0.0334344 -0.0129801 0)
(-0.0302917 -0.0128565 0)
(-0.0271792 -0.0125929 0)
(-0.0241283 -0.0121922 0)
(-0.0211697 -0.0116597 0)
(-0.0183325 -0.0110033 0)
(-0.0156442 -0.0102334 0)
(-0.0131298 -0.00936307 0)
(-0.0108111 -0.00840792 0)
(-0.00870649 -0.00738623 0)
(-0.00683011 -0.00631901 0)
(-0.00519163 -0.0052301 0)
(-0.00379564 -0.00414636 0)
(-0.0026413 -0.00309795 0)
(-0.00172201 -0.00211867 0)
(-0.00102521 -0.00124651 0)
(-0.000532053 -0.000524272 0)
(-0.000217174 -1.93416e-07 0)
(-5.04378e-05 0.000271174 0)
(-7.82909e-08 0.000223988 0)
(-4.70716e-05 0.000310966 0)
(-0.000332721 0.00125716 0)
(-0.000972088 0.00240635 0)
(-0.00191771 0.00366739 0)
(-0.00314556 0.0049725 0)
(-0.00464229 0.0062693 0)
(-0.00639108 0.00751852 0)
(-0.00837263 0.00869194 0)
(-0.0105664 0.00977022 0)
(-0.0129511 0.010741 0)
(-0.0155044 0.0115972 0)
(-0.018204 0.0123358 0)
(-0.0210273 0.0129565 0)
(-0.023952 0.0134611 0)
(-0.026956 0.0138523 0)
(-0.0300176 0.0141336 0)
(-0.0331154 0.0143086 0)
(-0.0362288 0.0143807 0)
(-0.0393373 0.0143532 0)
(-0.042421 0.0142287 0)
(-0.04546 0.0140094 0)
(-0.0484352 0.0136971 0)
(-0.0513273 0.0132933 0)
(-0.0541177 0.0127991 0)
(-0.0567876 0.0122156 0)
(-0.0593189 0.0115438 0)
(-0.0616935 0.0107852 0)
(-0.063894 0.00994126 0)
(-0.0659033 0.00901436 0)
(-0.067705 0.00800739 0)
(-0.0692837 0.00692412 0)
(-0.0706246 0.00576926 0)
(-0.0717143 0.0045486 0)
(-0.0725408 0.00326904 0)
(-0.0730935 0.00193867 0)
(-0.0733636 0.000566755 0)
(-0.0733442 -0.000836227 0)
(-0.0730307 -0.00225868 0)
(-0.0724209 -0.00368795 0)
(-0.0715149 -0.00511042 0)
(-0.0703156 -0.00651169 0)
(-0.0688288 -0.00787669 0)
(-0.0670631 -0.00918995 0)
(-0.0650301 -0.0104358 0)
(-0.0627444 -0.0115986 0)
(-0.0602234 -0.0126632 0)
(-0.0574877 -0.0136147 0)
(-0.0545603 -0.0144395 0)
(-0.051467 -0.0151252 0)
(-0.0482358 -0.0156605 0)
(-0.0448968 -0.0160365 0)
(-0.0414817 -0.016246 0)
(-0.0380238 -0.0162843 0)
(-0.0345568 -0.016149 0)
(-0.031115 -0.0158409 0)
(-0.0277325 -0.0153632 0)
(-0.0244427 -0.0147225 0)
(-0.0212774 -0.0139281 0)
(-0.0182668 -0.0129929 0)
(-0.0154384 -0.0119326 0)
(-0.0128167 -0.0107661 0)
(-0.0104222 -0.00951579 0)
(-0.00827158 -0.00820698 0)
(-0.00637648 -0.00686843 0)
(-0.00474348 -0.00553232 0)
(-0.00337361 -0.00423443 0)
(-0.00226209 -0.00301448 0)
(-0.00139821 -0.00191648 0)
(-0.000764991 -0.000989323 0)
(-0.00033899 -0.000287195 0)
(-9.41715e-05 0.000129725 0)
(-6.93977e-06 0.00019059 0)
(-5.73498e-05 0.00049469 0)
(-0.000396724 0.00178773 0)
(-0.00114691 0.00326529 0)
(-0.0022447 0.00483666 0)
(-0.00365632 0.00643349 0)
(-0.00536246 0.00800246 0)
(-0.00734116 0.00950319 0)
(-0.00956885 0.0109065 0)
(-0.0120216 0.0121921 0)
(-0.0146752 0.0133473 0)
(-0.0175052 0.0143646 0)
(-0.0204872 0.0152409 0)
(-0.0235971 0.0159761 0)
(-0.0268111 0.0165721 0)
(-0.0301056 0.0170323 0)
(-0.0334576 0.0173604 0)
(-0.0368448 0.0175605 0)
(-0.0402449 0.0176365 0)
(-0.0436365 0.0175919 0)
(-0.0469983 0.0174299 0)
(-0.0503093 0.0171529 0)
(-0.0535491 0.0167631 0)
(-0.0566972 0.0162621 0)
(-0.0597336 0.0156514 0)
(-0.0626386 0.0149323 0)
(-0.0653926 0.0141062 0)
(-0.0679766 0.0131748 0)
(-0.0703717 0.0121403 0)
(-0.07256 0.0110056 0)
(-0.0745239 0.00977424 0)
(-0.076247 0.00845102 0)
(-0.0777135 0.00704171 0)
(-0.0789092 0.00555338 0)
(-0.0798212 0.00399443 0)
(-0.0804381 0.00237464 0)
(-0.0807504 0.00070521 0)
(-0.0807508 -0.00100128 0)
(-0.080434 -0.0027309 0)
(-0.0797975 -0.0044685 0)
(-0.0788411 -0.00619779 0)
(-0.0775676 -0.00790153 0)
(-0.0759828 -0.00956175 0)
(-0.0740953 -0.0111599 0)
(-0.0719172 -0.0126774 0)
(-0.0694634 -0.0140954 0)
(-0.0667521 -0.0153957 0)
(-0.0638046 -0.0165607 0)
(-0.0606452 -0.0175739 0)
(-0.0573008 -0.0184202 0)
(-0.053801 -0.0190864 0)
(-0.0501776 -0.0195613 0)
(-0.0464644 -0.0198362 0)
(-0.0426966 -0.0199052 0)
(-0.0389103 -0.0197654 0)
(-0.0351424 -0.0194173 0)
(-0.0314296 -0.0188647 0)
(-0.0278078 -0.0181149 0)
(-0.0243119 -0.0171792 0)
(-0.0209746 -0.0160724 0)
(-0.0178264 -0.0148133 0)
(-0.0148944 -0.0134242 0)
(-0.0122019 -0.0119313 0)
(-0.00976806 -0.0103647 0)
(-0.00760696 -0.00875815 0)
(-0.00572756 -0.00714915 0)
(-0.00413313 -0.00557923 0)
(-0.00282111 -0.00409401 0)
(-0.00178301 -0.00274348 0)
(-0.00100407 -0.00158242 0)
(-0.000463025 -0.0006706 0)
(-0.000138063 -7.32177e-05 0)
(-1.35996e-05 0.00013484 0)
(-6.72008e-05 0.000710594 0)
(-0.000458784 0.00240441 0)
(-0.00131741 0.00425477 0)
(-0.00256479 0.00617258 0)
(-0.00415767 0.00809017 0)
(-0.00607075 0.00995441 0)
(-0.00827687 0.0117249 0)
(-0.010748 0.0133724 0)
(-0.0134566 0.0148766 0)
(-0.0163754 0.0162246 0)
(-0.0194778 0.0174093 0)
(-0.0227372 0.0184278 0)
(-0.0261279 0.0192804 0)
(-0.0296245 0.0199695 0)
(-0.0332023 0.0204989 0)
(-0.0368371 0.0208728 0)
(-0.0405052 0.0210959 0)
(-0.0441836 0.0211725 0)
(-0.0478496 0.0211066 0)
(-0.0514808 0.0209015 0)
(-0.0550554 0.0205602 0)
(-0.0585516 0.0200851 0)
(-0.0619482 0.0194779 0)
(-0.065224 0.0187406 0)
(-0.0683581 0.0178747 0)
(-0.07133 0.0168819 0)
(-0.0741196 0.0157643 0)
(-0.0767071 0.0145248 0)
(-0.0790734 0.0131667 0)
(-0.0812001 0.0116945 0)
(-0.0830697 0.0101138 0)
(-0.0846656 0.00843167 0)
(-0.0859727 0.00665642 0)
(-0.0869771 0.00479802 0)
(-0.0876668 0.00286802 0)
(-0.0880315 0.000879599 0)
(-0.088063 -0.00115246 0)
(-0.0877557 -0.00321184 0)
(-0.0871062 -0.00528077 0)
(-0.0861141 -0.00734018 0)
(-0.0847818 -0.0093699 0)
(-0.0831146 -0.0113489 0)
(-0.0811213 -0.0132555 0)
(-0.0788138 -0.0150677 0)
(-0.0762074 -0.0167637 0)
(-0.0733206 -0.0183219 0)
(-0.0701753 -0.0197216 0)
(-0.0667965 -0.0209434 0)
(-0.0632124 -0.0219694 0)
(-0.0594538 -0.0227838 0)
(-0.0555541 -0.0233732 0)
(-0.0515489 -0.0237272 0)
(-0.0474753 -0.0238384 0)
(-0.0433719 -0.0237033 0)
(-0.039278 -0.0233217 0)
(-0.0352329 -0.0226979 0)
(-0.0312755 -0.0218403 0)
(-0.0274434 -0.0207614 0)
(-0.0237726 -0.0194784 0)
(-0.0202964 -0.0180128 0)
(-0.0170449 -0.0163906 0)
(-0.0140445 -0.0146421 0)
(-0.0113171 -0.0128019 0)
(-0.00887982 -0.0109089 0)
(-0.00674422 -0.00900606 0)
(-0.0049162 -0.00714077 0)
(-0.00339576 -0.00536457 0)
(-0.00217694 -0.00373339 0)
(-0.00124742 -0.00230777 0)
(-0.000588265 -0.00115286 0)
(-0.000181786 -0.000338495 0)
(-2.00313e-05 5.69047e-05 0)
(-7.66482e-05 0.000957599 0)
(-0.000518798 0.0031049 0)
(-0.00148298 0.0053719 0)
(-0.00287652 0.00767204 0)
(-0.00464705 0.00993937 0)
(-0.00676338 0.012122 0)
(-0.00919311 0.0141804 0)
(-0.0119037 0.0160861 0)
(-0.0148639 0.0178196 0)
(-0.0180434 0.0193685 0)
(-0.0214131 0.0207264 0)
(-0.0249445 0.021891 0)
(-0.02861 0.0228634 0)
(-0.0323828 0.0236466 0)
(-0.036237 0.0242449 0)
(-0.0401473 0.0246633 0)
(-0.044089 0.024907 0)
(-0.0480381 0.0249808 0)
(-0.0519709 0.0248891 0)
(-0.0558643 0.0246357 0)
(-0.0596954 0.0242238 0)
(-0.0634417 0.023656 0)
(-0.0670809 0.0229345 0)
(-0.0705911 0.0220614 0)
(-0.0739504 0.0210384 0)
(-0.0771374 0.0198678 0)
(-0.080131 0.018552 0)
(-0.0829107 0.0170942 0)
(-0.0854563 0.0154987 0)
(-0.0877485 0.0137707 0)
(-0.089769 0.0119167 0)
(-0.0915002 0.00994487 0)
(-0.0929262 0.00786503 0)
(-0.0940321 0.00568866 0)
(-0.094805 0.00342911 0)
(-0.0952339 0.00110158 0)
(-0.0953098 -0.0012769 0)
(-0.0950261 -0.00368755 0)
(-0.0943788 -0.00610994 0)
(-0.0933668 -0.00852213 0)
(-0.0919918 -0.0109009 0)
(-0.0902587 -0.0132221 0)
(-0.0881759 -0.0154606 0)
(-0.085755 -0.0175913 0)
(-0.0830112 -0.0195886 0)
(-0.0799632 -0.0214278 0)
(-0.0766333 -0.0230848 0)
(-0.0730469 -0.0245368 0)
(-0.0692332 -0.025763 0)
(-0.065224 -0.0267447 0)
(-0.0610542 -0.0274663 0)
(-0.056761 -0.0279151 0)
(-0.0523836 -0.0280822 0)
(-0.0479629 -0.0279628 0)
(-0.0435406 -0.0275564 0)
(-0.0391589 -0.0268673 0)
(-0.0348596 -0.0259045 0)
(-0.0306836 -0.0246822 0)
(-0.0266698 -0.0232196 0)
(-0.0228552 -0.0215411 0)
(-0.019273 -0.0196761 0)
(-0.0159531 -0.0176591 0)
(-0.0129207 -0.0155293 0)
(-0.0101959 -0.013331 0)
(-0.00779356 -0.0111127 0)
(-0.00572246 -0.00892758 0)
(-0.00398548 -0.00683327 0)
(-0.00257946 -0.00489168 0)
(-0.00149469 -0.0031691 0)
(-0.000714553 -0.00173597 0)
(-0.00022534 -0.00066667 0)
(-2.62614e-05 -4.29989e-05 0)
(-8.57128e-05 0.00123461 0)
(-0.000576713 0.00388665 0)
(-0.00164324 0.00661326 0)
(-0.00317893 0.00933115 0)
(-0.00512265 0.0119769 0)
(-0.0074375 0.0145008 0)
(-0.0100859 0.0168652 0)
(-0.0130309 0.0190431 0)
(-0.0162375 0.0210163 0)
(-0.0196723 0.0227739 0)
(-0.0233036 0.0243104 0)
(-0.0271009 0.0256247 0)
(-0.0310349 0.0267188 0)
(-0.0350774 0.0275966 0)
(-0.0392013 0.0282634 0)
(-0.0433802 0.0287248 0)
(-0.0475885 0.0289867 0)
(-0.0518014 0.0290544 0)
(-0.0559945 0.0289328 0)
(-0.0601437 0.028626 0)
(-0.0642256 0.0281377 0)
(-0.0682168 0.0274706 0)
(-0.0720943 0.0266274 0)
(-0.0758354 0.0256101 0)
(-0.0794175 0.024421 0)
(-0.0828184 0.0230626 0)
(-0.0860162 0.0215377 0)
(-0.0889896 0.0198501 0)
(-0.0917175 0.0180047 0)
(-0.0941799 0.0160073 0)
(-0.0963574 0.0138657 0)
(-0.0982317 0.011589 0)
(-0.0997859 0.00918843 0)
(-0.101004 0.00667705 0)
(-0.101873 0.00407 0)
(-0.102379 0.00138452 0)
(-0.102514 -0.00136013 0)
(-0.10227 -0.00414266 0)
(-0.101641 -0.00693993 0)
(-0.100626 -0.00972709 0)
(-0.0992258 -0.0124778 0)
(-0.0974441 -0.0151646 0)
(-0.0952888 -0.0177591 0)
(-0.0927709 -0.0202323 0)
(-0.0899054 -0.0225554 0)
(-0.0867106 -0.0246998 0)
(-0.0832089 -0.0266379 0)
(-0.0794263 -0.0283435 0)
(-0.0753923 -0.0297924 0)
(-0.0711398 -0.0309628 0)
(-0.0667049 -0.0318363 0)
(-0.0621264 -0.0323978 0)
(-0.0574457 -0.0326366 0)
(-0.0527057 -0.0325463 0)
(-0.0479508 -0.0321258 0)
(-0.0432262 -0.031379 0)
(-0.0385767 -0.0303157 0)
(-0.0340467 -0.0289512 0)
(-0.0296788 -0.0273069 0)
(-0.0255133 -0.0254097 0)
(-0.0215875 -0.0232927 0)
(-0.0179349 -0.0209945 0)
(-0.0145842 -0.0185591 0)
(-0.0115594 -0.0160359 0)
(-0.00887865 -0.0134794 0)
(-0.00655411 -0.0109488 0)
(-0.00459182 -0.00850761 0)
(-0.00299165 -0.00622404 0)
(-0.00174658 -0.00417024 0)
(-0.000842336 -0.00242201 0)
(-0.000268947 -0.00105839 0)
(-3.23484e-05 -0.000164737 0)
(-9.44096e-05 0.00154054 0)
(-0.000632492 0.00474696 0)
(-0.00179791 0.00797503 0)
(-0.00347126 0.0111453 0)
(-0.00558304 0.0141978 0)
(-0.00809088 0.0170857 0)
(-0.0109522 0.0197738 0)
(-0.0141256 0.0222376 0)
(-0.0175723 0.0244609 0)
(-0.0212561 0.0264346 0)
(-0.0251425 0.028155 0)
(-0.0291991 0.0296223 0)
(-0.0333949 0.0308399 0)
(-0.0377003 0.031813 0)
(-0.0420871 0.0325476 0)
(-0.0465278 0.0330506 0)
(-0.0509961 0.0333283 0)
(-0.0554664 0.0333868 0)
(-0.0599136 0.0332314 0)
(-0.0643131 0.0328668 0)
(-0.0686408 0.0322969 0)
(-0.0728727 0.0315248 0)
(-0.0769852 0.0305532 0)
(-0.0809549 0.0293846 0)
(-0.0847587 0.0280215 0)
(-0.0883737 0.0264666 0)
(-0.0917773 0.0247232 0)
(-0.0949473 0.0227956 0)
(-0.0978621 0.0206892 0)
(-0.100501 0.0184107 0)
(-0.102843 0.0159686 0)
(-0.10487 0.0133734 0)
(-0.106563 0.0106375 0)
(-0.107906 0.00777557 0)
(-0.108884 0.00480442 0)
(-0.109483 0.00174332 0)
(-0.109693 -0.0013862 0)
(-0.109505 -0.00456038 0)
(-0.108913 -0.00775337 0)
(-0.107914 -0.0109373 0)
(-0.106506 -0.0140828 0)
(-0.104694 -0.0171589 0)
(-0.102484 -0.0201337 0)
(-0.0998868 -0.0229746 0)
(-0.0969156 -0.0256489 0)
(-0.0935889 -0.0281242 0)
(-0.0899288 -0.030369 0)
(-0.0859613 -0.0323534 0)
(-0.0817163 -0.0340495 0)
(-0.0772274 -0.0354322 0)
(-0.072532 -0.0364797 0)
(-0.0676703 -0.0371744 0)
(-0.0626855 -0.0375031 0)
(-0.0576231 -0.0374577 0)
(-0.0525301 -0.037036 0)
(-0.0474547 -0.0362414 0)
(-0.0424452 -0.035084 0)
(-0.0375496 -0.0335802 0)
(-0.0328144 -0.031753 0)
(-0.028284 -0.0296324 0)
(-0.0239998 -0.0272545 0)
(-0.0199995 -0.0246624 0)
(-0.0163159 -0.0219048 0)
(-0.012977 -0.0190365 0)
(-0.0100049 -0.0161179 0)
(-0.00741534 -0.0132143 0)
(-0.00521795 -0.0103958 0)
(-0.00341577 -0.0077368 0)
(-0.00200461 -0.00531552 0)
(-0.000972491 -0.00321348 0)
(-0.000312978 -0.00151463 0)
(-3.83704e-05 -0.000308346 0)
(-0.000102747 0.00187428 0)
(-0.000686091 0.00568298 0)
(-0.00194674 0.00945308 0)
(-0.00375288 0.0131096 0)
(-0.00602704 0.0165964 0)
(-0.00872161 0.0198704 0)
(-0.0117892 0.0228999 0)
(-0.0151841 0.0256631 0)
(-0.0188639 0.0281468 0)
(-0.0227895 0.0303441 0)
(-0.0269239 0.0322534 0)
(-0.0312326 0.033877 0)
(-0.0356829 0.0352199 0)
(-0.040244 0.0362887 0)
(-0.0448865 0.0370908 0)
(-0.0495822 0.0376339 0)
(-0.0543039 0.0379253 0)
(-0.0590254 0.0379719 0)
(-0.063721 0.0377795 0)
(-0.0683656 0.0373532 0)
(-0.0729346 0.0366972 0)
(-0.0774036 0.0358151 0)
(-0.0817485 0.0347096 0)
(-0.0859454 0.0333837 0)
(-0.0899707 0.0318399 0)
(-0.0938009 0.0300812 0)
(-0.0974127 0.0281114 0)
(-0.100784 0.0259351 0)
(-0.103891 0.0235582 0)
(-0.106713 0.0209883 0)
(-0.109229 0.0182348 0)
(-0.111419 0.015309 0)
(-0.113263 0.0122247 0)
(-0.114745 0.00899802 0)
(-0.115847 0.00564749 0)
(-0.116556 0.00219432 0)
(-0.116858 -0.00133778 0)
(-0.116745 -0.0049226 0)
(-0.116209 -0.00853156 0)
(-0.115244 -0.0121339 0)
(-0.113849 -0.0156969 0)
(-0.112027 -0.0191863 0)
(-0.109781 -0.0225665 0)
(-0.107122 -0.025801 0)
(-0.104063 -0.0288532 0)
(-0.10062 -0.0316866 0)
(-0.0968154 -0.0342655 0)
(-0.092675 -0.036556 0)
(-0.0882287 -0.0385262 0)
(-0.0835107 -0.0401471 0)
(-0.0785593 -0.0413935 0)
(-0.0734163 -0.0422443 0)
(-0.0681266 -0.0426838 0)
(-0.062738 -0.0427018 0)
(-0.0573005 -0.0422943 0)
(-0.0518655 -0.041464 0)
(-0.0464849 -0.0402209 0)
(-0.0412107 -0.0385821 0)
(-0.0360937 -0.0365725 0)
(-0.0311827 -0.0342243 0)
(-0.0265237 -0.0315773 0)
(-0.0221589 -0.0286784 0)
(-0.0181261 -0.0255815 0)
(-0.0144574 -0.0223469 0)
(-0.0111794 -0.019041 0)
(-0.00831187 -0.0157356 0)
(-0.00586824 -0.0125073 0)
(-0.00385499 -0.00943726 0)
(-0.00227089 -0.00661017 0)
(-0.0011062 -0.00411359 0)
(-0.000357905 -0.0020369 0)
(-4.44175e-05 -0.000474094 0)
(-0.000110724 0.0022347 0)
(-0.000737448 0.00669175 0)
(-0.00208947 0.011043 0)
(-0.00402317 0.0152184 0)
(-0.00645355 0.0191664 0)
(-0.00932797 0.0228483 0)
(-0.0125945 0.0262362 0)
(-0.0162032 0.0293123 0)
(-0.0201083 0.0320663 0)
(-0.0242677 0.0344945 0)
(-0.028642 0.036598 0)
(-0.0331948 0.0383813 0)
(-0.0378919 0.0398514 0)
(-0.0427011 0.0410165 0)
(-0.0475919 0.0418858 0)
(-0.0525353 0.0424679 0)
(-0.0575036 0.0427714 0)
(-0.06247 0.0428038 0)
(-0.0674083 0.0425716 0)
(-0.072293 0.0420805 0)
(-0.0770992 0.0413349 0)
(-0.0818021 0.0403387 0)
(-0.0863773 0.039095 0)
(-0.0908004 0.0376068 0)