/*--------------------------------*- C++ -*----------------------------------*\
  =========                 |
  \\      /  F ield         | OpenFOAM: The Open Source CFD Toolbox
   \\    /   O peration     | Website:  https://openfoam.org
    \\  /    A nd           | Version:  dev
     \\/     M anipulation  |
\*---------------------------------------------------------------------------*/
FoamFile
{
    format      ascii;
    class       volScalarField;
    location    "42.3";
    object      Uy;
}
// * * * * * * * * * * * * * * * * * * * * * * * * * * * * * * * * * * * * * //

dimensions      [0 1 -1 0 0 0 0];

internalField   nonuniform List<scalar> 
5184
(
-1.2668e-05
-2.08701e-05
-1.72442e-05
-8.19565e-06
2.67031e-06
1.36195e-05
2.38481e-05
3.30533e-05
4.11143e-05
4.80356e-05
5.38781e-05
5.87273e-05
6.26762e-05
6.58161e-05
6.82317e-05
6.99981e-05
7.11797e-05
7.18291e-05
7.19871e-05
7.16833e-05
7.0937e-05
6.97586e-05
6.81511e-05
6.61115e-05
6.36325e-05
6.07045e-05
5.7317e-05
5.34602e-05
4.91271e-05
4.43147e-05
3.90254e-05
3.32687e-05
2.70616e-05
2.04301e-05
1.34101e-05
6.04711e-06
-1.60257e-06
-9.47247e-06
-1.74861e-05
-2.55574e-05
-3.35921e-05
-4.14885e-05
-4.91394e-05
-5.64337e-05
-6.3259e-05
-6.95031e-05
-7.50573e-05
-7.98185e-05
-8.36922e-05
-8.65944e-05
-8.84547e-05
-8.92179e-05
-8.88457e-05
-8.73185e-05
-8.46359e-05
-8.08172e-05
-7.59019e-05
-6.99487e-05
-6.30352e-05
-5.52576e-05
-4.673e-05
-3.75855e-05
-2.7979e-05
-1.80932e-05
-8.1537e-06
1.54486e-06
1.05783e-05
1.83098e-05
2.37268e-05
2.51368e-05
1.98537e-05
6.24427e-06
-4.58335e-05
-6.56902e-05
-4.05608e-05
7.63102e-06
6.56862e-05
0.000126013
0.00018433
0.000238392
0.000287057
0.000329881
0.000366824
0.000398074
0.000423946
0.000444805
0.000461028
0.000472976
0.000480969
0.000485284
0.000486145
0.000483721
0.000478136
0.000469465
0.000457748
0.000442992
0.000425186
0.000404307
0.000380331
0.00035324
0.000323035
0.000289742
0.000253423
0.00021418
0.000172162
0.000127574
8.06752e-05
3.17842e-05
-1.87197e-05
-7.0398e-05
-0.000122755
-0.000175244
-0.000227271
-0.000278202
-0.000327376
-0.000374114
-0.000417732
-0.000457553
-0.000492926
-0.000523236
-0.00054792
-0.000566485
-0.000578517
-0.000583698
-0.000581811
-0.000572754
-0.000556543
-0.000533316
-0.000503337
-0.000466996
-0.000424809
-0.000377415
-0.000325584
-0.00027022
-0.000212386
-0.000153334
-9.45765e-05
-3.79901e-05
1.39625e-05
5.79761e-05
8.94567e-05
0.000101905
8.65517e-05
3.64983e-05
-8.13107e-05
-9.5052e-05
-1.91551e-05
0.000105928
0.000254684
0.000410662
0.000563542
0.000707185
0.00083814
0.000954698
0.00105626
0.00114293
0.00121522
0.00127384
0.00131963
0.00135341
0.00137594
0.00138791
0.00138986
0.00138226
0.00136542
0.00133957
0.00130484
0.00126129
0.00120893
0.00114775
0.00107774
0.000998918
0.000911343
0.000815156
0.000710589
0.000597987
0.000477825
0.000350716
0.000217429
7.88853e-05
-6.38328e-05
-0.00020949
-0.000356702
-0.00050395
-0.000649599
-0.000791915
-0.000929095
-0.0010593
-0.00118067
-0.00129138
-0.0013897
-0.00147396
-0.00154266
-0.0015945
-0.00162838
-0.00164344
-0.00163914
-0.00161522
-0.00157174
-0.0015091
-0.00142807
-0.00132972
-0.00121552
-0.00108728
-0.000947154
-0.000797727
-0.000642004
-0.000483518
-0.000326469
-0.000175947
-3.82723e-05
7.85376e-05
0.000164182
0.000205492
0.000186356
9.04236e-05
-9.77809e-05
-7.31972e-05
8.47574e-05
0.000318386
0.000590184
0.000874521
0.00115436
0.0014189
0.00166167
0.00187914
0.00206975
0.00223324
0.00237018
0.0024816
0.00256877
0.00263303
0.00267566
0.00269781
0.00270046
0.00268439
0.00265022
0.00259836
0.00252908
0.00244255
0.00233884
0.00221799
0.00208006
0.00192517
0.00175351
0.00156544
0.00136148
0.00114238
0.000909092
0.000662872
0.000405231
0.000137971
-0.000136819
-0.000416766
-0.000699235
-0.000981346
-0.00126001
-0.00153197
-0.00179386
-0.00204221
-0.00227359
-0.00248462
-0.00267203
-0.00283278
-0.0029641
-0.00306355
-0.00312912
-0.00315927
-0.00315297
-0.00310977
-0.00302983
-0.00291393
-0.0027635
-0.00258064
-0.00236812
-0.00212939
-0.0018686
-0.00159064
-0.00130125
-0.00100708
-0.000715963
-0.000437175
-0.000181861
3.63638e-05
0.000200778
0.000290984
0.000282684
0.000147339
-8.44605e-05
2.08371e-05
0.000295447
0.000668114
0.00109102
0.00153023
0.00196232
0.00237178
0.0027489
0.00308803
0.00338641
0.0036432
0.00385888
0.00403468
0.00417226
0.00427345
0.00434003
0.00437365
0.00437574
0.00434747
0.00428975
0.00420323
0.00408839
0.0039455
0.00377477
0.00357635
0.00335043
0.00309728
0.00281734
0.00251129
0.00218006
0.00182493
0.00144755
0.00104998
0.000634692
0.000204612
-0.000236899
-0.00068605
-0.00113865
-0.00159014
-0.00203566
-0.00247008
-0.00288811
-0.00328436
-0.00365345
-0.00399011
-0.00428926
-0.00454619
-0.00475657
-0.00491664
-0.00502328
-0.00507411
-0.00506754
-0.0050029
-0.00488045
-0.00470145
-0.00446818
-0.00418395
-0.00385316
-0.00348126
-0.00307483
-0.00264161
-0.00219061
-0.00173223
-0.00127853
-0.000843565
-0.000443827
-9.88844e-05
0.00016792
0.00032885
0.000351161
0.00019422
-3.75766e-05
0.000197332
0.000626963
0.00117054
0.0017721
0.00239075
0.00299743
0.00357234
0.00410262
0.0045805
0.00500191
0.00536534
0.00567104
0.00592039
0.00611535
0.0062582
0.00635121
0.00639652
0.00639601
0.00635122
0.00626341
0.0061335
0.00596216
0.00574986
0.00549696
0.00520377
0.00487069
0.00449823
0.00408716
0.00363857
0.00315395
0.00263527
0.002085
0.00150618
0.00090248
0.000278142
-0.000361964
-0.00101238
-0.0016671
-0.00231962
-0.002963
-0.00358998
-0.00419304
-0.00476457
-0.00529698
-0.00578281
-0.00621495
-0.0065867
-0.00689201
-0.00712559
-0.00728303
-0.00736097
-0.00735722
-0.0072708
-0.00710211
-0.00685295
-0.00652654
-0.00612761
-0.00566241
-0.00513872
-0.00456588
-0.00395488
-0.00331842
-0.00267111
-0.00202969
-0.00141334
-0.000844216
-0.000348009
4.52998e-05
0.00030076
0.000377551
0.000224623
4.40642e-05
0.000461298
0.00108723
0.00183508
0.00264295
0.00346459
0.00426634
0.00502475
0.00572419
0.00635498
0.0069118
0.00739247
0.00779702
0.00812686
0.00838428
0.00857193
0.00869256
0.00874875
0.00874283
0.00867674
0.00855205
0.00836998
0.00813143
0.00783708
0.00748749
0.0070832
0.00662484
0.00611327
0.00554967
0.00493565
0.00427336
0.00356559
0.00281578
0.00202815
0.00120768
0.000360145
-0.000507871
-0.00138904
-0.0022753
-0.00315798
-0.00402782
-0.00487518
-0.00569009
-0.00646245
-0.0071822
-0.00783949
-0.00842489
-0.00892957
-0.00934551
-0.0096657
-0.0098843
-0.00999687
-0.0100004
-0.00989377
-0.00967733
-0.00935346
-0.00892646
-0.00840259
-0.00779013
-0.00709938
-0.00634275
-0.00553475
-0.00469213
-0.003834
-0.00298205
-0.0021609
-0.00139847
-0.000726633
-0.000181888
0.000193949
0.000352746
0.000235115
0.000160457
0.000814604
0.00168004
0.00266674
0.00370898
0.00475669
0.00577282
0.00673107
0.00761365
0.00840926
0.00911158
0.00971788
0.010228
0.0106434
0.0109667
0.0112009
0.0113491
0.0114145
0.0113997
0.0113072
0.0111387
0.0108958
0.0105796
0.0101911
0.00973101
0.0092002
0.0085996
0.00793044
0.00719441
0.00639373
0.00553132
0.00461088
0.00363697
0.00261511
0.00155176
0.00045438
-0.00066857
-0.0018077
-0.00295273
-0.00409259
-0.00521555
-0.00630933
-0.00736131
-0.00835871
-0.00928877
-0.010139
-0.0108975
-0.0115531
-0.0120956
-0.0125161
-0.0128072
-0.0129631
-0.0129801
-0.0128565
-0.0125929
-0.0121922
-0.0116597
-0.0110033
-0.0102334
-0.00936307
-0.00840792
-0.00738623
-0.00631901
-0.0052301
-0.00414636
-0.00309795
-0.00211867
-0.00124651
-0.000524272
-1.93416e-07
0.000271174
0.000223988
0.000310966
0.00125716
0.00240635
0.00366739
0.0049725
0.0062693
0.00751852
0.00869194
0.00977022
0.010741
0.0115972
0.0123358
0.0129565
0.0134611
0.0138523
0.0141336
0.0143086
0.0143807
0.0143532
0.0142287
0.0140094
0.0136971
0.0132933
0.0127991
0.0122156
0.0115438
0.0107852
0.00994126
0.00901436
0.00800739
0.00692412
0.00576926
0.0045486
0.00326904
0.00193867
0.000566755
-0.000836227
-0.00225868
-0.00368795
-0.00511042
-0.00651169
-0.00787669
-0.00918995
-0.0104358
-0.0115986
-0.0126632
-0.0136147
-0.0144395
-0.0151252
-0.0156605
-0.0160365
-0.016246
-0.0162843
-0.016149
-0.0158409
-0.0153632
-0.0147225
-0.0139281
-0.0129929
-0.0119326
-0.0107661
-0.00951579
-0.00820698
-0.00686843
-0.00553232
-0.00423443
-0.00301448
-0.00191648
-0.000989323
-0.000287195
0.000129725
0.00019059
0.00049469
0.00178773
0.00326529
0.00483666
0.00643349
0.00800246
0.00950319
0.0109065
0.0121921
0.0133473
0.0143646
0.0152409
0.0159761
0.0165721
0.0170323
0.0173604
0.0175605
0.0176365
0.0175919
0.0174299
0.0171529
0.0167631
0.0162621
0.0156514
0.0149323
0.0141062
0.0131748
0.0121403
0.0110056
0.00977424
0.00845102
0.00704171
0.00555338
0.00399443
0.00237464
0.00070521
-0.00100128
-0.0027309
-0.0044685
-0.00619779
-0.00790153
-0.00956175
-0.0111599
-0.0126774
-0.0140954
-0.0153957
-0.0165607
-0.0175739
-0.0184202
-0.0190864
-0.0195613
-0.0198362
-0.0199052
-0.0197654
-0.0194173
-0.0188647
-0.0181149
-0.0171792
-0.0160724
-0.0148133
-0.0134242
-0.0119313
-0.0103647
-0.00875815
-0.00714915
-0.00557923
-0.00409401
-0.00274348
-0.00158242
-0.0006706
-7.32177e-05
0.00013484
0.000710594
0.00240441
0.00425477
0.00617258
0.00809017
0.00995441
0.0117249
0.0133724
0.0148766
0.0162246
0.0174093
0.0184278
0.0192804
0.0199695
0.0204989
0.0208728
0.0210959
0.0211725
0.0211066
0.0209015
0.0205602
0.0200851
0.0194779
0.0187406
0.0178747
0.0168819
0.0157643
0.0145248
0.0131667
0.0116945
0.0101138
0.00843167
0.00665642
0.00479802
0.00286802
0.000879599
-0.00115246
-0.00321184
-0.00528077
-0.00734018
-0.0093699
-0.0113489
-0.0132555
-0.0150677
-0.0167637
-0.0183219
-0.0197216
-0.0209434
-0.0219694
-0.0227838
-0.0233732
-0.0237272
-0.0238384
-0.0237033
-0.0233217
-0.0226979
-0.0218403
-0.0207614
-0.0194784
-0.0180128
-0.0163906
-0.0146421
-0.0128019
-0.0109089
-0.00900606
-0.00714077
-0.00536457
-0.00373339
-0.00230777
-0.00115286
-0.000338495
5.69047e-05
0.000957599
0.0031049
0.0053719
0.00767204
0.00993937
0.012122
0.0141804
0.0160861
0.0178196
0.0193685
0.0207264
0.021891
0.0228634
0.0236466
0.0242449
0.0246633
0.024907
0.0249808
0.0248891
0.0246357
0.0242238
0.023656
0.0229345
0.0220614
0.0210384
0.0198678
0.018552
0.0170942
0.0154987
0.0137707
0.0119167
0.00994487
0.00786503
0.00568866
0.00342911
0.00110158
-0.0012769
-0.00368755
-0.00610994
-0.00852213
-0.0109009
-0.0132221
-0.0154606
-0.0175913
-0.0195886
-0.0214278
-0.0230848
-0.0245368
-0.025763
-0.0267447
-0.0274663
-0.0279151
-0.0280822
-0.0279628
-0.0275564
-0.0268673
-0.0259045
-0.0246822
-0.0232196
-0.0215411
-0.0196761
-0.0176591
-0.0155293
-0.013331
-0.0111127
-0.00892758
-0.00683327
-0.00489168
-0.0031691
-0.00173597
-0.00066667
-4.29989e-05
0.00123461
0.00388665
0.00661326
0.00933115
0.0119769
0.0145008
0.0168652
0.0190431
0.0210163
0.0227739
0.0243104
0.0256247
0.0267188
0.0275966
0.0282634
0.0287248
0.0289867
0.0290544
0.0289328
0.028626
0.0281377
0.0274706
0.0266274
0.0256101
0.024421
0.0230626
0.0215377
0.0198501
0.0180047
0.0160073
0.0138657
0.011589
0.00918843
0.00667705
0.00407
0.00138452
-0.00136013
-0.00414266
-0.00693993
-0.00972709
-0.0124778
-0.0151646
-0.0177591
-0.0202323
-0.0225554
-0.0246998
-0.0266379
-0.0283435
-0.0297924
-0.0309628
-0.0318363
-0.0323978
-0.0326366
-0.0325463
-0.0321258
-0.031379
-0.0303157
-0.0289512
-0.0273069
-0.0254097
-0.0232927
-0.0209945
-0.0185591
-0.0160359
-0.0134794
-0.0109488
-0.00850761
-0.00622404
-0.00417024
-0.00242201
-0.00105839
-0.000164737
0.00154054
0.00474696
0.00797503
0.0111453
0.0141978
0.0170857
0.0197738
0.0222376
0.0244609
0.0264346
0.028155
0.0296223
0.0308399
0.031813
0.0325476
0.0330506
0.0333283
0.0333868
0.0332314
0.0328668
0.0322969
0.0315248
0.0305532
0.0293846
0.0280215
0.0264666
0.0247232
0.0227956
0.0206892
0.0184107
0.0159686
0.0133734
0.0106375
0.00777557
0.00480442
0.00174332
-0.0013862
-0.00456038
-0.00775337
-0.0109373
-0.0140828
-0.0171589
-0.0201337
-0.0229746
-0.0256489
-0.0281242
-0.030369
-0.0323534
-0.0340495
-0.0354322
-0.0364797
-0.0371744
-0.0375031
-0.0374577
-0.037036
-0.0362414
-0.035084
-0.0335802
-0.031753
-0.0296324
-0.0272545
-0.0246624
-0.0219048
-0.0190365
-0.0161179
-0.0132143
-0.0103958
-0.0077368
-0.00531552
-0.00321348
-0.00151463
-0.000308346
0.00187428
0.00568298
0.00945308
0.0131096
0.0165964
0.0198704
0.0228999
0.0256631
0.0281468
0.0303441
0.0322534
0.033877
0.0352199
0.0362887
0.0370908
0.0376339
0.0379253
0.0379719
0.0377795
0.0373532
0.0366972
0.0358151
0.0347096
0.0333837
0.0318399
0.0300812
0.0281114
0.0259351
0.0235582
0.0209883
0.0182348
0.015309
0.0122247
0.00899802
0.00564749
0.00219432
-0.00133778
-0.0049226
-0.00853156
-0.0121339
-0.0156969
-0.0191863
-0.0225665
-0.025801
-0.0288532
-0.0316866
-0.0342655
-0.036556
-0.0385262
-0.0401471
-0.0413935
-0.0422443
-0.0426838
-0.0427018
-0.0422943
-0.041464
-0.0402209
-0.0385821
-0.0365725
-0.0342243
-0.0315773
-0.0286784
-0.0255815
-0.0223469
-0.019041
-0.0157356
-0.0125073
-0.00943726
-0.00661017
-0.00411359
-0.0020369
-0.000474094
0.0022347
0.00669175
0.011043
0.0152184
0.0191664
0.0228483
0.0262362
0.0293123
0.0320663
0.0344945
0.036598
0.0383813
0.0398514
0.0410165
0.0418858
0.0424679
0.0427714
0.0428038
0.0425716
0.0420805
0.0413349
0.0403387
0.039095
0.0376068
0.0358769
0.0339087
0.031706
0.0292739
0.0266188
0.023749
0.0206745
0.0174077
0.0139635
0.0103594
0.0066156
0.0027551
-0.00119625
-0.00520987
-0.00925452
-0.0132965
-0.0172999
-0.0212268
-0.025038
-0.0286931
-0.0321512
-0.0353715
-0.038314
-0.0409401
-0.0432137
-0.0451015
-0.0465742
-0.0476072
-0.0481814
-0.0482838
-0.0479086
-0.0470571
-0.0457389
-0.0439715
-0.0417811
-0.0392024
-0.0362783
-0.03306
-0.0296063
-0.0259832
-0.0222634
-0.0185254
-0.0148529
-0.011334
-0.00806051
-0.00512647
-0.00262734
-0.000662514
0.00262064
0.00777016
0.0127401
0.0174659
0.0219011
0.0260118
0.029775
0.0331769
0.0362112
0.0388777
0.0411805
0.0431268
0.0447261
0.0459886
0.046925
0.0475456
0.0478599
0.0478765
0.0476025
0.0470441
0.0462063
0.0450931
0.0437079
0.0420539
0.040134
0.0379517
0.0355112
0.0328179
0.0298786
0.0267019
0.0232986
0.0196821
0.0158682
0.0118756
0.00772606
0.00344427
-0.000941914
-0.00540161
-0.00990101
-0.0144035
-0.0188699
-0.023259
-0.0275276
-0.0316311
-0.0355244
-0.0391621
-0.0424995
-0.0454931
-0.048102
-0.0502882
-0.0520177
-0.0532619
-0.0539977
-0.0542089
-0.053887
-0.0530316
-0.0516513
-0.0497636
-0.0473959
-0.0445848
-0.0413764
-0.0378261
-0.0339976
-0.0299629
-0.0258012
-0.0215982
-0.017445
-0.0134372
-0.00967418
-0.00625731
-0.00328882
-0.000874441
0.00303091
0.00891493
0.0145395
0.0198457
0.0247931
0.029353
0.0335076
0.0372481
0.0405724
0.0434845
0.0459917
0.0481047
0.0498354
0.0511965
0.0522005
0.0528593
0.0531838
0.0531835
0.0528665
0.0522394
0.0513076
0.0500756
0.0485469
0.0467248
0.0446123
0.0422132
0.0395317
0.0365733
0.0333453
0.0298566
0.0261187
0.0221455
0.0179537
0.0135632
0.00899691
0.00428125
-0.000554134
-0.0054762
-0.0104486
-0.0154321
-0.0203841
-0.02526
-0.0300127
-0.0345935
-0.0389526
-0.0430398
-0.0468054
-0.0502007
-0.0531794
-0.0556984
-0.0577185
-0.0592061
-0.0601338
-0.0604814
-0.0602371
-0.0593982
-0.0579715
-0.0559745
-0.0534347
-0.0503909
-0.0468919
-0.0429973
-0.0387758
-0.0343057
-0.0296728
-0.0249705
-0.0202977
-0.0157585
-0.0114602
-0.00751245
-0.00402501
-0.00111102
0.00346422
0.0101226
0.0164358
0.0223513
0.0278345
0.0328631
0.0374248
0.0415161
0.0451401
0.0483048
0.0510219
0.0533053
0.0551699
0.0566311
0.0577035
0.0584009
0.0587355
0.058718
0.0583574
0.0576611
0.0566347
0.0552832
0.0536101
0.051619
0.0493129
0.0466956
0.0437715
0.0405461
0.0370268
0.0332229
0.0291461
0.024811
0.020235
0.0154388
0.0104466
0.00528596
-1.16204e-05
-0.00541116
-0.010874
-0.0163581
-0.021818
-0.0272054
-0.0324694
-0.0375568
-0.0424134
-0.0469838
-0.0512128
-0.0550463
-0.0584321
-0.0613213
-0.0636689
-0.0654357
-0.0665892
-0.0671044
-0.0669657
-0.0661669
-0.064713
-0.06262
-0.059916
-0.0566408
-0.0528462
-0.0485956
-0.043963
-0.0390328
-0.0338982
-0.0286605
-0.0234273
-0.0183114
-0.0134293
-0.0088995
-0.00484044
-0.00137372
0.00391926
0.0113897
0.0184236
0.0249753
0.0310171
0.0365328
0.0415166
0.0459708
0.0499036
0.0533282
0.0562604
0.0587179
0.0607192
0.0622824
0.0634245
0.0641613
0.0645066
0.0644724
0.0640686
0.0633033
0.0621828
0.0607121
0.0588952
0.0567355
0.0542362
0.051401
0.0482343
0.0447415
0.0409302
0.0368096
0.0323919
0.0276916
0.022727
0.0175192
0.0120934
0.00647854
0.000707299
-0.00518346
-0.011153
-0.0171566
-0.0231459
-0.0290691
-0.0348715
-0.0404957
-0.0458823
-0.0509708
-0.0557003
-0.0600107
-0.0638435
-0.0671433
-0.0698587
-0.0719442
-0.0733612
-0.0740793
-0.0740778
-0.0733468
-0.0718881
-0.0697161
-0.0668582
-0.0633553
-0.0592617
-0.0546443
-0.0495826
-0.0441673
-0.0384994
-0.0326886
-0.0268517
-0.0211112
-0.0155936
-0.0104273
-0.00574049
-0.00166434
0.00439462
0.0127122
0.0204969
0.0277104
0.0343319
0.0403523
0.0457725
0.0506008
0.0548515
0.0585429
0.0616955
0.0643313
0.0664723
0.0681397
0.0693532
0.0701307
0.0704879
0.0704381
0.0699923
0.0691593
0.067946
0.0663577
0.0643986
0.0620722
0.0593816
0.0563304
0.0529227
0.0491641
0.0450618
0.0406251
0.035866
0.0307994
0.0254437
0.0198205
0.0139557
0.00787893
0.00162434
-0.00476978
-0.0112607
-0.0178015
-0.0243409
-0.0308238
-0.0371916
-0.0433826
-0.0493324
-0.054975
-0.0602437
-0.0650717
-0.0693939
-0.0731476
-0.0762746
-0.0787219
-0.0804442
-0.0814046
-0.0815764
-0.080945
-0.0795081
-0.0772775
-0.0742795
-0.0705554
-0.0661612
-0.0611677
-0.0556596
-0.0497341
-0.0435003
-0.0370769
-0.0305908
-0.024175
-0.017967
-0.0121061
-0.00673142
-0.00198503
0.0048888
0.014086
0.0226495
0.0305485
0.0377696
0.0443112
0.0501811
0.0553945
0.0599717
0.0639366
0.0673149
0.0701331
0.0724169
0.0741911
0.0754781
0.0762983
0.0766692
0.0766056
0.0761196
0.075221
0.0739173
0.0722141
0.0701158
0.0676258
0.0647472
0.0614833
0.0578381
0.0538169
0.0494265
0.044676
0.0395774
0.0341454
0.0283982
0.0223578
0.0160505
0.0095065
0.00276085
-0.00414687
-0.0111723
-0.0182663
-0.0253752
-0.0324406
-0.0394002
-0.0461879
-0.0527343
-0.0589679
-0.0648155
-0.0702037
-0.0750599
-0.079314
-0.0828995
-0.0857557
-0.0878292
-0.0890757
-0.0894616
-0.0889661
-0.0875821
-0.0853177
-0.0821972
-0.0782615
-0.0735681
-0.068191
-0.0622201
-0.0557594
-0.0489264
-0.0418496
-0.0346665
-0.0275218
-0.0205649
-0.0139474
-0.0078204
-0.00233828
0.00540023
0.015507
0.0248749
0.0334811
0.0413202
0.0483982
0.0547305
0.0603391
0.0652511
0.0694961
0.0731054
0.07611
0.0785401
0.0804239
0.0817869
0.082652
0.0830388
0.0829638
0.0824404
0.0814793
0.0800884
0.078274
0.0760404
0.0733912
0.0703293
0.0668576
0.0629799
0.058701
0.0540273
0.0489676
0.0435332
0.0377386
0.0316019
0.0251449
0.0183939
0.0113795
0.00413739
-0.003292
-0.0108629
-0.0185245
-0.0262205
-0.0338898
-0.0414664
-0.04888
-0.0560562
-0.0629177
-0.0693849
-0.0753773
-0.0808144
-0.0856177
-0.0897121
-0.093028
-0.0955029
-0.0970841
-0.0977297
-0.0974116
-0.0961166
-0.0938481
-0.0906271
-0.0864934
-0.0815052
-0.0757395
-0.0692909
-0.0622708
-0.054805
-0.0470325
-0.0391026
-0.0311724
-0.0234046
-0.0159641
-0.00901549
-0.00272689
0.00592722
0.0169706
0.0271661
0.0364995
0.0449733
0.0526018
0.059408
0.0654215
0.0706759
0.0752074
0.0790527
0.082248
0.0848278
0.0868241
0.0882658
0.0891786
0.0895841
0.0895007
0.0889431
0.087923
0.0864492
0.0845281
0.0821645
0.0793616
0.0761223
0.0724492
0.0683456
0.0638156
0.0588653
0.0535026
0.0477383
0.0415864
0.0350643
0.0281936
0.0210002
0.0135148
0.00577325
-0.00218338
-0.0103084
-0.0185493
-0.026848
-0.0351407
-0.0433581
-0.0514255
-0.0592639
-0.0667902
-0.073918
-0.0805594
-0.0866258
-0.0920295
-0.0966862
-0.100516
-0.103447
-0.105416
-0.106373
-0.106279
-0.105115
-0.102877
-0.0995828
-0.0952692
-0.0899947
-0.0838384
-0.0768996
-0.0692966
-0.0611646
-0.0526533
-0.0439246
-0.0351493
-0.0265046
-0.0181702
-0.0103257
-0.00315405
0.00646801
0.018472
0.0295159
0.0395942
0.0487179
0.0569097
0.0642005
0.0706276
0.0762318
0.0810556
0.0851417
0.0885317
0.0912647
0.0933767
0.0949001
0.0958634
0.0962907
0.0962023
0.0956144
0.0945397
0.0929878
0.0909655
0.0884778
0.0855279
0.0821184
0.0782516
0.07393
0.0691573
0.0639386
0.0582812
0.0521951
0.0456932
0.0387923
0.0315132
0.0238814
0.015927
0.00768586
-0.000800759
-0.00948555
-0.018315
-0.0272294
-0.0361626
-0.0450421
-0.0537896
-0.0623212
-0.070548
-0.0783772
-0.0857129
-0.092458
-0.0985155
-0.103791
-0.108193
-0.111639
-0.114054
-0.115377
-0.115561
-0.114575
-0.112409
-0.109075
-0.104605
-0.0990572
-0.0925121
-0.0850734
-0.0768661
-0.0680348
-0.0587409
-0.0491597
-0.0394769
-0.0298854
-0.0205815
-0.0117608
-0.00362326
0.00702076
0.0200062
0.0319167
0.0427556
0.0525427
0.0613091
0.0690941
0.0759428
0.0819033
0.0870249
0.0913565
0.0949451
0.0978346
0.100065
0.101674
0.102691
0.103143
0.103053
0.102439
0.101315
0.0996901
0.0975728
0.0949678
0.0918785
0.0883071
0.0842553
0.0797251
0.0747195
0.0692425
0.0633006
0.0569025
0.0500603
0.0427896
0.0351101
0.0270465
0.0186281
0.00989031
0.000874069
-0.00837311
-0.0177971
-0.0273369
-0.0369245
-0.0464849
-0.0559361
-0.0651898
-0.0741514
-0.0827216
-0.0907967
-0.0982706
-0.105036
-0.110988
-0.116024
-0.120047
-0.122972
-0.124724
-0.125244
-0.124491
-0.122445
-0.11911
-0.114513
-0.108711
-0.101784
-0.0938392
-0.0850085
-0.0754461
-0.0653255
-0.0548364
-0.0441808
-0.0335688
-0.0232145
-0.0133316
-0.00413839
0.00758353
0.0215681
0.0343607
0.0459737
0.0564358
0.0657867
0.0740744
0.0813518
0.0876746
0.093099
0.0976802
0.101471
0.10452
0.106873
0.108569
0.109643
0.110124
0.110037
0.109401
0.108232
0.10654
0.104334
0.10162
0.0983992
0.0946749
0.0904481
0.08572
0.0804926
0.074769
0.0685544
0.0618564
0.0546856
0.0470564
0.0389872
0.0305013
0.021627
0.0123987
0.00285662
-0.00695195
-0.0169728
-0.0271441
-0.0373966
-0.0476531
-0.0578284
-0.0678301
-0.0775584
-0.0869075
-0.0957658
-0.104018
-0.111547
-0.118236
-0.123968
-0.128636
-0.132139
-0.134387
-0.135309
-0.13485
-0.132978
-0.129689
-0.125004
-0.118972
-0.111675
-0.103223
-0.0937527
-0.083429
-0.0724381
-0.0609847
-0.0492883
-0.0375779
-0.0260872
-0.0150497
-0.00470362
0.00815435
0.0231523
0.0368397
0.049238
0.0603849
0.0703289
0.0791265
0.0868388
0.093529
0.0992606
0.104095
0.108091
0.111303
0.11378
0.115567
0.1167
0.117214
0.117133
0.11648
0.115271
0.113519
0.111232
0.108416
0.105073
0.101206
0.0968145
0.0919001
0.0864633
0.0805061
0.0740325
0.0670484
0.059563
0.0515891
0.0431435
0.0342477
0.0249288
0.0152195
0.00515911
-0.00520596
-0.0158219
-0.0266267
-0.0375504
-0.0485139
-0.0594298
-0.0702018
-0.0807254
-0.0908883
-0.100572
-0.109651
-0.117998
-0.125484
-0.13198
-0.137362
-0.141514
-0.144332
-0.145728
-0.145631
-0.143998
-0.14081
-0.136079
-0.129851
-0.122203
-0.113247
-0.103126
-0.0920143
-0.0801102
-0.0676354
-0.0548279
-0.0419374
-0.0292189
-0.0169276
-0.00532351
0.00873116
0.0247535
0.0393455
0.0525381
0.0643776
0.0749216
0.0842351
0.0923873
0.0994493
0.105492
0.110583
0.114787
0.118164
0.120768
0.122648
0.123844
0.124392
0.124322
0.123656
0.122413
0.120606
0.118245
0.115335
0.111879
0.107879
0.103336
0.0982474
0.0926147
0.0864383
0.0797205
0.072466
0.0646821
0.0563796
0.0475734
0.0382833
0.0285342
0.0183571
0.00778984
-0.00312265
-0.0143274
-0.0257631
-0.0373593
-0.0490362
-0.0607042
-0.0722642
-0.0836074
-0.0946157
-0.105163
-0.115116
-0.124335
-0.132679
-0.140005
-0.146173
-0.151052
-0.154518
-0.156465
-0.156807
-0.155483
-0.15246
-0.147738
-0.141355
-0.133383
-0.123934
-0.113156
-0.101232
-0.0883734
-0.0748199
-0.0608291
-0.046673
-0.0326299
-0.0189785
-0.00600293
0.00931188
0.026366
0.0418698
0.055863
0.0684012
0.0795506
0.0893846
0.0979808
0.105418
0.111774
0.117124
0.121538
0.125082
0.127815
0.12979
0.131051
0.131637
0.13158
0.130906
0.129634
0.127779
0.12535
0.122355
0.118795
0.114674
0.109989
0.10474
0.0989257
0.0925454
0.0856001
0.0780924
0.0700277
0.0614149
0.0522667
0.0426006
0.0324391
0.0218112
0.0107526
-0.000693792
-0.0124765
-0.0245352
-0.0368
-0.0491909
-0.0616173
-0.0739776
-0.0861594
-0.0980397
-0.109485
-0.120354
-0.130497
-0.139758
-0.147982
-0.155011
-0.160695
-0.164892
-0.167476
-0.168341
-0.167405
-0.16462
-0.159971
-0.153483
-0.145223
-0.1353
-0.123865
-0.111109
-0.0972588
-0.08257
-0.0673222
-0.0518114
-0.0363413
-0.0212166
-0.00674711
0.00989444
0.0279844
0.044404
0.0592022
0.0724431
0.0842014
0.0945593
0.103602
0.111417
0.118088
0.123698
0.128324
0.132036
0.134899
0.13697
0.138298
0.138924
0.138884
0.138205
0.136908
0.13501
0.132521
0.129448
0.125795
0.121562
0.116748
0.111352
0.105371
0.0988035
0.091648
0.0839057
0.07558
0.0666774
0.0572081
0.0471871
0.0366344
0.0255764
0.014046
0.00208392
-0.0102606
-0.0229291
-0.0358529
-0.0489525
-0.0621371
-0.0753036
-0.088337
-0.10111
-0.113483
-0.125306
-0.13642
-0.146656
-0.155843
-0.163807
-0.170379
-0.175395
-0.178706
-0.180185
-0.179727
-0.177263
-0.17276
-0.166229
-0.157727
-0.147357
-0.135274
-0.121674
-0.106797
-0.0909174
-0.074338
-0.0573802
-0.0403756
-0.0236567
-0.0075616
0.0104768
0.0296031
0.04694
0.0625449
0.0764904
0.0888598
0.0997432
0.109234
0.117428
0.124415
0.130286
0.135123
0.139004
0.141997
0.144165
0.14556
0.146228
0.146206
0.145525
0.144207
0.142271
0.139728
0.136586
0.132847
0.128514
0.123584
0.118055
0.111922
0.105184
0.0978367
0.0898797
0.081314
0.0721438
0.0623767
0.0520248
0.0411053
0.0296414
0.0176632
0.00520832
-0.00767674
-0.020936
-0.0345028
-0.0482993
-0.062235
-0.0762066
-0.0900974
-0.103777
-0.1171
-0.12991
-0.142036
-0.153301
-0.163515
-0.172489
-0.18003
-0.185955
-0.19009
-0.192281
-0.192399
-0.190349
-0.186078
-0.179578
-0.17089
-0.160113
-0.147398
-0.132948
-0.117015
-0.0998929
-0.0819073
-0.0634078
-0.0447557
-0.0263143
-0.0084523
0.0110568
0.0312168
0.0494695
0.0658806
0.0805308
0.0935115
0.104921
0.11486
0.123432
0.130735
0.136866
0.141915
0.145963
0.149086
0.151349
0.152811
0.153521
0.153519
0.152837
0.151502
0.149533
0.146941
0.143736
0.139921
0.135497
0.130463
0.124814
0.118546
0.111654
0.104134
0.095983
0.0871999
0.0777861
0.0677465
0.0570902
0.0458312
0.0339894
0.0215913
0.00867125
-0.00472772
-0.0185528
-0.0327403
-0.0472146
-0.0618869
-0.0766548
-0.0914006
-0.105992
-0.12028
-0.134101
-0.147277
-0.159617
-0.170919
-0.180973
-0.189567
-0.196493
-0.201552
-0.204559
-0.205359
-0.203829
-0.199886
-0.193502
-0.1847
-0.173566
-0.160248
-0.144951
-0.12794
-0.109526
-0.0900609
-0.0699226
-0.0495055
-0.0292058
-0.00942539
0.0116327
0.0328204
0.0519847
0.0691993
0.0845523
0.0981428
0.110077
0.120463
0.129412
0.137029
0.143418
0.148675
0.152889
0.156139
0.158497
0.160025
0.160775
0.160792
0.160112
0.158761
0.156761
0.154125
0.150864
0.14698
0.142476
0.137348
0.131593
0.125204
0.118176
0.110503
0.10218
0.0932027
0.0835707
0.0732858
0.0623539
0.0507856
0.0385971
0.0258112
0.0124582
-0.00142276
-0.0157828
-0.0305619
-0.0456877
-0.0610743
-0.0766209
-0.0922108
-0.107711
-0.122969
-0.137818
-0.152072
-0.165527
-0.17797
-0.189172
-0.1989
-0.20692
-0.213004
-0.216939
-0.218536
-0.217638
-0.214135
-0.207966
-0.199134
-0.187708
-0.173827
-0.157698
-0.139595
-0.119846
-0.0988287
-0.0769535
-0.0546491
-0.0323478
-0.0104874
0.0122025
0.034409
0.0544784
0.0724915
0.0885434
0.10274
0.115196
0.126027
0.135349
0.143277
0.149921
0.155383
0.159758
0.163132
0.165581
0.167171
0.16796
0.167996
0.167315
0.165949
0.163921
0.161245
0.157932
0.153986
0.14941
0.1442
0.138351
0.131857
0.12471
0.116904
0.10843
0.0992829
0.0894591
0.0789576
0.067781
0.0559361
0.0434353
0.0302973
0.0165481
0.00222218
-0.012636
-0.027971
-0.0437146
-0.0597847
-0.0760838
-0.0924973
-0.108892
-0.125117
-0.141
-0.156349
-0.170952
-0.184581
-0.196992
-0.207931
-0.217136
-0.224351
-0.229328
-0.231843
-0.231703
-0.228759
-0.22292
-0.214157
-0.20252
-0.188131
-0.171197
-0.151996
-0.130876
-0.108239
-0.0845288
-0.0602112
-0.0357578
-0.0116452
0.0127647
0.0359782
0.0569438
0.0757484
0.0924936
0.107292
0.120265
0.131535
0.141226
0.14946
0.156354
0.162015
0.166546
0.170038
0.172573
0.174222
0.175046
0.175096
0.174414
0.173032
0.170975
0.168261
0.1649
0.160899
0.156258
0.150975
0.145045
0.13846
0.131212
0.123291
0.114689
0.105396
0.0954083
0.0847201
0.0733311
0.0612446
0.0484687
0.0350178
0.0209131
0.00618417
-0.00912969
-0.0249782
-0.0412985
-0.0580133
-0.0750295
-0.092236
-0.109503
-0.126678
-0.14359
-0.160041
-0.175812
-0.190665
-0.204338
-0.216557
-0.227035
-0.235483
-0.24162
-0.245181
-0.245932
-0.243683
-0.238301
-0.229724
-0.217971
-0.203147
-0.185449
-0.165159
-0.142639
-0.118319
-0.0926762
-0.0662164
-0.0394534
-0.0129057
0.0133177
0.0375242
0.059375
0.0789623
0.0963932
0.111787
0.12527
0.136973
0.147027
0.15556
0.162695
0.168549
0.173229
0.176832
0.179446
0.181146
0.181999
0.182059
0.181371
0.179971
0.177885
0.175133
0.171727
0.167674
0.162976
0.157629
0.151629
0.144967
0.137633
0.129617
0.120908
0.111495
0.101371
0.0905266
0.0789591
0.0666676
0.0536562
0.0399345
0.0255188
0.0104333
-0.00528844
-0.021602
-0.0384506
-0.0557629
-0.0734515
-0.0914105
-0.109514
-0.127613
-0.145535
-0.163083
-0.180032
-0.196133
-0.211111
-0.224672
-0.236503
-0.246286
-0.2537
-0.258439
-0.260222
-0.258813
-0.254031
-0.245773
-0.234019
-0.218849
-0.200445
-0.179088
-0.155153
-0.129093
-0.101423
-0.0726893
-0.0434526
-0.0142764
0.0138604
0.0390439
0.0617672
0.0821267
0.100234
0.116214
0.1302
0.142327
0.152735
0.161558
0.168927
0.174963
0.179782
0.183487
0.18617
0.187914
0.188787
0.18885
0.188151
0.186728
0.18461
0.181819
0.178369
0.174267
0.169516
0.164113
0.158053
0.151326
0.143923
0.13583
0.127036
0.117528
0.107295
0.0963263
0.0846151
0.0721568
0.0589513
0.0450035
0.0303244
0.0149327
-0.0011442
-0.0178685
-0.0351902
-0.053045
-0.0713523
-0.090013
-0.108907
-0.12789
-0.146793
-0.165418
-0.183539
-0.200899
-0.217212
-0.232166
-0.245424
-0.256635
-0.265441
-0.271491
-0.274455
-0.274042
-0.270018
-0.262228
-0.250608
-0.235202
-0.216169
-0.193784
-0.16843
-0.140583
-0.110793
-0.0796538
-0.0477735
-0.0157648
0.0143919
0.040535
0.0641168
0.0852366
0.10401
0.120567
0.135044
0.147586
0.158337
0.167438
0.175028
0.181235
0.186181
0.189976
0.192717
0.194493
0.195377
0.195434
0.194716
0.193263
0.191109
0.188277
0.184781
0.180632
0.175832
0.170379
0.164267
0.157488
0.150029
0.141878
0.13302
0.12344
0.113127
0.102065
0.0902454
0.0776594
0.0643027
0.0501754
0.0352834
0.0196393
0.00326397
-0.0138117
-0.031545
-0.0498798
-0.0687436
-0.0880451