/*--------------------------------*- C++ -*----------------------------------*\
  =========                 |
  \\      /  F ield         | OpenFOAM: The Open Source CFD Toolbox
   \\    /   O peration     | Website:  https://openfoam.org
    \\  /    A nd           | Version:  dev
     \\/     M anipulation  |
\*---------------------------------------------------------------------------*/
FoamFile
{
    format      ascii;
    class       volScalarField;
    location    "45";
    object      p;
}
// * * * * * * * * * * * * * * * * * * * * * * * * * * * * * * * * * * * * * //

dimensions      [0 2 -2 0 0 0 0];

internalField   nonuniform List<scalar> 
5184
(
7.89679e-07
-1.12219e-05
-9.72104e-05
-0.00025016
-0.000449651
-0.000678403
-0.000922191
-0.00116904
-0.00140981
-0.00163734
-0.0018462
-0.00203239
-0.00219296
-0.00232582
-0.00242948
-0.00250295
-0.00254554
-0.00255682
-0.00253651
-0.00248445
-0.00240055
-0.00228479
-0.00213722
-0.00195797
-0.00174729
-0.00150555
-0.0012333
-0.000931279
-0.000600488
-0.000242198
0.000142008
0.000550202
0.000980093
0.00142901
0.00189388
0.00237127
0.00285735
0.00334796
0.00383862
0.00432459
0.00480092
0.00526254
0.00570432
0.00612117
0.00650814
0.00686052
0.00717394
0.00744448
0.00766875
0.00784403
0.0079683
0.00804036
0.00805987
0.00802738
0.0079444
0.00781337
0.0076377
0.0074217
0.00717058
0.00689041
0.00658804
0.00627108
0.00594786
0.00562734
0.00531906
0.00503312
0.00478004
0.00457044
0.00441429
0.00432001
0.00429311
0.00432047
1.38573e-05
1.32353e-06
-7.33116e-05
-0.000201134
-0.00036646
-0.000556812
-0.000761264
-0.00097021
-0.00117572
-0.0013714
-0.0015522
-0.00171421
-0.00185446
-0.00197073
-0.00206137
-0.00212517
-0.00216129
-0.0021691
-0.0021482
-0.00209829
-0.00201919
-0.00191082
-0.00177318
-0.00160639
-0.00141065
-0.00118634
-0.000933987
-0.000654326
-0.000348314
-1.71707e-05
0.000337599
0.000714177
0.00111042
0.00152382
0.00195155
0.00239042
0.00283692
0.00328722
0.00373722
0.0041826
0.00461886
0.0050414
0.00544557
0.00582678
0.00618058
0.00650274
0.00678936
0.00703695
0.00724253
0.00740371
0.00751877
0.00758673
0.00760737
0.00758134
0.0075101
0.00739598
0.00724218
0.00705269
0.00683233
0.00658666
0.00632191
0.00604497
0.00576327
0.00548476
0.00521774
0.00497079
0.00475258
0.0045715
0.00443483
0.00434851
0.00431996
0.00434761
0.000100478
7.57671e-05
4.05854e-07
-0.000117187
-0.000264963
-0.000433282
-0.000613436
-0.000797588
-0.000979034
-0.00115221
-0.00131262
-0.00145666
-0.00158153
-0.00168505
-0.00176558
-0.00182187
-0.001853
-0.00185828
-0.00183721
-0.00178942
-0.00171468
-0.00161284
-0.00148387
-0.00132782
-0.00114489
-0.000935393
-0.000699829
-0.000438877
-0.000153435
0.000155354
0.000486079
0.000837036
0.00120622
0.00159129
0.00198961
0.0023982
0.00281379
0.00323283
0.0036515
0.00406579
0.00447153
0.00486445
0.00524025
0.00559469
0.00592366
0.00622325
0.00648989
0.00672037
0.00691199
0.00706257
0.00717057
0.00723516
0.00725622
0.00723439
0.00717112
0.00706864
0.00692996
0.00675887
0.00655985
0.00633806
0.00609927
0.00584977
0.00559634
0.00534609
0.00510639
0.00488469
0.00468851
0.00452486
0.00439978
0.00431851
0.00429076
0.00432144
0.000255564
0.000204167
0.000116343
-2.65513e-06
-0.000145149
-0.000303361
-0.000470164
-0.000639185
-0.000804881
-0.000962564
-0.00110836
-0.00123913
-0.00135238
-0.00144613
-0.00151885
-0.00156937
-0.00159677
-0.00160038
-0.00157965
-0.0015342
-0.00146374
-0.00136809
-0.00124715
-0.00110094
-0.000929588
-0.000733362
-0.000512687
-0.000268169
-6.22256e-07
0.000288908
0.00059912
0.000928435
0.00127498
0.00163659
0.00201078
0.00239476
0.00278547
0.00317955
0.00357343
0.00396333
0.0043453
0.00471533
0.00506934
0.00540334
0.00571345
0.00599597
0.00624752
0.00646511
0.00664615
0.00678864
0.00689113
0.00695286
0.00697375
0.00695444
0.00689634
0.00680159
0.00667306
0.00651435
0.00632969
0.00612392
0.00590244
0.00567109
0.00543607
0.00520388
0.00498118
0.00477465
0.0045909
0.0044362
0.004316
0.00423533
0.00420432
0.0042296
0.000460401
0.000371803
0.000263184
0.000135444
-8.96387e-06
-0.000163874
-0.000323513
-0.000482877
-0.000637554
-0.000783744
-0.000918267
-0.00103851
-0.00114236
-0.00122813
-0.00129449
-0.00134038
-0.00136497
-0.00136763
-0.00134782
-0.00130515
-0.0012393
-0.00115004
-0.00103724
-0.000900845
-0.000740921
-0.000557657
-0.000351393
-0.000122642
0.000127889
0.000399267
0.000690315
0.000999592
0.00132537
0.00166564
0.00201808
0.00238009
0.00274878
0.00312098
0.00349331
0.00386217
0.00422382
0.00457442
0.00491009
0.00522699
0.00552141
0.00578981
0.00602894
0.00623592
0.00640827
0.00654406
0.00664191
0.00670108
0.0067215
0.00670379
0.0066493
0.0065601
0.00643893
0.0062892
0.00611493
0.00592071
0.00571159
0.00549301
0.00527074
0.00505072
0.004839
0.00464163
0.00446451
0.00431327
0.00419285
0.00410805
0.00406765
0.0040775
0.000698822
0.000566789
0.000431594
0.000289514
0.000137537
-1.95629e-05
-0.000177178
-0.000331565
-0.000479387
-0.00061772
-0.000744091
-0.000856451
-0.000953126
-0.00103277
-0.00109428
-0.00113681
-0.00115963
-0.00116218
-0.00114397
-0.00110461
-0.00104376
-0.000961164
-0.000856632
-0.000730049
-0.0005814
-0.000410784
-0.000218441
-4.76997e-06
0.000229639
0.000483983
0.000757223
0.00104806
0.00135493
0.00167596
0.002009
0.00235162
0.00270107
0.00305437
0.00340829
0.00375937
0.00410403
0.00443857
0.00475922
0.00506228
0.00534411
0.00560128
0.00583061
0.00602927
0.00619483
0.00632539
0.00641957
0.00647663
0.00649647
0.00647968
0.00642754
0.00634201
0.00622574
0.00608199
0.00591458
0.00572788
0.00552665
0.00531602
0.00510135
0.00488816
0.004682
0.00448835
0.00431255
0.00415968
0.00403426
0.00394071
0.00388551
0.00387244
0.000957028
0.000778239
0.000612662
0.000452078
0.000288111
0.00012437
-3.55222e-05
-0.000188964
-0.000333621
-0.000467406
-0.000588547
-0.000695571
-0.000787271
-0.000862663
-0.000920944
-0.000961454
-0.000983638
-0.000987017
-0.000971172
-0.000935726
-0.000880344
-0.000804731
-0.000708639
-0.000591886
-0.000454367
-0.000296082
-0.000117155
8.21389e-05
0.000301343
0.000539796
0.000796606
0.00107063
0.00136044
0.00166435
0.00198034
0.00230613
0.00263913
0.00297649
0.00331511
0.00365165
0.00398264
0.00430444
0.0046134
0.00490585
0.00517822
0.00542708
0.00564929
0.00584199
0.00600278
0.00612969
0.00622135
0.00627694
0.00629633
0.00628002
0.00622923
0.00614583
0.00603234
0.00589189
0.00572817
0.00554532
0.00534791
0.00514079
0.00492902
0.00471776
0.00451214
0.00431722
0.00413786
0.00397865
0.00384382
0.00373741
0.00366309
0.00362208
0.00122288
0.000996006
0.00079779
0.000615844
0.000436682
0.000262941
9.7414e-05
-5.8328e-05
-0.000202877
-0.000334935
-0.000453408
-0.000557394
-0.000646157
-0.000719096
-0.00077571
-0.000815568
-0.000838286
-0.000843501
-0.000830865
-0.000800032
-0.000750665
-0.000682438
-0.000595048
-0.000488234
-0.000361796
-0.000215621
-4.97078e-05
0.000135803
0.000340601
0.000564176
0.000805793
0.00106446
0.00133892
0.00162762
0.00192871
0.00224005
0.00255916
0.00288332
0.00320953
0.00353455
0.00385496
0.00416719
0.0044676
0.00475253
0.00501842
0.00526182
0.00547953
0.00566866
0.00582672
0.0059517
0.00604213
0.00609712
0.00611643
0.0061005
0.00605043
0.005968
0.00585562
0.00571631
0.00555361
0.00537153
0.00517443
0.00496697
0.00475398
0.00454033
0.00433086
0.00413027
0.00394306
0.0037734
0.0036253
0.0035025
0.00340571
0.00333354
0.00148612
0.00121094
0.000978914
0.000773774
0.000577192
0.000390999
0.000217282
5.66809e-05
-9.02473e-05
-0.000222946
-0.000340964
-0.000443955
-0.000531648
-0.000603823
-0.000660287
-0.000700847
-0.000725297
-0.000733398
-0.000724879
-0.00069943
-0.000656713
-0.00059637
-0.000518037
-0.000421371
-0.000306067
-0.000171891
-1.87062e-05
0.000153493
0.000344552
0.000554122
0.000781628
0.00102625
0.00128687
0.00156211
0.00185026
0.0021493
0.00245689
0.0027704
0.0030869
0.00340321
0.00371596
0.00402159
0.00431646
0.00459687
0.00485919
0.00509993
0.00531578
0.00550376
0.00566127
0.00578617
0.00587686
0.00593235
0.00595227
0.00593694
0.00588734
0.00580515
0.00569266
0.00555278
0.00538895
0.00520505
0.0050053
0.00479421
0.00457642
0.00435662
0.00413944
0.00392932
0.00373047
0.00354677
0.00338208
0.00323995
0.00311818
0.00301285
0.00173775
0.00141477
0.00114853
0.000919135
0.000703667
0.000503288
0.000319476
0.000152028
7.15601e-07
-0.000134595
-0.000254061
-0.000357867
-0.00044619
-0.000519184
-0.000576957
-0.000619554
-0.000646946
-0.000659022
-0.000655585
-0.000636362
-0.000601012
-0.000549139
-0.000480316
-0.000394108
-0.000290099
-0.000167924
-2.7301e-05
0.000131932
0.000309785
0.000506077
0.000720405
0.000952114
0.00120027
0.00146362
0.00174061
0.00202934
0.00232759
0.0026328
0.00294212
0.00325241
0.00356029
0.0038622
0.00415444
0.00443326
0.00469493
0.00493582
0.00515252
0.00534188
0.00550114
0.00562801
0.00572071
0.00577808
0.00579961
0.00578545
0.00573647
0.00565419
0.00554081
0.00539913
0.00523248
0.00504464
0.00483976
0.00462222
0.00439656
0.00416733
0.00393903
0.00371597
0.00350214
0.00330124
0.0031171
0.00295317
0.00280451
0.00266479
0.00196985
0.0016
0.00129967
0.00104551
0.000810284
0.000594553
0.000399273
0.000223465
6.61757e-05
-7.33734e-05
-0.000195914
-0.000302128
-0.000392623
-0.00046791
-0.000528387
-0.00057433
-0.000605882
-0.000623051
-0.000625714
-0.000613627
-0.00058644
-0.000543716
-0.000484957
-0.000409628
-0.000317192
-0.000207145
-7.90506e-05
6.742e-05
0.00023245
0.000416037
0.000617958
0.000837732
0.00107459
0.00132744
0.00159487
0.00187511
0.00216603
0.00246516
0.00276968
0.00307649
0.00338218
0.00368316
0.00397565
0.00425579
0.00451972
0.00476366
0.00498401
0.00517743
0.00534095
0.00547207
0.00556879
0.00562975
0.00565423
0.00564221
0.00559437
0.00551212
0.00539751
0.00525323
0.00508253
0.00488911
0.00467705
0.0044507
0.00421451
0.00397301
0.00373061
0.00349157
0.0032598
0.0030389
0.0028328
0.00264498
0.00246788
0.00229295
0.00217525
0.00175973
0.0014258
0.00114681
0.00089139
0.000659593
0.000451897
0.000266609
0.000102095
-4.3024e-05
-0.000170017
-0.00028004
-0.000374103
-0.000453055
-0.000517571
-0.000568143
-0.000605074
-0.000628483
-0.000638311
-0.000634338
-0.000616195
-0.000583398
-0.000535364
-0.000471453
-0.000390998
-0.000293346
-0.000177895
-4.41398e-05
0.000108286
0.000279568
0.000469672
0.000678298
0.000904853
0.00114841
0.0014077
0.00168108
0.00196651
0.00226159
0.00256356
0.0028693
0.00317539
0.00347816
0.00377374
0.00405813
0.0043273
0.00457728
0.00480423
0.00500457
0.00517509
0.00531301
0.00541609
0.00548268
0.00551185
0.00550332
0.0054576
0.00537591
0.00526017
0.00511295
0.00493742
0.00473721
0.00451638
0.00427925
0.0040303
0.00377404
0.00351493
0.00325722
0.00300488
0.00276147
0.00253115
0.00231757
0.0021107
0.00189988
0.0023474
0.0018876
0.00152079
0.00121721
0.000941516
0.000693287
0.000472567
0.000276991
0.000104291
-4.74798e-05
-0.000180097
-0.00029516
-0.000394058
-0.000477957
-0.00054779
-0.000604248
-0.000647781
-0.000678606
-0.000696719
-0.000701907
-0.000693778
-0.000671785
-0.000635257
-0.000583435
-0.000515512
-0.000430674
-0.000328146
-0.000207235
-6.73797e-05
9.18055e-05
0.000270482
0.000468547
0.000685588
0.000920853
0.00117322
0.00144116
0.00172277
0.00201569
0.0023172
0.00262418
0.00293317
0.00324042
0.00354192
0.00383352
0.00411099
0.00437011
0.00460678
0.00481714
0.00499766
0.00514525
0.00525735
0.00533202
0.00536801
0.00536479
0.00532261
0.00524249
0.00512618
0.00497614
0.00479544
0.00458769
0.00435691
0.00410745
0.00384386
0.00357072
0.00329257
0.00301381
0.00273848
0.00247029
0.00221368
0.00197259
0.00173467
0.00148725
0.00248021
0.00197762
0.00157888
0.00125117
0.000955371
0.000690613
0.000456527
0.000250112
6.84939e-05
-9.08082e-05
-0.000230048
-0.00035124
-0.000456133
-0.000546185
-0.000622567
-0.00068615
-0.000737518
-0.00077697
-0.000804539
-0.000820014
-0.000822963
-0.000812766
-0.000788651
-0.000749731
-0.000695048
-0.000623616
-0.000534474
-0.00042673
-0.000299616
-0.000152534
1.48882e-05
0.000202752
0.000410843
0.000638588
0.000885025
0.00114877
0.00142801
0.00172048
0.00202349
0.0023339
0.00264821
0.00296257
0.00327283
0.00357465
0.00386357
0.00413509
0.00438481
0.00460853
0.00480236
0.00496284
0.00508703
0.00517264
0.00521804
0.0052224
0.00518567
0.00510863
0.00499282
0.00484056
0.00465483
0.0044392
0.00419771
0.00393476
0.00365501
0.00336317
0.00306397
0.002762
0.00246149
0.00216637
0.0018815
0.00161122
0.00134091
0.00105597
0.00256797
0.00202418
0.00159456
0.00124339
0.000927849
0.000646671
0.000399085
0.000181475
-9.60822e-06
-0.000177157
-0.000323877
-0.000452177
-0.000564135
-0.000661486
-0.000745615
-0.000817558
-0.00087801
-0.000927339
-0.000965601
-0.00099257
-0.00100776
-0.00101048
-0.000999824
-0.000974778
-0.000934216
-0.000876971
-0.000801882
-0.000707845
-0.00059387
-0.000459135
-0.000303042
-0.000125267
7.41843e-05
0.000294938
0.000536205
0.000796755
0.00107489
0.00136843
0.00167471
0.00199062
0.00231258
0.00263664
0.0029585
0.00327361
0.00357724
0.00386459
0.00413092
0.00437163
0.00458241
0.00475938
0.00489917
0.00499902
0.00505693
0.00507167
0.00504284
0.0049709
0.00485719
0.00470383
0.00451369
0.00429031
0.00403777
0.00376057
0.00346347
0.00315143
0.00282942
0.00250227
0.00217454
0.00185046
0.00153538
0.00123417
0.000930011
0.000606374
0.00260526
0.00202196
0.00156265
0.00118877
0.000854026
0.0005567
0.000295638
6.66327e-05
-0.000134323
-0.000310708
-0.000465658
-0.000601955
-0.000721986
-0.000827738
-0.000920793
-0.00100233
-0.00107315
-0.00113365
-0.00118391
-0.00122368
-0.0012524
-0.00126927
-0.00127328
-0.00126325
-0.00123789
-0.00119582
-0.00113568
-0.00105613
-0.000955942
-0.000834063
-0.000689645
-0.000522127
-0.000331282
-0.000117271
0.000119315
0.00037741
0.000655453
0.000951362
0.00126253
0.00158584
0.00191768
0.00225397
0.00259027
0.00292179
0.00324352
0.00355032
0.00383705
0.00409868
0.00433043
0.00452791
0.00468726
0.00480521
0.00487927
0.00490774
0.00488982
0.00482561
0.00471615
0.00456336
0.00436997
0.00413948
0.003876
0.00358415
0.0032689
0.00293544
0.00258906
0.00223498
0.00187809
0.00152305
0.00117583
0.000841883
0.000502191
0.000138307
0.00258693
0.00196589
0.00147817
0.00108249
0.000729173
0.000416091
0.000141699
-9.87875e-05
-0.000309914
-0.000495629
-0.00065948
-0.000804598
-0.000933663
-0.00104889
-0.00115205
-0.00124444
-0.00132693
-0.00139997
-0.00146363
-0.00151759
-0.00156124
-0.00159367
-0.00161372
-0.00162004
-0.00161115
-0.00158548
-0.00154142
-0.00147741
-0.00139195
-0.00128372
-0.00115163
-0.000994848
-0.000812891
-0.000605683
-0.000373597
-0.000117505
0.00016119
0.000460526
0.000777971
0.00111042
0.00145423
0.00180522
0.00215878
0.00250988
0.0028532
0.00318324
0.00349442
0.00378122
0.00403834
0.00426082
0.00444421
0.00458466
0.00467909
0.00472528
0.00472192
0.0046687
0.00456628
0.00441633
0.00422142
0.00398498
0.00371115
0.0034047
0.00307083
0.00271504
0.00234299
0.00196035
0.00157248
0.00118451
0.000803144
0.000434508
5.73634e-05
-0.000348716
0.00250807
0.00185117
0.00133641
0.000919905
0.000548757
0.000220407
-6.7077e-05
-0.000319044
-0.000540562
-0.000736033
-0.000909399
-0.00106412
-0.00120316
-0.00132894
-0.00144338
-0.0015479
-0.00164343
-0.00173044
-0.00180897
-0.00187866
-0.00193878
-0.00198832
-0.00202596
-0.00205017
-0.00205928
-0.00205147
-0.00202491
-0.00197776
-0.00190827
-0.00181482
-0.00169604
-0.00155081
-0.00137837
-0.00117838
-0.000950955
-0.000696746
-0.000416969
-0.000113437
0.000211417
0.000554535
0.000912243
0.00128029
0.00165387
0.00202773
0.00239624
0.00275349
0.00309343
0.00341
0.00369731
0.00394974
0.00416219
0.00433013
0.00444982
0.0045184
0.00453396
0.00449567
0.00440379
0.00425963
0.00406556
0.0038249
0.00354185
0.0032213
0.00286873
0.00249
0.00209123
0.00167857
0.00125795
0.000835091
0.000417483
1.205e-05
-0.000404753
-0.000855413
0.00236403
0.00167324
0.00113289
0.000696629
0.000308461
-3.45962e-05
-0.000334867
-0.000598252
-0.000830328
-0.00103594
-0.0012194
-0.00138449
-0.00153442
-0.00167183
-0.00179876
-0.00191674
-0.00202674
-0.00212923
-0.00222421
-0.00231126
-0.00238956
-0.00245793
-0.0025149
-0.00255877
-0.00258762
-0.00259942
-0.00259206
-0.00256343
-0.00251148
-0.00243429
-0.00233018
-0.0021977
-0.0020358
-0.00184382
-0.0016216
-0.00136954
-0.00108861
-0.000780447
-0.000447351
-9.23045e-05
0.000281026
0.000668313
0.00106461
0.00146443
0.00186179
0.00225037
0.00262361
0.00297487
0.00329759
0.00358545
0.00383256
0.00403365
0.00418418
0.00428054
0.00432015
0.00430154
0.00422443
0.00408975
0.00389958
0.00365711
0.00336654
0.00303292
0.00266201
0.00226007
0.00183374
0.00138978
0.000934737
0.000474989
1.89552e-05
-0.000425569
-0.000884544
-0.00138263
0.00215039
0.00142778
0.000863397
0.000408511
4.20001e-06
-0.000352949
-0.000665651
-0.000940349
-0.00118312
-0.00139922
-0.00159333
-0.00176955
-0.00193131
-0.00208144
-0.00222211
-0.00235492
-0.00248087
-0.00260044
-0.00271357
-0.00281977
-0.00291808
-0.00300719
-0.00308546
-0.00315098
-0.00320159
-0.00323502
-0.00324888
-0.00324075
-0.00320827
-0.00314921
-0.00306151
-0.00294341
-0.00279349
-0.00261075
-0.00239473
-0.00214549
-0.00186375
-0.00155092
-0.00120911
-0.00084119
-0.000450785
-4.22622e-05
0.000379304
0.000808185
0.00123808
0.00166224
0.00207356
0.00246475
0.00282853
0.00315779
0.00344579
0.00368635
0.00387406
0.00400442
0.00407404
0.0040807
0.00402348
0.0039028
0.00372038
0.00347922
0.00318349
0.00283839
0.00244997
0.00202495
0.00157054
0.00109415
0.000603075
0.000104439
-0.000392318
-0.000878425
-0.00138241
-0.00193126
0.00186299
0.00111076
0.000523979
5.1662e-05
-0.000367863
-0.000738443
-0.00106319
-0.00134907
-0.00160263
-0.00182957
-0.0020349
-0.002223
-0.00239754
-0.00256151
-0.0027172
-0.00286627
-0.00300975
-0.00314809
-0.00328119
-0.00340843
-0.00352877
-0.00364073
-0.00374247
-0.00383187
-0.00390654
-0.00396392
-0.00400133
-0.00401604
-0.00400536
-0.00396669
-0.00389759
-0.00379593
-0.0036599
-0.00348813
-0.00327975
-0.0030345
-0.00275277
-0.00243568
-0.0020851
-0.00170375
-0.00129515
-0.000863678
-0.000414498
4.64527e-05
0.000512553
0.000976599
0.00143093
0.00186758
0.00227849
0.00265565
0.00299136
0.00327844
0.00351046
0.0036819
0.0037884
0.00382686
0.00379559
0.00369435
0.00352443
0.00328853
0.00299076
0.00263641
0.00223187
0.00178433
0.00130162
0.000791912
0.000263296
-0.000276243
-0.00081613
-0.00134651
-0.00189868
-0.00250209
0.00149795
0.000718437
0.000110968
-0.000377526
-0.000811291
-0.00119461
-0.00153098
-0.00182789
-0.00209236
-0.00233047
-0.00254758
-0.00274834
-0.00293663
-0.00311559
-0.00328763
-0.00345445
-0.00361711
-0.00377601
-0.00393099
-0.00408135
-0.00422589
-0.00436298
-0.00449058
-0.00460634
-0.00470763
-0.00479159
-0.00485525
-0.00489552
-0.00490936
-0.00489376
-0.00484591
-0.00476324
-0.00464352
-0.00448493
-0.00428619
-0.00404663
-0.00376625
-0.00344581
-0.00308691
-0.00269202
-0.00226453
-0.00180874
-0.00132988
-0.000834061
-0.0003282
0.000180056
0.000682467
0.00117036
0.0016348
0.00206684
0.00245771
0.00279911
0.00308341
0.00330393
0.00345518
0.003533
0.00353476
0.00345945
0.00330775
0.003082
0.00278614
0.00242555
0.00200691
0.00153791
0.00102707
0.000483394
-8.41397e-05
-0.000666587
-0.00125211
-0.00182967
-0.00243351
-0.0030958
0.00105172
0.000247361
-0.000378995
-0.000882356
-0.00132935
-0.00172467
-0.00207224
-0.00238002
-0.0026555
-0.00290512
-0.00313459
-0.00334879
-0.00355183
-0.00374698
-0.00393674
-0.00412287
-0.00430642
-0.00448777
-0.00466668
-0.00484234
-0.00501342
-0.0051781
-0.00533417
-0.00547903
-0.00560977
-0.00572327
-0.00581619
-0.00588512
-0.0059266
-0.00593723
-0.00591375
-0.00585312
-0.00575265
-0.00561003
-0.0054235
-0.0051919
-0.00491479
-0.00459251
-0.0042263
-0.00381831
-0.00337171
-0.00289069
-0.00238046
-0.00184725
-0.00129827
-0.000741561
-0.000185962
0.00035911
0.00088383
0.0013782
0.00183228
0.0022365
0.0025819
0.00286048
0.00306539
0.00319123
0.00323426
0.0031925
0.00306587
0.0028562
0.00256717
0.00220419
0.0017742
0.00128541
0.000747071
0.00016908
-0.000438581
-0.00106591
-0.00169966
-0.00232748
-0.00298684
-0.00371279
0.000521071
-0.000305569
-0.000948931
-0.0014658
-0.00192497
-0.00233156
-0.00268987
-0.00300837
-0.00329494
-0.00355644
-0.00379884
-0.0040273
-0.0042461
-0.00445865
-0.00466755
-0.0048746
-0.00508083
-0.00528659
-0.00549157
-0.00569485
-0.00589495
-0.00608989
-0.00627724
-0.00645416
-0.00661748
-0.00676375
-0.00688931
-0.00699036
-0.00706303
-0.00710348
-0.00710797
-0.00707297
-0.00699525
-0.00687197
-0.00670082
-0.0064801
-0.00620883
-0.00588687
-0.00551498
-0.00509494
-0.00462961
-0.00412297
-0.00358016
-0.00300746
-0.00241228
-0.00180308
-0.00118924
-0.000580954
1.10146e-05
0.000575544
0.00110143
0.0015777
0.0019939
0.00234048
0.00260907
0.0027928
0.00288656
0.00288721
0.00279373
0.00260726
0.00233109
0.00197055
0.0015328
0.00102658
0.000461906
-0.000150357
-0.00079913
-0.00147323
-0.00215786
-0.0028392
-0.00355822
-0.00435314
-9.68512e-05
-0.000943089
-0.0016015
-0.00213048
-0.00260075
-0.00301784
-0.00338644
-0.00371547
-0.00401325
-0.00428696
-0.00454289
-0.00478642
-0.00502202
-0.00525323
-0.00548272
-0.00571232
-0.00594308
-0.00617529
-0.00640857
-0.0066419
-0.00687364
-0.00710164
-0.00732327
-0.00753543
-0.00773469
-0.00791728
-0.00807917
-0.00821617
-0.00832399
-0.0083983
-0.00843487
-0.00842961
-0.00837871
-0.00827875
-0.00812679
-0.00792052
-0.00765836
-0.00733956
-0.00696435
-0.00653403
-0.00605103
-0.00551904
-0.00494301
-0.00432921
-0.0036852
-0.00301976
-0.00234282
-0.00166533
-0.000999009
-0.000356173
0.000250605
0.000808807
0.00130633
0.00173186
0.00207527
0.00232798
0.00248327
0.00253657
0.00248567
0.00233083
0.00207477
0.00172263
0.0012817
0.000761238
0.00017203
-0.000473999
-0.00116458
-0.00188721
-0.00262539
-0.00336367
-0.00414683
-0.00501647
-0.000804495
-0.00166754
-0.00233899
-0.00287863
-0.00335889
-0.0037857
-0.00416413
-0.00450352
-0.0048126
-0.00509887
-0.00536892
-0.00562834
-0.00588177
-0.00613288
-0.00638441
-0.00663824
-0.0068954
-0.00715615
-0.00742003
-0.0076859
-0.00795201
-0.00821602
-0.00847509
-0.00872588
-0.00896467
-0.00918736
-0.00938958
-0.00956672
-0.00971403
-0.00982668
-0.0098999
-0.009929
-0.00990957
-0.00983752
-0.00970923
-0.00952169
-0.00927262
-0.0089606
-0.0085852
-0.00814713
-0.00764829
-0.00709196
-0.0064828
-0.00582696
-0.00513203
-0.00440707
-0.00366249
-0.00290997
-0.00216221
-0.00143274
-0.000735612
-8.50067e-05
0.000505133
0.00102154
0.00145207
0.00178614
0.00201514
0.00213279
0.0021354
0.00202207
0.00179477
0.00145824
0.00101984
0.000489255
-0.000121914
-0.000800638
-0.00153334
-0.00230609
-0.00310047
-0.00389923
-0.00475128
-0.00570189
-0.00160387
-0.00248085
-0.00316326
-0.00371209
-0.00420121
-0.00463694
-0.00502471
-0.00537428
-0.00569474
-0.00599391
-0.00627864
-0.00655475
-0.00682703
-0.00709928
-0.00737431
-0.00765402
-0.00793947
-0.00823086
-0.00852766
-0.00882865
-0.00913192
-0.00943497
-0.00973476
-0.0100277
-0.0103098
-0.0105766
-0.0108234
-0.0110452
-0.0112367
-0.0113926
-0.0115074
-0.0115761
-0.0115933
-0.0115543
-0.0114549
-0.011291
-0.0110598
-0.010759
-0.0103873
-0.00994488
-0.0094329
-0.00885409
-0.00821272
-0.00751465
-0.00676744
-0.00598029
-0.00516403
-0.004331
-0.00349487
-0.00267043
-0.00187326
-0.00111931
-0.000424565
0.00019555
0.000726608
0.00115573
0.00147207
0.0016673
0.00173592
0.00167559
0.00148722
0.00117497
0.000746088
0.000210614
-0.00041905
-0.00112872
-0.0019034
-0.00272757
-0.00358072
-0.00444359
-0.00536955
-0.00640785
-0.00249654
-0.00338449
-0.00407574
-0.00463225
-0.00512909
-0.00557293
-0.00596955
-0.00632908
-0.00666098
-0.00697336
-0.00727331
-0.00756687
-0.00785898
-0.00815356
-0.00845349
-0.00876072
-0.0090763
-0.00940041
-0.00973246
-0.0100711
-0.0104144
-0.0107595
-0.0111034
-0.0114421
-0.0117715
-0.0120866
-0.0123825
-0.0126536
-0.0128943
-0.0130986
-0.0132606
-0.0133743
-0.0134339
-0.0134339
-0.0133689
-0.0132345
-0.0130266
-0.0127422
-0.0123791
-0.0119366
-0.0114151
-0.0108166
-0.0101449
-0.00940533
-0.00860533
-0.00775411
-0.00686279
-0.00594431
-0.00501327
-0.00408569
-0.0031787
-0.0023102
-0.00149829
-0.000760826
-0.000114779
0.000424348
0.00084313
0.00113078
0.00127963
0.0012855
0.00114793
0.000870211
0.000459284
-7.45799e-05
-0.000718223
-0.00145626
-0.00227219
-0.00314876
-0.0040631
-0.00499373
-0.00599888
-0.00713201
-0.00348354
-0.00437948
-0.00507741
-0.0056401
-0.00614349
-0.00659461
-0.00699955
-0.00736882
-0.00771217
-0.00803801
-0.00835367
-0.00866537
-0.00897822
-0.00929624
-0.00962241
-0.0099587
-0.0103062
-0.010665
-0.0110346
-0.0114134
-0.0117994
-0.0121898
-0.0125811
-0.0129693
-0.0133499
-0.0137177
-0.0140672
-0.0143926
-0.0146877
-0.0149459
-0.0151608
-0.0153256
-0.0154338
-0.015479
-0.015455
-0.0153563
-0.015178
-0.014916
-0.0145672
-0.0141298
-0.0136033
-0.012989
-0.0122898
-0.0115106
-0.0106583
-0.00974209
-0.00877322
-0.00776512
-0.00673319
-0.00569467
-0.0046683
-0.0036739
-0.00273192
-0.00186281
-0.00108637
-0.00042107
0.000116686
0.00051324
0.000758293
0.000845406
0.000772333
0.000541166
0.000158262
-0.00036605
-0.00101794
-0.00178081
-0.00263655
-0.00356602
-0.00454376
-0.00554581
-0.00663561
-0.00787117
-0.00456543
-0.00546632
-0.00616879
-0.00673613
-0.0072449
-0.00770246
-0.00811518
-0.0084939
-0.00884867
-0.00918816
-0.00951992
-0.00985035
-0.0101847
-0.0105272
-0.0108808
-0.0112476
-0.0116286
-0.0120241
-0.0124332
-0.0128547
-0.0132862
-0.0137248
-0.0141668
-0.0146081
-0.0150439
-0.0154686
-0.0158765
-0.0162612
-0.0166161
-0.016934
-0.0172078
-0.0174301
-0.0175934
-0.0176905
-0.0177143
-0.0176583
-0.0175166
-0.0172838
-0.0169558
-0.0165297
-0.0160039
-0.0153787
-0.014656
-0.01384
-0.0129371
-0.0119561
-0.0109083
-0.00980732
-0.00866937
-0.00751278
-0.00635785
-0.0052264
-0.0041413
-0.00312579
-0.00220279
-0.00139407
-0.000719429
-0.000195877
0.00016316
0.000348476
0.000355569
0.0001849
-0.000158103
-0.000663292
-0.0013163
-0.00209933
-0.00299261
-0.00397491
-0.00501794
-0.00609497
-0.00727505
-0.00862103
-0.00574221
-0.00664506
-0.00734993
-0.0079204
-0.00843339
-0.00889651
-0.00931643
-0.00970427
-0.0100703
-0.0104236
-0.0107717
-0.0111213
-0.0114779
-0.0118456
-0.0122277
-0.0126261
-0.0130422
-0.0134759
-0.0139267
-0.014393
-0.0148725
-0.0153621
-0.0158581
-0.016356
-0.0168508
-0.0173368
-0.0178077
-0.0182568
-0.0186769
-0.0190603
-0.0193991
-0.0196853
-0.0199106
-0.0200668
-0.0201458
-0.0201401
-0.0200424
-0.0198463
-0.0195465
-0.0191388
-0.0186203
-0.0179901
-0.0172491
-0.0164006
-0.01545
-0.0144057
-0.0132787
-0.0120829
-0.0108349
-0.00955402
-0.00826207
-0.00698287
-0.00574174
-0.00456491
-0.00347863
-0.00250834
-0.00167767
-0.00100748
-0.000514883
-0.000212424
-0.00010743
-0.000201587
-0.000490823
-0.000965502
-0.00161091
-0.00240813
-0.00333565
-0.00437001
-0.0054798
-0.00663524
-0.00791135
-0.00937612
-0.00701337
-0.00791522
-0.00862039
-0.0091925
-0.00970855
-0.0101763
-0.0106028
-0.0109994
-0.0113765
-0.0117434
-0.012108
-0.0124771
-0.0128563
-0.0132499
-0.0136612
-0.0140924
-0.0145446
-0.0150181
-0.0155122
-0.0160252
-0.016555
-0.0170982
-0.0176511
-0.018209
-0.0187665
-0.0193178
-0.0198562
-0.0203746
-0.0208653
-0.02132
-0.0217302
-0.0220869
-0.0223812
-0.0226038
-0.0227457
-0.022798
-0.0227524
-0.0226013
-0.0223377
-0.0219563
-0.0214527
-0.0208246
-0.0200717
-0.019196
-0.0182021
-0.0170974
-0.0158925
-0.0146012
-0.0132404
-0.0118303
-0.0103939
-0.008957
-0.00754745
-0.0061945
-0.00492799
-0.00377734
-0.00277046
-0.00193257
-0.0012851
-0.000844578
-0.000621811
-0.000621244
-0.000840701
-0.00127147
-0.00189878
-0.00270271
-0.00365999
-0.00474481
-0.00592231
-0.00715932
-0.00853725
-0.0101295
-0.00837783
-0.00927585
-0.00997928
-0.0105516
-0.0110695
-0.0115411
-0.0119735
-0.0123782
-0.0127661
-0.0131465
-0.0135274
-0.013916
-0.014318
-0.0147377
-0.0151788
-0.0156433
-0.0161326
-0.0166469
-0.0171856
-0.0177471
-0.018329
-0.0189282
-0.0195405
-0.0201613
-0.020785
-0.0214054
-0.0220157
-0.0226081
-0.0231744
-0.0237061
-0.0241937
-0.0246276
-0.0249978
-0.0252943
-0.0255069
-0.0256255
-0.0256404
-0.0255428
-0.0253242
-0.0249776
-0.0244974
-0.0238795
-0.0231223
-0.0222261
-0.0211946
-0.0200339
-0.018754
-0.0173682
-0.0158935
-0.0143506
-0.0127637
-0.0111603
-0.00957077
-0.00802743
-0.00656385
-0.00521373
-0.00400968
-0.00298185
-0.0021566
-0.00155517
-0.0011926
-0.00107682
-0.00120819
-0.00157947
-0.00217619
-0.00297765
-0.00395886
-0.00509151
-0.00633701
-0.00765841
-0.00914395
-0.0108727
-0.00983401
-0.0107255
-0.0114253
-0.0119964
-0.0125151
-0.0129895
-0.013427
-0.0138393
-0.0142374
-0.0146308
-0.0150278
-0.0154356
-0.0158602
-0.0163061
-0.0167769
-0.017275
-0.0178018
-0.0183576
-0.0189419
-0.019553
-0.0201886
-0.0208454
-0.0215194
-0.0222057
-0.0228986
-0.0235916
-0.0242774
-0.0249482
-0.0255952
-0.0262091
-0.0267799
-0.0272974
-0.0277505
-0.0281282
-0.0284193
-0.0286124
-0.0286965
-0.0286613
-0.0284968
-0.0281944
-0.0277467
-0.027148
-0.026395
-0.0254864
-0.0244243
-0.0232136
-0.0218632
-0.0203856
-0.0187976
-0.0171202
-0.0153784
-0.0136013
-0.0118214
-0.0100744
-0.00839741
-0.0068288
-0.00540621
-0.00416527
-0.00313794
-0.00235098
-0.00182446
-0.00157063
-0.00159321
-0.00188706
-0.00243854
-0.00322645
-0.00422419
-0.00540085
-0.00671382
-0.00812201
-0.00972085
-0.0115954
-0.0113798
-0.0122623
-0.0129566
-0.0135253
-0.0140436
-0.0145199
-0.0149617
-0.0153808
-0.0157884
-0.0161941
-0.0166065
-0.0170329
-0.0174795
-0.017951
-0.0184513
-0.0189828
-0.019547
-0.0201445
-0.0207746
-0.0214359
-0.0221262
-0.022842
-0.0235793
-0.0243331
-0.0250976
-0.025866
-0.0266309
-0.0273839
-0.0281159
-0.0288169
-0.0294766
-0.0300835
-0.0306261
-0.0310921
-0.0314693
-0.0317451
-0.031907
-0.0319432
-0.0318422
-0.0315936
-0.0311882
-0.0306185
-0.0298792
-0.0289673
-0.027883
-0.0266298
-0.0252151
-0.0236503
-0.0219516
-0.0201399
-0.0182407
-0.0162844
-0.0143057
-0.0123429
-0.0104373
-0.00863167
-0.00696919
-0.00549143
-0.00423667
-0.00323794
-0.00252131
-0.00210432
-0.00199491
-0.0021909
-0.00268012
-0.00344128
-0.00444638
-0.00566188
-0.00704084
-0.00853763
-0.0102553
-0.012285
-0.0130126
-0.0138838
-0.0145712
-0.0151362
-0.0156531
-0.0161303
-0.0165754
-0.0170004
-0.0174164
-0.0178334
-0.0182602
-0.0187042
-0.0191717
-0.019668
-0.0201967
-0.0207608
-0.0213618
-0.0220004
-0.0226762
-0.0233878
-0.024133
-0.0249084
-0.02571