/*--------------------------------*- C++ -*----------------------------------*\
  =========                 |
  \\      /  F ield         | OpenFOAM: The Open Source CFD Toolbox
   \\    /   O peration     | Website:  https://openfoam.org
    \\  /    A nd           | Version:  dev
     \\/     M anipulation  |
\*---------------------------------------------------------------------------*/
FoamFile
{
    format      ascii;
    class       surfaceScalarField;
    location    "45";
    object      phi;
}
// * * * * * * * * * * * * * * * * * * * * * * * * * * * * * * * * * * * * * //

dimensions      [0 3 -1 0 0 0 0];

internalField   nonuniform List<scalar> 
10224
(
3.40954e-08
-3.46105e-08
8.80361e-08
-5.39412e-08
1.24563e-07
-3.65233e-08
1.25511e-07
-9.50028e-10
8.3868e-08
4.16382e-08
-1.64358e-09
8.55097e-08
-1.29199e-07
1.27557e-07
-2.95502e-07
1.66305e-07
-4.96491e-07
2.00989e-07
-7.27863e-07
2.3137e-07
-9.85345e-07
2.5748e-07
-1.26484e-06
2.79497e-07
-1.56252e-06
2.97675e-07
-1.87481e-06
3.12295e-07
-2.19845e-06
3.23642e-07
-2.53044e-06
3.31984e-07
-2.868e-06
3.37558e-07
-3.20857e-06
3.40565e-07
-3.54973e-06
3.41165e-07
-3.88921e-06
3.39482e-07
-4.22481e-06
3.35599e-07
-4.55438e-06
3.29571e-07
-4.8758e-06
3.21421e-07
-5.18696e-06
3.11153e-07
-5.48571e-06
2.98755e-07
-5.76992e-06
2.84205e-07
-6.0374e-06
2.67482e-07
-6.28597e-06
2.48569e-07
-6.51343e-06
2.27461e-07
-6.7176e-06
2.04173e-07
-6.89635e-06
1.78742e-07
-7.04758e-06
1.51236e-07
-7.16934e-06
1.21758e-07
-7.25979e-06
9.04465e-08
-7.31727e-06
5.74827e-08
-7.34036e-06
2.30891e-08
-7.32789e-06
-1.24682e-08
-7.27901e-06
-4.88807e-08
-7.19321e-06
-8.57988e-08
-7.07038e-06
-1.22835e-07
-6.91081e-06
-1.59568e-07
-6.71526e-06
-1.9555e-07
-6.48496e-06
-2.30308e-07
-6.2216e-06
-2.63361e-07
-5.92738e-06
-2.9422e-07
-5.60497e-06
-3.22403e-07
-5.25753e-06
-3.47445e-07
-4.88862e-06
-3.68906e-07
-4.50224e-06
-3.86384e-07
-4.10271e-06
-3.99525e-07
-3.69468e-06
-4.08032e-07
-3.283e-06
-4.11678e-07
-2.87269e-06
-4.10305e-07
-2.46885e-06
-4.0384e-07
-2.07656e-06
-3.92291e-07
-1.70081e-06
-3.75755e-07
-1.34639e-06
-3.54417e-07
-1.01784e-06
-3.2855e-07
-7.19322e-07
-2.98518e-07
-4.54551e-07
-2.64769e-07
-2.26706e-07
-2.27843e-07
-3.83331e-08
-1.88371e-07
1.08761e-07
-1.47093e-07
2.13642e-07
-1.04878e-07
2.76424e-07
-6.27804e-08
2.98536e-07
-2.21176e-08
2.83163e-07
1.5365e-08
2.35909e-07
4.7251e-08
1.65841e-07
7.0072e-08
8.72514e-08
7.8591e-08
2.25331e-08
6.4722e-08
2.25627e-08
5.40848e-08
-8.86959e-08
1.12651e-07
-1.12511e-07
1.18464e-07
-4.23378e-08
3.91426e-08
7.83682e-08
-1.41723e-07
2.22502e-07
-4.29458e-07
3.73246e-07
-8.22307e-07
5.20407e-07
-1.31412e-06
6.5812e-07
-1.89635e-06
7.83206e-07
-2.55915e-06
8.94175e-07
-3.29227e-06
9.90594e-07
-4.08544e-06
1.07267e-06
-4.92874e-06
1.14097e-06
-5.81273e-06
1.19628e-06
-6.72851e-06
1.23942e-06
-7.66775e-06
1.27122e-06
-8.62264e-06
1.29245e-06
-9.58584e-06
1.30376e-06
-1.05504e-05
1.30571e-06
-1.15096e-05
1.29872e-06
-1.24571e-05
1.2831e-06
-1.33866e-05
1.25907e-06
-1.42919e-05
1.22673e-06
-1.51669e-05
1.18615e-06
-1.60055e-05
1.13731e-06
-1.68015e-05
1.08019e-06
-1.75488e-05
1.01477e-06
-1.82413e-05
9.41053e-07
-1.88729e-05
8.59072e-07
-1.94376e-05
7.68947e-07
-1.99298e-05
6.70882e-07
-2.03437e-05
5.65186e-07
-2.06743e-05
4.52294e-07
-2.09166e-05
3.32775e-07
-2.10665e-05
2.07345e-07
-2.11202e-05
7.68667e-08
-2.10751e-05
-5.76425e-08
-2.09289e-05
-1.95017e-07
-2.06808e-05
-3.33949e-07
-2.03306e-05
-4.73e-07
-1.98796e-05
-6.10617e-07
-1.933e-05
-7.45152e-07
-1.86854e-05
-8.7489e-07
-1.79507e-05
-9.98073e-07
-1.7132e-05
-1.11294e-06
-1.62366e-05
-1.21774e-06
-1.52733e-05
-1.31081e-06
-1.42516e-05
-1.39057e-06
-1.31824e-05
-1.45559e-06
-1.20773e-05
-1.5046e-06
-1.09488e-05
-1.53655e-06
-9.80981e-06
-1.55064e-06
-8.67379e-06
-1.54632e-06
-7.55429e-06
-1.52335e-06
-6.4648e-06
-1.48177e-06
-5.41858e-06
-1.42198e-06
-4.42832e-06
-1.34467e-06
-3.506e-06
-1.25088e-06
-2.66254e-06
-1.14197e-06
-1.90764e-06
-1.01966e-06
-1.24949e-06
-8.85992e-07
-6.94475e-07
-7.43381e-07
-2.4691e-07
-5.94659e-07
9.13631e-08
-4.43157e-07
3.2143e-07
-2.92852e-07
4.47892e-07
-1.48583e-07
4.79754e-07
-1.65008e-08
4.31508e-07
9.55001e-08
3.24609e-07
1.76984e-07
1.89078e-07
2.1413e-07
6.43964e-08
1.89383e-07
8.69608e-08
3.74432e-08
-1.26136e-07
4.34969e-08
-1.18566e-07
-4.30789e-08
4.42397e-08
-2.58568e-07
2.93856e-07
-6.22587e-07
5.86519e-07
-1.14225e-06
8.92913e-07
-1.81584e-06
1.19399e-06
-2.63568e-06
1.47796e-06
-3.59042e-06
1.73794e-06
-4.66651e-06
1.97027e-06
-5.84939e-06
2.17347e-06
-7.12416e-06
2.34744e-06
-8.47611e-06
2.49292e-06
-9.89099e-06
2.61116e-06
-1.13552e-05
2.7036e-06
-1.28557e-05
2.77176e-06
-1.43803e-05
2.81705e-06
-1.59173e-05
2.84076e-06
-1.74555e-05
2.84395e-06
-1.89843e-05
2.82749e-06
-2.04932e-05
2.79201e-06
-2.19721e-05
2.73798e-06
-2.34111e-05
2.66566e-06
-2.48001e-05
2.57521e-06
-2.61295e-05
2.46669e-06
-2.73894e-05
2.34013e-06
-2.85702e-05
2.19555e-06
-2.96622e-05
2.03305e-06
-3.06559e-05
1.8528e-06
-3.15421e-05
1.65515e-06
-3.23119e-05
1.44062e-06
-3.29567e-05
1.20997e-06
-3.34686e-05
9.64205e-07
-3.38404e-05
7.04608e-07
-3.40658e-05
4.32768e-07
-3.41396e-05
1.50581e-07
-3.40575e-05
-1.39748e-07
-3.38168e-05
-4.35711e-07
-3.34162e-05
-7.34512e-07
-3.28561e-05
-1.03309e-06
-3.21386e-05
-1.32817e-06
-3.12675e-05
-1.61626e-06
-3.02486e-05
-1.89378e-06
-2.90896e-05
-2.15703e-06
-2.78002e-05
-2.40235e-06
-2.63919e-05
-2.62609e-06
-2.48779e-05
-2.82479e-06
-2.32733e-05
-2.99517e-06
-2.15946e-05
-3.13426e-06
-1.98598e-05
-3.23946e-06
-1.80877e-05
-3.3086e-06
-1.62983e-05
-3.34002e-06
-1.4512e-05
-3.33262e-06
-1.27495e-05
-3.28591e-06
-1.10312e-05
-3.20004e-06
-9.37736e-06
-3.07584e-06
-7.8072e-06
-2.91483e-06
-6.33886e-06
-2.71922e-06
-4.98888e-06
-2.49196e-06
-3.77186e-06
-2.23669e-06
-2.70004e-06
-1.95782e-06
-1.78288e-06
-1.66053e-06
-1.02663e-06
-1.35091e-06
-4.33742e-07
-1.03604e-06
-2.30831e-09
-7.24279e-07
2.74768e-07
-4.25647e-07
4.1056e-07
-1.52276e-07
4.25323e-07
8.07484e-08
3.47693e-07
2.54599e-07
2.15881e-07
3.45893e-07
7.86875e-08
3.26587e-07
1.65645e-07
1.96547e-09
-1.28103e-07
-7.88437e-08
-3.77599e-08
-2.97549e-07
2.62944e-07
-6.87897e-07
6.84201e-07
-1.26821e-06
1.16683e-06
-2.04477e-06
1.66947e-06
-3.01477e-06
2.164e-06
-4.16898e-06
2.63217e-06
-5.49377e-06
3.06273e-06
-6.97282e-06
3.44932e-06
-8.58828e-06
3.78893e-06
-1.03217e-05
4.08082e-06
-1.21544e-05
4.3257e-06
-1.40685e-05
4.52516e-06
-1.60461e-05
4.68124e-06
-1.80705e-05
4.79612e-06
-2.01254e-05
4.87195e-06
-2.21953e-05
4.91067e-06
-2.42653e-05
4.91395e-06
-2.63209e-05
4.88315e-06
-2.83482e-05
4.81932e-06
-3.03335e-05
4.72322e-06
-3.22632e-05
4.59534e-06
-3.4124e-05
4.43602e-06
-3.59027e-05
4.24542e-06
-3.75863e-05
4.0237e-06
-3.91617e-05
3.77101e-06
-4.06163e-05
3.48764e-06
-4.19375e-05
3.17402e-06
-4.31133e-05
2.83086e-06
-4.41318e-05
2.45919e-06
-4.49822e-05
2.06039e-06
-4.56543e-05
1.6363e-06
-4.61389e-05
1.1892e-06
-4.6428e-05
7.21862e-07
-4.6515e-05
2.37569e-07
-4.63949e-05
-2.59892e-07
-4.60643e-05
-7.66243e-07
-4.55221e-05
-1.27674e-06
-4.4769e-05
-1.78622e-06
-4.3808e-05
-2.28916e-06
-4.26445e-05
-2.77974e-06
-4.12864e-05
-3.25193e-06
-3.97438e-05
-3.6996e-06
-3.80295e-05
-4.11661e-06
-3.61587e-05
-4.49697e-06
-3.41486e-05
-4.83488e-06
-3.20188e-05
-5.12493e-06
-2.97908e-05
-5.36222e-06
-2.74878e-05
-5.54244e-06
-2.51344e-05
-5.66202e-06
-2.27562e-05
-5.71823e-06
-2.03796e-05
-5.70926e-06
-1.80311e-05
-5.63434e-06
-1.57374e-05
-5.49374e-06
-1.35244e-05
-5.2889e-06
-1.14168e-05
-5.02238e-06
-9.43809e-06
-4.69795e-06
-7.60947e-06
-4.32058e-06
-5.9497e-06
-3.89645e-06
-4.4745e-06
-3.43302e-06
-3.19596e-06
-2.93907e-06
-2.12205e-06
-2.42482e-06
-1.25596e-06
-1.90213e-06
-5.95439e-07
-1.38481e-06
-1.32033e-07
-8.89059e-07
1.49775e-07
-4.34091e-07
2.73464e-07
-4.29454e-08
2.7151e-07
2.56549e-07
1.86431e-07
4.30959e-07
7.22639e-08
4.40774e-07
2.37912e-07
-4.20285e-08
-8.60786e-08
-2.30004e-07
1.50215e-07
-6.0659e-07
6.39529e-07
-1.19839e-06
1.276e-06
-2.01917e-06
1.98761e-06
-3.07209e-06
2.72239e-06
-4.35197e-06
3.44388e-06
-5.84738e-06
4.12757e-06
-7.54244e-06
4.75779e-06
-9.41835e-06
5.32523e-06
-1.14545e-05
5.82512e-06
-1.36296e-05
6.25586e-06
-1.59218e-05
6.61795e-06
-1.83099e-05
6.9132e-06
-2.07728e-05
7.14413e-06
-2.32902e-05
7.3136e-06
-2.58427e-05
7.42442e-06
-2.84112e-05
7.47922e-06
-3.09776e-05
7.4803e-06
-3.3524e-05
7.42956e-06
-3.60332e-05
7.32848e-06
-3.84881e-05
7.17817e-06
-4.08722e-05
6.97942e-06
-4.31689e-05
6.73275e-06
-4.53621e-05
6.43854e-06
-4.74355e-05
6.09714e-06
-4.93734e-05
5.70892e-06
-5.11602e-05
5.27445e-06
-5.27808e-05
4.79456e-06
-5.42204e-05
4.27048e-06
-5.54651e-05
3.7039e-06
-5.65018e-05
3.09706e-06
-5.73183e-05
2.45283e-06
-5.79039e-05
1.77476e-06
-5.82491e-05
1.06709e-06
-5.83463e-05
3.34821e-07
-5.81899e-05
-4.16337e-07
-5.77762e-05
-1.17996e-06
-5.71039e-05
-1.94897e-06
-5.61745e-05
-2.71568e-06
-5.49918e-05
-3.47189e-06
-5.35625e-05
-4.209e-06
-5.18963e-05
-4.91812e-06
-5.00057e-05
-5.59022e-06
-4.7906e-05
-6.21627e-06
-4.56155e-05
-6.78746e-06
-4.31551e-05
-7.29531e-06
-4.05481e-05
-7.73189e-06
-3.78203e-05
-8.09e-06
-3.49994e-05
-8.36336e-06
-3.21147e-05
-8.54673e-06
-2.91968e-05
-8.63612e-06
-2.62772e-05
-8.62891e-06
-2.33876e-05
-8.52396e-06
-2.05596e-05
-8.32174e-06
-1.78241e-05
-8.02434e-06
-1.52109e-05
-7.6356e-06
-1.27477e-05
-7.16113e-06
-1.046e-05
-6.60828e-06
-8.3702e-06
-5.98626e-06
-6.49708e-06
-5.30614e-06
-4.85524e-06
-4.58091e-06
-3.45441e-06
-3.82565e-06
-2.29881e-06
-3.05773e-06
-1.38647e-06
-2.29715e-06
-7.0854e-07
-1.56699e-06
-2.48521e-07
-8.94099e-07
1.84562e-08
-3.09908e-07
1.26451e-07
1.48554e-07
1.1965e-07
4.37767e-07
5.37119e-08
5.06716e-07
2.91621e-07
-8.94411e-08
3.36075e-09
-3.95401e-07
4.56177e-07
-9.45299e-07
1.18943e-06
-1.75574e-06
2.08644e-06
-2.83352e-06
3.06539e-06
-4.1769e-06
4.06576e-06
-5.77702e-06
5.04399e-06
-7.61948e-06
5.97004e-06
-9.68582e-06
6.82413e-06
-1.19547e-05
7.59413e-06
-1.44031e-05
8.27352e-06
-1.7007e-05
8.85976e-06
-1.97421e-05
9.35303e-06
-2.25842e-05
9.75527e-06
-2.55095e-05
1.00694e-05
-2.84949e-05
1.0299e-05
-3.15178e-05
1.04473e-05
-3.45564e-05
1.05178e-05
-3.75894e-05
1.05133e-05
-4.05961e-05
1.04363e-05
-4.35564e-05
1.02887e-05
-4.64503e-05
1.00721e-05
-4.92582e-05
9.78738e-06
-5.1961e-05
9.43551e-06
-5.45395e-05
9.01708e-06
-5.69751e-05
8.53269e-06
-5.92492e-05
7.98304e-06
-6.13438e-05
7.36908e-06
-6.32415e-05
6.69218e-06
-6.49252e-05
5.95421e-06
-6.6379e-05
5.1577e-06
-6.75879e-05
4.30593e-06
-6.85381e-05
3.40304e-06
-6.92174e-05
2.45405e-06
-6.96152e-05
1.46497e-06
-6.97232e-05
4.42766e-07
-6.95349e-05
-6.04614e-07
-6.90466e-05
-1.66829e-06
-6.82571e-05
-2.73849e-06
-6.71681e-05
-3.80466e-06
-6.57844e-05
-4.85558e-06
-6.41139e-05
-5.87949e-06
-6.21678e-05
-6.86425e-06
-5.99605e-05
-7.79756e-06
-5.75096e-05
-8.66715e-06
-5.4836e-05
-9.46102e-06
-5.19637e-05
-1.01677e-05
-4.89192e-05
-1.07763e-05
-4.57321e-05
-1.12772e-05
-4.24337e-05
-1.16617e-05
-3.90575e-05
-1.19229e-05
-3.56386e-05
-1.20551e-05
-3.22125e-05
-1.20549e-05
-2.88157e-05
-1.19208e-05
-2.54841e-05
-1.16533e-05
-2.22532e-05
-1.12553e-05
-1.91568e-05
-1.0732e-05
-1.62269e-05
-1.0091e-05
-1.34926e-05
-9.34257e-06
-1.09798e-05
-8.4991e-06
-8.71021e-06
-7.57574e-06
-6.7009e-06
-6.59021e-06
-4.96359e-06
-5.56296e-06
-3.50391e-06
-4.51741e-06
-2.32082e-06
-3.48023e-06
-1.40596e-06
-2.48186e-06
-7.4299e-07
-1.55707e-06
-3.07048e-07
-7.45843e-07
-6.41541e-08
-9.43403e-08
2.9494e-08
3.44132e-07
2.83623e-08
5.07843e-07
3.19973e-07
-1.37672e-07
1.41034e-07
-5.66456e-07
8.84964e-07
-1.29784e-06
1.92081e-06
-2.33693e-06
3.12553e-06
-3.68204e-06
4.4105e-06
-5.32509e-06
5.70882e-06
-7.25249e-06
6.97139e-06
-9.44609e-06
8.16365e-06
-1.18843e-05
9.26239e-06
-1.45433e-05
1.0253e-05
-1.73973e-05
1.11275e-05
-2.04199e-05
1.18824e-05
-2.35845e-05
1.25176e-05
-2.68645e-05
1.30352e-05
-3.02335e-05
1.34385e-05
-3.3666e-05
1.37315e-05
-3.71369e-05
1.39182e-05
-4.06217e-05
1.40026e-05
-4.40966e-05
1.39882e-05
-4.75383e-05
1.3878e-05
-5.0924e-05
1.36744e-05
-5.42312e-05
1.33793e-05
-5.74379e-05
1.2994e-05
-6.05221e-05
1.25198e-05
-6.34625e-05
1.19575e-05
-6.62378e-05
1.1308e-05
-6.88274e-05
1.05726e-05
-7.12109e-05
9.7526e-06
-7.33687e-05
8.85001e-06
-7.5282e-05
7.86752e-06
-7.6933e-05
6.80864e-06
-7.83049e-05
5.67786e-06
-7.93826e-05
4.48076e-06
-8.01527e-05
3.22408e-06
-8.06035e-05
1.91579e-06
-8.07258e-05
5.65072e-07
-8.05128e-05
-8.17628e-07
-7.99604e-05
-2.22069e-06
-7.90675e-05
-3.6314e-06
-7.78361e-05
-5.03602e-06
-7.62717e-05
-6.41999e-06
-7.43831e-05
-7.76807e-06
-7.21828e-05
-9.06459e-06
-6.96867e-05
-1.02936e-05
-6.69145e-05
-1.14394e-05
-6.38892e-05
-1.24863e-05
-6.06372e-05
-1.34196e-05
-5.71881e-05
-1.42254e-05
-5.35743e-05
-1.4891e-05
-4.98308e-05
-1.54053e-05
-4.59944e-05
-1.57592e-05
-4.21039e-05
-1.59456e-05
-3.8199e-05
-1.59599e-05
-3.43199e-05
-1.57999e-05
-3.05067e-05
-1.54665e-05
-2.67988e-05
-1.49632e-05
-2.3234e-05
-1.42968e-05
-1.98481e-05
-1.3477e-05
-1.66737e-05
-1.25169e-05
-1.374e-05
-1.14327e-05
-1.10719e-05
-1.02439e-05
-8.68895e-06
-8.97316e-06
-6.60515e-06
-7.64676e-06
-4.82802e-06
-6.29452e-06
-3.35806e-06
-4.95019e-06
-2.18815e-06
-3.65177e-06
-1.30308e-06
-2.44216e-06
-6.79081e-07
-1.36984e-06
-2.83513e-07
-4.89915e-07
-7.44702e-08
1.35101e-07
-5.39259e-10
4.33911e-07
3.19425e-07
-1.85476e-07
3.26512e-07
-7.3828e-07
1.43777e-06
-1.65444e-06
2.83697e-06
-2.92696e-06
4.39805e-06
-4.54477e-06
6.02831e-06
-6.49255e-06
7.6566e-06
-8.75107e-06
9.2299e-06
-1.12978e-05
1.07104e-05
-1.41076e-05
1.20722e-05
-1.71535e-05
1.3299e-05
-2.04073e-05
1.43813e-05
-2.38403e-05
1.53154e-05
-2.74233e-05
1.61007e-05
-3.11277e-05
1.67396e-05
-3.4925e-05
1.72358e-05
-3.87874e-05
1.75938e-05
-4.26875e-05
1.78183e-05
-4.65986e-05
1.79138e-05
-5.04948e-05
1.78844e-05
-5.43504e-05
1.77336e-05
-5.81403e-05
1.74643e-05
-6.18398e-05
1.70787e-05
-6.54245e-05
1.65787e-05
-6.88705e-05
1.59657e-05
-7.21539e-05
1.52409e-05
-7.52516e-05
1.44058e-05
-7.81408e-05
1.34618e-05
-8.07991e-05
1.2411e-05
-8.32052e-05
1.12561e-05
-8.53384e-05
1.00007e-05
-8.71791e-05
8.64942e-06
-8.87094e-05
7.20816e-06
-8.99127e-05
5.68406e-06
-9.07744e-05
4.08575e-06
-9.1282e-05
2.42335e-06
-9.14254e-05
7.08466e-07
-9.11972e-05
-1.04575e-06
-9.05932e-05
-2.82473e-06
-8.96121e-05
-4.61253e-06
-8.82561e-05
-6.39202e-06
-8.6531e-05
-8.14503e-06
-8.44465e-05
-9.8526e-06
-8.20159e-05
-1.14952e-05
-7.92565e-05
-1.30531e-05
-7.61893e-05
-1.45065e-05
-7.28394e-05
-1.58363e-05
-6.92352e-05
-1.70238e-05
-6.54087e-05
-1.80519e-05
-6.13949e-05
-1.89048e-05
-5.72316e-05
-1.95685e-05
-5.29591e-05
-2.00317e-05
-4.86193e-05
-2.02854e-05
-4.42554e-05
-2.03238e-05
-3.99113e-05
-2.0144e-05
-3.56309e-05
-1.97468e-05
-3.14574e-05
-1.91367e-05
-2.74323e-05
-1.83218e-05
-2.3595e-05
-1.73143e-05
-1.99819e-05
-1.61301e-05
-1.66254e-05
-1.47892e-05
-1.35536e-05
-1.33158e-05
-1.07889e-05
-1.17378e-05
-8.34797e-06
-1.00877e-05
-6.24067e-06
-8.40182e-06
-4.46959e-06
-6.72125e-06
-3.02958e-06
-5.09177e-06
-1.9073e-06
-3.56443e-06
-1.08097e-06
-2.19618e-06
-5.202e-07
-1.05069e-06
-1.86001e-07
-1.99091e-07
-3.10361e-08
2.78946e-07
2.88387e-07
-2.32214e-07
5.58726e-07
-9.08112e-07
2.11367e-06
-2.00909e-06
3.93794e-06
-3.51607e-06
5.90504e-06
-5.4082e-06
7.92043e-06
-7.6623e-06
9.9107e-06
-1.02529e-05
1.18205e-05
-1.31526e-05
1.361e-05
-1.63322e-05
1.52518e-05
-1.97615e-05
1.67282e-05
-2.34095e-05
1.80294e-05
-2.72451e-05
1.91509e-05
-3.12369e-05
2.00926e-05
-3.53543e-05
2.08569e-05
-3.95666e-05
2.14482e-05
-4.38442e-05
2.18714e-05
-4.81577e-05
2.21318e-05
-5.24787e-05
2.22347e-05
-5.67789e-05
2.21847e-05
-6.1031e-05
2.19857e-05
-6.52077e-05
2.1641e-05
-6.92824e-05
2.11534e-05
-7.32287e-05
2.05251e-05
-7.70207e-05
1.97577e-05
-8.06328e-05
1.8853e-05
-8.40398e-05
1.78128e-05
-8.72171e-05
1.6639e-05
-9.01407e-05
1.53345e-05
-9.27873e-05
1.39027e-05
-9.51349e-05
1.23483e-05
-9.71625e-05
1.0677e-05
-9.88506e-05
8.89621e-06
-0.000100181
7.01486e-06
-0.000101139
5.04356e-06
-0.000101711
2.99472e-06
-0.000101885
8.82565e-07
-0.000101653
-1.2769e-06
-0.000101012
-3.46596e-06
-9.99595e-05
-5.66528e-06
-9.84974e-05
-7.85411e-06
-9.6632e-05
-1.00105e-05
-9.43732e-05
-1.21114e-05
-9.17351e-05
-1.41333e-05
-8.87358e-05
-1.60523e-05
-8.53976e-05
-1.78447e-05
-8.1747e-05
-1.94869e-05
-7.7814e-05
-2.09568e-05
-7.36327e-05
-2.22332e-05
-6.92404e-05
-2.3297e-05
-6.46775e-05
-2.41314e-05
-5.9987e-05
-2.47223e-05
-5.52138e-05
-2.50586e-05
-5.04045e-05
-2.5133e-05
-4.56065e-05
-2.4942e-05
-4.08672e-05
-2.44861e-05
-3.62334e-05
-2.37705e-05
-3.17505e-05
-2.28048e-05
-2.74615e-05
-2.16033e-05
-2.34065e-05
-2.01851e-05
-1.96215e-05
-1.85742e-05
-1.61379e-05
-1.67994e-05
-1.29815e-05
-1.48942e-05
-1.01719e-05
-1.28973e-05
-7.72178e-06
-1.08519e-05
-5.63644e-06
-8.80659e-06
-3.91325e-06
-6.81495e-06
-2.54143e-06
-4.93625e-06
-1.5018e-06
-3.2358e-06
-7.66913e-07
-1.78558e-06
-3.01276e-07
-6.64725e-07
-6.20221e-08
3.96884e-08
2.26368e-07
-2.77605e-07
8.36331e-07
-1.07441e-06
2.91048e-06
-2.35814e-06
5.22167e-06
-4.09796e-06
7.64486e-06
-6.26312e-06
1.00856e-05
-8.82235e-06
1.24699e-05
-1.17436e-05
1.47418e-05
-1.4994e-05
1.68605e-05
-1.85402e-05
1.8798e-05
-2.23484e-05
2.05364e-05
-2.63847e-05
2.20657e-05
-3.06155e-05
2.33816e-05
-3.50072e-05
2.44843e-05
-3.95271e-05
2.53769e-05
-4.4143e-05
2.6064e-05
-4.88232e-05
2.65516e-05
-5.35368e-05
2.68454e-05
-5.82535e-05
2.69514e-05
-6.29435e-05
2.68747e-05
-6.75775e-05
2.66197e-05
-7.21269e-05
2.61904e-05
-7.65631e-05
2.55896e-05
-8.08581e-05
2.48201e-05
-8.49842e-05
2.38839e-05
-8.89143e-05
2.2783e-05
-9.26213e-05
2.15198e-05
-9.60791e-05
2.00969e-05
-9.92622e-05
1.85176e-05
-0.000102146
1.67863e-05
-0.000104706
1.49088e-05
-0.000106921
1.28921e-05
-0.00010877
1.07451e-05
-0.000110234
8.47859e-06
-0.000111296
6.10529e-06
-0.000111941
3.64003e-06
-0.000112158
1.09972e-06
-0.000111938
-1.49662e-06
-0.000111276
-4.128e-06
-0.00011017
-6.77155e-06
-0.000108622
-9.40271e-06
-0.000106637
-1.19955e-05
-0.000104225
-1.45228e-05
-0.000101402
-1.69568e-05
-9.81848e-05
-1.92692e-05
-9.45977e-05
-2.14317e-05
-9.06678e-05
-2.34168e-05
-8.64267e-05
-2.51979e-05
-8.19099e-05
-2.675e-05
-7.71567e-05
-2.80502e-05
-7.22098e-05
-2.90783e-05
-6.71147e-05
-2.98174e-05
-6.19192e-05
-3.02541e-05
-5.66731e-05
-3.03792e-05
-5.14269e-05
-3.01882e-05
-4.62316e-05
-2.96814e-05
-4.11379e-05
-2.88643e-05
-3.61948e-05
-2.77479e-05
-3.14493e-05
-2.63487e-05
-2.69454e-05
-2.4689e-05
-2.27228e-05
-2.27967e-05
-1.88168e-05
-2.07054e-05
-1.52567e-05
-1.84543e-05
-1.20657e-05
-1.60883e-05
-9.25974e-06
-1.36579e-05
-6.84733e-06
-1.1219e-05
-4.82897e-06
-8.83332e-06
-3.19689e-06
-6.56833e-06
-1.93508e-06
-4.49761e-06
-1.01942e-06
-2.70124e-06
-4.18183e-07
-1.26596e-06
-9.294e-08
-2.85559e-07
1.33432e-07
-3.21536e-07
1.15787e-06
-1.23634e-06
3.82528e-06
-2.69937e-06
6.6847e-06
-4.6685e-06
9.614e-06
-7.10326e-06
1.25204e-05
-9.96418e-06
1.53308e-05
-1.32124e-05
1.799e-05
-1.68096e-05
2.04576e-05
-2.07177e-05
2.27061e-05
-2.48992e-05
2.4718e-05
-2.93173e-05
2.64838e-05
-3.39356e-05
2.8e-05
-3.87187e-05
2.92674e-05
-4.36317e-05
3.02898e-05
-4.86406e-05
3.10729e-05
-5.37123e-05
3.16232e-05
-5.88142e-05
3.19474e-05
-6.39147e-05
3.20518e-05
-6.89823e-05
3.19423e-05
-7.39865e-05
3.16239e-05
-7.8897e-05
3.11008e-05
-8.36839e-05
3.03765e-05
-8.83176e-05
2.94538e-05
-9.27691e-05
2.83353e-05
-9.70096e-05
2.70235e-05
-0.000101011
2.5521e-05
-0.000104745
2.38311e-05
-0.000108185
2.19579e-05
-0.000111306
1.99066e-05
-0.000114081
1.76841e-05
-0.000116488
1.52988e-05
-0.000118504
1.27612e-05
-0.000120109
1.00839e-05
-0.000121285
7.28178e-06
-0.000122018
4.37223e-06
-0.000122293
1.37489e-06
-0.000122101
-1.68814e-06
-0.000121437
-4.79248e-06
-0.000120297
-7.91159e-06
-0.000118682
-1.1017e-05
-0.000116599
-1.40786e-05
-0.000114057
-1.70649e-05
-0.00011107
-1.99436e-05
-0.000107658
-2.26818e-05
-0.000103843
-2.52467e-05
-9.96537e-05
-2.7606e-05
-9.51228e-05
-2.97288e-05
-9.02872e-05
-3.15856e-05
-8.51879e-05
-3.31496e-05
-7.98693e-05
-3.43969e-05
-7.43795e-05
-3.53072e-05
-6.87689e-05
-3.58647e-05
-6.30902e-05
-3.60579e-05
-5.73973e-05
-3.5881e-05
-5.1745e-05
-3.53337e-05
-4.61874e-05
-3.44219e-05
-4.07778e-05
-3.31575e-05
-3.55672e-05
-3.15593e-05
-3.06038e-05
-2.96525e-05
-2.59315e-05
-2.74689e-05
-2.15898e-05
-2.50471e-05
-1.76121e-05
-2.2432e-05
-1.40254e-05
-1.9675e-05
-1.08497e-05
-1.68336e-05
-8.0972e-06
-1.39715e-05
-5.77187e-06
-1.11586e-05
-3.86952e-06
-8.47068e-06
-2.37765e-06
-5.98949e-06
-1.27571e-06
-3.80317e-06
-5.35793e-07
-2.00587e-06
-1.23587e-07
-6.97767e-07
9.8475e-09
-3.63965e-07
1.52183e-06
-1.39339e-06
4.85471e-06
-3.03135e-06
8.32266e-06
-5.22493e-06
1.18076e-05
-7.92421e-06
1.52196e-05
-1.10816e-05
1.84882e-05
-1.46514e-05
2.15598e-05
-1.85896e-05
2.43958e-05
-2.28535e-05
2.697e-05
-2.74018e-05
2.92663e-05
-3.21943e-05
3.12764e-05
-3.71924e-05
3.2998e-05
-4.23581e-05
3.44331e-05
-4.76548e-05
3.55866e-05
-5.3047e-05
3.64652e-05
-5.85e-05
3.70762e-05
-6.39799e-05
3.74273e-05
-6.94537e-05
3.75256e-05
-7.48887e-05
3.73774e-05
-8.02531e-05
3.69884e-05
-8.55154e-05
3.63631e-05
-9.06445e-05
3.55055e-05
-9.56095e-05
3.44188e-05
-0.00010038
3.31059e-05
-0.000104926
3.15697e-05
-0.000109219
2.98133e-05
-0.000113228
2.78405e-05
-0.000116926
2.56561e-05
-0.000120286
2.32664e-05
-0.000123281
2.06791e-05
-0.000125886
1.79042e-05
-0.000128079
1.49537e-05
-0.000129837
1.18422e-05
-0.000131142
8.58661e-06
-0.000131977
5.20686e-06
-0.000132327
1.72542e-06
-0.000132183
-1.83248e-06
-0.000131536
-5.43902e-06
-0.000130384
-9.06394e-06
-0.000128726
-1.26748e-05
-0.000126568
-1.62371e-05
-0.000123918
-1.9715e-05
-0.00012079
-2.30713e-05
-0.000117203
-2.62686e-05
-0.000113181
-2.9269e-05
-0.000108752
-3.20354e-05
-0.000103948
-3.4532e-05
-9.88092e-05
-3.67248e-05
-9.33763e-05
-3.85825e-05
-8.76962e-05
-4.0077e-05
-8.18187e-05
-4.11847e-05
-7.57972e-05
-4.18862e-05
-6.96871e-05
-4.2168e-05
-6.35459e-05
-4.20223e-05
-5.74317e-05
-4.14479e-05
-5.1403e-05
-4.04506e-05
-4.5517e-05
-3.90434e-05
-3.98294e-05
-3.72469e-05
-3.43928e-05
-3.50891e-05
-2.92559e-05
-3.26058e-05
-2.44627e-05
-2.98404e-05
-2.00512e-05
-2.68435e-05
-1.60531e-05
-2.36731e-05
-1.24925e-05
-2.03942e-05
-9.38585e-06
-1.70782e-05
-6.74133e-06
-1.38032e-05
-4.55858e-06
-1.06534e-05
-2.82888e-06
-7.71919e-06
-1.53543e-06
-5.09662e-06
-6.53998e-07
-2.8873e-06
-1.53991e-07
-1.19777e-06
-1.44143e-07
-4.04878e-07
1.92671e-06
-1.54529e-06
5.99512e-06
-3.35314e-06
1.01305e-05
-5.7653e-06
1.42197e-05
-8.72271e-06
1.81771e-05
-1.21699e-05
2.19354e-05
-1.60544e-05
2.54443e-05
-2.03264e-05
2.86679e-05
-2.49387e-05
3.15823e-05
-2.98459e-05
3.41735e-05
-3.50048e-05
3.64353e-05
-4.0374e-05
3.83671e-05
-4.59135e-05
3.99725e-05
-5.15848e-05
4.12579e-05
-5.73508e-05
4.22312e-05
-6.31755e-05
4.29009e-05
-6.90238e-05
4.32756e-05
-7.48615e-05
4.33632e-05
-8.06549e-05
4.31709e-05
-8.63712e-05
4.27046e-05
-9.19777e-05
4.19696e-05
-9.74423e-05
4.09701e-05
-0.000102733
3.97097e-05
-0.000107819
3.81917e-05
-0.000112668
3.64192e-05
-0.000117251
3.43959e-05
-0.000121537
3.21262e-05
-0.000125496
2.96155e-05
-0.000129101
2.68709e-05
-0.000132323
2.39014e-05
-0.000135137
2.07181e-05
-0.000137518
1.73347e-05
-0.000139443
1.37675e-05
-0.000140892
1.00358e-05
-0.000141847
6.16185e-06
-0.000142293
2.17097e-06
-0.000142217
-1.90851e-06
-0.00014161
-6.0453e-06
-0.000140469
-1.02054e-05
-0.000138792
-1.43522e-05
-0.000136582
-1.84469e-05
-0.000133848
-2.24491e-05
-0.000130602
-2.63168e-05
-0.000126863
-3.00073e-05
-0.000122655
-3.34778e-05
-0.000118004
-3.6686e-05
-0.000112945
-3.95908e-05
-0.000107517
-4.21533e-05
-0.000101762
-4.43373e-05
-9.57287e-05
-4.61103e-05
-8.94691e-05
-4.74443e-05
-8.30388e-05
-4.83165e-05
-7.64963e-05
-4.87105e-05
-6.99023e-05
-4.86162e-05
-6.3319e-05
-4.80312e-05
-5.68089e-05
-4.69607e-05
-5.0434e-05
-4.54184e-05
-4.42546e-05
-4.34263e-05
-3.83284e-05
-4.10153e-05
-3.27093e-05
-3.8225e-05
-2.74463e-05
-3.51034e-05
-2.25827e-05
-3.17071e-05
-1.81552e-05
-2.81006e-05
-1.41929e-05
-2.43564e-05
-1.0717e-05
-2.05541e-05
-7.73996e-06
-1.67802e-05
-5.26588e-06
-1.31275e-05
-3.29002e-06
-9.69504e-06
-1.79938e-06
-6.58727e-06
-7.73265e-07
-3.91342e-06
-1.84329e-07
-1.78671e-06
-3.28472e-07
-4.44264e-07
2.37098e-06
-1.69181e-06
7.24267e-06
-3.66403e-06
1.21027e-05
-6.2881e-06
1.68438e-05
-9.49626e-06
2.13852e-05
-1.32253e-05
2.56645e-05
-1.74163e-05
2.96352e-05
-2.20137e-05
3.32653e-05
-2.69656e-05
3.65342e-05
-3.22229e-05
3.94308e-05
-3.77392e-05
4.19515e-05
-4.34702e-05
4.40982e-05
-4.9374e-05
4.58764e-05
-5.54105e-05
4.72943e-05
-6.15409e-05
4.83616e-05
-6.77279e-05
4.9088e-05
-7.39356e-05
4.94832e-05
-8.01285e-05
4.95561e-05
-8.62722e-05
4.93146e-05
-9.2333e-05
4.87653e-05
-9.82773e-05
4.79139e-05
-0.000104072
4.6765e-05
-0.000109685
4.53226e-05
-0.000115084
4.35901e-05
-0.000120236
4.15713e-05
-0.00012511
3.92701e-05
-0.000129675
3.66913e-05
-0.000133901
3.38412e-05
-0.000137757
3.07276e-05
-0.000141216
2.73605e-05
-0.000144251
2.37522e-05
-0.000146834
1.9918e-05
-0.000148942
1.5876e-05
-0.000150554
1.16475e-05
-0.00015165
7.25725e-06
-0.000152212
2.73323e-06
-0.000152227
-1.89311e-06
-0.000151685
-6.58708e-06
-0.00015058
-1.13109e-05
-0.000148908
-1.60238e-05
-0.000146673
-2.06827e-05
-0.00014388
-2.52422e-05
-0.000140541
-2.96555e-05
-0.000136674
-3.38747e-05
-0.0001323
-3.78515e-05
-0.000127448
-4.15381e-05
-0.00012215
-4.48881e-05
-0.000116447
-4.78568e-05
-0.000110381
-5.04028e-05
-0.000104003
-5.24886e-05
-9.73659e-05
-5.40815e-05
-9.05278e-05
-5.51547e-05
-8.35502e-05
-5.56881e-05
-7.64975e-05
-5.5669e-05
-6.94358e-05
-5.50929e-05
-6.2432e-05
-5.39644e-05
-5.55532e-05
-5.22972e-05
-4.88649e-05
-5.01146e-05
-4.24302e-05
-4.745e-05
-3.63087e-05
-4.43464e-05
-3.05553e-05
-4.08567e-05
-2.52191e-05
-3.70433e-05
-2.03422e-05
-3.29775e-05
-1.59595e-05
-2.87392e-05
-1.20971e-05
-2.44164e-05
-8.77285e-06
-2.01045e-05
-5.99519e-06
-1.59052e-05
-3.76371e-06
-1.19265e-05
-2.06924e-06
-8.28174e-06
-8.94465e-07
-5.0882e-06
-2.14879e-07
-2.46629e-06
-5.43351e-07
-4.82102e-07
2.85308e-06
-1.83275e-06
8.59331e-06
-3.96341e-06
1.42334e-05
-6.79208e-06
1.96725e-05
-1.02427e-05
2.48358e-05
-1.42447e-05
2.96665e-05
-1.87327e-05
3.41232e-05
-2.36459e-05
3.81785e-05
-2.89276e-05
4.18159e-05
-3.4525e-05
4.50282e-05
-4.03885e-05
4.7815e-05
-4.64714e-05
5.0181e-05
-5.27295e-05
5.21346e-05
-5.91212e-05
5.3686e-05
-6.56062e-05
5.48466e-05
-7.21463e-05
5.56281e-05
-7.87043e-05
5.60412e-05
-8.52442e-05
5.6096e-05
-9.17306e-05
5.58011e-05
-9.81292e-05
5.51639e-05
-0.000104406
5.41905e-05
-0.000110527
5.2886e-05
-0.000116459
5.12546e-05
-0.000122169
4.93002e-05
-0.000127624
4.70266e-05
-0.000132792
4.44383e-05
-0.000137642
4.15405e-05
-0.000142141
3.83401e-05
-0.000146258
3.48455e-05
-0.000149966
3.10677e-05
-0.000153234
2.70202e-05
-0.000156035
2.27196e-05
-0.000158345
1.81857e-05
-0.000160139
1.34418e-05
-0.000161397
8.51494e-06
-0.000162099
3.43575e-06
-0.000162231
-1.76134e-06
-0.00016178
-7.03827e-06
-0.000160737
-1.23535e-05
-0.000159099
-1.76623e-05
-0.000156864
-2.29169e-05
-0.000154039
-2.80673e-05
-0.000150633
-3.30615e-05
-0.000146662
-3.78461e-05
-0.000142146
-4.23672e-05
-0.000137113
-4.65713e-05
-0.000131595
-5.04057e-05
-0.000125632
-5.38201e-05
-0.000119268
-5.67671e-05
-0.000112553
-5.92037e-05
-0.000105542
-6.10919e-05
-9.82968e-05
-6.24e-05
-9.0881e-05
-6.31039e-05
-8.33625e-05
-6.31874e-05
-7.58118e-05
-6.26437e-05
-6.83006e-05
-6.14756e-05
-6.09011e-05
-5.96967e-05
-5.36847e-05
-5.73311e-05
-4.67205e-05
-5.44142e-05
-4.00744e-05
-5.09925e-05
-3.38077e-05
-4.71235e-05
-2.79758e-05
-4.28752e-05
-2.26274e-05
-3.83259e-05
-1.78032e-05
-3.35634e-05
-1.35354e-05
-2.86843e-05
-9.84703e-06
-2.37928e-05
-6.75176e-06
-1.90004e-05
-4.25359e-06
-1.44247e-05
-2.34728e-06
-1.01881e-05
-1.01875e-06
-6.41672e-06
-2.45988e-07
-3.23906e-06
-7.8934e-07
-5.18355e-07
3.37143e-06
-1.96788e-06
1.00428e-05
-4.25068e-06
1.65162e-05
-7.27605e-06
2.26978e-05
-1.096e-05
2.85198e-05
-1.52251e-05
3.39316e-05
-1.99998e-05
3.88979e-05
-2.52179e-05
4.33966e-05
-3.08184e-05
4.74165e-05
-3.67449e-05
5.09546e-05
-4.29445e-05
5.40146e-05
-4.93682e-05
5.66048e-05
-5.597e-05
5.87363e-05
-6.27063e-05
6.04223e-05
-6.95359e-05
6.16762e-05
-7.64193e-05
6.25115e-05
-8.33186e-05
6.29405e-05
-9.01971e-05
6.29744e-05
-9.70188e-05
6.26229e-05
-0.000103749
6.1894e-05
-0.000110353
6.07943e-05
-0.000116796
5.93293e-05
-0.000123045
5.75036e-05
-0.000129066
5.53213e-05
-0.000134826
5.27866e-05
-0.000140292
4.99041e-05
-0.000145431
4.66795e-05
-0.000150211
4.31199e-05
-0.0001546
3.92347e-05
-0.000158568
3.50354e-05
-0.000162084
3.05368e-05
-0.000165121
2.57565e-05
-0.000167651
2.07158e-05
-0.000169649
1.54401e-05
-0.000171093
9.95831e-06
-0.000171961
4.30367e-06
-0.000172236
-1.48655e-06
-0.000171903
-7.37107e-06
-0.000170952
-1.33047e-05
-0.000169375
-1.92386e-05
-0.000167172
-2.51206e-05
-0.000164343
-3.08958e-05
-0.000160898
-3.6507e-05
-0.000156849
-4.18951e-05
-0.000152216
-4.70003e-05
-0.000147024
-5.17629e-05
-0.000141306
-5.6124e-05
-0.000135099
-6.00267e-05
-0.000128449
-6.34173e-05
-0.000121406
-6.62464e-05
-0.000114028
-6.84702e-05
-0.000106376
-7.00515e-05
-9.8519e-05
-7.0961e-05
-9.05277e-05
-7.11788e-05
-8.24768e-05
-7.06945e-05
-7.44435e-05
-6.9509e-05
-6.65054e-05
-6.76347e-05
-5.87402e-05
-6.50963e-05
-5.12237e-05
-6.19307e-05
-4.40287e-05
-5.81875e-05
-3.72235e-05
-5.39286e-05
-3.08707e-05
-4.92279e-05
-2.50261e-05
-4.41706e-05
-1.9737e-05
-3.88525e-05
-1.50423e-05
-3.3379e-05
-1.09709e-05
-2.78642e-05
-7.5419e-06
-2.24295e-05
-4.76408e-06
-1.72025e-05
-2.63623e-06
-1.23159e-05
-1.14748e-06
-7.90547e-06
-2.78047e-07
-4.10849e-06
-1.06739e-06
-5.52968e-07
3.9244e-06
-2.09695e-06
1.15868e-05
-4.52519e-06
1.89444e-05
-7.73879e-06
2.59114e-05
-1.16464e-05
3.24274e-05
-1.61637e-05
3.84489e-05
-2.12136e-05
4.39477e-05
-2.67248e-05
4.89078e-05
-3.26321e-05
5.33238e-05
-3.88754e-05
5.71979e-05
-4.53991e-05
6.05384e-05
-5.21518e-05
6.33575e-05
-5.90855e-05
6.567e-05
-6.61552e-05
6.7492e-05
-7.33185e-05
6.88395e-05
-8.0535e-05
6.9728e-05
-8.77661e-05
7.01716e-05
-9.49745e-05
7.01828e-05
-0.000102124
6.97723e-05