/*--------------------------------*- C++ -*----------------------------------*\
  =========                 |
  \\      /  F ield         | OpenFOAM: The Open Source CFD Toolbox
   \\    /   O peration     | Website:  https://openfoam.org
    \\  /    A nd           | Version:  dev
     \\/     M anipulation  |
\*---------------------------------------------------------------------------*/
FoamFile
{
    format      ascii;
    class       volVectorField;
    location    "45";
    object      U;
}
// * * * * * * * * * * * * * * * * * * * * * * * * * * * * * * * * * * * * * //

dimensions      [0 1 -1 0 0 0 0];

internalField   nonuniform List<vector> 
5184
(
(1.24363e-05 -1.26069e-05 0)
(4.53471e-05 -2.08335e-05 0)
(8.04513e-05 -1.7229e-05 0)
(9.60871e-05 -8.19086e-06 0)
(8.22511e-05 2.67083e-06 0)
(3.65459e-05 1.36201e-05 0)
(-4.04864e-05 2.38502e-05 0)
(-0.000146829 3.30557e-05 0)
(-0.000279689 4.11159e-05 0)
(-0.000436011 4.80364e-05 0)
(-0.000612671 5.38792e-05 0)
(-0.000806634 5.87292e-05 0)
(-0.00101503 6.26786e-05 0)
(-0.0012352 6.58187e-05 0)
(-0.00146467 6.82341e-05 0)
(-0.0017012 7.00004e-05 0)
(-0.0019427 7.1182e-05 0)
(-0.00218726 7.18316e-05 0)
(-0.0024331 7.19898e-05 0)
(-0.00267853 7.1686e-05 0)
(-0.00292194 7.09396e-05 0)
(-0.00316178 6.97611e-05 0)
(-0.00339651 6.81534e-05 0)
(-0.00362461 6.61137e-05 0)
(-0.00384456 6.36347e-05 0)
(-0.0040548 6.07067e-05 0)
(-0.00425378 5.73189e-05 0)
(-0.00443994 5.3462e-05 0)
(-0.00461168 4.91287e-05 0)
(-0.00476744 4.43161e-05 0)
(-0.00490564 3.90268e-05 0)
(-0.00502478 3.32698e-05 0)
(-0.00512337 2.70624e-05 0)
(-0.00520005 2.04307e-05 0)
(-0.00525356 1.34102e-05 0)
(-0.00528278 6.04694e-06 0)
(-0.00528676 -1.6031e-06 0)
(-0.00526478 -9.47339e-06 0)
(-0.00521634 -1.74874e-05 0)
(-0.0051412 -2.55591e-05 0)
(-0.00503944 -3.35942e-05 0)
(-0.00491142 -4.1491e-05 0)
(-0.00475785 -4.91423e-05 0)
(-0.0045798 -5.64369e-05 0)
(-0.00437865 -6.32622e-05 0)
(-0.00415617 -6.95064e-05 0)
(-0.00391445 -7.50606e-05 0)
(-0.00365592 -7.98219e-05 0)
(-0.00338331 -8.36957e-05 0)
(-0.00309963 -8.65979e-05 0)
(-0.00280811 -8.84581e-05 0)
(-0.00251218 -8.92211e-05 0)
(-0.00221542 -8.88488e-05 0)
(-0.00192147 -8.73214e-05 0)
(-0.00163402 -8.46387e-05 0)
(-0.0013567 -8.08199e-05 0)
(-0.00109306 -7.59043e-05 0)
(-0.000846467 -6.99506e-05 0)
(-0.000620066 -6.30366e-05 0)
(-0.000416711 -5.52585e-05 0)
(-0.0002389 -4.67307e-05 0)
(-8.87105e-05 -3.75858e-05 0)
(3.2268e-05 -2.79788e-05 0)
(0.000123023 -1.80925e-05 0)
(0.000183222 -8.15293e-06 0)
(0.000213368 1.54536e-06 0)
(0.000215049 1.05789e-05 0)
(0.000191321 1.83111e-05 0)
(0.000147216 2.37288e-05 0)
(9.08307e-05 2.51388e-05 0)
(3.6633e-05 1.98561e-05 0)
(6.22409e-06 6.24778e-06 0)
(2.09209e-05 -4.57439e-05 0)
(6.57831e-05 -6.56279e-05 0)
(9.48889e-05 -4.05284e-05 0)
(7.29821e-05 7.64744e-06 0)
(-1.87744e-05 6.56946e-05 0)
(-0.000187201 0.00012602 0)
(-0.000432886 0.000184338 0)
(-0.000752613 0.000238402 0)
(-0.00114084 0.000287067 0)
(-0.00159078 0.000329891 0)
(-0.00209508 0.000366835 0)
(-0.0026463 0.000398088 0)
(-0.00323712 0.000423961 0)
(-0.00386055 0.000444821 0)
(-0.00450998 0.000461045 0)
(-0.00517922 0.000472993 0)
(-0.00586245 0.000480986 0)
(-0.00655423 0.000485302 0)
(-0.00724943 0.000486163 0)
(-0.00794316 0.000483739 0)
(-0.00863072 0.000478154 0)
(-0.00930755 0.000469483 0)
(-0.00996918 0.000457764 0)
(-0.0106112 0.000443008 0)
(-0.0112291 0.000425201 0)
(-0.0118187 0.000404322 0)
(-0.0123753 0.000380344 0)
(-0.0128947 0.000353252 0)
(-0.0133725 0.000323046 0)
(-0.0138042 0.000289752 0)
(-0.0141857 0.000253431 0)
(-0.0145128 0.000214186 0)
(-0.0147817 0.000172167 0)
(-0.0149887 0.000127577 0)
(-0.0151306 8.06755e-05 0)
(-0.0152045 3.17821e-05 0)
(-0.015208 -1.87241e-05 0)
(-0.0151394 -7.04047e-05 0)
(-0.0149975 -0.000122765 0)
(-0.014782 -0.000175256 0)
(-0.0144933 -0.000227284 0)
(-0.0141325 -0.000278217 0)
(-0.0137019 -0.000327393 0)
(-0.0132043 -0.000374133 0)
(-0.0126439 -0.000417752 0)
(-0.0120254 -0.000457575 0)
(-0.0113547 -0.000492948 0)
(-0.0106383 -0.000523258 0)
(-0.00988359 -0.000547943 0)
(-0.00909873 -0.000566508 0)
(-0.00829241 -0.00057854 0)
(-0.0074738 -0.00058372 0)
(-0.00665244 -0.000581833 0)
(-0.00583808 -0.000572775 0)
(-0.0050405 -0.000556562 0)
(-0.00426937 -0.000533333 0)
(-0.00353408 -0.000503352 0)
(-0.00284354 -0.000467009 0)
(-0.00220605 -0.000424819 0)
(-0.00162908 -0.000377423 0)
(-0.00111911 -0.000325589 0)
(-0.000681441 -0.000270224 0)
(-0.00031998 -0.000212388 0)
(-3.70145e-05 -0.000153335 0)
(0.000167091 -9.45754e-05 0)
(0.000294261 -3.79884e-05 0)
(0.000349249 1.39651e-05 0)
(0.000340331 5.79822e-05 0)
(0.000280009 8.94683e-05 0)
(0.000186141 0.000101919 0)
(8.6402e-05 8.65594e-05 0)
(1.96855e-05 3.65065e-05 0)
(1.76758e-05 -8.12719e-05 0)
(4.14363e-05 -9.50104e-05 0)
(1.97413e-05 -1.9122e-05 0)
(-8.38592e-05 0.000105955 0)
(-0.000290152 0.000254706 0)
(-0.000607885 0.000410683 0)
(-0.00103832 0.000563565 0)
(-0.00157765 0.000707211 0)
(-0.0022187 0.00083817 0)
(-0.00295228 0.000954732 0)
(-0.00376812 0.0010563 0)
(-0.00465549 0.00114298 0)
(-0.00560368 0.00121526 0)
(-0.00660221 0.00127389 0)
(-0.00764103 0.00131968 0)
(-0.00871058 0.00135346 0)
(-0.00980176 0.00137599 0)
(-0.010906 0.00138796 0)
(-0.012015 0.00138992 0)
(-0.013121 0.00138231 0)
(-0.0142164 0.00136547 0)
(-0.0152938 0.00133962 0)
(-0.016346 0.00130489 0)
(-0.0173659 0.00126134 0)
(-0.0183463 0.00120898 0)
(-0.0192801 0.00114779 0)
(-0.0201605 0.00107778 0)
(-0.0209804 0.000998954 0)
(-0.021733 0.000911375 0)
(-0.0224114 0.000815184 0)
(-0.023009 0.000710612 0)
(-0.0235197 0.000598005 0)
(-0.0239375 0.000477837 0)
(-0.0242568 0.000350723 0)
(-0.0244729 0.000217429 0)
(-0.0245814 7.88791e-05 0)
(-0.024579 -6.38455e-05 0)
(-0.0244631 -0.000209509 0)
(-0.0242323 -0.000356727 0)
(-0.0238863 -0.000503982 0)
(-0.0234258 -0.000649637 0)
(-0.022853 -0.000791958 0)
(-0.0221714 -0.000929144 0)
(-0.0213858 -0.00105935 0)
(-0.0205025 -0.00118072 0)
(-0.0195291 -0.00129144 0)
(-0.0184746 -0.00138976 0)
(-0.0173491 -0.00147402 0)
(-0.0161641 -0.00154273 0)
(-0.0149319 -0.00159457 0)
(-0.013666 -0.00162844 0)
(-0.0123803 -0.00164351 0)
(-0.0110894 -0.00163921 0)
(-0.00980818 -0.00161528 0)
(-0.00855147 -0.00157179 0)
(-0.00733401 -0.00150915 0)
(-0.00617004 -0.00142811 0)
(-0.00507311 -0.00132976 0)
(-0.00405575 -0.00121556 0)
(-0.00312924 -0.0010873 0)
(-0.00230333 -0.000947173 0)
(-0.0015859 -0.00079774 0)
(-0.000982691 -0.000642012 0)
(-0.000496936 -0.00048352 0)
(-0.000128942 -0.000326465 0)
(0.000124363 -0.000175939 0)
(0.000270084 -3.82607e-05 0)
(0.000320076 7.85524e-05 0)
(0.000291478 0.0001642 0)
(0.000207518 0.000205509 0)
(0.000102497 0.000186364 0)
(2.49874e-05 9.04298e-05 0)
(8.86109e-06 -9.77672e-05 0)
(-6.94796e-06 -7.31725e-05 0)
(-0.000107498 8.47855e-05 0)
(-0.000322305 0.000318417 0)
(-0.000669617 0.000590219 0)
(-0.00115784 0.00087456 0)
(-0.00178773 0.0011544 0)
(-0.00255451 0.00141895 0)
(-0.00344963 0.00166173 0)
(-0.00446207 0.00187921 0)
(-0.00557934 0.00206983 0)
(-0.00678822 0.00223332 0)
(-0.00807531 0.00237027 0)
(-0.00942735 0.00248169 0)
(-0.0108314 0.00256887 0)
(-0.0122751 0.00263313 0)
(-0.0137465 0.00267577 0)
(-0.0152341 0.00269791 0)
(-0.0167271 0.00270056 0)
(-0.0182149 0.0026845 0)
(-0.0196873 0.00265032 0)
(-0.0211342 0.00259846 0)
(-0.022546 0.00252918 0)
(-0.0239129 0.00244264 0)
(-0.0252255 0.00233893 0)
(-0.0264743 0.00221807 0)
(-0.0276498 0.00208014 0)
(-0.0287429 0.00192524 0)
(-0.0297444 0.00175357 0)
(-0.0306454 0.00156549 0)
(-0.0314374 0.00136153 0)
(-0.0321121 0.00114241 0)
(-0.0326619 0.000909115 0)
(-0.0330799 0.000662884 0)
(-0.0333597 0.000405231 0)
(-0.0334961 0.000137958 0)
(-0.0334849 -0.000136844 0)
(-0.0333231 -0.000416803 0)
(-0.0330089 -0.000699284 0)
(-0.0325422 -0.000981407 0)
(-0.0319244 -0.00126008 0)
(-0.0311584 -0.00153206 0)
(-0.030249 -0.00179395 0)
(-0.0292027 -0.00204231 0)
(-0.0280277 -0.0022737 0)
(-0.0267342 -0.00248473 0)
(-0.0253338 -0.00267215 0)
(-0.0238397 -0.0028329 0)
(-0.022267 -0.00296422 0)
(-0.0206316 -0.00306368 0)
(-0.0189508 -0.00312925 0)
(-0.0172428 -0.00315939 0)
(-0.0155263 -0.00315309 0)
(-0.0138205 -0.00310988 0)
(-0.0121447 -0.00302993 0)
(-0.0105177 -0.00291402 0)
(-0.008958 -0.00276359 0)
(-0.00748295 -0.00258072 0)
(-0.00610873 -0.00236819 0)
(-0.00484983 -0.00212944 0)
(-0.00371875 -0.00186864 0)
(-0.0027256 -0.00159067 0)
(-0.00187771 -0.00130127 0)
(-0.0011792 -0.00100709 0)
(-0.000630546 -0.000715959 0)
(-0.000228034 -0.000437162 0)
(3.68174e-05 -0.000181843 0)
(0.000177917 3.63846e-05 0)
(0.000214995 0.000200798 0)
(0.000174225 0.000291 0)
(9.30833e-05 0.000282701 0)
(2.40402e-05 0.000147348 0)
(-2.11424e-06 -8.44583e-05 0)
(-6.72657e-05 2.08532e-05 0)
(-0.000264096 0.000295474 0)
(-0.000609819 0.000668151 0)
(-0.00111694 0.00109107 0)
(-0.00179167 0.0015303 0)
(-0.00263301 0.00196239 0)
(-0.0036346 0.00237187 0)
(-0.00478629 0.002749 0)
(-0.00607538 0.00308815 0)
(-0.0074875 0.00338654 0)
(-0.0090074 0.00364335 0)
(-0.0106195 0.00385903 0)
(-0.0123082 0.00403484 0)
(-0.0140582 0.00417243 0)
(-0.0158547 0.00427361 0)
(-0.0176833 0.0043402 0)
(-0.0195302 0.00437382 0)
(-0.021382 0.00437591 0)
(-0.0232258 0.00434764 0)
(-0.0250489 0.00428991 0)
(-0.026839 0.0042034 0)
(-0.028584 0.00408855 0)
(-0.030272 0.00394565 0)
(-0.0318912 0.00377492 0)
(-0.0334301 0.00357649 0)
(-0.034877 0.00335055 0)
(-0.0362206 0.00309739 0)
(-0.0374499 0.00281744 0)
(-0.0385542 0.00251137 0)
(-0.0395229 0.00218013 0)
(-0.0403465 0.00182498 0)
(-0.0410157 0.00144759 0)
(-0.0415223 0.00105 0)
(-0.0418588 0.000634689 0)
(-0.0420193 0.00020459 0)
(-0.0419988 -0.00023694 0)
(-0.041794 -0.000686111 0)
(-0.0414031 -0.00113873 0)
(-0.040826 -0.00159024 0)
(-0.0400646 -0.00203578 0)
(-0.0391228 -0.00247022 0)
(-0.0380065 -0.00288826 0)
(-0.0367235 -0.00328452 0)
(-0.035284 -0.00365362 0)
(-0.0337001 -0.00399029 0)
(-0.0319858 -0.00428946 0)
(-0.0301571 -0.00454638 0)
(-0.0282318 -0.00475677 0)
(-0.0262292 -0.00491684 0)
(-0.0241698 -0.00502348 0)
(-0.0220754 -0.0050743 0)
(-0.0199682 -0.00506773 0)
(-0.0178712 -0.00500308 0)
(-0.0158073 -0.00488062 0)
(-0.013799 -0.00470161 0)
(-0.0118683 -0.00446832 0)
(-0.0100361 -0.00418408 0)
(-0.00832145 -0.00385327 0)
(-0.00674184 -0.00348135 0)
(-0.00531219 -0.0030749 0)
(-0.00404461 -0.00264167 0)
(-0.00294797 -0.00219064 0)
(-0.00202742 -0.00173225 0)
(-0.0012839 -0.00127853 0)
(-0.000713641 -0.000843553 0)
(-0.000307633 -0.000443804 0)
(-5.10979e-05 -9.88557e-05 0)
(7.68465e-05 0.000167951 0)
(0.000103718 0.000328877 0)
(6.75639e-05 0.000351188 0)
(1.96788e-05 0.000194234 0)
(-1.36919e-05 -3.75809e-05 0)
(-0.000132842 0.000197345 0)
(-0.000435889 0.000626994 0)
(-0.000924819 0.00117059 0)
(-0.00160427 0.00177217 0)
(-0.0024768 0.00239084 0)
(-0.00353858 0.00299755 0)
(-0.0047809 0.00357248 0)
(-0.00619166 0.00410278 0)
(-0.00775634 0.00458068 0)
(-0.00945881 0.0050021 0)
(-0.011282 0.00536555 0)
(-0.0132084 0.00567127 0)
(-0.0152204 0.00592062 0)
(-0.0173009 0.00611559 0)
(-0.0194329 0.00625845 0)
(-0.0215998 0.00635146 0)
(-0.0237858 0.00639678 0)
(-0.0259754 0.00639626 0)
(-0.0281534 0.00635147 0)
(-0.0303051 0.00626366 0)
(-0.0324161 0.00613374 0)
(-0.0344723 0.00596239 0)
(-0.0364596 0.00575008 0)
(-0.0383642 0.00549717 0)
(-0.0401727 0.00520397 0)
(-0.0418714 0.00487087 0)
(-0.0434474 0.00449839 0)
(-0.0448876 0.0040873 0)
(-0.0461799 0.00363869 0)
(-0.0473122 0.00315405 0)
(-0.0482733 0.00263534 0)
(-0.0490529 0.00208505 0)
(-0.0496415 0.00150621 0)
(-0.050031 0.000902475 0)
(-0.0502144 0.000278108 0)
(-0.0501864 -0.000362026 0)
(-0.0499433 -0.00101247 0)
(-0.0494832 -0.00166722 0)
(-0.0488064 -0.00231977 0)
(-0.047915 -0.00296317 0)
(-0.0468138 -0.00359017 0)
(-0.0455096 -0.00419326 0)
(-0.0440114 -0.00476481 0)
(-0.042331 -0.00529723 0)
(-0.0404822 -0.00578308 0)
(-0.0384812 -0.00621522 0)
(-0.0363461 -0.00658699 0)
(-0.0340973 -0.00689231 0)
(-0.0317567 -0.00712588 0)
(-0.0293477 -0.00728332 0)
(-0.0268951 -0.00736126 0)
(-0.0244245 -0.00735749 0)
(-0.0219618 -0.00727107 0)
(-0.0195332 -0.00710236 0)
(-0.0171645 -0.00685318 0)
(-0.0148807 -0.00652675 0)
(-0.0127058 -0.0061278 0)
(-0.0106617 -0.00566258 0)
(-0.0087685 -0.00513886 0)
(-0.00704332 -0.00456599 0)
(-0.00550031 -0.00395496 0)
(-0.00414995 -0.00331848 0)
(-0.00299858 -0.00267115 0)
(-0.002048 -0.0020297 0)
(-0.00129491 -0.00141333 0)
(-0.000730545 -0.000844191 0)
(-0.000340151 -0.000347972 0)
(-0.000102765 4.5341e-05 0)
(9.26279e-06 0.000300798 0)
(3.25512e-05 0.000377583 0)
(1.36339e-05 0.000224639 0)
(-2.51886e-05 4.40587e-05 0)
(-0.00020005 0.000461312 0)
(-0.00061422 0.00108727 0)
(-0.00125322 0.00183515 0)
(-0.00211259 0.00264305 0)
(-0.00319018 0.00346472 0)
(-0.00447841 0.0042665 0)
(-0.00596557 0.00502494 0)
(-0.00763716 0.00572442 0)
(-0.00947661 0.00635524 0)
(-0.0114659 0.00691208 0)
(-0.0135863 0.00739277 0)
(-0.0158185 0.00779733 0)
(-0.0181433 0.00812719 0)
(-0.0205416 0.00838462 0)
(-0.0229948 0.00857228 0)
(-0.0254844 0.00869291 0)
(-0.0279928 0.00874911 0)
(-0.0305025 0.00874318 0)
(-0.0329967 0.00867709 0)
(-0.0354586 0.00855239 0)
(-0.037872 0.00837031 0)
(-0.040221 0.00813175 0)
(-0.0424896 0.00783738 0)
(-0.0446623 0.00748777 0)
(-0.0467237 0.00708346 0)
(-0.0486587 0.00662508 0)
(-0.0504526 0.00611349 0)
(-0.052091 0.00554986 0)
(-0.0535599 0.00493581 0)
(-0.0548461 0.0042735 0)
(-0.0559372 0.00356569 0)
(-0.0568216 0.00281585 0)
(-0.057489 0.00202818 0)
(-0.0579304 0.00120767 0)
(-0.0581382 0.000360096 0)
(-0.0581065 -0.000507958 0)
(-0.0578314 -0.00138916 0)
(-0.057311 -0.00227546 0)
(-0.0565456 -0.00315817 0)
(-0.0555378 -0.00402806 0)
(-0.0542928 -0.00487545 0)
(-0.0528182 -0.00569038 0)
(-0.0511243 -0.00646277 0)
(-0.0492239 -0.00718254 0)
(-0.0471324 -0.00783985 0)
(-0.0448675 -0.00842527 0)
(-0.0424496 -0.00892996 0)
(-0.0399009 -0.00934591 0)
(-0.0372459 -0.0096661 0)
(-0.0345103 -0.0098847 0)
(-0.0317216 -0.00999726 0)
(-0.0289081 -0.0100008 0)
(-0.0260987 -0.00989413 0)
(-0.0233223 -0.00967767 0)
(-0.0206078 -0.00935378 0)
(-0.017983 -0.00892675 0)
(-0.0154746 -0.00840285 0)
(-0.0131073 -0.00779036 0)
(-0.0109036 -0.00709958 0)
(-0.00888292 -0.00634291 0)
(-0.00706148 -0.00553487 0)
(-0.0054515 -0.00469222 0)
(-0.00406081 -0.00383406 0)
(-0.00289242 -0.00298208 0)
(-0.00194403 -0.0021609 0)
(-0.0012077 -0.00139845 0)
(-0.000669468 -0.000726596 0)
(-0.000309112 -0.000181841 0)
(-9.97811e-05 0.000193996 0)
(-7.67115e-06 0.000352783 0)
(6.87168e-06 0.000235131 0)
(-3.63476e-05 0.000160455 0)
(-0.000267009 0.000814626 0)
(-0.000793964 0.0016801 0)
(-0.00158608 0.00266684 0)
(-0.0026292 0.00370912 0)
(-0.00391576 0.00475687 0)
(-0.00543379 0.00577304 0)
(-0.007168 0.00673134 0)
(-0.00910105 0.00761396 0)
(-0.0112141 0.00840961 0)
(-0.0134871 0.00911195 0)
(-0.0158996 0.00971827 0)
(-0.0184305 0.0102284 0)
(-0.0210592 0.0106438 0)
(-0.0237648 0.0109671 0)
(-0.0265273 0.0112013 0)
(-0.0293266 0.0113496 0)
(-0.0321434 0.011415 0)
(-0.0349587 0.0114002 0)
(-0.0377539 0.0113076 0)
(-0.0405108 0.0111391 0)
(-0.0432114 0.0108962 0)
(-0.045838 0.01058 0)
(-0.0483733 0.0101915 0)
(-0.0508001 0.00973138 0)
(-0.0531015 0.00920055 0)
(-0.0552608 0.00859991 0)
(-0.0572619 0.00793073 0)
(-0.0590888 0.00719465 0)
(-0.0607265 0.00639394 0)
(-0.0621605 0.00553148 0)
(-0.0633772 0.004611 0)
(-0.0643641 0.00363705 0)
(-0.0651099 0.00261514 0)
(-0.0656049 0.00155174 0)
(-0.0658408 0.000454313 0)
(-0.0658113 -0.000668685 0)
(-0.0655122 -0.00180786 0)
(-0.0649415 -0.00295294 0)
(-0.0640994 -0.00409285 0)
(-0.0629888 -0.00521585 0)
(-0.0616153 -0.00630968 0)
(-0.0599871 -0.00736169 0)
(-0.0581152 -0.00835912 0)
(-0.0560135 -0.00928921 0)
(-0.0536986 -0.0101395 0)
(-0.0511897 -0.010898 0)
(-0.0485086 -0.0115536 0)
(-0.0456795 -0.0120961 0)
(-0.0427288 -0.0125166 0)
(-0.0396846 -0.0128077 0)
(-0.0365765 -0.0129636 0)
(-0.0334353 -0.0129806 0)
(-0.0302926 -0.012857 0)
(-0.02718 -0.0125934 0)
(-0.024129 -0.0121926 0)
(-0.0211702 -0.0116601 0)
(-0.0183329 -0.0110036 0)
(-0.0156446 -0.0102337 0)
(-0.0131301 -0.00936333 0)
(-0.0108113 -0.00840814 0)
(-0.00870664 -0.00738641 0)
(-0.00683022 -0.00631914 0)
(-0.0051917 -0.00523019 0)
(-0.00379568 -0.00414641 0)
(-0.00264131 -0.00309796 0)
(-0.00172201 -0.00211866 0)
(-0.0010252 -0.00124647 0)
(-0.000532045 -0.000524226 0)
(-0.000217167 -1.41576e-07 0)
(-5.0432e-05 0.000271216 0)
(-7.66415e-08 0.000224005 0)
(-4.7073e-05 0.00031097 0)
(-0.000332733 0.0012572 0)
(-0.000972124 0.00240644 0)
(-0.00191778 0.00366753 0)
(-0.00314568 0.00497269 0)
(-0.00464248 0.00626954 0)
(-0.00639134 0.00751882 0)
(-0.00837297 0.00869229 0)
(-0.0105669 0.00977062 0)
(-0.0129516 0.0107414 0)
(-0.015505 0.0115977 0)
(-0.0182048 0.0123363 0)
(-0.0210282 0.0129571 0)
(-0.023953 0.0134616 0)
(-0.0269571 0.0138528 0)
(-0.0300188 0.0141341 0)
(-0.0331168 0.0143091 0)
(-0.0362304 0.0143813 0)
(-0.039339 0.0143538 0)
(-0.0424227 0.0142292 0)
(-0.0454619 0.0140099 0)
(-0.0484372 0.0136977 0)
(-0.0513295 0.0132938 0)
(-0.0541199 0.0127996 0)
(-0.05679 0.0122161 0)
(-0.0593213 0.0115443 0)
(-0.061696 0.0107856 0)
(-0.0638966 0.00994161 0)
(-0.0659059 0.00901467 0)
(-0.0677077 0.00800765 0)
(-0.0692864 0.00692433 0)
(-0.0706274 0.00576942 0)
(-0.0717172 0.0045487 0)
(-0.0725437 0.00326908 0)
(-0.0730964 0.00193864 0)
(-0.0733664 0.000566669 0)
(-0.073347 -0.000836375 0)
(-0.0730335 -0.00225889 0)
(-0.0724236 -0.00368822 0)
(-0.0715175 -0.00511075 0)
(-0.0703181 -0.00651206 0)
(-0.0688313 -0.00787712 0)
(-0.0670655 -0.00919043 0)
(-0.0650324 -0.0104363 0)
(-0.0627465 -0.0115992 0)
(-0.0602255 -0.0126637 0)
(-0.0574896 -0.0136153 0)
(-0.0545621 -0.0144402 0)
(-0.0514686 -0.0151258 0)
(-0.0482373 -0.0156612 0)
(-0.0448982 -0.0160372 0)
(-0.041483 -0.0162467 0)
(-0.0380249 -0.0162849 0)
(-0.0345578 -0.0161496 0)
(-0.0311159 -0.0158414 0)
(-0.0277333 -0.0153637 0)
(-0.0244433 -0.0147229 0)
(-0.0212779 -0.0139286 0)
(-0.0182673 -0.0129933 0)
(-0.0154388 -0.0119329 0)
(-0.012817 -0.0107664 0)
(-0.0104224 -0.00951603 0)
(-0.00827174 -0.00820716 0)
(-0.00637659 -0.00686856 0)
(-0.00474355 -0.0055324 0)
(-0.00337365 -0.00423447 0)
(-0.00226211 -0.00301448 0)
(-0.00139822 -0.00191645 0)
(-0.00076499 -0.000989278 0)
(-0.000338987 -0.000287142 0)
(-9.41686e-05 0.000129771 0)
(-6.93941e-06 0.000190609 0)
(-5.73527e-05 0.000494699 0)
(-0.000396741 0.00178779 0)
(-0.00114696 0.00326541 0)
(-0.00224479 0.00483684 0)
(-0.00365648 0.00643375 0)
(-0.00536268 0.00800278 0)
(-0.00734147 0.00950357 0)
(-0.00956925 0.0109069 0)
(-0.0120221 0.0121927 0)
(-0.0146758 0.0133479 0)
(-0.0175059 0.0143652 0)
(-0.0204881 0.0152415 0)
(-0.0235981 0.0159767 0)
(-0.0268122 0.0165728 0)
(-0.0301068 0.017033 0)
(-0.0334591 0.0173611 0)
(-0.0368463 0.0175612 0)
(-0.0402467 0.0176372 0)
(-0.0436384 0.0175926 0)
(-0.0470003 0.0174306 0)
(-0.0503115 0.0171536 0)
(-0.0535513 0.0167638 0)
(-0.0566996 0.0162628 0)
(-0.0597361 0.015652 0)
(-0.0626412 0.0149329 0)
(-0.0653953 0.0141067 0)
(-0.0679794 0.0131753 0)
(-0.0703746 0.0121407 0)
(-0.0725629 0.0110059 0)
(-0.0745269 0.00977455 0)
(-0.07625 0.00845126 0)
(-0.0777166 0.00704189 0)
(-0.0789124 0.00555349 0)
(-0.0798243 0.00399446 0)
(-0.0804412 0.0023746 0)
(-0.0807535 0.000705101 0)
(-0.0807538 -0.00100146 0)
(-0.0804371 -0.00273116 0)
(-0.0798005 -0.00446883 0)
(-0.078844 -0.00619818 0)
(-0.0775704 -0.00790199 0)
(-0.0759855 -0.00956227 0)
(-0.074098 -0.0111605 0)
(-0.0719197 -0.012678 0)
(-0.0694658 -0.0140961 0)
(-0.0667544 -0.0153964 0)
(-0.0638067 -0.0165615 0)
(-0.0606472 -0.0175747 0)
(-0.0573026 -0.018421 0)
(-0.0538027 -0.0190872 0)
(-0.0501792 -0.0195621 0)
(-0.0464658 -0.019837 0)
(-0.0426979 -0.0199059 0)
(-0.0389115 -0.0197662 0)
(-0.0351435 -0.019418 0)
(-0.0314305 -0.0188653 0)
(-0.0278086 -0.0181155 0)
(-0.0243125 -0.0171797 0)
(-0.0209752 -0.0160729 0)
(-0.0178269 -0.0148137 0)
(-0.0148948 -0.0134245 0)
(-0.0122022 -0.0119316 0)
(-0.00976826 -0.010365 0)
(-0.00760711 -0.00875833 0)
(-0.00572766 -0.00714927 0)
(-0.0041332 -0.00557929 0)
(-0.00282115 -0.00409403 0)
(-0.00178303 -0.00274347 0)
(-0.00100407 -0.00158238 0)
(-0.000463025 -0.00067055 0)
(-0.000138062 -7.31723e-05 0)
(-1.35998e-05 0.000134861 0)
(-6.72043e-05 0.000710611 0)
(-0.000458805 0.00240449 0)
(-0.00131746 0.00425493 0)
(-0.0025649 0.00617282 0)
(-0.00415785 0.00809049 0)
(-0.00607102 0.00995482 0)
(-0.00827723 0.0117254 0)
(-0.0107485 0.0133729 0)
(-0.0134572 0.0148772 0)
(-0.0163761 0.0162253 0)
(-0.0194786 0.01741 0)
(-0.0227382 0.0184286 0)
(-0.026129 0.0192812 0)
(-0.0296258 0.0199704 0)
(-0.0332037 0.0204997 0)
(-0.0368387 0.0208737 0)
(-0.040507 0.0210968 0)
(-0.0441855 0.0211734 0)
(-0.0478516 0.0211074 0)
(-0.051483 0.0209024 0)
(-0.0550577 0.020561 0)
(-0.0585541 0.0200858 0)
(-0.0619508 0.0194787 0)
(-0.0652267 0.0187413 0)
(-0.0683609 0.0178753 0)
(-0.0713329 0.0168825 0)
(-0.0741226 0.0157649 0)
(-0.0767102 0.0145253 0)
(-0.0790766 0.0131671 0)
(-0.0812034 0.0116948 0)
(-0.083073 0.0101141 0)
(-0.084669 0.00843188 0)
(-0.0859761 0.00665654 0)
(-0.0869805 0.00479806 0)
(-0.0876702 0.00286797 0)
(-0.0880348 0.000879466 0)
(-0.0880664 -0.00115268 0)
(-0.087759 -0.00321215 0)
(-0.0871095 -0.00528116 0)
(-0.0861173 -0.00734065 0)
(-0.0847848 -0.00937045 0)
(-0.0831176 -0.0113495 0)
(-0.0811242 -0.0132562 0)
(-0.0788166 -0.0150685 0)
(-0.07621 -0.0167645 0)
(-0.0733231 -0.0183228 0)
(-0.0701776 -0.0197225 0)
(-0.0667987 -0.0209443 0)
(-0.0632145 -0.0219703 0)
(-0.0594557 -0.0227847 0)
(-0.0555559 -0.0233741 0)
(-0.0515505 -0.0237281 0)
(-0.0474767 -0.0238394 0)
(-0.0433732 -0.0237041 0)
(-0.0392792 -0.0233226 0)
(-0.0352339 -0.0226987 0)
(-0.0312764 -0.021841 0)
(-0.0274442 -0.020762 0)
(-0.0237732 -0.019479 0)
(-0.0202969 -0.0180134 0)
(-0.0170453 -0.0163911 0)
(-0.0140448 -0.0146425 0)
(-0.0113174 -0.0128022 0)
(-0.00888001 -0.0109091 0)
(-0.00674436 -0.00900622 0)
(-0.0049163 -0.00714087 0)
(-0.00339582 -0.00536461 0)
(-0.00217698 -0.00373339 0)
(-0.00124744 -0.00230774 0)
(-0.00058827 -0.00115281 0)
(-0.000181787 -0.000338451 0)
(-2.00315e-05 5.69269e-05 0)
(-7.66516e-05 0.000957627 0)
(-0.000518821 0.00310501 0)
(-0.00148304 0.00537211 0)
(-0.00287665 0.00767235 0)
(-0.00464726 0.00993977 0)
(-0.00676368 0.0121225 0)
(-0.00919352 0.014181 0)
(-0.0119042 0.0160868 0)
(-0.0148645 0.0178203 0)
(-0.0180442 0.0193693 0)
(-0.0214141 0.0207273 0)
(-0.0249456 0.021892 0)
(-0.0286112 0.0228644 0)
(-0.0323842 0.0236476 0)
(-0.0362386 0.0242459 0)
(-0.0401491 0.0246643 0)
(-0.0440909 0.0249081 0)
(-0.0480402 0.0249819 0)
(-0.0519731 0.0248901 0)
(-0.0558667 0.0246367 0)
(-0.0596979 0.0242248 0)
(-0.0634444 0.0236569 0)
(-0.0670838 0.0229354 0)
(-0.070594 0.0220622 0)
(-0.0739535 0.0210392 0)
(-0.0771406 0.0198685 0)
(-0.0801343 0.0185526 0)
(-0.082914 0.0170948 0)
(-0.0854597 0.0154992 0)
(-0.087752 0.0137711 0)
(-0.0897725 0.011917 0)
(-0.0915038 0.00994511 0)
(-0.0929298 0.00786517 0)
(-0.0940357 0.0056887 0)
(-0.0948087 0.00342905 0)
(-0.0952375 0.00110142 0)
(-0.0953134 -0.00127716 0)
(-0.0950296 -0.00368791 0)
(-0.0943823 -0.00611039 0)
(-0.0933702 -0.00852268 0)
(-0.0919951 -0.0109016 0)
(-0.0902619 -0.0132228 0)
(-0.088179 -0.0154614 0)
(-0.085758 -0.0175921 0)
(-0.0830141 -0.0195896 0)
(-0.079966 -0.0214288 0)
(-0.0766358 -0.0230858 0)
(-0.0730494 -0.0245378 0)
(-0.0692354 -0.0257641 0)
(-0.0652261 -0.0267458 0)
(-0.0610561 -0.0274674 0)
(-0.0567627 -0.0279162 0)
(-0.0523852 -0.0280833 0)
(-0.0479643 -0.0279638 0)
(-0.0435419 -0.0275574 0)
(-0.0391601 -0.0268682 0)
(-0.0348606 -0.0259053 0)
(-0.0306844 -0.024683 0)
(-0.0266706 -0.0232203 0)
(-0.0228558 -0.0215417 0)
(-0.0192735 -0.0196766 0)
(-0.0159535 -0.0176595 0)
(-0.012921 -0.0155297 0)
(-0.0101962 -0.0133313 0)
(-0.00779373 -0.0111129 0)
(-0.00572258 -0.00892773 0)
(-0.00398556 -0.00683336 0)
(-0.00257951 -0.00489171 0)
(-0.00149471 -0.00316909 0)
(-0.000714563 -0.00173593 0)
(-0.000225343 -0.00066663 0)
(-2.62614e-05 -4.29768e-05 0)
(-8.57164e-05 0.00123466 0)
(-0.000576739 0.0038868 0)
(-0.00164331 0.00661352 0)
(-0.00317907 0.00933153 0)
(-0.00512288 0.0119774 0)
(-0.00743784 0.0145014 0)
(-0.0100864 0.0168659 0)
(-0.0130315 0.0190439 0)
(-0.0162382 0.0210172 0)
(-0.0196732 0.0227748 0)
(-0.0233046 0.0243114 0)
(-0.0271021 0.0256258 0)
(-0.0310363 0.0267199 0)
(-0.035079 0.0275978 0)
(-0.039203 0.0282646 0)
(-0.0433821 0.028726 0)
(-0.0475906 0.0289879 0)
(-0.0518037 0.0290556 0)
(-0.0559969 0.0289339 0)
(-0.0601463 0.0286272 0)
(-0.0642283 0.0281388 0)
(-0.0682197 0.0274717 0)
(-0.0720973 0.0266284 0)
(-0.0758385 0.0256111 0)
(-0.0794208 0.0244219 0)
(-0.0828218 0.0230634 0)
(-0.0860198 0.0215385 0)
(-0.0889932 0.0198508 0)
(-0.0917212 0.0180052 0)
(-0.0941837 0.0160078 0)
(-0.0963612 0.013866 0)
(-0.0982356 0.0115893 0)
(-0.0997897 0.00918858 0)
(-0.101008 0.00667709 0)
(-0.101876 0.00406993 0)
(-0.102383 0.00138433 0)
(-0.102518 -0.00136043 0)
(-0.102274 -0.00414307 0)
(-0.101645 -0.00694045 0)
(-0.10063 -0.00972772 0)
(-0.0992293 -0.0124786 0)
(-0.0974476 -0.0151655 0)
(-0.0952921 -0.01776 0)
(-0.0927741 -0.0202333 0)
(-0.0899084 -0.0225565 0)
(-0.0867135 -0.024701 0)
(-0.0832117 -0.0266391 0)
(-0.0794289 -0.0283447 0)
(-0.0753947 -0.0297936 0)
(-0.071142 -0.0309641 0)
(-0.066707 -0.0318376 0)
(-0.0621284 -0.0323991 0)
(-0.0574474 -0.0326378 0)
(-0.0527072 -0.0325475 0)
(-0.0479522 -0.0321269 0)
(-0.0432274 -0.0313801 0)
(-0.0385778 -0.0303167 0)
(-0.0340477 -0.0289522 0)
(-0.0296796 -0.0273077 0)
(-0.025514 -0.0254105 0)
(-0.0215881 -0.0232934 0)
(-0.0179353 -0.020995 0)
(-0.0145846 -0.0185596 0)
(-0.0115597 -0.0160363 0)
(-0.00887886 -0.0134797 0)
(-0.00655426 -0.010949 0)
(-0.00459192 -0.00850773 0)
(-0.00299171 -0.0062241 0)
(-0.00174661 -0.00417024 0)
(-0.000842351 -0.00242198 0)
(-0.000268952 -0.00105835 0)
(-3.23485e-05 -0.000164716 0)
(-9.44137e-05 0.0015406 0)
(-0.000632521 0.00474715 0)
(-0.00179799 0.00797535 0)
(-0.00347142 0.0111458 0)
(-0.0055833 0.0141984 0)
(-0.00809125 0.0170864 0)
(-0.0109527 0.0197747 0)
(-0.0141262 0.0222386 0)
(-0.0175731 0.024462 0)
(-0.021257 0.0264358 0)
(-0.0251437 0.0281562 0)
(-0.0292004 0.0296236 0)
(-0.0333964 0.0308412 0)
(-0.037702 0.0318143 0)
(-0.0420889 0.032549 0)
(-0.0465298 0.0330519 0)
(-0.0509984 0.0333296 0)
(-0.0554688 0.0333881 0)
(-0.0599162 0.0332328 0)
(-0.0643159 0.0328681 0)
(-0.0686437 0.0322982 0)
(-0.0728757 0.031526 0)
(-0.0769884 0.0305544 0)
(-0.0809583 0.0293857 0)
(-0.0847622 0.0280225 0)
(-0.0883773 0.0264675 0)
(-0.091781 0.0247241 0)
(-0.0949511 0.0227964 0)
(-0.097866 0.0206898 0)
(-0.100505 0.0184112 0)
(-0.102847 0.0159691 0)
(-0.104874 0.0133737 0)
(-0.106567 0.0106377 0)
(-0.10791 0.00777561 0)
(-0.108888 0.00480433 0)
(-0.109487 0.00174311 0)
(-0.109697 -0.00138654 0)
(-0.109509 -0.00456086 0)
(-0.108917 -0.00775396 0)
(-0.107917 -0.0109381 0)
(-0.10651 -0.0140837 0)
(-0.104698 -0.0171599 0)
(-0.102488 -0.0201348 0)
(-0.0998902 -0.0229757 0)
(-0.0969189 -0.0256501 0)
(-0.0935921 -0.0281255 0)
(-0.0899318 -0.0303704 0)
(-0.0859641 -0.0323548 0)
(-0.0817189 -0.0340509 0)
(-0.0772299 -0.0354336 0)
(-0.0725343 -0.0364811 0)
(-0.0676724 -0.0371758 0)
(-0.0626875 -0.0375045 0)
(-0.0576248 -0.0374591 0)
(-0.0525317 -0.0370373 0)
(-0.0474561 -0.0362427 0)
(-0.0424464 -0.0350852 0)
(-0.0375507 -0.0335813 0)
(-0.0328153 -0.031754 0)
(-0.0282848 -0.0296332 0)
(-0.0240005 -0.0272553 0)
(-0.02 -0.024663 0)
(-0.0163163 -0.0219053 0)
(-0.0129773 -0.019037 0)
(-0.0100051 -0.0161183 0)
(-0.00741552 -0.0132146 0)
(-0.00521807 -0.010396 0)
(-0.00341584 -0.00773689 0)
(-0.00200465 -0.00531555 0)
(-0.000972511 -0.00321347 0)
(-0.000312984 -0.00151461 0)
(-3.83707e-05 -0.000308328 0)
(-0.000102751 0.00187436 0)
(-0.000686123 0.00568322 0)
(-0.00194683 0.00945347 0)
(-0.00375305 0.0131101 0)
(-0.00602733 0.0165971 0)
(-0.00872202 0.0198713 0)
(-0.0117897 0.0229009 0)
(-0.0151848 0.0256642 0)
(-0.0188648 0.028148 0)
(-0.0227905 0.0303454 0)
(-0.0269251 0.0322548 0)
(-0.031234 0.0338785 0)
(-0.0356845 0.0352214 0)
(-0.0402458 0.0362902 0)
(-0.0448885 0.0370924 0)
(-0.0495844 0.0376354 0)
(-0.0543063 0.0379269 0)
(-0.0590279 0.0379734 0)
(-0.0637237 0.037781 0)
(-0.0683685 0.0373547 0)
(-0.0729377 0.0366987 0)
(-0.0774068 0.0358164 0)
(-0.0817519 0.034711 0)
(-0.085949 0.0333849 0)
(-0.0899744 0.031841 0)
(-0.0938046 0.0300822 0)
(-0.0974166 0.0281123 0)
(-0.100788 0.0259359 0)
(-0.103895 0.0235589 0)
(-0.106717 0.0209889 0)
(-0.109233 0.0182353 0)
(-0.111423 0.0153094 0)
(-0.113267 0.0122249 0)
(-0.114749 0.00899807 0)
(-0.115851 0.0056474 0)
(-0.11656 0.00219408 0)
(-0.116863 -0.00133816 0)
(-0.11675 -0.00492312 0)
(-0.116213 -0.00853223 0)
(-0.115248 -0.0121347 0)
(-0.113853 -0.0156979 0)
(-0.112031 -0.0191874 0)
(-0.109785 -0.0225676 0)
(-0.107126 -0.0258023 0)
(-0.104066 -0.0288545 0)
(-0.100623 -0.031688 0)
(-0.0968186 -0.034267 0)
(-0.092678 -0.0365576 0)
(-0.0882315 -0.0385278 0)
(-0.0835134 -0.0401487 0)
(-0.0785618 -0.0413951 0)
(-0.0734185 -0.0422459 0)
(-0.0681286 -0.0426854 0)
(-0.0627399 -0.0427034 0)
(-0.0573022 -0.0422958 0)
(-0.051867 -0.0414654 0)
(-0.0464863 -0.0402222 0)
(-0.0412119 -0.0385834 0)
(-0.0360947 -0.0365736 0)
(-0.0311835 -0.0342253 0)
(-0.0265244 -0.0315782 0)
(-0.0221595 -0.0286792 0)
(-0.0181265 -0.0255822 0)
(-0.0144578 -0.0223475 0)
(-0.0111796 -0.0190415 0)
(-0.00831208 -0.0157359 0)
(-0.00586838 -0.0125075 0)
(-0.00385508 -0.00943739 0)
(-0.00227094 -0.00661023 0)
(-0.00110622 -0.0041136 0)
(-0.000357912 -0.00203689 0)
(-4.44181e-05 -0.000474078 0)
(-0.00011073 0.00223479 0)
(-0.000737484 0.00669203 0)
(-0.00208957 0.0110435 0)
(-0.00402336 0.0152191 0)
(-0.00645385 0.0191673 0)
(-0.00932841 0.0228493 0)
(-0.012595 0.0262374 0)
(-0.0162039 0.0293135 0)
(-0.0201092 0.0320677 0)
(-0.0242688 0.034496 0)
(-0.0286433 0.0365996 0)
(-0.0331963 0.0383829 0)
(-0.0378936 0.039853 0)
(-0.0427029 0.0410183 0)
(-0.047594 0.0418875 0)
(-0.0525376 0.0424697 0)
(-0.0575061 0.0427732 0)
(-0.0624727 0.0428055 0)
(-0.0674111 0.0425733 0)
(-0.0722961 0.0420821 0)
(-0.0771024 0.0413365 0)
(-0.0818055 0.0403402 0)
(-0.0863808 0.0390965 0)
(-0.0908041 0.0376082 0)
(-0.0950513 0.0358782 0)