/*--------------------------------*- C++ -*----------------------------------*\
  =========                 |
  \\      /  F ield         | OpenFOAM: The Open Source CFD Toolbox
   \\    /   O peration     | Website:  https://openfoam.org
    \\  /    A nd           | Version:  dev
     \\/     M anipulation  |
\*---------------------------------------------------------------------------*/
FoamFile
{
    format      ascii;
    class       volScalarField;
    location    "45";
    object      Ux;
}
// * * * * * * * * * * * * * * * * * * * * * * * * * * * * * * * * * * * * * //

dimensions      [0 1 -1 0 0 0 0];

internalField   nonuniform List<scalar> 
5184
(
1.24363e-05
4.53471e-05
8.04513e-05
9.60871e-05
8.22511e-05
3.65459e-05
-4.04864e-05
-0.000146829
-0.000279689
-0.000436011
-0.000612671
-0.000806634
-0.00101503
-0.0012352
-0.00146467
-0.0017012
-0.0019427
-0.00218726
-0.0024331
-0.00267853
-0.00292194
-0.00316178
-0.00339651
-0.00362461
-0.00384456
-0.0040548
-0.00425378
-0.00443994
-0.00461168
-0.00476744
-0.00490564
-0.00502478
-0.00512337
-0.00520005
-0.00525356
-0.00528278
-0.00528676
-0.00526478
-0.00521634
-0.0051412
-0.00503944
-0.00491142
-0.00475785
-0.0045798
-0.00437865
-0.00415617
-0.00391445
-0.00365592
-0.00338331
-0.00309963
-0.00280811
-0.00251218
-0.00221542
-0.00192147
-0.00163402
-0.0013567
-0.00109306
-0.000846467
-0.000620066
-0.000416711
-0.0002389
-8.87105e-05
3.2268e-05
0.000123023
0.000183222
0.000213368
0.000215049
0.000191321
0.000147216
9.08307e-05
3.6633e-05
6.22409e-06
2.09209e-05
6.57831e-05
9.48889e-05
7.29821e-05
-1.87744e-05
-0.000187201
-0.000432886
-0.000752613
-0.00114084
-0.00159078
-0.00209508
-0.0026463
-0.00323712
-0.00386055
-0.00450998
-0.00517922
-0.00586245
-0.00655423
-0.00724943
-0.00794316
-0.00863072
-0.00930755
-0.00996918
-0.0106112
-0.0112291
-0.0118187
-0.0123753
-0.0128947
-0.0133725
-0.0138042
-0.0141857
-0.0145128
-0.0147817
-0.0149887
-0.0151306
-0.0152045
-0.015208
-0.0151394
-0.0149975
-0.014782
-0.0144933
-0.0141325
-0.0137019
-0.0132043
-0.0126439
-0.0120254
-0.0113547
-0.0106383
-0.00988359
-0.00909873
-0.00829241
-0.0074738
-0.00665244
-0.00583808
-0.0050405
-0.00426937
-0.00353408
-0.00284354
-0.00220605
-0.00162908
-0.00111911
-0.000681441
-0.00031998
-3.70145e-05
0.000167091
0.000294261
0.000349249
0.000340331
0.000280009
0.000186141
8.6402e-05
1.96855e-05
1.76758e-05
4.14363e-05
1.97413e-05
-8.38592e-05
-0.000290152
-0.000607885
-0.00103832
-0.00157765
-0.0022187
-0.00295228
-0.00376812
-0.00465549
-0.00560368
-0.00660221
-0.00764103
-0.00871058
-0.00980176
-0.010906
-0.012015
-0.013121
-0.0142164
-0.0152938
-0.016346
-0.0173659
-0.0183463
-0.0192801
-0.0201605
-0.0209804
-0.021733
-0.0224114
-0.023009
-0.0235197
-0.0239375
-0.0242568
-0.0244729
-0.0245814
-0.024579
-0.0244631
-0.0242323
-0.0238863
-0.0234258
-0.022853
-0.0221714
-0.0213858
-0.0205025
-0.0195291
-0.0184746
-0.0173491
-0.0161641
-0.0149319
-0.013666
-0.0123803
-0.0110894
-0.00980818
-0.00855147
-0.00733401
-0.00617004
-0.00507311
-0.00405575
-0.00312924
-0.00230333
-0.0015859
-0.000982691
-0.000496936
-0.000128942
0.000124363
0.000270084
0.000320076
0.000291478
0.000207518
0.000102497
2.49874e-05
8.86109e-06
-6.94796e-06
-0.000107498
-0.000322305
-0.000669617
-0.00115784
-0.00178773
-0.00255451
-0.00344963
-0.00446207
-0.00557934
-0.00678822
-0.00807531
-0.00942735
-0.0108314
-0.0122751
-0.0137465
-0.0152341
-0.0167271
-0.0182149
-0.0196873
-0.0211342
-0.022546
-0.0239129
-0.0252255
-0.0264743
-0.0276498
-0.0287429
-0.0297444
-0.0306454
-0.0314374
-0.0321121
-0.0326619
-0.0330799
-0.0333597
-0.0334961
-0.0334849
-0.0333231
-0.0330089
-0.0325422
-0.0319244
-0.0311584
-0.030249
-0.0292027
-0.0280277
-0.0267342
-0.0253338
-0.0238397
-0.022267
-0.0206316
-0.0189508
-0.0172428
-0.0155263
-0.0138205
-0.0121447
-0.0105177
-0.008958
-0.00748295
-0.00610873
-0.00484983
-0.00371875
-0.0027256
-0.00187771
-0.0011792
-0.000630546
-0.000228034
3.68174e-05
0.000177917
0.000214995
0.000174225
9.30833e-05
2.40402e-05
-2.11424e-06
-6.72657e-05
-0.000264096
-0.000609819
-0.00111694
-0.00179167
-0.00263301
-0.0036346
-0.00478629
-0.00607538
-0.0074875
-0.0090074
-0.0106195
-0.0123082
-0.0140582
-0.0158547
-0.0176833
-0.0195302
-0.021382
-0.0232258
-0.0250489
-0.026839
-0.028584
-0.030272
-0.0318912
-0.0334301
-0.034877
-0.0362206
-0.0374499
-0.0385542
-0.0395229
-0.0403465
-0.0410157
-0.0415223
-0.0418588
-0.0420193
-0.0419988
-0.041794
-0.0414031
-0.040826
-0.0400646
-0.0391228
-0.0380065
-0.0367235
-0.035284
-0.0337001
-0.0319858
-0.0301571
-0.0282318
-0.0262292
-0.0241698
-0.0220754
-0.0199682
-0.0178712
-0.0158073
-0.013799
-0.0118683
-0.0100361
-0.00832145
-0.00674184
-0.00531219
-0.00404461
-0.00294797
-0.00202742
-0.0012839
-0.000713641
-0.000307633
-5.10979e-05
7.68465e-05
0.000103718
6.75639e-05
1.96788e-05
-1.36919e-05
-0.000132842
-0.000435889
-0.000924819
-0.00160427
-0.0024768
-0.00353858
-0.0047809
-0.00619166
-0.00775634
-0.00945881
-0.011282
-0.0132084
-0.0152204
-0.0173009
-0.0194329
-0.0215998
-0.0237858
-0.0259754
-0.0281534
-0.0303051
-0.0324161
-0.0344723
-0.0364596
-0.0383642
-0.0401727
-0.0418714
-0.0434474
-0.0448876
-0.0461799
-0.0473122
-0.0482733
-0.0490529
-0.0496415
-0.050031
-0.0502144
-0.0501864
-0.0499433
-0.0494832
-0.0488064
-0.047915
-0.0468138
-0.0455096
-0.0440114
-0.042331
-0.0404822
-0.0384812
-0.0363461
-0.0340973
-0.0317567
-0.0293477
-0.0268951
-0.0244245
-0.0219618
-0.0195332
-0.0171645
-0.0148807
-0.0127058
-0.0106617
-0.0087685
-0.00704332
-0.00550031
-0.00414995
-0.00299858
-0.002048
-0.00129491
-0.000730545
-0.000340151
-0.000102765
9.26279e-06
3.25512e-05
1.36339e-05
-2.51886e-05
-0.00020005
-0.00061422
-0.00125322
-0.00211259
-0.00319018
-0.00447841
-0.00596557
-0.00763716
-0.00947661
-0.0114659
-0.0135863
-0.0158185
-0.0181433
-0.0205416
-0.0229948
-0.0254844
-0.0279928
-0.0305025
-0.0329967
-0.0354586
-0.037872
-0.040221
-0.0424896
-0.0446623
-0.0467237
-0.0486587
-0.0504526
-0.052091
-0.0535599
-0.0548461
-0.0559372
-0.0568216
-0.057489
-0.0579304
-0.0581382
-0.0581065
-0.0578314
-0.057311
-0.0565456
-0.0555378
-0.0542928
-0.0528182
-0.0511243
-0.0492239
-0.0471324
-0.0448675
-0.0424496
-0.0399009
-0.0372459
-0.0345103
-0.0317216
-0.0289081
-0.0260987
-0.0233223
-0.0206078
-0.017983
-0.0154746
-0.0131073
-0.0109036
-0.00888292
-0.00706148
-0.0054515
-0.00406081
-0.00289242
-0.00194403
-0.0012077
-0.000669468
-0.000309112
-9.97811e-05
-7.67115e-06
6.87168e-06
-3.63476e-05
-0.000267009
-0.000793964
-0.00158608
-0.0026292
-0.00391576
-0.00543379
-0.007168
-0.00910105
-0.0112141
-0.0134871
-0.0158996
-0.0184305
-0.0210592
-0.0237648
-0.0265273
-0.0293266
-0.0321434
-0.0349587
-0.0377539
-0.0405108
-0.0432114
-0.045838
-0.0483733
-0.0508001
-0.0531015
-0.0552608
-0.0572619
-0.0590888
-0.0607265
-0.0621605
-0.0633772
-0.0643641
-0.0651099
-0.0656049
-0.0658408
-0.0658113
-0.0655122
-0.0649415
-0.0640994
-0.0629888
-0.0616153
-0.0599871
-0.0581152
-0.0560135
-0.0536986
-0.0511897
-0.0485086
-0.0456795
-0.0427288
-0.0396846
-0.0365765
-0.0334353
-0.0302926
-0.02718
-0.024129
-0.0211702
-0.0183329
-0.0156446
-0.0131301
-0.0108113
-0.00870664
-0.00683022
-0.0051917
-0.00379568
-0.00264131
-0.00172201
-0.0010252
-0.000532045
-0.000217167
-5.0432e-05
-7.66415e-08
-4.7073e-05
-0.000332733
-0.000972124
-0.00191778
-0.00314568
-0.00464248
-0.00639134
-0.00837297
-0.0105669
-0.0129516
-0.015505
-0.0182048
-0.0210282
-0.023953
-0.0269571
-0.0300188
-0.0331168
-0.0362304
-0.039339
-0.0424227
-0.0454619
-0.0484372
-0.0513295
-0.0541199
-0.05679
-0.0593213
-0.061696
-0.0638966
-0.0659059
-0.0677077
-0.0692864
-0.0706274
-0.0717172
-0.0725437
-0.0730964
-0.0733664
-0.073347
-0.0730335
-0.0724236
-0.0715175
-0.0703181
-0.0688313
-0.0670655
-0.0650324
-0.0627465
-0.0602255
-0.0574896
-0.0545621
-0.0514686
-0.0482373
-0.0448982
-0.041483
-0.0380249
-0.0345578
-0.0311159
-0.0277333
-0.0244433
-0.0212779
-0.0182673
-0.0154388
-0.012817
-0.0104224
-0.00827174
-0.00637659
-0.00474355
-0.00337365
-0.00226211
-0.00139822
-0.00076499
-0.000338987
-9.41686e-05
-6.93941e-06
-5.73527e-05
-0.000396741
-0.00114696
-0.00224479
-0.00365648
-0.00536268
-0.00734147
-0.00956925
-0.0120221
-0.0146758
-0.0175059
-0.0204881
-0.0235981
-0.0268122
-0.0301068
-0.0334591
-0.0368463
-0.0402467
-0.0436384
-0.0470003
-0.0503115
-0.0535513
-0.0566996
-0.0597361
-0.0626412
-0.0653953
-0.0679794
-0.0703746
-0.0725629
-0.0745269
-0.07625
-0.0777166
-0.0789124
-0.0798243
-0.0804412
-0.0807535
-0.0807538
-0.0804371
-0.0798005
-0.078844
-0.0775704
-0.0759855
-0.074098
-0.0719197
-0.0694658
-0.0667544
-0.0638067
-0.0606472
-0.0573026
-0.0538027
-0.0501792
-0.0464658
-0.0426979
-0.0389115
-0.0351435
-0.0314305
-0.0278086
-0.0243125
-0.0209752
-0.0178269
-0.0148948
-0.0122022
-0.00976826
-0.00760711
-0.00572766
-0.0041332
-0.00282115
-0.00178303
-0.00100407
-0.000463025
-0.000138062
-1.35998e-05
-6.72043e-05
-0.000458805
-0.00131746
-0.0025649
-0.00415785
-0.00607102
-0.00827723
-0.0107485
-0.0134572
-0.0163761
-0.0194786
-0.0227382
-0.026129
-0.0296258
-0.0332037
-0.0368387
-0.040507
-0.0441855
-0.0478516
-0.051483
-0.0550577
-0.0585541
-0.0619508
-0.0652267
-0.0683609
-0.0713329
-0.0741226
-0.0767102
-0.0790766
-0.0812034
-0.083073
-0.084669
-0.0859761
-0.0869805
-0.0876702
-0.0880348
-0.0880664
-0.087759
-0.0871095
-0.0861173
-0.0847848
-0.0831176
-0.0811242
-0.0788166
-0.07621
-0.0733231
-0.0701776
-0.0667987
-0.0632145
-0.0594557
-0.0555559
-0.0515505
-0.0474767
-0.0433732
-0.0392792
-0.0352339
-0.0312764
-0.0274442
-0.0237732
-0.0202969
-0.0170453
-0.0140448
-0.0113174
-0.00888001
-0.00674436
-0.0049163
-0.00339582
-0.00217698
-0.00124744
-0.00058827
-0.000181787
-2.00315e-05
-7.66516e-05
-0.000518821
-0.00148304
-0.00287665
-0.00464726
-0.00676368
-0.00919352
-0.0119042
-0.0148645
-0.0180442
-0.0214141
-0.0249456
-0.0286112
-0.0323842
-0.0362386
-0.0401491
-0.0440909
-0.0480402
-0.0519731
-0.0558667
-0.0596979
-0.0634444
-0.0670838
-0.070594
-0.0739535
-0.0771406
-0.0801343
-0.082914
-0.0854597
-0.087752
-0.0897725
-0.0915038
-0.0929298
-0.0940357
-0.0948087
-0.0952375
-0.0953134
-0.0950296
-0.0943823
-0.0933702
-0.0919951
-0.0902619
-0.088179
-0.085758
-0.0830141
-0.079966
-0.0766358
-0.0730494
-0.0692354
-0.0652261
-0.0610561
-0.0567627
-0.0523852
-0.0479643
-0.0435419
-0.0391601
-0.0348606
-0.0306844
-0.0266706
-0.0228558
-0.0192735
-0.0159535
-0.012921
-0.0101962
-0.00779373
-0.00572258
-0.00398556
-0.00257951
-0.00149471
-0.000714563
-0.000225343
-2.62614e-05
-8.57164e-05
-0.000576739
-0.00164331
-0.00317907
-0.00512288
-0.00743784
-0.0100864
-0.0130315
-0.0162382
-0.0196732
-0.0233046
-0.0271021
-0.0310363
-0.035079
-0.039203
-0.0433821
-0.0475906
-0.0518037
-0.0559969
-0.0601463
-0.0642283
-0.0682197
-0.0720973
-0.0758385
-0.0794208
-0.0828218
-0.0860198
-0.0889932
-0.0917212
-0.0941837
-0.0963612
-0.0982356
-0.0997897
-0.101008
-0.101876
-0.102383
-0.102518
-0.102274
-0.101645
-0.10063
-0.0992293
-0.0974476
-0.0952921
-0.0927741
-0.0899084
-0.0867135
-0.0832117
-0.0794289
-0.0753947
-0.071142
-0.066707
-0.0621284
-0.0574474
-0.0527072
-0.0479522
-0.0432274
-0.0385778
-0.0340477
-0.0296796
-0.025514
-0.0215881
-0.0179353
-0.0145846
-0.0115597
-0.00887886
-0.00655426
-0.00459192
-0.00299171
-0.00174661
-0.000842351
-0.000268952
-3.23485e-05
-9.44137e-05
-0.000632521
-0.00179799
-0.00347142
-0.0055833
-0.00809125
-0.0109527
-0.0141262
-0.0175731
-0.021257
-0.0251437
-0.0292004
-0.0333964
-0.037702
-0.0420889
-0.0465298
-0.0509984
-0.0554688
-0.0599162
-0.0643159
-0.0686437
-0.0728757
-0.0769884
-0.0809583
-0.0847622
-0.0883773
-0.091781
-0.0949511
-0.097866
-0.100505
-0.102847
-0.104874
-0.106567
-0.10791
-0.108888
-0.109487
-0.109697
-0.109509
-0.108917
-0.107917
-0.10651
-0.104698
-0.102488
-0.0998902
-0.0969189
-0.0935921
-0.0899318
-0.0859641
-0.0817189
-0.0772299
-0.0725343
-0.0676724
-0.0626875
-0.0576248
-0.0525317
-0.0474561
-0.0424464
-0.0375507
-0.0328153
-0.0282848
-0.0240005
-0.02
-0.0163163
-0.0129773
-0.0100051
-0.00741552
-0.00521807
-0.00341584
-0.00200465
-0.000972511
-0.000312984
-3.83707e-05
-0.000102751
-0.000686123
-0.00194683
-0.00375305
-0.00602733
-0.00872202
-0.0117897
-0.0151848
-0.0188648
-0.0227905
-0.0269251
-0.031234
-0.0356845
-0.0402458
-0.0448885
-0.0495844
-0.0543063
-0.0590279
-0.0637237
-0.0683685
-0.0729377
-0.0774068
-0.0817519
-0.085949
-0.0899744
-0.0938046
-0.0974166
-0.100788
-0.103895
-0.106717
-0.109233
-0.111423
-0.113267
-0.114749
-0.115851
-0.11656
-0.116863
-0.11675
-0.116213
-0.115248
-0.113853
-0.112031
-0.109785
-0.107126
-0.104066
-0.100623
-0.0968186
-0.092678
-0.0882315
-0.0835134
-0.0785618
-0.0734185
-0.0681286
-0.0627399
-0.0573022
-0.051867
-0.0464863
-0.0412119
-0.0360947
-0.0311835
-0.0265244
-0.0221595
-0.0181265
-0.0144578
-0.0111796
-0.00831208
-0.00586838
-0.00385508
-0.00227094
-0.00110622
-0.000357912
-4.44181e-05
-0.00011073
-0.000737484
-0.00208957
-0.00402336
-0.00645385
-0.00932841
-0.012595
-0.0162039
-0.0201092
-0.0242688
-0.0286433
-0.0331963
-0.0378936
-0.0427029
-0.047594
-0.0525376
-0.0575061
-0.0624727
-0.0674111
-0.0722961
-0.0771024
-0.0818055
-0.0863808
-0.0908041
-0.0950513
-0.0990985
-0.102922
-0.106498
-0.109805
-0.112819
-0.115518
-0.117883
-0.119892
-0.121526
-0.122769
-0.123604
-0.124019
-0.124
-0.123539
-0.12263
-0.121269
-0.119457
-0.117196
-0.114495
-0.111366
-0.107824
-0.10389
-0.0995893
-0.0949523
-0.0900131
-0.0848108
-0.0793885
-0.0737929
-0.0680743
-0.0622855
-0.0564813
-0.0507176
-0.0450507
-0.0395358
-0.034227
-0.0291751
-0.0244276
-0.0200272
-0.0160113
-0.012411
-0.0092508
-0.00654814
-0.00431324
-0.00254798
-0.00124489
-0.000404278
-5.05882e-05
-0.000118342
-0.00078652
-0.00222592
-0.00428172
-0.00686177
-0.00990872
-0.0133662
-0.0171805
-0.0213025
-0.0256871
-0.0302929
-0.0350814
-0.0400168
-0.0450659
-0.0501973
-0.0553812
-0.0605892
-0.065794
-0.0709693
-0.0760893
-0.0811287
-0.0860624
-0.0908659
-0.0955146
-0.0999841
-0.10425
-0.108289
-0.112076
-0.115588
-0.118803
-0.121696
-0.124247
-0.126434
-0.128237
-0.129638
-0.130618
-0.131163
-0.13126
-0.130897
-0.130066
-0.128761
-0.126981
-0.124727
-0.122006
-0.118826
-0.115204
-0.111158
-0.106712
-0.101897
-0.0967459
-0.0912994
-0.0856012
-0.0797001
-0.0736485
-0.0675022
-0.0613196
-0.0551609
-0.0490867
-0.0431576
-0.0374328
-0.0319689
-0.0268189
-0.0220313
-0.0176491
-0.0137086
-0.0102394
-0.00726328
-0.00479463
-0.00283859
-0.00139004
-0.000452671
-5.69835e-05
-0.000125575
-0.000833127
-0.00235556
-0.00452746
-0.00724995
-0.0104613
-0.0141009
-0.0181115
-0.0224407
-0.0270409
-0.0318683
-0.0368829
-0.0420473
-0.0473272
-0.0526903
-0.0581062
-0.0635461
-0.0689823
-0.0743882
-0.0797377
-0.0850055
-0.0901666
-0.095196
-0.100069
-0.104761
-0.109248
-0.113506
-0.117509
-0.121234
-0.124657
-0.127755
-0.130505
-0.132884
-0.134871
-0.136447
-0.137592
-0.138288
-0.138522
-0.138279
-0.137548
-0.136324
-0.1346
-0.132377
-0.129658
-0.126451
-0.122768
-0.118628
-0.114054
-0.109075
-0.103724
-0.0980413
-0.0920723
-0.085867
-0.0794804
-0.0729711
-0.0664014
-0.0598355
-0.0533394
-0.0469788
-0.040819
-0.0349226
-0.0293489
-0.0241528
-0.0193833
-0.0150827
-0.0112861
-0.00802021
-0.00530388
-0.00314579
-0.00154334
-0.000503712
-6.3709e-05
-0.000132412
-0.000877179
-0.00247811
-0.00475984
-0.00761719
-0.0109843
-0.0147968
-0.0189937
-0.02352
-0.0283254
-0.0333643
-0.0385946
-0.043978
-0.049479
-0.0550645
-0.0607035
-0.066367
-0.0720269
-0.0776564
-0.0832295
-0.0887208
-0.0941051
-0.0993577
-0.104454
-0.109369
-0.114078
-0.118557
-0.122781
-0.126725
-0.130366
-0.133678
-0.136639
-0.139224
-0.141412
-0.14318
-0.144509
-0.145377
-0.14577
-0.14567
-0.145065
-0.143945
-0.142303
-0.140135
-0.137444
-0.134233
-0.130513
-0.126301
-0.121618
-0.116491
-0.110953
-0.105046
-0.0988128
-0.092307
-0.0855851
-0.0787088
-0.071744
-0.0647598
-0.0578272
-0.0510179
-0.0444034
-0.0380532
-0.0320334
-0.0264059
-0.0212264
-0.016544
-0.0123996
-0.00882567
-0.00584585
-0.00347275
-0.00170651
-0.000558042
-7.08713e-05
-0.000138831
-0.000918532
-0.00259317
-0.00497808
-0.00796224
-0.0114759
-0.0154512
-0.0198241
-0.0245365
-0.029536
-0.0347751
-0.0402102
-0.0458017
-0.0515131
-0.0573108
-0.0631634
-0.0690412
-0.0749164
-0.0807619
-0.0865517
-0.0922606
-0.0978634
-0.103336
-0.108652
-0.113789
-0.118721
-0.123424
-0.127873
-0.132042
-0.135908
-0.139445
-0.142628
-0.145433
-0.147836
-0.149815
-0.151345
-0.152407
-0.152981
-0.153049
-0.152594
-0.151605
-0.150071
-0.147986
-0.145348
-0.14216
-0.138429
-0.134168
-0.129397
-0.124142
-0.118435
-0.112315
-0.105829
-0.0990287
-0.0919735
-0.0847282
-0.0773624
-0.0699498
-0.062567
-0.0552921
-0.0482032
-0.0413772
-0.0348879
-0.0288048
-0.0231911
-0.0181032
-0.0135888
-0.00968656
-0.00642554
-0.00382272
-0.0018813
-0.000616318
-7.85779e-05
-0.000144805
-0.000957026
-0.0027003
-0.00518137
-0.00828379
-0.0119344
-0.0160619
-0.0205993
-0.0254861
-0.0306679
-0.0360951
-0.0417231
-0.0475109
-0.0534214
-0.0594202
-0.0654756
-0.0715578
-0.0776387
-0.0836914
-0.0896902
-0.0956097
-0.101425
-0.107112
-0.112646
-0.118003
-0.123157
-0.128085
-0.132762
-0.137161
-0.141258
-0.145027
-0.148444
-0.151481
-0.154115
-0.15632
-0.158072
-0.159348
-0.160125
-0.160384
-0.160105
-0.159274
-0.157876
-0.155902
-0.153347
-0.150209
-0.146494
-0.142212
-0.137379
-0.132018
-0.126162
-0.119847
-0.11312
-0.106035
-0.098652
-0.0910384
-0.0832678
-0.0754188
-0.0675736
-0.0598169
-0.0522343
-0.0449105
-0.0379276
-0.0313635
-0.0252899
-0.0197711
-0.0148626
-0.0106099
-0.00704805
-0.00419902
-0.00206952
-0.000679201
-8.69373e-05
-0.000150306
-0.000992492
-0.00279905
-0.00536883
-0.00858049
-0.0123576
-0.0166261
-0.0213161
-0.026365
-0.0317162
-0.0373188
-0.0431267
-0.0490982
-0.0551952
-0.061383
-0.0676295
-0.0739049
-0.080181
-0.0864311
-0.0926296
-0.0987516
-0.104773
-0.110668
-0.116415
-0.121988
-0.127363
-0.132515
-0.13742
-0.142052
-0.146386
-0.150395
-0.154053
-0.157334
-0.160212
-0.162659
-0.16465
-0.166159
-0.167163
-0.167637
-0.16756
-0.166914
-0.16568
-0.163847
-0.161405
-0.158349
-0.154681
-0.150406
-0.145539
-0.1401
-0.134118
-0.12763
-0.12068
-0.113323
-0.105621
-0.0976434
-0.0894675
-0.0811765
-0.0728586
-0.0646056
-0.0565108
-0.0486674
-0.0411666
-0.0340954
-0.027535
-0.0215585
-0.01623
-0.0116027
-0.00771847
-0.00460498
-0.00227296
-0.000747361
-9.60585e-05
-0.000155306
-0.00102476
-0.00288894
-0.0055396
-0.00885099
-0.0127438
-0.0171413
-0.0219713
-0.027169
-0.0326762
-0.0384404
-0.0444146
-0.050556
-0.056826
-0.0631896
-0.0696144
-0.0760705
-0.0825299
-0.0889662
-0.0953539
-0.101669
-0.107886
-0.113983
-0.119935
-0.125719
-0.131311
-0.136686
-0.141819
-0.146685
-0.151258
-0.155512
-0.159419
-0.162953
-0.166085
-0.168789
-0.171035
-0.172797
-0.174047
-0.17476
-0.174911
-0.174477
-0.173438
-0.171776
-0.16948
-0.166538
-0.16295
-0.158716
-0.153847
-0.148359
-0.14228
-0.135643
-0.128493
-0.120882
-0.112875
-0.104541
-0.0959632
-0.0872281
-0.0784303
-0.0696686
-0.0610446
-0.0526607
-0.0446178
-0.0370132
-0.029938
-0.0234757
-0.0176996
-0.0126717
-0.00844186
-0.00504392
-0.00249344
-0.00082147
-0.000106051
-0.000159774
-0.00105364
-0.00296951
-0.00569283
-0.00909395
-0.0130911
-0.0176051
-0.0225617
-0.0278943
-0.033543
-0.0394544
-0.0455801
-0.0518767
-0.0583053
-0.0648302
-0.0714191
-0.0780422
-0.0846717
-0.0912813
-0.0978462
-0.104342
-0.110746
-0.117034
-0.123184
-0.129171
-0.134973
-0.140566
-0.145924
-0.151022
-0.155835
-0.160336
-0.164497
-0.168291
-0.171688
-0.174659
-0.177175
-0.179207
-0.180724
-0.181698
-0.182101
-0.181907
-0.181092
-0.179634
-0.177516
-0.174724
-0.17125
-0.167093
-0.162258
-0.156757
-0.150614
-0.143859
-0.136535
-0.128694
-0.120399
-0.111723
-0.102751
-0.093574
-0.0842924
-0.0750126
-0.0658447
-0.0569009
-0.0482926
-0.0401281
-0.0325099
-0.0255325
-0.0192799
-0.0138239
-0.00922321
-0.00551914
-0.00273277
-0.0009022
-0.000117026
-0.000163681
-0.00107898
-0.00304032
-0.0058277
-0.00930811
-0.0133976
-0.0180151
-0.0230843
-0.028537
-0.0343123
-0.0403552
-0.0466168
-0.053053
-0.0596244
-0.0662951
-0.0730328
-0.0798077
-0.0865924
-0.093361
-0.100089
-0.106753
-0.113331
-0.119798
-0.126134
-0.132316
-0.13832
-0.144122
-0.1497
-0.155026
-0.160077
-0.164825
-0.169241
-0.173299
-0.176967
-0.180215
-0.183013
-0.185329
-0.18713
-0.188386
-0.189065
-0.189138
-0.188576
-0.187354
-0.185449
-0.182843
-0.179523
-0.175482
-0.170719
-0.165244
-0.159074
-0.152237
-0.144772
-0.136729
-0.128172
-0.119173
-0.10982
-0.100208
-0.0904436
-0.0806401
-0.0709167
-0.0613958
-0.0522001
-0.04345
-0.0352604
-0.027738
-0.0209787
-0.0150656
-0.0100674
-0.00603389
-0.00299272
-0.000990222
-0.000129095
-0.000166999
-0.00110062
-0.00310096
-0.00594345
-0.00949229
-0.0136618
-0.018369
-0.0235362
-0.0290939
-0.0349797
-0.0411379
-0.0475189
-0.0540779
-0.0607751
-0.0675748
-0.0744445
-0.0813546
-0.088278
-0.0951894
-0.102065
-0.108882
-0.115618
-0.122251
-0.12876
-0.135123
-0.141317
-0.14732
-0.153108
-0.158656
-0.163938
-0.168929
-0.1736
-0.177922
-0.181864
-0.185396
-0.188484
-0.191096
-0.193197
-0.194754
-0.195731
-0.196096
-0.195816
-0.194861
-0.193205
-0.190822
-0.187696
-0.183812
-0.179165
-0.173758
-0.167604
-0.160726
-0.153159
-0.14495
-0.136161
-0.126866
-0.117151
-0.107118
-0.0968766
-0.0865486
-0.076262
-0.0661499
-0.0563472
-0.046987
-0.0381979
-0.0301004
-0.0228035
-0.0164031
-0.0109791
-0.00659133
-0.00327507
-0.00108621
-0.00014237
-0.000169705
-0.00111841
-0.00315105
-0.00603942
-0.00964548
-0.0138821
-0.018665
-0.023915
-0.0295616
-0.0355413
-0.0417978
-0.0482806
-0.0549446
-0.0617499
-0.0686603
-0.0756438
-0.0826709
-0.0897149
-0.0967512
-0.103756
-0.110708
-0.117586
-0.124368
-0.131034
-0.137563
-0.143933
-0.150123
-0.156109
-0.161867
-0.167373
-0.172599
-0.177519
-0.182102
-0.186319
-0.190136
-0.19352
-0.196437
-0.198849
-0.200722
-0.202017
-0.202697
-0.202727
-0.202071
-0.200698
-0.198577
-0.195685
-0.192003
-0.187518
-0.182228
-0.176137
-0.169265
-0.161641
-0.153308
-0.144326
-0.134766
-0.124717
-0.114282
-0.103577
-0.0927296
-0.0818772
-0.0711639
-0.0607373
-0.0507447
-0.0413294
-0.0326268
-0.0247611
-0.017842
-0.0119628
-0.00719456
-0.00358155
-0.00119083
-0.000156968
-0.000171778
-0.00113225
-0.00319033
-0.00611509
-0.00976686
-0.0140574
-0.0189014
-0.0242187
-0.0299376
-0.035994
-0.0423309
-0.0488971
-0.0556474
-0.0625415
-0.0695434
-0.076621
-0.0837453
-0.0908901
-0.0980312
-0.105146
-0.112213
-0.119213
-0.126125
-0.132929
-0.139605
-0.146134
-0.152493
-0.158662
-0.164616
-0.170331
-0.175782
-0.180942
-0.185779
-0.190265
-0.194366
-0.198047
-0.201273
-0.204006
-0.206207
-0.207835
-0.208852
-0.209216
-0.208889
-0.207833
-0.206013
-0.203399
-0.199964
-0.19569
-0.190567
-0.184593
-0.177779
-0.170149
-0.161742
-0.152612
-0.142829
-0.132481
-0.121673
-0.110524
-0.0991685
-0.0877534
-0.0764339
-0.0653708
-0.0547263
-0.0446597
-0.0353231
-0.0268571
-0.0193877
-0.0130228
-0.00784652
-0.00391388
-0.00130474
-0.000173005
-0.000173203
-0.00114207
-0.00321857
-0.00617008
-0.00985584
-0.0141869
-0.0190771
-0.0244456
-0.0302198
-0.0363351
-0.0427338
-0.0493643
-0.0561812
-0.0631439
-0.0702166
-0.0773673
-0.0845675
-0.0917913
-0.0990153
-0.106218
-0.113378
-0.120478
-0.127497
-0.134417
-0.14122
-0.147886
-0.154395
-0.160726
-0.166858
-0.172766
-0.178426
-0.18381
-0.188891
-0.193637
-0.198015
-0.20199
-0.205525
-0.208582
-0.211119
-0.213094
-0.214464
-0.215186
-0.215215
-0.214509
-0.213027
-0.210733
-0.207593
-0.203581
-0.19868
-0.192878
-0.186181
-0.178604
-0.17018
-0.160955
-0.150999
-0.140396
-0.129251
-0.117686
-0.105843
-0.0938758
-0.0819512
-0.0702438
-0.0589317
-0.0481914
-0.0381933
-0.0290965
-0.0210447
-0.0141628
-0.00855002
-0.00427368
-0.00142861
-0.000190601
-0.000173973
-0.00114781
-0.0032357
-0.00620423
-0.00991216
-0.0142702
-0.0191915
-0.0245948
-0.030407
-0.0365629
-0.0430041
-0.0496791
-0.0565419
-0.063552
-0.0706736
-0.0778751
-0.0851281
-0.0924076
-0.0996907
-0.106957
-0.114186
-0.12136
-0.128462
-0.135474
-0.142378
-0.149157
-0.155791
-0.162262
-0.168548
-0.174628
-0.180476
-0.186068
-0.191374
-0.196366
-0.20101
-0.20527
-0.20911
-0.21249
-0.215367
-0.217697
-0.219434
-0.220531
-0.22094
-0.220615
-0.219508
-0.217575
-0.214778
-0.211081
-0.206458
-0.20089
-0.194373
-0.186913
-0.178535
-0.169279
-0.159208
-0.148402
-0.136967
-0.125025
-0.112723
-0.100222
-0.087701
-0.0753479
-0.0633574
-0.0519247
-0.0412401
-0.0314828
-0.0228169
-0.0153864
-0.00930768
-0.00466255
-0.00156308
-0.000209878
-0.000174086
-0.00114948
-0.00324174
-0.00621759
-0.00993589
-0.0143072
-0.0192446
-0.0246663
-0.0304988
-0.0366765
-0.0431408
-0.0498396
-0.0567269
-0.0637622
-0.0709098
-0.0781382
-0.0854196
-0.0927296
-0.100046
-0.107349
-0.11462
-0.121842
-0.128999
-0.136074
-0.143051
-0.149915
-0.156647
-0.16323
-0.169644
-0.175869
-0.181881
-0.187657
-0.193168
-0.198386
-0.203278
-0.207811
-0.211945
-0.215641
-0.218856
-0.221544
-0.223656
-0.225143
-0.225954
-0.226035
-0.225336
-0.223806
-0.221398
-0.218069
-0.213784
-0.208514
-0.202244
-0.194971
-0.18671
-0.177494
-0.167375
-0.156431
-0.144761
-0.132491
-0.119769
-0.106763
-0.0936623
-0.0806693
-0.0679958
-0.0558566
-0.0444634
-0.0340182
-0.0247073
-0.0166966
-0.0101219
-0.00508198
-0.00170879
-0.000230958
-0.000173551
-0.00114716
-0.00323687
-0.00621051
-0.00992752
-0.0142987
-0.0192371
-0.0246607
-0.0304958
-0.0366765
-0.0431437
-0.0498453
-0.0567351
-0.0637725
-0.0709219
-0.0781523
-0.0854362
-0.0927498
-0.100072
-0.107383
-0.114667
-0.121907
-0.129088
-0.136195
-0.143215
-0.150132
-0.15693
-0.163594
-0.170105
-0.176445
-0.182591
-0.188522
-0.194212
-0.199632
-0.204751
-0.209535
-0.213948
-0.217949
-0.221494
-0.224536
-0.227027
-0.228913
-0.23014
-0.230651
-0.23039
-0.2293
-0.227327
-0.224418
-0.22053
-0.215624
-0.209672
-0.202662
-0.194597
-0.185498
-0.175409
-0.164399
-0.152564
-0.140025
-0.126932
-0.11346
-0.0998071
-0.0861888
-0.0728347
-0.0599806
-0.0478612
-0.0367032
-0.0267179
-0.0180956
-0.0109947
-0.00553338
-0.00186635
-0.00025397
-0.000172388
-0.00114097
-0.00322145
-0.00618362
-0.00988802
-0.0142459
-0.0191705
-0.0245798
-0.0303999
-0.0365645
-0.0430146
-0.0496975
-0.0565671
-0.0635827
-0.070709
-0.0779151
-0.0851742
-0.0924631
-0.0997613
-0.107051
-0.114316
-0.121541
-0.128713
-0.135819
-0.142847
-0.149782
-0.156611
-0.16332
-0.169894
-0.176313
-0.182561
-0.188614
-0.19445
-0.200041
-0.205359
-0.210371
-0.21504
-0.219327
-0.223189
-0.226578
-0.229443
-0.231731
-0.233384
-0.234343
-0.234545
-0.233929
-0.232432
-0.229995
-0.226563
-0.222087
-0.216528
-0.20986
-0.202074
-0.193178
-0.183205
-0.172213
-0.160291
-0.147555
-0.134155
-0.120267
-0.106099
-0.0918803
-0.0778568
-0.0642864
-0.0514285
-0.0395365
-0.0288495
-0.0195854
-0.011928
-0.00601803
-0.00203636
-0.00027904
-0.000170628
-0.00113111
-0.00319601
-0.00613791
-0.00981888
-0.0141508
-0.0190473
-0.0244264
-0.0302141
-0.0363439
-0.0427565
-0.0493991
-0.0562254
-0.0631948
-0.0702721
-0.0774267
-0.0846325
-0.0918667
-0.0991099
-0.106345
-0.113557
-0.120734
-0.127862
-0.13493
-0.141927
-0.148843
-0.155665
-0.162381
-0.168977
-0.175438
-0.181747
-0.187885
-0.193831
-0.199559
-0.205042
-0.21025
-0.215148
-0.219697
-0.223854
-0.227574
-0.230805
-0.233491
-0.235574
-0.236992
-0.237677
-0.237563
-0.236581
-0.234662
-0.231743
-0.227764
-0.222672
-0.216429
-0.20901
-0.20041
-0.190647
-0.179768
-0.167849
-0.155
-0.141366
-0.127127
-0.112495
-0.0977111
-0.0830394
-0.0687594
-0.0551569
-0.0425144
-0.0311015
-0.0211667
-0.0129231
-0.00653704
-0.00221938
-0.000306299
-0.000168315
-0.00111785
-0.00316131
-0.00607478
-0.00972221
-0.0140163
-0.0188711
-0.0242047
-0.0299431
-0.0360197
-0.0423746
-0.0489552
-0.0557149
-0.0626131
-0.0696149
-0.0766899
-0.0838126
-0.0909609
-0.0981164
-0.105263
-0.112388
-0.119478
-0.126523
-0.133515
-0.140442
-0.147297
-0.15407
-0.16075
-0.167327
-0.173787
-0.180115
-0.186296
-0.192309
-0.198134
-0.203744
-0.209112
-0.214204
-0.218984
-0.223411
-0.227439
-0.231018
-0.234093
-0.236602
-0.238482
-0.239664
-0.240074
-0.239639
-0.238282
-0.23593
-0.232511
-0.227961
-0.222226
-0.215266
-0.20706
-0.19761
-0.186946
-0.175131
-0.162266
-0.148488
-0.133974
-0.118941
-0.103641
-0.0883533
-0.0733802
-0.0590349
-0.045631
-0.0334717
-0.0228397
-0.0139809
-0.00709137
-0.00241594
-0.000335877
-0.000165507
-0.00110156
-0.00311834
-0.00599604
-0.00960074
-0.0138461
-0.0186465
-0.0239202
-0.0295932
-0.0355985
-0.0418762
-0.0483732
-0.0550428
-0.0618446
-0.0687437
-0.0757103
-0.0827192
-0.0897493
-0.096783
-0.103806
-0.110805
-0.11777
-0.124694
-0.131566
-0.138382
-0.145132
-0.151811
-0.158411
-0.164921
-0.171333
-0.177635
-0.183812
-0.189848
-0.195724
-0.201417
-0.206902
-0.212149
-0.217124
-0.221787
-0.226095
-0.229999
-0.233443
-0.236368
-0.238707
-0.24039
-0.24134
-0.241477
-0.240719
-0.238982
-0.236184
-0.232248
-0.227104
-0.220697
-0.212986
-0.203956
-0.193619
-0.182022
-0.169249
-0.155428
-0.140731
-0.125376
-0.109621
-0.0937628
-0.0781241
-0.0630467
-0.0488775
-0.0359561
-0.0246033
-0.0151019
-0.00768175
-0.0026265
-0.000367904
-0.000162278
-0.00108271
-0.00306836
-0.00590398
-0.00945799
-0.0136448
-0.0183794
-0.0235801
-0.0291724
-0.0350893
-0.0412705
-0.0476627
-0.054219
-0.0608989
-0.0676679
-0.0744965
-0.0813602
-0.0882386
-0.0951152
-0.101977
-0.108812
-0.115612
-0.122371
-0.129082
-0.13574
-0.142341
-0.148879
-0.155349
-0.161745
-0.16806
-0.174285
-0.180408
-0.186417
-0.192295
-0.198024
-0.20358
-0.208936
-0.214063
-0.218923
-0.223475
-0.227672
-0.23146
-0.234782
-0.237569
-0.23975
-0.241247
-0.241974
-0.241843
-0.240762
-0.23864
-0.235385
-0.230914
-0.225152
-0.21804
-0.209543
-0.199652
-0.188393
-0.175833
-0.162084
-0.147311
-0.131727
-0.115596
-0.0992254
-0.082961
-0.0671727
-0.0522422
-0.038549
-0.0264554
-0.0162858
-0.0083087
-0.00285151
-0.00040251
-0.000158719
-0.00106186
-0.00301291
-0.00580145
-0.00929824
-0.0134185
-0.0180773
-0.023193
-0.0286908
-0.0345032
-0.0405696
-0.0468362
-0.0532561
-0.0597889
-0.0664
-0.0730607
-0.079747
-0.0864394
-0.0931227
-0.0997845
-0.106416
-0.113009
-0.11956
-0.126064
-0.132518
-0.13892
-0.145268
-0.151559
-0.15779
-0.163956
-0.170051
-0.176068
-0.181997
-0.187825
-0.193536
-0.199111
-0.204528
-0.209758
-0.214769
-0.219523