/*--------------------------------*- C++ -*----------------------------------*\
  =========                 |
  \\      /  F ield         | OpenFOAM: The Open Source CFD Toolbox
   \\    /   O peration     | Website:  https://openfoam.org
    \\  /    A nd           | Version:  dev
     \\/     M anipulation  |
\*---------------------------------------------------------------------------*/
FoamFile
{
    format      ascii;
    class       volScalarField;
    location    "45";
    object      Uy;
}
// * * * * * * * * * * * * * * * * * * * * * * * * * * * * * * * * * * * * * //

dimensions      [0 1 -1 0 0 0 0];

internalField   nonuniform List<scalar> 
5184
(
-1.26069e-05
-2.08335e-05
-1.7229e-05
-8.19086e-06
2.67083e-06
1.36201e-05
2.38502e-05
3.30557e-05
4.11159e-05
4.80364e-05
5.38792e-05
5.87292e-05
6.26786e-05
6.58187e-05
6.82341e-05
7.00004e-05
7.1182e-05
7.18316e-05
7.19898e-05
7.1686e-05
7.09396e-05
6.97611e-05
6.81534e-05
6.61137e-05
6.36347e-05
6.07067e-05
5.73189e-05
5.3462e-05
4.91287e-05
4.43161e-05
3.90268e-05
3.32698e-05
2.70624e-05
2.04307e-05
1.34102e-05
6.04694e-06
-1.6031e-06
-9.47339e-06
-1.74874e-05
-2.55591e-05
-3.35942e-05
-4.1491e-05
-4.91423e-05
-5.64369e-05
-6.32622e-05
-6.95064e-05
-7.50606e-05
-7.98219e-05
-8.36957e-05
-8.65979e-05
-8.84581e-05
-8.92211e-05
-8.88488e-05
-8.73214e-05
-8.46387e-05
-8.08199e-05
-7.59043e-05
-6.99506e-05
-6.30366e-05
-5.52585e-05
-4.67307e-05
-3.75858e-05
-2.79788e-05
-1.80925e-05
-8.15293e-06
1.54536e-06
1.05789e-05
1.83111e-05
2.37288e-05
2.51388e-05
1.98561e-05
6.24778e-06
-4.57439e-05
-6.56279e-05
-4.05284e-05
7.64744e-06
6.56946e-05
0.00012602
0.000184338
0.000238402
0.000287067
0.000329891
0.000366835
0.000398088
0.000423961
0.000444821
0.000461045
0.000472993
0.000480986
0.000485302
0.000486163
0.000483739
0.000478154
0.000469483
0.000457764
0.000443008
0.000425201
0.000404322
0.000380344
0.000353252
0.000323046
0.000289752
0.000253431
0.000214186
0.000172167
0.000127577
8.06755e-05
3.17821e-05
-1.87241e-05
-7.04047e-05
-0.000122765
-0.000175256
-0.000227284
-0.000278217
-0.000327393
-0.000374133
-0.000417752
-0.000457575
-0.000492948
-0.000523258
-0.000547943
-0.000566508
-0.00057854
-0.00058372
-0.000581833
-0.000572775
-0.000556562
-0.000533333
-0.000503352
-0.000467009
-0.000424819
-0.000377423
-0.000325589
-0.000270224
-0.000212388
-0.000153335
-9.45754e-05
-3.79884e-05
1.39651e-05
5.79822e-05
8.94683e-05
0.000101919
8.65594e-05
3.65065e-05
-8.12719e-05
-9.50104e-05
-1.9122e-05
0.000105955
0.000254706
0.000410683
0.000563565
0.000707211
0.00083817
0.000954732
0.0010563
0.00114298
0.00121526
0.00127389
0.00131968
0.00135346
0.00137599
0.00138796
0.00138992
0.00138231
0.00136547
0.00133962
0.00130489
0.00126134
0.00120898
0.00114779
0.00107778
0.000998954
0.000911375
0.000815184
0.000710612
0.000598005
0.000477837
0.000350723
0.000217429
7.88791e-05
-6.38455e-05
-0.000209509
-0.000356727
-0.000503982
-0.000649637
-0.000791958
-0.000929144
-0.00105935
-0.00118072
-0.00129144
-0.00138976
-0.00147402
-0.00154273
-0.00159457
-0.00162844
-0.00164351
-0.00163921
-0.00161528
-0.00157179
-0.00150915
-0.00142811
-0.00132976
-0.00121556
-0.0010873
-0.000947173
-0.00079774
-0.000642012
-0.00048352
-0.000326465
-0.000175939
-3.82607e-05
7.85524e-05
0.0001642
0.000205509
0.000186364
9.04298e-05
-9.77672e-05
-7.31725e-05
8.47855e-05
0.000318417
0.000590219
0.00087456
0.0011544
0.00141895
0.00166173
0.00187921
0.00206983
0.00223332
0.00237027
0.00248169
0.00256887
0.00263313
0.00267577
0.00269791
0.00270056
0.0026845
0.00265032
0.00259846
0.00252918
0.00244264
0.00233893
0.00221807
0.00208014
0.00192524
0.00175357
0.00156549
0.00136153
0.00114241
0.000909115
0.000662884
0.000405231
0.000137958
-0.000136844
-0.000416803
-0.000699284
-0.000981407
-0.00126008
-0.00153206
-0.00179395
-0.00204231
-0.0022737
-0.00248473
-0.00267215
-0.0028329
-0.00296422
-0.00306368
-0.00312925
-0.00315939
-0.00315309
-0.00310988
-0.00302993
-0.00291402
-0.00276359
-0.00258072
-0.00236819
-0.00212944
-0.00186864
-0.00159067
-0.00130127
-0.00100709
-0.000715959
-0.000437162
-0.000181843
3.63846e-05
0.000200798
0.000291
0.000282701
0.000147348
-8.44583e-05
2.08532e-05
0.000295474
0.000668151
0.00109107
0.0015303
0.00196239
0.00237187
0.002749
0.00308815
0.00338654
0.00364335
0.00385903
0.00403484
0.00417243
0.00427361
0.0043402
0.00437382
0.00437591
0.00434764
0.00428991
0.0042034
0.00408855
0.00394565
0.00377492
0.00357649
0.00335055
0.00309739
0.00281744
0.00251137
0.00218013
0.00182498
0.00144759
0.00105
0.000634689
0.00020459
-0.00023694
-0.000686111
-0.00113873
-0.00159024
-0.00203578
-0.00247022
-0.00288826
-0.00328452
-0.00365362
-0.00399029
-0.00428946
-0.00454638
-0.00475677
-0.00491684
-0.00502348
-0.0050743
-0.00506773
-0.00500308
-0.00488062
-0.00470161
-0.00446832
-0.00418408
-0.00385327
-0.00348135
-0.0030749
-0.00264167
-0.00219064
-0.00173225
-0.00127853
-0.000843553
-0.000443804
-9.88557e-05
0.000167951
0.000328877
0.000351188
0.000194234
-3.75809e-05
0.000197345
0.000626994
0.00117059
0.00177217
0.00239084
0.00299755
0.00357248
0.00410278
0.00458068
0.0050021
0.00536555
0.00567127
0.00592062
0.00611559
0.00625845
0.00635146
0.00639678
0.00639626
0.00635147
0.00626366
0.00613374
0.00596239
0.00575008
0.00549717
0.00520397
0.00487087
0.00449839
0.0040873
0.00363869
0.00315405
0.00263534
0.00208505
0.00150621
0.000902475
0.000278108
-0.000362026
-0.00101247
-0.00166722
-0.00231977
-0.00296317
-0.00359017
-0.00419326
-0.00476481
-0.00529723
-0.00578308
-0.00621522
-0.00658699
-0.00689231
-0.00712588
-0.00728332
-0.00736126
-0.00735749
-0.00727107
-0.00710236
-0.00685318
-0.00652675
-0.0061278
-0.00566258
-0.00513886
-0.00456599
-0.00395496
-0.00331848
-0.00267115
-0.0020297
-0.00141333
-0.000844191
-0.000347972
4.5341e-05
0.000300798
0.000377583
0.000224639
4.40587e-05
0.000461312
0.00108727
0.00183515
0.00264305
0.00346472
0.0042665
0.00502494
0.00572442
0.00635524
0.00691208
0.00739277
0.00779733
0.00812719
0.00838462
0.00857228
0.00869291
0.00874911
0.00874318
0.00867709
0.00855239
0.00837031
0.00813175
0.00783738
0.00748777
0.00708346
0.00662508
0.00611349
0.00554986
0.00493581
0.0042735
0.00356569
0.00281585
0.00202818
0.00120767
0.000360096
-0.000507958
-0.00138916
-0.00227546
-0.00315817
-0.00402806
-0.00487545
-0.00569038
-0.00646277
-0.00718254
-0.00783985
-0.00842527
-0.00892996
-0.00934591
-0.0096661
-0.0098847
-0.00999726
-0.0100008
-0.00989413
-0.00967767
-0.00935378
-0.00892675
-0.00840285
-0.00779036
-0.00709958
-0.00634291
-0.00553487
-0.00469222
-0.00383406
-0.00298208
-0.0021609
-0.00139845
-0.000726596
-0.000181841
0.000193996
0.000352783
0.000235131
0.000160455
0.000814626
0.0016801
0.00266684
0.00370912
0.00475687
0.00577304
0.00673134
0.00761396
0.00840961
0.00911195
0.00971827
0.0102284
0.0106438
0.0109671
0.0112013
0.0113496
0.011415
0.0114002
0.0113076
0.0111391
0.0108962
0.01058
0.0101915
0.00973138
0.00920055
0.00859991
0.00793073
0.00719465
0.00639394
0.00553148
0.004611
0.00363705
0.00261514
0.00155174
0.000454313
-0.000668685
-0.00180786
-0.00295294
-0.00409285
-0.00521585
-0.00630968
-0.00736169
-0.00835912
-0.00928921
-0.0101395
-0.010898
-0.0115536
-0.0120961
-0.0125166
-0.0128077
-0.0129636
-0.0129806
-0.012857
-0.0125934
-0.0121926
-0.0116601
-0.0110036
-0.0102337
-0.00936333
-0.00840814
-0.00738641
-0.00631914
-0.00523019
-0.00414641
-0.00309796
-0.00211866
-0.00124647
-0.000524226
-1.41576e-07
0.000271216
0.000224005
0.00031097
0.0012572
0.00240644
0.00366753
0.00497269
0.00626954
0.00751882
0.00869229
0.00977062
0.0107414
0.0115977
0.0123363
0.0129571
0.0134616
0.0138528
0.0141341
0.0143091
0.0143813
0.0143538
0.0142292
0.0140099
0.0136977
0.0132938
0.0127996
0.0122161
0.0115443
0.0107856
0.00994161
0.00901467
0.00800765
0.00692433
0.00576942
0.0045487
0.00326908
0.00193864
0.000566669
-0.000836375
-0.00225889
-0.00368822
-0.00511075
-0.00651206
-0.00787712
-0.00919043
-0.0104363
-0.0115992
-0.0126637
-0.0136153
-0.0144402
-0.0151258
-0.0156612
-0.0160372
-0.0162467
-0.0162849
-0.0161496
-0.0158414
-0.0153637
-0.0147229
-0.0139286
-0.0129933
-0.0119329
-0.0107664
-0.00951603
-0.00820716
-0.00686856
-0.0055324
-0.00423447
-0.00301448
-0.00191645
-0.000989278
-0.000287142
0.000129771
0.000190609
0.000494699
0.00178779
0.00326541
0.00483684
0.00643375
0.00800278
0.00950357
0.0109069
0.0121927
0.0133479
0.0143652
0.0152415
0.0159767
0.0165728
0.017033
0.0173611
0.0175612
0.0176372
0.0175926
0.0174306
0.0171536
0.0167638
0.0162628
0.015652
0.0149329
0.0141067
0.0131753
0.0121407
0.0110059
0.00977455
0.00845126
0.00704189
0.00555349
0.00399446
0.0023746
0.000705101
-0.00100146
-0.00273116
-0.00446883
-0.00619818
-0.00790199
-0.00956227
-0.0111605
-0.012678
-0.0140961
-0.0153964
-0.0165615
-0.0175747
-0.018421
-0.0190872
-0.0195621
-0.019837
-0.0199059
-0.0197662
-0.019418
-0.0188653
-0.0181155
-0.0171797
-0.0160729
-0.0148137
-0.0134245
-0.0119316
-0.010365
-0.00875833
-0.00714927
-0.00557929
-0.00409403
-0.00274347
-0.00158238
-0.00067055
-7.31723e-05
0.000134861
0.000710611
0.00240449
0.00425493
0.00617282
0.00809049
0.00995482
0.0117254
0.0133729
0.0148772
0.0162253
0.01741
0.0184286
0.0192812
0.0199704
0.0204997
0.0208737
0.0210968
0.0211734
0.0211074
0.0209024
0.020561
0.0200858
0.0194787
0.0187413
0.0178753
0.0168825
0.0157649
0.0145253
0.0131671
0.0116948
0.0101141
0.00843188
0.00665654
0.00479806
0.00286797
0.000879466
-0.00115268
-0.00321215
-0.00528116
-0.00734065
-0.00937045
-0.0113495
-0.0132562
-0.0150685
-0.0167645
-0.0183228
-0.0197225
-0.0209443
-0.0219703
-0.0227847
-0.0233741
-0.0237281
-0.0238394
-0.0237041
-0.0233226
-0.0226987
-0.021841
-0.020762
-0.019479
-0.0180134
-0.0163911
-0.0146425
-0.0128022
-0.0109091
-0.00900622
-0.00714087
-0.00536461
-0.00373339
-0.00230774
-0.00115281
-0.000338451
5.69269e-05
0.000957627
0.00310501
0.00537211
0.00767235
0.00993977
0.0121225
0.014181
0.0160868
0.0178203
0.0193693
0.0207273
0.021892
0.0228644
0.0236476
0.0242459
0.0246643
0.0249081
0.0249819
0.0248901
0.0246367
0.0242248
0.0236569
0.0229354
0.0220622
0.0210392
0.0198685
0.0185526
0.0170948
0.0154992
0.0137711
0.011917
0.00994511
0.00786517
0.0056887
0.00342905
0.00110142
-0.00127716
-0.00368791
-0.00611039
-0.00852268
-0.0109016
-0.0132228
-0.0154614
-0.0175921
-0.0195896
-0.0214288
-0.0230858
-0.0245378
-0.0257641
-0.0267458
-0.0274674
-0.0279162
-0.0280833
-0.0279638
-0.0275574
-0.0268682
-0.0259053
-0.024683
-0.0232203
-0.0215417
-0.0196766
-0.0176595
-0.0155297
-0.0133313
-0.0111129
-0.00892773
-0.00683336
-0.00489171
-0.00316909
-0.00173593
-0.00066663
-4.29768e-05
0.00123466
0.0038868
0.00661352
0.00933153
0.0119774
0.0145014
0.0168659
0.0190439
0.0210172
0.0227748
0.0243114
0.0256258
0.0267199
0.0275978
0.0282646
0.028726
0.0289879
0.0290556
0.0289339
0.0286272
0.0281388
0.0274717
0.0266284
0.0256111
0.0244219
0.0230634
0.0215385
0.0198508
0.0180052
0.0160078
0.013866
0.0115893
0.00918858
0.00667709
0.00406993
0.00138433
-0.00136043
-0.00414307
-0.00694045
-0.00972772
-0.0124786
-0.0151655
-0.01776
-0.0202333
-0.0225565
-0.024701
-0.0266391
-0.0283447
-0.0297936
-0.0309641
-0.0318376
-0.0323991
-0.0326378
-0.0325475
-0.0321269
-0.0313801
-0.0303167
-0.0289522
-0.0273077
-0.0254105
-0.0232934
-0.020995
-0.0185596
-0.0160363
-0.0134797
-0.010949
-0.00850773
-0.0062241
-0.00417024
-0.00242198
-0.00105835
-0.000164716
0.0015406
0.00474715
0.00797535
0.0111458
0.0141984
0.0170864
0.0197747
0.0222386
0.024462
0.0264358
0.0281562
0.0296236
0.0308412
0.0318143
0.032549
0.0330519
0.0333296
0.0333881
0.0332328
0.0328681
0.0322982
0.031526
0.0305544
0.0293857
0.0280225
0.0264675
0.0247241
0.0227964
0.0206898
0.0184112
0.0159691
0.0133737
0.0106377
0.00777561
0.00480433
0.00174311
-0.00138654
-0.00456086
-0.00775396
-0.0109381
-0.0140837
-0.0171599
-0.0201348
-0.0229757
-0.0256501
-0.0281255
-0.0303704
-0.0323548
-0.0340509
-0.0354336
-0.0364811
-0.0371758
-0.0375045
-0.0374591
-0.0370373
-0.0362427
-0.0350852
-0.0335813
-0.031754
-0.0296332
-0.0272553
-0.024663
-0.0219053
-0.019037
-0.0161183
-0.0132146
-0.010396
-0.00773689
-0.00531555
-0.00321347
-0.00151461
-0.000308328
0.00187436
0.00568322
0.00945347
0.0131101
0.0165971
0.0198713
0.0229009
0.0256642
0.028148
0.0303454
0.0322548
0.0338785
0.0352214
0.0362902
0.0370924
0.0376354
0.0379269
0.0379734
0.037781
0.0373547
0.0366987
0.0358164
0.034711
0.0333849
0.031841
0.0300822
0.0281123
0.0259359
0.0235589
0.0209889
0.0182353
0.0153094
0.0122249
0.00899807
0.0056474
0.00219408
-0.00133816
-0.00492312
-0.00853223
-0.0121347
-0.0156979
-0.0191874
-0.0225676
-0.0258023
-0.0288545
-0.031688
-0.034267
-0.0365576
-0.0385278
-0.0401487
-0.0413951
-0.0422459
-0.0426854
-0.0427034
-0.0422958
-0.0414654
-0.0402222
-0.0385834
-0.0365736
-0.0342253
-0.0315782
-0.0286792
-0.0255822
-0.0223475
-0.0190415
-0.0157359
-0.0125075
-0.00943739
-0.00661023
-0.0041136
-0.00203689
-0.000474078
0.00223479
0.00669203
0.0110435
0.0152191
0.0191673
0.0228493
0.0262374
0.0293135
0.0320677
0.034496
0.0365996
0.0383829
0.039853
0.0410183
0.0418875
0.0424697
0.0427732
0.0428055
0.0425733
0.0420821
0.0413365
0.0403402
0.0390965
0.0376082
0.0358782
0.0339098
0.031707
0.0292748
0.0266196
0.0237496
0.020675
0.0174081
0.0139637
0.0103595
0.00661549
0.00275483
-0.00119668
-0.00521046
-0.00925526
-0.0132974
-0.0173009
-0.021228
-0.0250393
-0.0286945
-0.0321527
-0.0353731
-0.0383156
-0.0409418
-0.0432155
-0.0451033
-0.046576
-0.047609
-0.0481831
-0.0482856
-0.0479103
-0.0470587
-0.0457404
-0.0439729
-0.0417824
-0.0392036
-0.0362794
-0.0330609
-0.0296071
-0.0259838
-0.0222639
-0.0185258
-0.0148532
-0.0113342
-0.00806061
-0.00512651
-0.00262734
-0.000662504
0.00262075
0.00777048
0.0127407
0.0174666
0.021902
0.026013
0.0297763
0.0331783
0.0362128
0.0388794
0.0411822
0.0431287
0.044728
0.0459905
0.046927
0.0475476
0.0478619
0.0478784
0.0476044
0.0470459
0.0462081
0.0450948
0.0437096
0.0420554
0.0401354
0.037953
0.0355124
0.0328189
0.0298794
0.0267026
0.0232992
0.0196825
0.0158684
0.0118757
0.00772594
0.00344398
-0.000942383
-0.00540225
-0.00990181
-0.0144045
-0.0188711
-0.0232603
-0.027529
-0.0316326
-0.0355261
-0.0391639
-0.0425013
-0.045495
-0.0481039
-0.0502901
-0.0520197
-0.0532639
-0.0539996
-0.0542108
-0.0538888
-0.0530334
-0.051653
-0.0497652
-0.0473974
-0.0445861
-0.0413776
-0.0378271
-0.0339985
-0.0299637
-0.0258019
-0.0215987
-0.0174453
-0.0134374
-0.00967432
-0.00625737
-0.00328883
-0.000874436
0.00303103
0.00891532
0.0145401
0.0198466
0.0247941
0.0293543
0.0335091
0.0372497
0.0405742
0.0434863
0.0459937
0.0481068
0.0498375
0.0511986
0.0522026
0.0528615
0.053186
0.0531856
0.0528685
0.0522414
0.0513096
0.0500775
0.0485487
0.0467264
0.0446139
0.0422146
0.0395329
0.0365744
0.0333463
0.0298574
0.0261194
0.0221459
0.017954
0.0135632
0.00899678
0.00428093
-0.000554642
-0.00547689
-0.0104495
-0.0154331
-0.0203854
-0.0252614
-0.0300142
-0.0345952
-0.0389544
-0.0430417
-0.0468073
-0.0502028
-0.0531816
-0.0557005
-0.0577207
-0.0592083
-0.0601359
-0.0604835
-0.0602392
-0.0594001
-0.0579734
-0.0559762
-0.0534364
-0.0503924
-0.0468933
-0.0429985
-0.0387769
-0.0343065
-0.0296735
-0.0249711
-0.0202982
-0.0157588
-0.0114604
-0.00751255
-0.00402505
-0.00111102
0.00346437
0.0101231
0.0164365
0.0223522
0.0278357
0.0328645
0.0374264
0.0415179
0.0451421
0.0483069
0.0510241
0.0533075
0.0551722
0.0566334
0.0577059
0.0584032
0.0587379
0.0587204
0.0583597
0.0576633
0.0566369
0.0552852
0.0536121
0.0516208
0.0493146
0.0466972
0.0437728
0.0405473
0.0370278
0.0332237
0.0291468
0.0248115
0.0202353
0.0154389
0.0104464
0.00528562
-1.21643e-05
-0.0054119
-0.010875
-0.0163592
-0.0218193
-0.0272069
-0.032471
-0.0375586
-0.0424153
-0.0469858
-0.0512149
-0.0550485
-0.0584345
-0.0613236
-0.0636713
-0.0654381
-0.0665915
-0.0671068
-0.0669679
-0.0661691
-0.0647151
-0.062622
-0.0599178
-0.0566425
-0.0528478
-0.0485969
-0.0439642
-0.0390338
-0.0338991
-0.0286612
-0.0234278
-0.0183118
-0.0134296
-0.00889963
-0.0048405
-0.00137373
0.00391943
0.0113902
0.0184244
0.0249764
0.0310184
0.0365344
0.0415184
0.0459728
0.0499058
0.0533304
0.0562627
0.0587204
0.0607218
0.062285
0.0634271
0.0641639
0.0645092
0.064475
0.0640711
0.0633057
0.0621851
0.0607143
0.0588973
0.0567374
0.0542381
0.0514027
0.0482358
0.0447428
0.0409313
0.0368106
0.0323926
0.0276922
0.0227273
0.0175193
0.0120933
0.00647818
0.000706722
-0.00518425
-0.011154
-0.0171578
-0.0231473
-0.0290707
-0.0348733
-0.0404976
-0.0458844
-0.050973
-0.0557026
-0.0600131
-0.063846
-0.0671458
-0.0698613
-0.0719468
-0.0733637
-0.0740818
-0.0740803
-0.0733492
-0.0718904
-0.0697182
-0.0668602
-0.0633572
-0.0592634
-0.0546458
-0.0495839
-0.0441685
-0.0385004
-0.0326893
-0.0268523
-0.0211116
-0.0155939
-0.0104275
-0.00574057
-0.00166436
0.00439481
0.0127127
0.0204978
0.0277116
0.0343334
0.0403541
0.0457745
0.050603
0.0548539
0.0585453
0.0616981
0.064334
0.066475
0.0681424
0.069356
0.0701335
0.0704907
0.0704409
0.069995
0.0691619
0.0679485
0.0663601
0.0644009
0.0620743
0.0593836
0.0563322
0.0529243
0.0491655
0.045063
0.0406261
0.0358668
0.0308
0.025444
0.0198206
0.0139555
0.00787856
0.00162373
-0.00477062
-0.0112618
-0.0178027
-0.0243423
-0.0308255
-0.0371935
-0.0433846
-0.0493346
-0.0549774
-0.0602462
-0.0650743
-0.0693966
-0.0731504
-0.0762773
-0.0787247
-0.080447
-0.0814073
-0.0815791
-0.0809476
-0.0795106
-0.0772799
-0.0742817
-0.0705575
-0.0661631
-0.0611695
-0.0556611
-0.0497354
-0.0435014
-0.0370778
-0.0305915
-0.0241755
-0.0179674
-0.0121063
-0.00673152
-0.00198506
0.00488902
0.0140867
0.0226505
0.0305498
0.0377712
0.0443131
0.0501833
0.0553968
0.0599742
0.0639393
0.0673177
0.070136
0.0724199
0.0741941
0.0754812
0.0763013
0.0766722
0.0766085
0.0761225
0.0752238
0.07392
0.0722167
0.0701182
0.067628
0.0647493
0.0614852
0.0578398
0.0538184
0.0494277
0.0446771
0.0395782
0.034146
0.0283985
0.0223579
0.0160503
0.00950611
0.00276021
-0.00414775
-0.0111734
-0.0182677
-0.0253768
-0.0324424
-0.0394022
-0.04619
-0.0527366
-0.0589704
-0.0648181
-0.0702064
-0.0750628
-0.0793169
-0.0829025
-0.0857587
-0.0878322
-0.0890786
-0.0894645
-0.0889689
-0.0875848
-0.0853203
-0.0821997
-0.0782638
-0.0735702
-0.0681929
-0.0622217
-0.0557609
-0.0489277
-0.0418506
-0.0346673
-0.0275224
-0.0205654
-0.0139477
-0.00782053
-0.00233831
0.00540046
0.0155077
0.024876
0.0334826
0.041322
0.0484003
0.0547328
0.0603417
0.0652538
0.069499
0.0731084
0.0761132
0.0785433
0.0804271
0.0817901
0.0826552
0.083042
0.082967
0.0824435
0.0814822
0.0800913
0.0782767
0.076043
0.0733936
0.0703315
0.0668597
0.0629818
0.0587026
0.0540287
0.0489687
0.0435341
0.0377393
0.0316023
0.0251451
0.0183938
0.0113791
0.00413673
-0.00329291
-0.0108641
-0.0185259
-0.0262221
-0.0338917
-0.0414685
-0.0488823
-0.0560587
-0.0629203
-0.0693877
-0.0753802
-0.0808174
-0.0856208
-0.0897152
-0.0930312
-0.0955061
-0.0970872
-0.0977328
-0.0974147
-0.0961196
-0.0938509
-0.0906298
-0.0864959
-0.0815075
-0.0757416
-0.0692928
-0.0622724
-0.0548064
-0.0470337
-0.0391035
-0.0311731
-0.0234051
-0.0159644
-0.00901566
-0.00272694
0.00592748
0.0169713
0.0271673
0.0365011
0.0449753
0.0526041
0.0594106
0.0654243
0.0706789
0.0752105
0.0790559
0.0822513
0.0848312
0.0868275
0.0882693
0.089182
0.0895875
0.089504
0.0889464
0.0879262
0.0864522
0.084531
0.0821672
0.0793642
0.0761247
0.0724514
0.0683475
0.0638173
0.0588667
0.0535038
0.0477393
0.0415871
0.0350648
0.0281938
0.0210001
0.0135144
0.00577257
-0.00218433
-0.0103096
-0.0185508
-0.0268497
-0.0351427
-0.0433603
-0.0514279
-0.0592665
-0.0667929
-0.0739209
-0.0805625
-0.0866289
-0.0920328
-0.0966896
-0.10052
-0.103451
-0.10542
-0.106376
-0.106282
-0.105118
-0.10288
-0.0995856
-0.0952719
-0.0899972
-0.0838406
-0.0769016
-0.0692984
-0.0611661
-0.0526546
-0.0439256
-0.0351501
-0.0265052
-0.0181706
-0.0103259
-0.00315411
0.00646829
0.0184728
0.0295172
0.0395959
0.04872
0.0569121
0.0642033
0.0706306
0.0762349
0.0810589
0.0851452
0.0885353
0.0912683
0.0933804
0.0949038
0.095867
0.0962943
0.0962058
0.0956178
0.094543
0.092991
0.0909685
0.0884806
0.0855306
0.0821209
0.0782538
0.073932
0.0691591
0.0639401
0.0582825
0.0521961
0.0456939
0.0387927
0.0315134
0.0238812
0.0159266
0.00768517
-0.000801736
-0.0094868
-0.0183166
-0.0272312
-0.0361646
-0.0450443
-0.0537921
-0.0623239
-0.0705509
-0.0783802
-0.0857161
-0.0924614
-0.0985189
-0.103794
-0.108196
-0.111642
-0.114058
-0.115381
-0.115564
-0.114578
-0.112413
-0.109078
-0.104608
-0.0990599
-0.0925146
-0.0850757
-0.0768681
-0.0680365
-0.0587424
-0.0491608
-0.0394778
-0.0298861
-0.0205819
-0.011761
-0.00362333
0.00702106
0.020007
0.0319181
0.0427575
0.052545
0.0613117
0.069097
0.075946
0.0819067
0.0870285
0.0913602
0.0949489
0.0978385
0.100069
0.101677
0.102694
0.103147
0.103057
0.102443
0.101318
0.0996935
0.097576
0.0949708
0.0918813
0.0883097
0.0842576
0.0797273
0.0747214
0.0692441
0.0633019
0.0569036
0.0500611
0.04279
0.0351103
0.0270463
0.0186277
0.0098896
0.000873067
-0.00837439
-0.0177987
-0.0273387
-0.0369266
-0.0464872
-0.0559387
-0.0651926
-0.0741544
-0.0827248
-0.0908
-0.098274
-0.10504
-0.110992
-0.116027
-0.120051
-0.122976
-0.124728
-0.125248
-0.124494
-0.122448
-0.119113
-0.114517
-0.108714
-0.101787
-0.0938416
-0.0850107
-0.0754479
-0.0653271
-0.0548377
-0.0441818
-0.0335695
-0.023215
-0.0133319
-0.00413847
0.00758386
0.021569
0.0343622
0.0459757
0.0564381
0.0657895
0.0740775
0.0813552
0.0876782
0.0931028
0.0976841
0.101475
0.104524
0.106877
0.108573
0.109647
0.110128
0.11004
0.109405
0.108235
0.106544
0.104338
0.101623
0.0984021
0.0946776
0.0904506
0.0857222
0.0804945
0.0747707
0.0685558
0.0618575
0.0546864
0.0470569
0.0389874
0.0305012
0.0216266
0.0123979
0.0028556
-0.00695327
-0.0169744
-0.027146
-0.0373988
-0.0476555
-0.0578311
-0.067833
-0.0775615
-0.0869107
-0.0957692
-0.104022
-0.111551
-0.118239
-0.123972
-0.12864
-0.132143
-0.134391
-0.135313
-0.134853
-0.132982
-0.129693
-0.125007
-0.118975
-0.111678
-0.103225
-0.093755
-0.0834311
-0.0724398
-0.0609861
-0.0492894
-0.0375787
-0.0260878
-0.01505
-0.00470371
0.0081547
0.0231533
0.0368413
0.0492401
0.0603874
0.0703318
0.0791298
0.0868423
0.0935328
0.0992645
0.104099
0.108095
0.111307
0.113785
0.115571
0.116705
0.117218
0.117137
0.116484
0.115275
0.113523
0.111236
0.108419
0.105076
0.101208
0.0968171
0.0919024
0.0864653
0.0805079
0.0740339
0.0670495
0.0595639
0.0515896
0.0431437
0.0342476
0.0249284
0.0152187
0.00515807
-0.00520731
-0.0158235
-0.0266287
-0.0375526
-0.0485164
-0.0594325
-0.0702047
-0.0807285
-0.0908917
-0.100575
-0.109655
-0.118002
-0.125488
-0.131984
-0.137366
-0.141519
-0.144337
-0.145732
-0.145635
-0.144002
-0.140813
-0.136083
-0.129854
-0.122206
-0.11325
-0.103129
-0.0920165
-0.0801121
-0.0676369
-0.0548292
-0.0419383
-0.0292196
-0.0169279
-0.00532361
0.00873152
0.0247545
0.0393472
0.0525402
0.0643802
0.0749247
0.0842385
0.092391
0.0994533
0.105496
0.110587
0.114791
0.118168
0.120773
0.122652
0.123848
0.124396
0.124326
0.12366
0.122417
0.12061
0.118249
0.115338
0.111882
0.107882
0.103338
0.0982498
0.0926168
0.0864401
0.079722
0.0724672
0.064683
0.0563801
0.0475736
0.0382832
0.0285337
0.0183564
0.00778878
-0.00312401
-0.0143291
-0.0257651
-0.0373615
-0.0490387
-0.060707
-0.0722672
-0.0836106
-0.0946192
-0.105167
-0.115119
-0.124339
-0.132683
-0.140009
-0.146178
-0.151056
-0.154522
-0.156469
-0.156811
-0.155487
-0.152464
-0.147742
-0.141358
-0.133386
-0.123937
-0.113159
-0.101234
-0.0883754
-0.0748216
-0.0608305
-0.046674
-0.0326306
-0.0189789
-0.00600305
0.00931227
0.0263671
0.0418715
0.0558653
0.068404
0.0795538
0.0893882
0.0979847
0.105422
0.111778
0.117128
0.121543
0.125087
0.12782
0.129794
0.131055
0.131641
0.131585
0.13091
0.129638
0.127783
0.125354
0.122358
0.118799
0.114677
0.109992
0.104742
0.0989278
0.0925473
0.0856016
0.0780936
0.0700286
0.0614155
0.052267
0.0426005
0.0324387
0.0218105
0.0107515
-0.000695174
-0.0124782
-0.0245372
-0.0368023
-0.0491935
-0.0616201
-0.0739807
-0.0861627
-0.0980432
-0.109489
-0.120358
-0.130501
-0.139762
-0.147986
-0.155015
-0.160699
-0.164897
-0.167481
-0.168345
-0.16741
-0.164624
-0.159975
-0.153487
-0.145226
-0.135303
-0.123868
-0.111112
-0.097261
-0.0825718
-0.0673237
-0.0518125
-0.0363421
-0.021217
-0.00674724
0.00989485
0.0279855
0.0444058
0.0592046
0.072446
0.0842048
0.094563
0.103606
0.111421
0.118093
0.123703
0.128329
0.132041
0.134904
0.136975
0.138302
0.138929
0.138888
0.138209
0.136912
0.135014
0.132525
0.129451
0.125798
0.121565
0.116751
0.111355
0.105373
0.0988054
0.0916496
0.083907
0.0755809
0.0666779
0.0572083
0.047187
0.036634
0.0255756
0.0140449
0.00208253
-0.0102623
-0.0229311
-0.0358552
-0.0489551
-0.0621399
-0.0753067
-0.0883404
-0.101113
-0.113487
-0.12531
-0.136424
-0.14666
-0.155847
-0.163812
-0.170383
-0.175399
-0.178711
-0.180189
-0.179732
-0.177267
-0.172765
-0.166233
-0.157731
-0.147361
-0.135277
-0.121676
-0.106799
-0.0909193
-0.0743396
-0.0573814
-0.0403765
-0.0236572
-0.00756175
0.0104772
0.0296043
0.0469418
0.0625474
0.0764934
0.0888632
0.0997471
0.109239
0.117432
0.12442
0.130291
0.135128
0.139009
0.142002
0.14417
0.145565
0.146233
0.146211
0.145529
0.144212
0.142275
0.139732
0.136589
0.132851
0.128517
0.123587
0.118057
0.111925
0.105186
0.0978383
0.0898809
0.081315
0.0721444
0.062377
0.0520247
0.0411049
0.0296407
0.0176621
0.00520691
-0.00767846
-0.020938
-0.0345051
-0.0483019
-0.0622378
-0.0762098
-0.0901008
-0.10378
-0.117104
-0.129914
-0.142041
-0.153305
-0.16352
-0.172493
-0.180035
-0.18596
-0.190095
-0.192285
-0.192403
-0.190354
-0.186083
-0.179582
-0.170894
-0.160117
-0.147401
-0.132951
-0.117018
-0.0998951
-0.0819091
-0.0634091
-0.0447567
-0.0263149
-0.00845246
0.0110573
0.031218
0.0494714
0.0658832
0.0805339
0.0935151
0.104925
0.114865
0.123437
0.13074
0.136871
0.14192
0.145968
0.149091
0.151354
0.152816
0.153526
0.153524
0.152842
0.151507
0.149537
0.146945
0.14374
0.139925
0.135501
0.130466
0.124816
0.118548
0.111656
0.104136
0.0959843
0.0872008
0.0777867
0.0677467
0.0570901
0.0458308
0.0339886
0.0215902
0.00866983
-0.00472946
-0.0185548
-0.0327426
-0.0472172
-0.0618898
-0.0766579
-0.091404
-0.105995
-0.120284
-0.134105
-0.147282
-0.159622
-0.170923
-0.180977
-0.189572
-0.196498
-0.201556
-0.204564
-0.205364
-0.203833
-0.199891
-0.193506
-0.184704
-0.17357
-0.160251
-0.144954
-0.127943
-0.109529
-0.0900628
-0.0699241
-0.0495065
-0.0292064
-0.00942558
0.0116331
0.0328216
0.0519867
0.069202
0.0845555
0.0981464
0.110081
0.120468
0.129416
0.137034
0.143424
0.148681
0.152894
0.156144
0.158502
0.16003
0.16078
0.160797
0.160117
0.158766
0.156765
0.154129
0.150868
0.146984
0.142479
0.137351
0.131595
0.125206
0.118178
0.110505
0.102181
0.0932036
0.0835713
0.073286
0.0623538
0.0507851
0.0385963
0.0258101
0.0124568
-0.00142451
-0.0157848
-0.0305642
-0.0456903
-0.0610772
-0.076624
-0.0922142
-0.107714
-0.122973
-0.137822
-0.152076
-0.165532
-0.177974
-0.189176
-0.198904
-0.206925
-0.213009
-0.216944
-0.218541
-0.217643
-0.214139
-0.20797
-0.199138
-0.187712
-0.173831
-0.157701
-0.139597
-0.119848
-0.0988306
-0.076955
-0.0546502
-0.0323485
-0.0104876
0.012203
0.0344102
0.0544804
0.0724942
0.0885467
0.102744
0.1152
0.126031
0.135354
0.143282
0.149926
0.155388
0.159763
0.163137
0.165586
0.167176
0.167966
0.168001
0.16732
0.165954
0.163925
0.161249
0.157936
0.15399
0.149413
0.144203
0.138354
0.131859
0.124712
0.116905
0.108431
0.0992838
0.0894597
0.0789579
0.0677808
0.0559356
0.0434345
0.0302962
0.0165466
0.00222042
-0.0126381
-0.0279733
-0.0437172
-0.0597876
-0.076087
-0.0925007
-0.108896
-0.125121
-0.141004
-0.156353
-0.170956
-0.184586
-0.196997
-0.207935
-0.217141
-0.224355
-0.229333
-0.231848
-0.231708
-0.228764
-0.222924
-0.214162
-0.202524
-0.188135
-0.1712
-0.151999
-0.130879
-0.108241
-0.0845304
-0.0602124
-0.0357585
-0.0116454
0.0127652
0.0359795
0.0569458
0.0757511
0.0924969
0.107296
0.120269
0.131539
0.141231
0.149465
0.156359
0.16202
0.166552
0.170044
0.172578
0.174227
0.175051
0.175101
0.174418
0.173036
0.170979
0.168265
0.164904
0.160902
0.156261
0.150978
0.145048
0.138463
0.131214
0.123293
0.11469
0.105397
0.0954088
0.0847203
0.073331
0.0612441
0.0484679
0.0350167
0.0209116
0.0061824
-0.00913175
-0.0249806
-0.0413011
-0.0580162
-0.0750326
-0.0922394
-0.109506
-0.126682
-0.143594
-0.160045
-0.175817
-0.19067
-0.204343
-0.216562
-0.22704
-0.235488
-0.241625
-0.245186
-0.245937
-0.243687
-0.238305
-0.229728
-0.217975
-0.203151
-0.185452
-0.165162
-0.142642
-0.118322
-0.092678
-0.0662177
-0.0394541
-0.0129059
0.0133182
0.0375255
0.0593771
0.0789651
0.0963966
0.111791
0.125274
0.136978
0.147032
0.155565
0.162701
0.168555
0.173234
0.176838
0.179451
0.181152
0.182004
0.182064
0.181376
0.179975
0.177889
0.175137
0.171731
0.167678
0.162979
0.157632
0.151631
0.144969
0.137635
0.129618
0.120909
0.111496
0.101371
0.0905268
0.0789589
0.0666671
0.0536554
0.0399333
0.0255173
0.0104315
-0.00529051
-0.0216044
-0.0384532
-0.0557658
-0.0734546
-0.0914139
-0.109517
-0.127617
-0.145539
-0.163087
-0.180036
-0.196137
-0.211116
-0.224676
-0.236508
-0.246291
-0.253705
-0.258444
-0.260227
-0.258817
-0.254036
-0.245777
-0.234023
-0.218853
-0.200449
-0.179092
-0.155156
-0.129096
-0.101424
-0.0726906
-0.0434533
-0.0142767
0.0138609
0.0390452
0.0617693
0.0821295
0.100238
0.116218
0.130204
0.142332
0.15274
0.161563
0.168932
0.174969
0.179788
0.183492
0.186176
0.187919
0.188793
0.188856
0.188156
0.186733
0.184615
0.181824
0.178373
0.174271
0.16952
0.164116
0.158056
0.151329
0.143925
0.135832
0.127037
0.117529
0.107295
0.0963265
0.0846149
0.0721563
0.0589504
0.0450023
0.0303229
0.014931
-0.00114628
-0.0178709
-0.0351928
-0.0530478
-0.0713554
-0.0900163
-0.10891
-0.127894
-0.146797
-0.165422
-0.183543
-0.200903
-0.217217
-0.23217
-0.245428
-0.25664
-0.265446
-0.271496
-0.27446
-0.274047
-0.270023
-0.262233
-0.250612
-0.235206
-0.216173
-0.193788
-0.168433
-0.140585
-0.110795
-0.0796552
-0.0477743
-0.0157651
0.0143924
0.0405363
0.0641188
0.0852394
0.104014
0.12057
0.135049
0.147591
0.158342
0.167444
0.175033
0.181241
0.186187
0.189981
0.192723
0.194498
0.195383
0.195439
0.194721
0.193268
0.191114
0.188281
0.184785
0.180636
0.175835
0.170382
0.16427
0.15749
0.150031
0.141879
0.133021
0.123441
0.113127
0.102065
0.0902451
0.0776588
0.0643018
0.0501742
0.0352819
0.0196375
0.00326189