/*--------------------------------*- C++ -*----------------------------------*\
  =========                 |
  \\      /  F ield         | OpenFOAM: The Open Source CFD Toolbox
   \\    /   O peration     | Website:  https://openfoam.org
    \\  /    A nd           | Version:  dev
     \\/     M anipulation  |
\*---------------------------------------------------------------------------*/
FoamFile
{
    format      ascii;
    class       volScalarField;
    location    "22.5";
    object      p;
}
// * * * * * * * * * * * * * * * * * * * * * * * * * * * * * * * * * * * * * //

dimensions      [0 2 -2 0 0 0 0];

internalField   nonuniform List<scalar> 
5184
(
2.0993e-06
-8.98846e-06
-9.46961e-05
-0.000247448
-0.000446692
-0.000675161
-0.000918612
-0.00116511
-0.00140549
-0.00163263
-0.0018411
-0.00202689
-0.00218708
-0.00231955
-0.00242285
-0.00249596
-0.00253821
-0.00254917
-0.00252856
-0.00247622
-0.00239206
-0.00227606
-0.00212828
-0.00194886
-0.00173803
-0.00149618
-0.00122384
-0.000921768
-0.000590958
-0.000232678
0.000151487
0.00055961
0.000989401
0.00143819
0.00190291
0.00238013
0.00286603
0.00335645
0.00384691
0.00433268
0.00480882
0.00527027
0.00571189
0.00612862
0.0065155
0.00686782
0.00718123
0.0074518
0.00767616
0.00785157
0.00797603
0.00804832
0.00806811
0.00803596
0.00795335
0.00782273
0.0076475
0.00743196
0.00718131
0.00690161
0.00659972
0.00628324
0.00596046
0.00564035
0.00533245
0.00504684
0.00479402
0.0045846
0.00442855
0.00433432
0.00430738
0.00433464
1.61228e-05
3.73029e-06
-7.07839e-05
-0.00019844
-0.000363554
-0.000553654
-0.000757814
-0.00096644
-0.00117161
-0.00136693
-0.00154737
-0.00170902
-0.00184891
-0.00196482
-0.0020551
-0.00211857
-0.00215435
-0.00216186
-0.00214066
-0.00209047
-0.00201111
-0.0019025
-0.00176464
-0.00159765
-0.00140175
-0.00117731
-0.000924854
-0.000645116
-0.000339056
-7.89027e-06
0.000346874
0.00072342
0.0011196
0.00153292
0.00196055
0.00239929
0.00284565
0.0032958
0.00374565
0.00419089
0.00462701
0.00504941
0.00545347
0.0058346
0.00618834
0.00651047
0.0067971
0.00704474
0.00725042
0.00741174
0.00752699
0.00759517
0.00761609
0.00759037
0.00751947
0.00740574
0.00725233
0.00706326
0.00684334
0.00659809
0.00633377
0.00605725
0.00577596
0.00549782
0.00523113
0.00498446
0.00476649
0.00458557
0.00444901
0.00436274
0.00433417
0.00436176
0.000102884
7.81618e-05
2.87716e-06
-0.000114569
-0.000262152
-0.00043024
-0.000610129
-0.000793987
-0.00097512
-0.00114797
-0.00130804
-0.00145174
-0.00157626
-0.00167944
-0.00175964
-0.0018156
-0.00184641
-0.00185138
-0.00183001
-0.00178194
-0.00170693
-0.00160485
-0.00147565
-0.0013194
-0.00113629
-0.000926643
-0.000690953
-0.0004299
-0.000144383
0.000164456
0.000495205
0.000846162
0.00121532
0.00160034
0.00199859
0.0024071
0.00282259
0.00324151
0.00366007
0.00407425
0.00447989
0.00487271
0.00524843
0.00560282
0.00593175
0.00623134
0.006498
0.00672855
0.00692027
0.00707099
0.00717918
0.007244
0.00726531
0.00724378
0.00718083
0.0070787
0.00694041
0.00676971
0.00657109
0.0063497
0.00611131
0.0058622
0.00560913
0.00535921
0.00511982
0.00489839
0.00470241
0.00453893
0.00441399
0.00433279
0.00430499
0.00433559
0.00025784
0.000206436
0.00011869
-1.67498e-07
-0.00014248
-0.000300473
-0.000467024
-0.000635769
-0.00080117
-0.000958544
-0.00110402
-0.00123447
-0.00134738
-0.0014408
-0.0015132
-0.00156339
-0.00159048
-0.00159378
-0.00157276
-0.00152702
-0.00145629
-0.00136038
-0.0012392
-0.00109278
-0.000921233
-0.000724837
-0.000504016
-0.000259375
8.2724e-06
0.000297879
0.000608142
0.000937484
0.00128403
0.00164562
0.00201977
0.00240369
0.00279433
0.00318834
0.00358214
0.00397195
0.00435385
0.0047238
0.00507776
0.00541173
0.00572181
0.00600434
0.00625594
0.0064736
0.00665475
0.00679739
0.00690007
0.00696202
0.00698315
0.00696413
0.00690634
0.00681193
0.00668377
0.00652543
0.00634115
0.00613577
0.00591466
0.00568367
0.00544899
0.00521712
0.00499471
0.00478843
0.00460487
0.00445034
0.00433026
0.00424966
0.0042186
0.0042438
0.000462437
0.000373866
0.000265341
0.000137746
-6.47886e-06
-0.000161172
-0.000320568
-0.000479667
-0.000634063
-0.000779959
-0.000914176
-0.00103411
-0.00113764
-0.00122309
-0.00128912
-0.0013347
-0.00135898
-0.00136132
-0.00134122
-0.00129825
-0.00123212
-0.0011426
-0.00102955
-0.000892922
-0.000732786
-0.000549331
-0.000342898
-0.000113999
0.000136657
0.000408137
0.000699263
0.00100859
0.0013344
0.00167468
0.00202711
0.00238909
0.00275773
0.00312988
0.00350216
0.00387096
0.00423256
0.00458311
0.00491874
0.00523563
0.00553005
0.00579847
0.00603766
0.00624471
0.00641718
0.00655312
0.00665115
0.00671053
0.0067312
0.00671377
0.00665959
0.00657071
0.00644989
0.00630052
0.00612662
0.00593276
0.005724
0.00550577
0.00528383
0.00506411
0.00485267
0.00465554
0.00447861
0.00432751
0.00420721
0.00412247
0.00408207
0.00409184
0.000700533
0.000568577
0.000433507
0.000291588
0.000139804
-1.70762e-05
-0.000174451
-0.000328579
-0.000476129
-0.000614176
-0.000740251
-0.000852306
-0.000948672
-0.001028
-0.0010892
-0.00113141
-0.00115392
-0.00115615
-0.00113764
-0.00109797
-0.00103683
-0.000953962
-0.000849166
-0.000722334
-0.000573453
-0.000402625
-0.000210088
3.75525e-06
0.000238315
0.000492788
0.000766133
0.00105705
0.00136397
0.00168504
0.0020181
0.00236071
0.00271015
0.00306342
0.0034173
0.00376835
0.00411298
0.00444749
0.00476812
0.00507117
0.00535302
0.00561022
0.00583961
0.00603835
0.00620403
0.00633474
0.0064291
0.00648637
0.00650645
0.00648994
0.00643809
0.00635289
0.00623696
0.00609355
0.0059265
0.00574015
0.00553927
0.00532897
0.00511463
0.00490173
0.00469584
0.00450243
0.00432683
0.0041741
0.00404879
0.0039553
0.00390012
0.00388699
0.000958349
0.000779704
0.000614292
0.000453892
0.000290134
0.000126621
-3.30276e-05
-0.000186212
-0.0003306
-0.000464105
-0.000584956
-0.000691682
-0.000783077
-0.000858158
-0.000916125
-0.000956317
-0.000978182
-0.000981243
-0.000965084
-0.000929328
-0.000873644
-0.000797737
-0.000701365
-0.000584343
-0.000446572
-0.00028805
-0.000108904
9.05875e-05
0.000309969
0.000548578
0.000805519
0.00107965
0.00136954
0.00167351
0.00198954
0.00231535
0.00264836
0.00298571
0.00332432
0.00366085
0.00399181
0.00431361
0.00462256
0.00491502
0.0051874
0.00543631
0.00565857
0.00585137
0.00601227
0.00613933
0.00623116
0.00628697
0.00630659
0.00629056
0.00624006
0.00615697
0.00604381
0.0059037
0.00574032
0.00555783
0.00536076
0.00515397
0.00494251
0.00473153
0.00452617
0.0043315
0.00415235
0.0039933
0.00385858
0.00375224
0.00367793
0.00363688
0.00122378
0.000997119
0.000799111
0.000617377
0.000438442
0.000264942
9.96657e-05
-5.58166e-05
-0.000200096
-0.000331876
-0.000450061
-0.000553751
-0.000642211
-0.000714839
-0.000771136
-0.000810673
-0.000833065
-0.000837954
-0.000824993
-0.000793838
-0.000744154
-0.000675617
-0.000587926
-0.000480822
-0.000354107
-0.000207671
-4.15138e-05
0.000144222
0.000349225
0.000572983
0.000814757
0.00107356
0.00134813
0.00163691
0.00193807
0.00224944
0.00256859
0.00289276
0.00321898
0.00354399
0.0038644
0.00417662
0.00447704
0.00476199
0.0050279
0.00527134
0.00548911
0.00567833
0.00583651
0.00596164
0.00605224
0.00610743
0.00612698
0.00611131
0.00606153
0.0059794
0.00586735
0.00572837
0.00556601
0.00538427
0.00518752
0.00498039
0.00476771
0.00455434
0.00434513
0.00414478
0.00395778
0.0037883
0.00364033
0.0035176
0.00342085
0.00334866
0.00148658
0.00121168
0.00097991
0.000775012
0.000578679
0.000392744
0.000219288
5.89532e-05
-8.77025e-05
-0.000220121
-0.000337851
-0.000440546
-0.000527934
-0.000599795
-0.000655936
-0.000696167
-0.000720282
-0.000728046
-0.000719189
-0.000693403
-0.000650351
-0.000589678
-0.000511023
-0.000414043
-0.000298436
-0.000163972
-1.05152e-05
0.000161938
0.000353229
0.000563009
0.000790702
0.00103548
0.00129624
0.00157159
0.00185983
0.00215893
0.00246657
0.0027801
0.00309662
0.00341295
0.00372571
0.00403134
0.00432621
0.00460664
0.00486899
0.00510977
0.00532568
0.00551375
0.00567137
0.00579641
0.00588728
0.00594296
0.00596311
0.00594804
0.00589872
0.00581683
0.00570466
0.00556511
0.00540162
0.00521805
0.00501864
0.00480788
0.00459041
0.0043709
0.00415398
0.00394411
0.00374547
0.00356195
0.00339741
0.00325538
0.00313367
0.00302834
0.00173778
0.00141513
0.0011492
0.000920075
0.000704883
0.00050478
0.000321242
0.000154069
3.03413e-06
-0.000131992
-0.000251167
-0.000354673
-0.000442686
-0.000515359
-0.000572801
-0.000615058
-0.000642104
-0.000653829
-0.000650038
-0.000630459
-0.000594753
-0.000542527
-0.000473356
-0.000386808
-0.000282468
-0.000159975
-1.90514e-05
0.000140464
0.000318579
0.000515111
0.000729656
0.000961554
0.00120987
0.00147335
0.00175045
0.00203927
0.00233758
0.00264284
0.00295219
0.0032625
0.0035704
0.00387231
0.00416456
0.0044434
0.00470509
0.00494602
0.00516278
0.00535222
0.00551159
0.00563859
0.00573145
0.00578902
0.00581077
0.00579686
0.00574814
0.00566616
0.00555309
0.00541174
0.00524542
0.00505792
0.00485337
0.00463617
0.00441083
0.00418191
0.00395388
0.00373107
0.00351747
0.00331675
0.00313278
0.00296897
0.00282039
0.0026807
0.00196943
0.00159999
0.00130001
0.00104617
0.000811238
0.000595804
0.000400812
0.000225289
6.82845e-05
-7.0974e-05
-0.000193216
-0.000299123
-0.0003893
-0.000464256
-0.000524392
-0.000569983
-0.000601173
-0.000617973
-0.000620262
-0.000607797
-0.00058023
-0.000537128
-0.000477992
-0.000402293
-0.000309495
-0.0001991
-7.06724e-05
7.61125e-05
0.000241436
0.000425294
0.000627461
0.000847453
0.0010845
0.00133751
0.00160507
0.00188541
0.00217641
0.0024756
0.00278017
0.003087
0.00339271
0.0036937
0.00398619
0.00426634
0.0045303
0.00477427
0.00499467
0.00518816
0.00535178
0.00548302
0.00557989
0.00564103
0.00566573
0.00565394
0.00560637
0.0055244
0.00541009
0.00526613
0.00509575
0.00490267
0.00469096
0.00446494
0.00422908
0.00398789
0.00374578
0.003507
0.00327548
0.00305479
0.00284886
0.00266118
0.00248419
0.00230932
0.00217441
0.00175938
0.00142584
0.0011472
0.000892102
0.000660623
0.00045323
0.000268237
0.000104018
-4.08008e-05
-0.000167486
-0.000277192
-0.000370925
-0.000449534
-0.000513695
-0.000563898
-0.00060045
-0.00062347
-0.000632901
-0.000628524
-0.000609973
-0.000576766
-0.000528325
-0.000464011
-0.000383161
-0.000285126
-0.000169308
-3.52052e-05
0.000117547
0.000289133
0.000479513
0.000688387
0.000915158
0.0011589
0.00141835
0.00169184
0.00197737
0.00227252
0.00257454
0.00288031
0.00318643
0.00348921
0.00378479
0.00406918
0.00433836
0.00458836
0.00481534
0.00501575
0.00518635
0.00532438
0.00542759
0.00549435
0.00552371
0.00551541
0.00546994
0.00538853
0.00527308
0.00512617
0.00495096
0.00475109
0.0045306
0.00429382
0.0040452
0.00378926
0.00353044
0.00327302
0.00302093
0.00277776
0.00254763
0.00233422
0.00212748
0.00191676
0.00234618
0.00188692
0.00152056
0.00121736
0.000942014
0.000694122
0.000473722
0.000278455
0.000106062
-4.5398e-05
-0.000177696
-0.000292428
-0.000390983
-0.000474525
-0.000543985
-0.000600056
-0.000643189
-0.000673601
-0.000691289
-0.000696043
-0.000687474
-0.000665038
-0.000628066
-0.000575805
-0.00050745
-0.000422193
-0.000319262
-0.000197967
-5.77489e-05
0.000101774
0.00028076
0.000479103
0.000696389
0.000931864
0.0011844
0.00145249
0.0017342
0.0020272
0.00232877
0.00263579
0.0029448
0.00325206
0.00355355
0.00384515
0.00412261
0.00438173
0.00461842
0.00482882
0.0050094
0.00515708
0.0052693
0.00534411
0.00538027
0.00537726
0.00533532
0.00525547
0.00513945
0.00498971
0.00480933
0.0046019
0.00437147
0.00412236
0.0038591
0.00358629
0.00330846
0.00303
0.00275494
0.002487
0.00223061
0.00198972
0.00175195
0.00150467
0.00247865
0.00197667
0.00157841
0.00125112
0.000955693
0.000691291
0.000457541
0.00025145
7.01521e-05
-8.88252e-05
-0.000227731
-0.000348579
-0.000453112
-0.000542789
-0.000618778
-0.000681953
-0.000732896
-0.000771907
-0.000799021
-0.000814027
-0.000816498
-0.00080582
-0.000781223
-0.000741824
-0.000686669
-0.000614778
-0.000525194
-0.000417027
-0.000289512
-0.000142056
2.57106e-05
0.000213885
0.000422249
0.000650231
0.000896865
0.00116077
0.00144013
0.0017327
0.00203576
0.00234621
0.00266054
0.0029749
0.00328515
0.00358695
0.00387584
0.00414734
0.00439706
0.00462079
0.00481466
0.0049752
0.00509949
0.00518521
0.00523076
0.00523531
0.0051988
0.00512201
0.00500647
0.00485451
0.00466909
0.00445378
0.00421263
0.00395003
0.00367062
0.00337912
0.00308026
0.00277859
0.00247838
0.00218353
0.0018989
0.00162884
0.00135872
0.00107397
0.00256613
0.00202301
0.00159392
0.00124317
0.000928039
0.000647238
0.000400005
0.000182734
-8.01379e-06
-0.000175223
-0.000321593
-0.000449531
-0.000561112
-0.000658067
-0.000741781
-0.00081329
-0.000873288
-0.000922144
-0.000959916
-0.000986379
-0.00100105
-0.00100324
-0.000992064
-0.000966495
-0.000925419
-0.000867672
-0.000792098
-0.000697596
-0.00058318
-0.000448031
-0.000291557
-0.000113438
8.6318e-05
0.000307334
0.000548822
0.000809549
0.00108782
0.00138146
0.00168781
0.00200375
0.00232573
0.00264978
0.00297161
0.00328668
0.00359026
0.00387757
0.00414386
0.00438455
0.00459535
0.00477235
0.0049122
0.00501215
0.00507018
0.00508507
0.00505643
0.00498472
0.00487126
0.00471818
0.00452835
0.0043053
0.00405309
0.00377623
0.00347949
0.00316779
0.00284611
0.0025193
0.00219188
0.00186809
0.00155329
0.00125232
0.00094838
0.000624961
0.0026032
0.00202062
0.00156188
0.00118846
0.00085414
0.000557211
0.000296519
6.78682e-05
-0.000132736
-0.000308764
-0.000463348
-0.000599263
-0.000718896
-0.00082423
-0.000916845
-0.00099792
-0.00106825
-0.00112824
-0.00117798
-0.00121719
-0.00124535
-0.00126165
-0.00126509
-0.00125449
-0.00122856
-0.00118595
-0.00112527
-0.00104521
-0.000944544
-0.000822209
-0.000677371
-0.000509472
-0.00031829
-0.000103988
0.000132842
0.000391135
0.00066933
0.000965349
0.00127659
0.00159994
0.00193178
0.00226805
0.00260431
0.00293576
0.00325742
0.00356414
0.0038508
0.00411237
0.0043441
0.00454158
0.00470095
0.00481896
0.0048931
0.00492169
0.00490393
0.00483992
0.00473069
0.00457817
0.00438507
0.00415489
0.00389174
0.00360023
0.00328533
0.00295223
0.0026062
0.00225246
0.00189591
0.00154118
0.00119425
0.000860574
0.000521138
0.000157508
0.00258472
0.00196446
0.00147734
0.00108214
0.000729275
0.000416608
0.000142604
-9.75117e-05
-0.00030827
-0.000493611
-0.000657076
-0.000801793
-0.000930438
-0.00104523
-0.00114791
-0.00123981
-0.00132177
-0.00139427
-0.00145735
-0.00151072
-0.00155376
-0.00158556
-0.00160499
-0.00161069
-0.00160119
-0.00157492
-0.00153028
-0.0014657
-0.00137971
-0.00127099
-0.00113843
-0.000981229
-0.0007989
-0.00059137
-0.000359015
-0.000102704
0.000176159
0.000475615
0.000793135
0.00112562
0.00146942
0.00182038
0.00217387
0.00252488
0.0028681
0.00319803
0.0035091
0.00379581
0.00405285
0.00427528
0.00445864
0.00459911
0.00469358
0.00473985
0.00473662
0.00468356
0.00458134
0.00443163
0.004237
0.00400085
0.00372735
0.00342124
0.00308771
0.00273228
0.0023606
0.00197831
0.00159079
0.00120316
0.000822104
0.000453762
7.69058e-05
-0.000328882
0.00250581
0.00184972
0.00133559
0.000919601
0.00054892
0.000221003
-6.60781e-05
-0.000317658
-0.000538791
-0.00073387
-0.000906831
-0.00106113
-0.00119972
-0.00132503
-0.00143897
-0.00154296
-0.00163793
-0.00172434
-0.00180225
-0.00187129
-0.00193076
-0.00197962
-0.00201658
-0.00204011
-0.00204855
-0.00204009
-0.00201289
-0.00196513
-0.00189506
-0.00180107
-0.00168177
-0.00153608
-0.00136323
-0.00116289
-0.000935164
-0.000680715
-0.000400754
-9.70908e-05
0.000227842
0.000570989
0.000928683
0.00129667
0.00167017
0.00204391
0.00241228
0.00276938
0.00310917
0.00342559
0.00371277
0.00396511
0.00417748
0.00434539
0.00446507
0.00453368
0.00454932
0.00451115
0.00441943
0.00427547
0.00408165
0.00384127
0.00355853
0.00323832
0.00288609
0.00250772
0.00210931
0.00169702
0.00127678
0.000854269
0.000437001
3.18876e-05
-0.000384598
-0.000834932
0.0023618
0.00167186
0.00113218
0.000696448
0.000308765
-3.38448e-05
-0.000333697
-0.00059668
-0.000828354
-0.00103355
-0.00121659
-0.00138123
-0.00153069
-0.00166759
-0.00179399
-0.0019114
-0.00202079
-0.00212263
-0.00221695
-0.0023033
-0.00238088
-0.00244852
-0.00250475
-0.00254789
-0.00257601
-0.0025871
-0.00257904
-0.00254974
-0.00249715
-0.00241936
-0.00231469
-0.00218171
-0.00201935
-0.00182698
-0.00160444
-0.00135211
-0.00107098
-0.000762679
-0.000429502
-7.44298e-05
0.000298874
0.000686088
0.00108227
0.00148194
0.00187912
0.0022675
0.00264054
0.00299161
0.00331414
0.00360184
0.00384883
0.00404981
0.00420028
0.00429662
0.00433625
0.00431771
0.00424072
0.00410621
0.00391625
0.00367403
0.00338375
0.00305044
0.00267987
0.0022783
0.00185234
0.00140875
0.000954093
0.000494721
3.90495e-05
-0.000405131
-0.000863761
-0.00136149
0.0021483
0.00142657
0.000862877
0.00040854
4.72828e-06
-0.000351959
-0.00066423
-0.000938511
-0.00118086
-0.00139653
-0.0015902
-0.00176594
-0.0019272
-0.00207679
-0.00221688
-0.00234908
-0.00247438
-0.00259325
-0.00270566
-0.0028111
-0.00290863
-0.00299695
-0.00307443
-0.00313914
-0.00318897
-0.00322162
-0.00323471
-0.00322585
-0.00319268
-0.00313296
-0.00304465
-0.00292599
-0.00277557
-0.00259241
-0.00237603
-0.0021265
-0.00184455
-0.00153156
-0.00118967
-0.000821725
-0.000431359
-2.29294e-05
0.000398494
0.000827192
0.00125687
0.00168079
0.00209184
0.00248278
0.00284632
0.00317535
0.00346315
0.00370355
0.00389113
0.0040214
0.00409098
0.00409764
0.00404049
0.00391992
0.00373767
0.00349673
0.00320126
0.00285646
0.00246837
0.00204371
0.00158967
0.00111367
0.000622986
0.000124742
-0.000371632
-0.000857372
-0.00136098
-0.00190943
0.00186114
0.00110983
0.000523748
5.19937e-05
-0.000367021
-0.000737128
-0.00106143
-0.00134688
-0.00160001
-0.0018265
-0.00203136
-0.00221896
-0.00239296
-0.00255635
-0.00271142
-0.00285983
-0.00300261
-0.0031402
-0.00327251
-0.00339894
-0.00351844
-0.00362954
-0.00373042
-0.00381894
-0.00389275
-0.00394929
-0.00398588
-0.0039998
-0.00398836
-0.00394896
-0.0038792
-0.00377693
-0.00364036
-0.00346811
-0.00325935
-0.00301378
-0.00273181
-0.00241455
-0.00206389
-0.00168252
-0.00127397
-0.000842612
-0.000393603
6.71276e-05
0.000532967
0.000996719
0.00145074
0.00188707
0.00229765
0.00267451
0.00300995
0.00329679
0.0035286
0.00369989
0.00380628
0.00384468
0.0038134
0.00371222
0.00354242
0.00330669
0.00300914
0.00265507
0.00225084
0.00180365
0.00132131
0.000811992
0.000283779
-0.000255352
-0.000794837
-0.00132483
-0.0018766
-0.00247958
0.00149646
0.00071788
0.000111127
-0.000376796
-0.000810042
-0.00119288
-0.00152879
-0.00182526
-0.00208928
-0.00232692
-0.00254354
-0.00274377
-0.00293149
-0.00310983
-0.0032812
-0.00344732
-0.00360921
-0.00376731
-0.00392144
-0.00407092
-0.00421456
-0.00435071
-0.00447738
-0.0045922
-0.00469256
-0.00477561
-0.00483837
-0.00487778
-0.00489078
-0.0048744
-0.00482583
-0.0047425
-0.00462218
-0.00446307
-0.00426391
-0.004024
-0.00374336
-0.00342274
-0.00306375
-0.00266885
-0.00224142
-0.00178576
-0.0013071
-0.00081154
-0.000305986
0.000201924
0.000703961
0.00119146
0.00165551
0.00208717
0.00247768
0.00281874
0.00310275
0.00332304
0.00347409
0.00355177
0.00355346
0.00347814
0.0033265
0.00310087
0.00280519
0.00244484
0.00202649
0.00155782
0.00104735
0.000504058
-6.30666e-05
-0.000645095
-0.0012302
-0.00180735
-0.00241076
-0.00307258
0.00105071
0.00024729
-0.000378343
-0.000881129
-0.0013276
-0.00172244
-0.00206954
-0.00237687
-0.00265188
-0.00290101
-0.00312996
-0.0033436
-0.00354603
-0.00374051
-0.00392956
-0.00411493
-0.00429766
-0.00447814
-0.00465614
-0.00483085
-0.00500095
-0.00516464
-0.0053197
-0.00546354
-0.00559328
-0.00570578
-0.00579774
-0.00586573
-0.00590631
-0.00591609
-0.00589182
-0.00583047
-0.00572935
-0.00558617
-0.00539916
-0.00516719
-0.00488979
-0.00456733
-0.00420101
-0.00379301
-0.00334649
-0.00286562
-0.00235562
-0.00182271
-0.00127407
-0.000717769
-0.000162608
0.000382002
0.00090625
0.00140014
0.00185377
0.00225756
0.00260258
0.00288082
0.00308544
0.00321106
0.00325393
0.00321209
0.00308545
0.00287584
0.00258695
0.00222416
0.00179442
0.00130594
0.000767954
0.000190348
-0.000416902
-0.0010438
-0.00167712
-0.00230451
-0.00296341
-0.00368886
0.000520655
-0.000305044
-0.000947683
-0.00146398
-0.00192262
-0.00232872
-0.00268656
-0.00300459
-0.00329069
-0.00355167
-0.00379352
-0.00402139
-0.00423954
-0.00445139
-0.00465953
-0.00486575
-0.0050711
-0.00527593
-0.00547994
-0.0056822
-0.00588125
-0.00607511
-0.00626137
-0.0064372
-0.00659943
-0.00674463
-0.00686914
-0.00696918
-0.00704088
-0.00708041
-0.00708405
-0.00704826
-0.00696983
-0.00684594
-0.00667427
-0.00645314
-0.00618156
-0.00585939
-0.00548739
-0.00506735
-0.0046021
-0.00409564
-0.00355308
-0.00298071
-0.00238593
-0.00177718
-0.00116385
-0.000556104
3.53075e-05
0.000599274
0.00112461
0.00160034
0.00201605
0.00236219
0.00263038
0.00281379
0.0029073
0.00290778
0.00281421
0.00262773
0.00235163
0.00199124
0.00155371
0.00104777
0.000483424
-0.000128465
-0.00077683
-0.00145049
-0.00213468
-0.00281558
-0.00353412
-0.0043285
-9.65539e-05
-0.000941857
-0.00159956
-0.00212796
-0.0025977
-0.0030143
-0.00338243
-0.00371099
-0.00400827
-0.00428145
-0.0045368
-0.0047797
-0.00501461
-0.00524506
-0.00547373
-0.00570246
-0.00593227
-0.00616349
-0.00639572
-0.00662796
-0.00685857
-0.00708542
-0.00730588
-0.00751687
-0.00771496
-0.00789639
-0.00805716
-0.00819307
-0.00829984
-0.00837316
-0.0084088
-0.00840269
-0.00835103
-0.0082504
-0.00809788
-0.00789116
-0.00762865
-0.00730963
-0.0069343
-0.00650396
-0.00602106
-0.00548926
-0.00491352
-0.00430009
-0.00365653
-0.0029916
-0.00231524
-0.00163835
-0.00097268
-0.000330502
0.000275619
0.00083318
0.00133009
0.00175506
0.00209797
0.00235025
0.00250518
0.00255821
0.00250713
0.0023522
0.00209615
0.00174409
0.00130333
0.000783111
0.000194207
-0.000451465
-0.00114164
-0.00186384
-0.00260157
-0.00333939
-0.00412205
-0.00499111
-0.000803365
-0.00166549
-0.00233624
-0.00287531
-0.00335505
-0.00378137
-0.00415932
-0.00449823
-0.00480679
-0.00509251
-0.00536195
-0.0056207
-0.0058734
-0.00612371
-0.00637438
-0.00662726
-0.00688342
-0.0071431
-0.00740587
-0.00767057
-0.00793548
-0.00819825
-0.00845607
-0.0087056
-0.00894314
-0.0091646
-0.0093656
-0.00954157
-0.00968775
-0.00979934
-0.00987156
-0.00989975
-0.00987949
-0.00980672
-0.00967781
-0.00948978
-0.00924034
-0.00892806
-0.00855253
-0.00811443
-0.00761569
-0.00705957
-0.00645073
-0.0057953
-0.00510086
-0.00437648
-0.00363254
-0.00288071
-0.00213368
-0.00140498
-0.00070861
-5.87575e-05
0.000530656
0.00104638
0.00147628
0.0018098
0.00203833
0.00215559
0.00215792
0.00204441
0.00181703
0.00148052
0.00104223
0.000511845
-9.90543e-05
-0.000777444
-0.00150976
-0.00228208
-0.003076
-0.00387429
-0.00472581
-0.00567581
-0.00160179
-0.00247788
-0.0031596
-0.00370787
-0.00419648
-0.00463173
-0.00501901
-0.00536809
-0.00568802
-0.00598662
-0.00627071
-0.00654611
-0.00681762
-0.00708902
-0.00736313
-0.00764184
-0.00792622
-0.00821647
-0.00851208
-0.00881182
-0.00911381
-0.00941555
-0.00971399
-0.0100056
-0.0102864
-0.0105519
-0.0107974
-0.0110179
-0.0112082
-0.0113629
-0.0114767
-0.0115443
-0.0115607
-0.011521
-0.0114208
-0.0112564
-0.0110248
-0.0107237
-0.0103519
-0.00990942
-0.00939754
-0.00881895
-0.00817791
-0.0074803
-0.00673363
-0.00594712
-0.00513157
-0.00429931
-0.00346401
-0.00264043
-0.00184412
-0.00109105
-0.000397149
0.000222156
0.000752458
0.00118089
0.00149664
0.00169136
0.00175959
0.00169898
0.00151043
0.00119812
0.000769282
0.00023395
-0.000395486
-0.00110485
-0.00187916
-0.00270291
-0.0035556
-0.00441798
-0.0053434
-0.00638105
-0.00249339
-0.00338049
-0.00407107
-0.00462705
-0.00512338
-0.00556674
-0.00596287
-0.0063219
-0.00665326
-0.00696504
-0.00726433
-0.00755714
-0.00784844
-0.00814212
-0.00844107
-0.00874725
-0.00906169
-0.00938459
-0.00971537
-0.0100527
-0.0103946
-0.0107384
-0.0110808
-0.0114181
-0.011746
-0.0120598
-0.0123543
-0.012624
-0.0128634
-0.0130665
-0.0132274
-0.01334
-0.0133987
-0.0133978
-0.0133322
-0.0131972
-0.0129888
-0.0127041
-0.0123408
-0.0118983
-0.0113768
-0.0107786
-0.0101072
-0.00936815
-0.00856874
-0.00771821
-0.00682768
-0.00591006
-0.00497993
-0.00405331
-0.00314731
-0.00227979
-0.00146886
-0.000732331
-8.71734e-05
0.000451135
0.000869185
0.0011562
0.00130453
0.00131
0.00117215
0.000894278
0.000483318
-5.0468e-05
-0.000693932
-0.0014317
-0.00224729
-0.00312344
-0.00403732
-0.00496746
-0.00597205
-0.00710451
-0.00347922
-0.00437434
-0.00507164
-0.00563381
-0.00613671
-0.00658735
-0.00699181
-0.00736057
-0.00770337
-0.00802859
-0.00834355
-0.00865448
-0.00896647
-0.00928354
-0.00960868
-0.00994385
-0.0102901
-0.0106477
-0.0110159
-0.0113934
-0.0117779
-0.0121668
-0.0125566
-0.0129433
-0.0133223
-0.0136886
-0.0140367
-0.0143607
-0.0146544
-0.0149114
-0.015125
-0.0152887
-0.0153959
-0.0154401
-0.0154154
-0.0153161
-0.0151373
-0.0148749
-0.0145259
-0.0140885
-0.0135621
-0.0129481
-0.0122492
-0.0114705
-0.0106188
-0.00970337
-0.00873536
-0.00772818
-0.00669726
-0.0056598
-0.00463452
-0.00364123
-0.00270035
-0.00183231
-0.0010569
-0.00039256
0.000144323
0.000540106
0.000784506
0.000871093
0.000797626
0.000566203
0.000183176
-0.000341133
-0.000992902
-0.00175554
-0.00261098
-0.00354005
-0.00451733
-0.00551889
-0.0066081
-0.00784297
-0.00455983
-0.00545995
-0.00616183
-0.00672867
-0.00723697
-0.00769406
-0.0081063
-0.00848451
-0.00883871
-0.00917756
-0.00950859
-0.00983822
-0.0101717
-0.0105132
-0.0108657
-0.0112313
-0.011611
-0.0120051
-0.0124129
-0.0128329
-0.0132629
-0.0136999
-0.0141404
-0.0145801
-0.0150142
-0.0154374
-0.0158437
-0.016227
-0.0165804
-0.0168969
-0.0171694
-0.0173904
-0.0175527
-0.0176488
-0.0176719
-0.0176152
-0.0174729
-0.0172398
-0.0169116
-0.0164854
-0.0159597
-0.0153347
-0.0146124
-0.0137969
-0.0128947
-0.0119145
-0.0108676
-0.00976762
-0.00863076
-0.00747533
-0.0063216
-0.00519138
-0.0041075
-0.0030932
-0.00217136
-0.00136374
-0.000690125
-0.000167487
0.000190757
0.000375415
0.000381991
0.000210952
-0.000132273
-0.000637544
-0.0012905
-0.00207336
-0.00296636
-0.00394829
-0.00499087
-0.00606741
-0.0072469
-0.00859216
-0.00573523
-0.00663737
-0.00734168
-0.00791169
-0.00842423
-0.0088869
-0.00930634
-0.00969366
-0.0100592
-0.0104117
-0.0107591
-0.0111079
-0.0114635
-0.0118302
-0.0122111
-0.0126083
-0.0130231
-0.0134554
-0.0139047
-0.0143694
-0.0148473
-0.0153353
-0.0158296
-0.0163259
-0.016819
-0.0173033
-0.0177726
-0.0182201
-0.0186386
-0.0190206
-0.0193581
-0.019643
-0.0198672
-0.0200223
-0.0201005
-0.020094
-0.0199958
-0.0197993
-0.0194993
-0.0190914
-0.018573
-0.0179431
-0.0172025
-0.0163545
-0.0154046
-0.0143612
-0.0132351
-0.0120404
-0.0107935
-0.00951392
-0.00822328
-0.00694541
-0.00570564
-0.00453015
-0.00344518
-0.00247613
-0.00164663
-0.000977502
-0.00048584
-0.000184179
-7.98327e-05
-0.00017448
-0.000464047
-0.000938901
-0.00158434
-0.00238144
-0.00330873
-0.00434275
-0.00545212
-0.00660706
-0.00788256
-0.00934659
-0.00700492
-0.00790613
-0.00861078
-0.00918247
-0.00969809
-0.0101655
-0.0105915
-0.0109875
-0.0113641
-0.0117303
-0.0120941
-0.0124623
-0.0128405
-0.013233
-0.0136431
-0.014073
-0.0145239
-0.0149959
-0.0154884
-0.0159999
-0.0165279
-0.0170695
-0.0176206
-0.0181767
-0.0187325
-0.019282
-0.0198188
-0.0203355
-0.0208245
-0.0212777
-0.0216865
-0.0220419
-0.022335
-0.0225565
-0.0226975
-0.0227491
-0.0227029
-0.0225513
-0.0222875
-0.0219059
-0.0214024
-0.0207745
-0.0200221
-0.0191469
-0.0181537
-0.0170499
-0.0158461
-0.0145559
-0.0131963
-0.0117875
-0.0103525
-0.00891708
-0.007509
-0.00615752
-0.00489245
-0.00374319
-0.00273762
-0.00190095
-0.00125456
-0.000814985
-0.000593003
-0.000593055
-0.000812958
-0.00124401
-0.00187143
-0.00267531
-0.00363242
-0.00471693
-0.00589403
-0.00713055
-0.00850787
-0.0100994
-0.00836783
-0.00926528
-0.00996826
-0.0105402
-0.0110577
-0.0115289
-0.0119608
-0.012365
-0.0127523
-0.013132
-0.0135122
-0.0138999
-0.0143008
-0.0147194
-0.0151592
-0.0156224
-0.0161102
-0.016623
-0.0171601
-0.0177199
-0.0183001
-0.0188974
-0.019508
-0.0201269
-0.0207488
-0.0213674
-0.0219758
-0.0225665
-0.0231312
-0.0236613
-0.0241474
-0.0245799
-0.0249489
-0.0252443
-0.0254559
-0.0255737
-0.025588
-0.0254899
-0.025271
-0.0249243
-0.0244442
-0.0238266
-0.0230697
-0.0221742
-0.0211433
-0.0199836
-0.0187047
-0.0173201
-0.0158467
-0.0143052
-0.0127198
-0.0111179
-0.00952998
-0.00798822
-0.00652621
-0.00517762
-0.00397503
-0.00294855
-0.00212454
-0.00152421
-0.00116256
-0.00104753
-0.00117947
-0.00155114
-0.00214807
-0.00294956
-0.00393066
-0.00506304
-0.00630816
-0.00762909
-0.00911403
-0.010842
-0.0098224
-0.0107134
-0.0114128
-0.0119836
-0.0125019
-0.0129759
-0.013413
-0.0138248
-0.0142222
-0.0146149
-0.0150111
-0.015418
-0.0158415
-0.0162863
-0.0167558
-0.0172525
-0.0177778
-0.0183321
-0.0189146
-0.019524
-0.0201578
-0.0208127
-0.0214849
-0.0221692
-0.0228602
-0.0235513
-0.0242353
-0.0249043
-0.0255496
-0.0261618
-0.0267311
-0.0272471
-0.027699
-0.0280756
-0.0283656
-0.0285579
-0.0286414
-0.0286056
-0.0284408
-0.0281383
-0.0276906
-0.0270922
-0.0263396
-0.0254317
-0.0243703
-0.0231606
-0.0218112
-0.0203349
-0.0187482
-0.0170722
-0.015332
-0.0135565
-0.0117783
-0.010033
-0.00835768
-0.00679073
-0.00536973
-0.00413029
-0.00310435
-0.00231863
-0.00179318
-0.00154025
-0.00156352
-0.00185787
-0.00240966
-0.00319769
-0.00419537
-0.00537182
-0.00668445
-0.00809219
-0.00969044
-0.0115642
-0.0113665
-0.0122486
-0.0129426
-0.0135109
-0.014029
-0.0145049
-0.0149463
-0.0153649
-0.0157718
-0.0161768
-0.0165884
-0.0170139
-0.0174594
-0.0179297
-0.0184287
-0.0189587
-0.0195214
-0.0201172
-0.0207456
-0.0214052
-0.0220935
-0.0228074
-0.0235428
-0.0242946
-0.0250572
-0.0258236
-0.0265866
-0.0273378
-0.0280679
-0.0287673
-0.0294253
-0.0300308
-0.0305721
-0.0310369
-0.0314131
-0.031688
-0.0318493
-0.0318849
-0.0317836
-0.0315349
-0.0311295
-0.0305601
-0.0298212
-0.0289099
-0.0278264
-0.0265742
-0.0251606
-0.023597
-0.0218998
-0.0200895
-0.018192
-0.0162374
-0.0142604
-0.0122994
-0.0103955
-0.00859169
-0.00693093
-0.0054548
-0.00420156
-0.00320422
-0.0024888
-0.00207284
-0.00196426
-0.00216088
-0.00265051
-0.00341189
-0.00441701
-0.00563235
-0.00701101
-0.00850738
-0.0102245
-0.0122534
-0.0129976
-0.0138685
-0.0145556
-0.0151203
-0.015637
-0.0161139
-0.0165586
-0.0169831
-0.0173985
-0.0178148
-0.0182407
-0.0186837
-0.0191502
-0.0196452
-0.0201726
-0.0207352
-0.0213347
-0.0219716
-0.0226456
-0.0233553
-0.0240985
-0.024872