/*--------------------------------*- C++ -*----------------------------------*\
  =========                 |
  \\      /  F ield         | OpenFOAM: The Open Source CFD Toolbox
   \\    /   O peration     | Website:  https://openfoam.org
    \\  /    A nd           | Version:  dev
     \\/     M anipulation  |
\*---------------------------------------------------------------------------*/
FoamFile
{
    format      ascii;
    class       surfaceScalarField;
    location    "22.5";
    object      phi;
}
// * * * * * * * * * * * * * * * * * * * * * * * * * * * * * * * * * * * * * //

dimensions      [0 3 -1 0 0 0 0];

internalField   nonuniform List<scalar> 
10224
(
3.36243e-08
-3.50063e-08
8.77029e-08
-5.40809e-08
1.24239e-07
-3.65332e-08
1.25175e-07
-9.3417e-10
8.35378e-08
4.16384e-08
-1.93662e-09
8.54752e-08
-1.29423e-07
1.27486e-07
-2.95613e-07
1.6619e-07
-4.96448e-07
2.00834e-07
-7.27628e-07
2.3118e-07
-9.84886e-07
2.57259e-07
-1.26413e-06
2.79248e-07
-1.56154e-06
2.97401e-07
-1.87354e-06
3.12001e-07
-2.19687e-06
3.23333e-07
-2.52853e-06
3.31662e-07
-2.86576e-06
3.37226e-07
-3.20598e-06
3.40225e-07
-3.5468e-06
3.4082e-07
-3.88593e-06
3.39133e-07
-4.22118e-06
3.35251e-07
-4.55041e-06
3.29225e-07
-4.87149e-06
3.21081e-07
-5.18231e-06
3.10821e-07
-5.48074e-06
2.98434e-07
-5.76464e-06
2.83898e-07
-6.03183e-06
2.67192e-07
-6.28013e-06
2.48299e-07
-6.50735e-06
2.27215e-07
-6.7113e-06
2.03952e-07
-6.88985e-06
1.78551e-07
-7.04093e-06
1.51078e-07
-7.16256e-06
1.21635e-07
-7.25292e-06
9.03614e-08
-7.31036e-06
5.74378e-08
-7.33345e-06
2.30863e-08
-7.32102e-06
-1.24276e-08
-7.27222e-06
-4.87962e-08
-7.18655e-06
-8.56704e-08
-7.06389e-06
-1.22663e-07
-6.90454e-06
-1.59354e-07
-6.70924e-06
-1.95295e-07
-6.47923e-06
-2.30015e-07
-6.21619e-06
-2.63033e-07
-5.92233e-06
-2.93861e-07
-5.60031e-06
-3.22017e-07
-5.25328e-06
-3.47037e-07
-4.8848e-06
-3.6848e-07
-4.49885e-06
-3.85947e-07
-4.09977e-06
-3.99083e-07
-3.69217e-06
-4.07593e-07
-3.28093e-06
-4.11246e-07
-2.87104e-06
-4.09887e-07
-2.4676e-06
-4.03441e-07
-2.07568e-06
-3.91917e-07
-1.70027e-06
-3.75411e-07
-1.34616e-06
-3.54108e-07
-1.01788e-06
-3.28281e-07
-7.19585e-07
-2.98292e-07
-4.54995e-07
-2.64589e-07
-2.27285e-07
-2.2771e-07
-3.89985e-08
-1.88285e-07
1.08056e-07
-1.47054e-07
2.12941e-07
-1.04885e-07
2.75767e-07
-6.28267e-08
2.97963e-07
-2.21969e-08
2.82704e-07
1.52594e-08
2.35578e-07
4.71256e-08
1.65639e-07
6.99406e-08
8.71673e-08
7.8476e-08
2.25308e-08
6.46468e-08
2.2539e-08
5.37754e-08
-8.87841e-08
1.12206e-07
-1.12506e-07
1.17948e-07
-4.22713e-08
3.86163e-08
7.83998e-08
-1.42179e-07
2.22435e-07
-4.2975e-07
3.73046e-07
-8.22325e-07
5.2006e-07
-1.31376e-06
6.57626e-07
-1.8955e-06
7.8257e-07
-2.55772e-06
8.93408e-07
-3.29017e-06
9.8971e-07
-4.08261e-06
1.07168e-06
-4.9251e-06
1.1399e-06
-5.80823e-06
1.19513e-06
-6.7231e-06
1.23821e-06
-7.6614e-06
1.26996e-06
-8.61533e-06
1.29115e-06
-9.57754e-06
1.30244e-06
-1.05411e-05
1.30437e-06
-1.14993e-05
1.29737e-06
-1.24458e-05
1.28176e-06
-1.33743e-05
1.25774e-06
-1.42787e-05
1.22543e-06
-1.51527e-05
1.18487e-06
-1.59904e-05
1.13608e-06
-1.67855e-05
1.07902e-06
-1.7532e-05
1.01368e-06
-1.82237e-05
9.40035e-07
-1.88547e-05
8.58147e-07
-1.94188e-05
7.68127e-07
-1.99105e-05
6.70177e-07
-2.0324e-05
5.64608e-07
-2.06542e-05
4.51852e-07
-2.08963e-05
3.3248e-07
-2.10461e-05
2.07202e-07
-2.10999e-05
7.68827e-08
-2.10549e-05
-5.74638e-08
-2.0909e-05
-1.94674e-07
-2.06612e-05
-3.33441e-07
-2.03115e-05
-4.72329e-07
-1.98611e-05
-6.09788e-07
-1.93122e-05
-7.44173e-07
-1.86685e-05
-8.73769e-07
-1.79347e-05
-9.96823e-07
-1.7117e-05
-1.11157e-06
-1.62227e-05
-1.21628e-06
-1.52605e-05
-1.30926e-06
-1.424e-05
-1.38896e-06
-1.3172e-05
-1.45394e-06
-1.20682e-05
-1.50293e-06
-1.09409e-05
-1.53489e-06
-9.8031e-06
-1.549e-06
-8.66826e-06
-1.54474e-06
-7.54987e-06
-1.52183e-06
-6.46144e-06
-1.48035e-06
-5.41618e-06
-1.42066e-06
-4.42681e-06
-1.34348e-06
-3.50525e-06
-1.24983e-06
-2.66246e-06
-1.14109e-06
-1.9081e-06
-1.01894e-06
-1.25037e-06
-8.8544e-07
-6.95663e-07
-7.42997e-07
-2.48276e-07
-5.9444e-07
8.99372e-08
-4.43095e-07
3.20047e-07
-2.92934e-07
4.46648e-07
-1.48797e-07
4.78721e-07
-1.68136e-08
4.30732e-07
9.51158e-08
3.24103e-07
1.76567e-07
1.88822e-07
2.13744e-07
6.43229e-08
1.89124e-07
8.68694e-08
3.72572e-08
-1.26038e-07
4.31395e-08
-1.18385e-07
-4.35081e-08
4.4379e-08
-2.58943e-07
2.93836e-07
-6.22762e-07
5.86255e-07
-1.14207e-06
8.92356e-07
-1.81513e-06
1.19312e-06
-2.63429e-06
1.47678e-06
-3.58818e-06
1.73646e-06
-4.6633e-06
1.96852e-06
-5.84506e-06
2.17147e-06
-7.1186e-06
2.34522e-06
-8.46922e-06
2.49052e-06
-9.88269e-06
2.6086e-06
-1.13454e-05
2.70091e-06
-1.28444e-05
2.76896e-06
-1.43674e-05
2.81418e-06
-1.59028e-05
2.83783e-06
-1.74394e-05
2.84099e-06
-1.89666e-05
2.82452e-06
-2.04739e-05
2.78906e-06
-2.19512e-05
2.73506e-06
-2.33886e-05
2.6628e-06
-2.47762e-05
2.57244e-06
-2.61041e-05
2.46403e-06
-2.73627e-05
2.3376e-06
-2.85422e-05
2.19318e-06
-2.9633e-05
2.03086e-06
-3.06257e-05
1.85082e-06
-3.1511e-05
1.6534e-06
-3.22799e-05
1.43913e-06
-3.29241e-05
1.20876e-06
-3.34355e-05
9.63291e-07
-3.3807e-05
7.04011e-07
-3.40323e-05
4.32503e-07
-3.41061e-05
1.50659e-07
-3.40243e-05
-1.39319e-07
-3.3784e-05
-4.34928e-07
-3.33841e-05
-7.33375e-07
-3.28248e-05
-1.03161e-06
-3.21082e-05
-1.32634e-06
-3.12383e-05
-1.61412e-06
-3.02207e-05
-1.89133e-06
-2.90632e-05
-2.15432e-06
-2.77754e-05
-2.39938e-06
-2.63688e-05
-2.62292e-06
-2.48566e-05
-2.82144e-06
-2.32539e-05
-2.99169e-06
-2.15771e-05
-3.13069e-06
-1.98442e-05
-3.23585e-06
-1.80741e-05
-3.305e-06
-1.62866e-05
-3.33648e-06
-1.45022e-05
-3.32918e-06
-1.27414e-05
-3.28262e-06
-1.10248e-05
-3.19694e-06
-9.37247e-06
-3.07297e-06
-7.80373e-06
-2.91222e-06
-6.33665e-06
-2.71692e-06
-4.98776e-06
-2.48998e-06
-3.77165e-06
-2.23505e-06
-2.70055e-06
-1.95653e-06
-1.78395e-06
-1.65961e-06
-1.02806e-06
-1.35033e-06
-4.35358e-07
-1.03579e-06
-3.94754e-09
-7.24343e-07
2.73232e-07
-4.25974e-07
4.09238e-07
-1.52818e-07
4.24293e-07
8.00662e-08
3.47002e-07
2.53867e-07
2.15536e-07
3.45216e-07
7.85713e-08
3.26081e-07
1.65443e-07
1.85341e-09
-1.2789e-07
-7.90525e-08
-3.74771e-08
-2.97733e-07
2.63061e-07
-6.87884e-07
6.83988e-07
-1.2678e-06
1.16617e-06
-2.04376e-06
1.66831e-06
-3.01295e-06
2.16231e-06
-4.16612e-06
2.62996e-06
-5.48969e-06
3.06003e-06
-6.96733e-06
3.44616e-06
-8.58122e-06
3.78536e-06
-1.03129e-05
4.07689e-06
-1.21438e-05
4.32146e-06
-1.40559e-05
4.52065e-06
-1.60315e-05
4.67651e-06
-1.80537e-05
4.79122e-06
-2.01065e-05
4.86692e-06
-2.21742e-05
4.90556e-06
-2.4242e-05
4.90879e-06
-2.62955e-05
4.87798e-06
-2.83206e-05
4.81419e-06
-3.03037e-05
4.71816e-06
-3.22313e-05
4.5904e-06
-3.40901e-05
4.43123e-06
-3.58669e-05
4.24084e-06
-3.75486e-05
4.01935e-06
-3.91224e-05
3.76695e-06
-4.05755e-05
3.4839e-06
-4.18953e-05
3.17065e-06
-4.30698e-05
2.8279e-06
-4.40873e-05
2.45668e-06
-4.49369e-05
2.05837e-06
-4.56084e-05
1.6348e-06
-4.60927e-05
1.18824e-06
-4.63817e-05
7.21475e-07
-4.64688e-05
2.37771e-07
-4.6349e-05
-2.59091e-07
-4.60191e-05
-7.64837e-07
-4.54777e-05
-1.27473e-06
-4.47257e-05
-1.78363e-06
-4.37661e-05
-2.28599e-06
-4.26042e-05
-2.77603e-06
-4.12478e-05
-3.24771e-06
-3.97072e-05
-3.69491e-06
-3.7995e-05
-4.11152e-06
-3.61264e-05
-4.49152e-06
-3.41188e-05
-4.82913e-06
-3.19915e-05
-5.11897e-06
-2.97661e-05
-5.35611e-06
-2.74656e-05
-5.53627e-06
-2.51148e-05
-5.65585e-06
-2.27391e-05
-5.71215e-06
-2.03649e-05
-5.70335e-06
-1.80189e-05
-5.62867e-06
-1.57274e-05
-5.48839e-06
-1.35165e-05
-5.28393e-06
-1.14108e-05
-5.01785e-06
-9.43383e-06
-4.69392e-06
-7.60673e-06
-4.31708e-06
-5.94825e-06
-3.89352e-06
-4.4741e-06
-3.43068e-06
-3.19639e-06
-2.93732e-06
-2.12307e-06
-2.42365e-06
-1.25735e-06
-1.90151e-06
-5.96985e-07
-1.38471e-06
-1.33558e-07
-8.89404e-07
1.48414e-07
-4.34795e-07
2.72373e-07
-4.38984e-08
2.70758e-07
2.55484e-07
1.86037e-07
4.29946e-07
7.21315e-08
4.39987e-07
2.37574e-07
-4.20727e-08
-8.58161e-08
-2.30029e-07
1.5048e-07
-6.0643e-07
6.39463e-07
-1.19783e-06
1.27539e-06
-2.01796e-06
1.98631e-06
-3.06998e-06
2.72033e-06
-4.34871e-06
3.44104e-06
-5.84272e-06
4.12397e-06
-7.53614e-06
4.75345e-06
-9.4102e-06
5.32022e-06
-1.14443e-05
5.8195e-06
-1.36172e-05
6.24971e-06
-1.5907e-05
6.61134e-06
-1.82926e-05
6.9062e-06
-2.07529e-05
7.13682e-06
-2.32677e-05
7.30603e-06
-2.58175e-05
7.41667e-06
-2.83833e-05
7.47136e-06
-3.09469e-05
7.47239e-06
-3.34905e-05
7.42165e-06
-3.5997e-05
7.32064e-06
-3.84493e-05
7.17046e-06
-4.08308e-05
6.97189e-06
-4.3125e-05
6.72548e-06
-4.53158e-05
6.43159e-06
-4.7387e-05
6.09057e-06
-4.93228e-05
5.7028e-06
-5.11077e-05
5.26884e-06
-5.27266e-05
4.78952e-06
-5.41648e-05
4.26608e-06
-5.54083e-05
3.70018e-06
-5.6444e-05
3.09409e-06
-5.72599e-05
2.45065e-06
-5.7845e-05
1.7734e-06
-5.81901e-05
1.0666e-06
-5.82876e-05
3.35221e-07
-5.81317e-05
-4.15033e-07
-5.77187e-05
-1.17775e-06
-5.70476e-05
-1.94586e-06
-5.61196e-05
-2.71169e-06
-5.49385e-05
-3.46705e-06
-5.35112e-05
-4.20335e-06
-5.18472e-05
-4.91171e-06
-4.9959e-05
-5.58311e-06
-4.7862e-05
-6.20855e-06
-4.55743e-05
-6.77921e-06
-4.31168e-05
-7.28663e-06
-4.05128e-05
-7.72288e-06
-3.77882e-05
-8.08077e-06
-3.49704e-05
-8.35402e-06
-3.20889e-05
-8.5374e-06
-2.91741e-05
-8.62692e-06
-2.62575e-05
-8.61995e-06
-2.33708e-05
-8.51537e-06
-2.05456e-05
-8.3136e-06
-1.78128e-05
-8.01676e-06
-1.5202e-05
-7.62867e-06
-1.2741e-05
-7.15492e-06
-1.04552e-05
-6.60285e-06
-8.36705e-06
-5.98167e-06
-6.49533e-06
-5.3024e-06
-4.85461e-06
-4.57804e-06
-3.45463e-06
-3.82363e-06
-2.29961e-06
-3.05653e-06
-1.38761e-06
-2.2967e-06
-7.09803e-07
-1.56721e-06
-2.49725e-07
-8.94871e-07
1.74469e-08
-3.1107e-07
1.25733e-07
1.47194e-07
1.19251e-07
4.36433e-07
5.35785e-08
5.05662e-07
2.91151e-07
-8.94206e-08
3.60542e-09
-3.95218e-07
4.56279e-07
-9.44731e-07
1.18898e-06
-1.75452e-06
2.08518e-06
-2.83136e-06
3.06315e-06
-4.1735e-06
4.06247e-06
-5.77209e-06
5.03963e-06
-7.61275e-06
5.96462e-06
-9.67701e-06
6.81772e-06
-1.19436e-05
7.58681e-06
-1.43895e-05
8.26538e-06
-1.69907e-05
8.85089e-06
-1.97228e-05
9.34354e-06
-2.25619e-05
9.74526e-06
-2.54841e-05
1.0059e-05
-2.84663e-05
1.02882e-05
-3.14859e-05
1.04363e-05
-3.45212e-05
1.05067e-05
-3.75509e-05
1.05021e-05
-4.05544e-05
1.04251e-05
-4.35115e-05
1.02777e-05
-4.64022e-05
1.00612e-05
-4.92071e-05
9.77681e-06
-5.1907e-05
9.42533e-06
-5.44827e-05
9.00737e-06
-5.69157e-05
8.52353e-06
-5.91874e-05
7.97452e-06
-6.12799e-05
7.3613e-06
-6.31756e-05
6.68522e-06
-6.48577e-05
5.94815e-06
-6.63101e-05
5.15261e-06
-6.75179e-05
4.30189e-06
-6.84673e-05
3.40011e-06
-6.91462e-05
2.45228e-06
-6.9544e-05
1.46441e-06
-6.96523e-05
4.43448e-07
-6.94646e-05
-6.02676e-07
-6.89773e-05
-1.66509e-06
-6.81891e-05
-2.73404e-06
-6.71018e-05
-3.799e-06
-6.57201e-05
-4.84874e-06
-6.40519e-05
-5.87153e-06
-6.21084e-05
-6.85525e-06
-5.99039e-05
-7.7876e-06
-5.74561e-05
-8.65635e-06
-5.47858e-05
-9.4495e-06
-5.19169e-05
-1.01555e-05
-4.8876e-05
-1.07637e-05
-4.56925e-05
-1.12643e-05
-4.23978e-05
-1.16487e-05
-3.90253e-05
-1.19098e-05
-3.561e-05
-1.20423e-05
-3.21875e-05
-1.20424e-05
-2.87942e-05
-1.19087e-05
-2.54659e-05
-1.16418e-05
-2.22381e-05
-1.12446e-05
-1.91446e-05
-1.07222e-05
-1.62173e-05
-1.00822e-05
-1.34854e-05
-9.33479e-06
-1.09746e-05
-8.49245e-06
-8.70675e-06
-7.57026e-06
-6.69889e-06
-6.5859e-06
-4.9627e-06
-5.55981e-06
-3.50386e-06
-4.51537e-06
-2.32133e-06
-3.47923e-06
-1.40677e-06
-2.48178e-06
-7.43883e-07
-1.55776e-06
-3.07861e-07
-7.47091e-07
-6.47625e-08
-9.59077e-08
2.91344e-08
3.42537e-07
2.82383e-08
5.06558e-07
3.1939e-07
-1.37589e-07
1.41194e-07
-5.66052e-07
8.84742e-07
-1.29683e-06
1.91975e-06
-2.33498e-06
3.12333e-06
-3.67882e-06
4.40699e-06
-5.32027e-06
5.70392e-06
-7.24573e-06
6.96508e-06
-9.43709e-06
8.15599e-06
-1.18728e-05
9.25345e-06
-1.45289e-05
1.02429e-05
-1.73799e-05
1.11164e-05
-2.03994e-05
1.18703e-05
-2.35606e-05
1.25048e-05
-2.6837e-05
1.30217e-05
-3.02024e-05
1.34244e-05
-3.36312e-05
1.3717e-05
-3.70982e-05
1.39034e-05
-4.05793e-05
1.39877e-05
-4.40504e-05
1.39732e-05
-4.74883e-05
1.38631e-05
-5.08703e-05
1.36597e-05
-5.4174e-05
1.33648e-05
-5.73771e-05
1.298e-05
-6.0458e-05
1.25063e-05
-6.33953e-05
1.19446e-05
-6.61677e-05
1.1296e-05
-6.87546e-05
1.05614e-05
-7.11357e-05
9.74238e-06
-7.32913e-05
8.8409e-06
-7.52028e-05
7.85962e-06
-7.68522e-05
6.80204e-06
-7.8223e-05
5.67266e-06
-7.92999e-05
4.47704e-06
-8.00696e-05
3.22191e-06
-8.05204e-05
1.91521e-06
-8.0643e-05
5.66123e-07
-8.04308e-05
-8.14925e-07
-7.98795e-05
-2.21634e-06
-7.89882e-05
-3.62541e-06
-7.77587e-05
-5.02843e-06
-7.61966e-05
-6.41087e-06
-7.43106e-05
-7.75749e-06
-7.21132e-05
-9.05265e-06
-6.96204e-05
-1.02805e-05
-6.68516e-05
-1.14251e-05
-6.383e-05
-1.24711e-05
-6.0582e-05
-1.34036e-05
-5.71369e-05
-1.42088e-05
-5.35273e-05
-1.4874e-05
-4.97879e-05
-1.53881e-05
-4.59557e-05
-1.5742e-05
-4.20694e-05
-1.59286e-05
-3.81686e-05
-1.59433e-05
-3.42934e-05
-1.57839e-05
-3.0484e-05
-1.54512e-05
-2.67796e-05
-1.49489e-05
-2.32182e-05
-1.42836e-05
-1.98353e-05
-1.34651e-05
-1.66637e-05
-1.25064e-05
-1.37325e-05
-1.14237e-05
-1.10664e-05
-1.02363e-05
-8.68528e-06
-8.96707e-06
-6.60292e-06
-7.64217e-06
-4.82691e-06
-6.29138e-06
-3.35775e-06
-4.94839e-06
-2.18836e-06
-3.65117e-06
-1.30355e-06
-2.44256e-06
-6.79615e-07
-1.37102e-06
-2.83958e-07
-4.91566e-07
-7.47539e-08
1.33334e-07
-6.42832e-10
4.32447e-07
3.18748e-07
-1.85328e-07
3.26522e-07
-7.37644e-07
1.43706e-06
-1.65294e-06
2.83505e-06
-2.92423e-06
4.39462e-06
-4.54042e-06
6.02318e-06
-6.4862e-06
7.6497e-06
-8.74236e-06
9.22125e-06
-1.12864e-05
1.07e-05
-1.40932e-05
1.20603e-05
-1.71358e-05
1.32856e-05
-2.03861e-05
1.43667e-05
-2.38153e-05
1.52995e-05
-2.73945e-05
1.60839e-05
-3.10948e-05
1.6722e-05
-3.4888e-05
1.72176e-05
-3.87461e-05
1.75751e-05
-4.26419e-05
1.77992e-05
-4.65488e-05
1.78946e-05
-5.04407e-05
1.78652e-05
-5.42921e-05
1.77145e-05
-5.80779e-05
1.74454e-05
-6.17733e-05
1.70603e-05
-6.53542e-05
1.65608e-05
-6.87965e-05
1.59485e-05
-7.20764e-05
1.52246e-05
-7.51709e-05
1.43904e-05
-7.80571e-05
1.34476e-05
-8.07128e-05
1.23981e-05
-8.31165e-05
1.12446e-05
-8.52477e-05
9.99079e-06
-8.70869e-05
8.64121e-06
-8.86159e-05
7.20173e-06
-8.98184e-05
5.67952e-06
-9.06797e-05
4.08317e-06
-9.11873e-05
2.42279e-06
-9.13311e-05
7.09973e-07
-9.11039e-05
-1.04216e-06
-9.05012e-05
-2.81905e-06
-8.95218e-05
-4.60479e-06
-8.8168e-05
-6.38228e-06
-8.64455e-05
-8.13336e-06
-8.43638e-05
-9.8391e-06
-8.19365e-05
-1.148e-05
-7.91806e-05
-1.30363e-05
-7.61174e-05
-1.44884e-05
-7.27715e-05
-1.58169e-05
-6.91716e-05
-1.70035e-05
-6.53495e-05
-1.80309e-05
-6.13403e-05
-1.88832e-05
-5.71817e-05
-1.95467e-05
-5.29138e-05
-2.00099e-05
-4.85786e-05
-2.02638e-05
-4.42193e-05
-2.03026e-05
-3.98796e-05
-2.01236e-05
-3.56035e-05
-1.97274e-05
-3.1434e-05
-1.91184e-05
-2.74127e-05
-1.83049e-05
-2.35789e-05
-1.72989e-05
-1.99689e-05
-1.61163e-05
-1.66153e-05
-1.47773e-05
-1.35459e-05
-1.33057e-05
-1.07834e-05
-1.17296e-05
-8.34421e-06
-1.00813e-05
-6.23832e-06
-8.39727e-06
-4.46831e-06
-6.71839e-06
-3.02906e-06
-5.09042e-06
-1.90726e-06
-3.56437e-06
-1.08117e-06
-2.19712e-06
-5.20446e-07
-1.05229e-06
-1.86187e-07
-2.00924e-07
-3.11099e-08
2.7737e-07
2.87639e-07
-2.31999e-07
5.5852e-07
-9.07236e-07
2.1123e-06
-2.0071e-06
3.93491e-06
-3.51253e-06
5.90005e-06
-5.40266e-06
7.91331e-06
-7.65435e-06
9.90139e-06
-1.02422e-05
1.18091e-05
-1.31387e-05
1.35965e-05
-1.63148e-05
1.52364e-05
-1.97404e-05
1.67111e-05
-2.33844e-05
1.80107e-05
-2.72157e-05
1.91308e-05
-3.12031e-05
2.00714e-05
-3.53159e-05
2.08348e-05
-3.95236e-05
2.14253e-05
-4.37964e-05
2.18479e-05
-4.81052e-05
2.2108e-05
-5.24214e-05
2.22107e-05
-5.6717e-05
2.21607e-05
-6.09644e-05
2.19619e-05
-6.51365e-05
2.16176e-05
-6.92068e-05
2.11306e-05
-7.3149e-05
2.0503e-05
-7.6937e-05
1.97365e-05
-8.05453e-05
1.88329e-05
-8.39488e-05
1.7794e-05
-8.71229e-05
1.66217e-05
-9.00436e-05
1.53188e-05
-9.26877e-05
1.38888e-05
-9.50332e-05
1.23363e-05
-9.70591e-05
1.06671e-05
-9.87458e-05
8.8885e-06
-0.000100076
7.00947e-06
-0.000101033
5.04059e-06
-0.000101605
2.99424e-06
-0.000101779
8.84612e-07
-0.000101549
-1.2723e-06
-0.000100909
-3.45881e-06
-9.98585e-05
-5.65563e-06
-9.83988e-05
-7.84201e-06
-9.65362e-05
-9.99601e-06
-9.42806e-05
-1.20947e-05
-9.1646e-05
-1.41146e-05
-8.86506e-05
-1.60317e-05
-8.53167e-05
-1.78223e-05
-8.16704e-05
-1.94632e-05
-7.77422e-05
-2.09318e-05
-7.35657e-05
-2.22073e-05
-6.91784e-05
-2.32705e-05
-6.46206e-05
-2.41045e-05
-5.99351e-05
-2.46953e-05
-5.5167e-05
-2.50319e-05
-5.03627e-05
-2.51069e-05
-4.55695e-05
-2.49167e-05
-4.08349e-05
-2.4462e-05
-3.62055e-05
-2.37478e-05
-3.17268e-05
-2.27837e-05
-2.74418e-05
-2.1584e-05
-2.33903e-05
-2.01678e-05
-1.96086e-05
-1.8559e-05
-1.61279e-05
-1.67864e-05
-1.2974e-05
-1.48835e-05
-1.01665e-05
-1.28888e-05
-7.71807e-06
-1.08457e-05
-5.63409e-06
-8.80237e-06
-3.91193e-06
-6.81258e-06
-2.54081e-06
-4.93549e-06
-1.50161e-06
-3.23631e-06
-7.66934e-07
-1.78696e-06
-3.01355e-07
-6.66502e-07
-6.20622e-08
3.80785e-08
2.25577e-07
-2.77323e-07
8.35843e-07
-1.0733e-06
2.90827e-06
-2.35566e-06
5.21727e-06
-4.09359e-06
7.63798e-06
-6.25638e-06
1.00761e-05
-8.81279e-06
1.24578e-05
-1.17308e-05
1.47271e-05
-1.49776e-05
1.68434e-05
-1.85198e-05
1.87786e-05
-2.23238e-05
2.0515e-05
-2.63556e-05
2.20425e-05
-3.05816e-05
2.33568e-05
-3.49684e-05
2.44582e-05
-3.94833e-05
2.53497e-05
-4.4094e-05
2.6036e-05
-4.8769e-05
2.65229e-05
-5.34774e-05
2.68164e-05
-5.81889e-05
2.69222e-05
-6.28738e-05
2.68456e-05
-6.75028e-05
2.65909e-05
-7.20472e-05
2.6162e-05
-7.64787e-05
2.5562e-05
-8.07691e-05
2.47934e-05
-8.4891e-05
2.38583e-05
-8.88169e-05
2.27589e-05
-9.25203e-05
2.14973e-05
-9.59747e-05
2.00761e-05
-9.91547e-05
1.84988e-05
-0.000102036
1.67697e-05
-0.000104594
1.48945e-05
-0.000106807
1.28803e-05
-0.000108655
1.0736e-05
-0.000110118
8.47234e-06
-0.000111179
6.10195e-06
-0.000111824
3.63966e-06
-0.000112042
1.10239e-06
-0.000111824
-1.49091e-06
-0.000111163
-4.11925e-06
-0.000110059
-6.75981e-06
-0.000108513
-9.38806e-06
-0.000106531
-1.19781e-05
-0.000104123
-1.45027e-05
-0.000101303
-1.69342e-05
-9.80905e-05
-1.92444e-05
-9.45079e-05
-2.14049e-05
-9.05828e-05
-2.33883e-05
-8.63467e-05
-2.51679e-05
-8.18351e-05
-2.67189e-05
-7.70872e-05
-2.80183e-05
-7.21458e-05
-2.9046e-05
-6.70561e-05
-2.9785e-05
-6.18661e-05
-3.02219e-05
-5.66254e-05
-3.03477e-05
-5.13845e-05
-3.01576e-05
-4.61943e-05
-2.96521e-05
-4.11055e-05
-2.88366e-05
-3.6167e-05
-2.77221e-05
-3.14259e-05
-2.63251e-05
-2.69259e-05
-2.46677e-05
-2.27071e-05
-2.27779e-05
-1.88043e-05
-2.06892e-05
-1.52471e-05
-1.84408e-05
-1.20585e-05
-1.60774e-05
-9.25459e-06
-1.36496e-05
-6.84385e-06
-1.12131e-05
-4.82677e-06
-8.82966e-06
-3.19564e-06
-6.56662e-06
-1.93447e-06
-4.49748e-06
-1.01919e-06
-2.70224e-06
-4.18146e-07
-1.26755e-06
-9.29475e-08
-2.87119e-07
1.32629e-07
-3.21187e-07
1.15703e-06
-1.23498e-06
3.82206e-06
-2.69638e-06
6.67867e-06
-4.66331e-06
9.60491e-06
-7.09532e-06
1.25081e-05
-9.953e-06
1.53155e-05
-1.31975e-05
1.79716e-05
-1.67906e-05
2.04364e-05
-2.06943e-05
2.26823e-05
-2.48711e-05
2.46919e-05
-2.92842e-05
2.64556e-05
-3.38973e-05
2.79699e-05
-3.8675e-05
2.92359e-05
-4.35824e-05
3.02571e-05
-4.85858e-05
3.10393e-05
-5.36518e-05
3.1589e-05
-5.87481e-05
3.19127e-05
-6.3843e-05
3.20171e-05
-6.89051e-05
3.19077e-05
-7.39039e-05
3.15897e-05
-7.88091e-05
3.10673e-05
-8.35909e-05
3.03438e-05
-8.82198e-05
2.94223e-05
-9.26667e-05
2.83052e-05
-9.69029e-05
2.69951e-05
-0.0001009
2.54945e-05
-0.000104631
2.38067e-05
-0.000108068
2.19359e-05
-0.000111185
1.98872e-05
-0.000113958
1.76675e-05
-0.000116363
1.52852e-05
-0.000118378
1.27507e-05
-0.000119982
1.00767e-05
-0.000121158
7.27807e-06
-0.000121891
4.37202e-06
-0.000122167
1.37823e-06
-0.000121976
-1.68123e-06
-0.000121313
-4.78201e-06
-0.000120176
-7.89762e-06
-0.000118564
-1.09996e-05
-0.000116484
-1.4058e-05
-0.000113946
-1.70412e-05
-0.000110963
-1.9917e-05
-0.000107555
-2.26526e-05
-0.000103744
-2.52151e-05
-9.95603e-05
-2.75724e-05
-9.50348e-05
-2.96935e-05
-9.02048e-05
-3.1549e-05
-8.51111e-05
-3.3112e-05
-7.97983e-05
-3.43588e-05
-7.43143e-05
-3.5269e-05
-6.87096e-05
-3.58267e-05
-6.30366e-05
-3.60206e-05
-5.73495e-05
-3.58448e-05
-5.17027e-05
-3.5299e-05
-4.61504e-05
-3.43889e-05
-4.07458e-05
-3.31267e-05
-3.554e-05
-3.15309e-05
-3.0581e-05
-2.96268e-05
-2.59128e-05
-2.74461e-05
-2.15747e-05
-2.50273e-05
-1.76002e-05
-2.24152e-05
-1.40164e-05
-1.96613e-05
-1.08431e-05
-1.68229e-05
-8.09252e-06
-1.39637e-05
-5.76876e-06
-1.11534e-05
-3.86762e-06
-8.46776e-06
-2.3766e-06
-5.9885e-06
-1.27523e-06
-3.80361e-06
-5.35635e-07
-2.00714e-06
-1.23564e-07
-6.99189e-07
9.06498e-09
-3.63552e-07
1.52058e-06
-1.3918e-06
4.85031e-06
-3.02787e-06
8.31474e-06
-5.21892e-06
1.1796e-05
-7.91508e-06
1.52043e-05
-1.10688e-05
1.84692e-05
-1.46345e-05
2.15373e-05
-1.85681e-05
2.43701e-05
-2.28271e-05
2.69413e-05
-2.73702e-05
2.92349e-05
-3.21573e-05
3.12427e-05
-3.71497e-05
3.29623e-05
-4.23095e-05
3.43957e-05
-4.76003e-05
3.55479e-05
-5.29865e-05
3.64255e-05
-5.84335e-05
3.70359e-05
-6.39073e-05
3.73866e-05
-6.93751e-05
3.74848e-05
-7.48042e-05
3.73369e-05
-8.01629e-05
3.69484e-05
-8.54196e-05
3.6324e-05
-9.05433e-05
3.54675e-05
-9.55032e-05
3.43822e-05
-0.000100269
3.3071e-05
-0.000104811
3.15368e-05
-0.000109099
2.97826e-05
-0.000113104
2.78123e-05
-0.000116799
2.56308e-05
-0.000120156
2.32441e-05
-0.000123149
2.06601e-05
-0.000125752
1.78887e-05
-0.000127943
1.49419e-05
-0.000129701
1.18341e-05
-0.000131005
8.58254e-06
-0.00013184
5.20684e-06
-0.000132191
1.7295e-06
-0.000132048
-1.82428e-06
-0.000131404
-5.42674e-06
-0.000130254
-9.04765e-06
-0.000128599
-1.26546e-05
-0.000126444
-1.62131e-05
-0.000123797
-1.96874e-05
-0.000120674
-2.30405e-05
-0.000117092
-2.62347e-05
-0.000113074
-2.92324e-05
-0.00010865
-3.19965e-05
-0.000103853
-3.44911e-05
-9.87192e-05
-3.66824e-05
-9.32923e-05
-3.85389e-05
-8.76183e-05
-4.00328e-05
-8.1747e-05
-4.11402e-05
-7.57317e-05
-4.1842e-05
-6.96278e-05
-4.21245e-05
-6.34926e-05
-4.198e-05
-5.73843e-05
-4.14072e-05
-5.13613e-05
-4.04119e-05
-4.54808e-05
-3.90072e-05
-3.97983e-05
-3.72133e-05
-3.43666e-05
-3.50586e-05
-2.92341e-05
-3.25785e-05
-2.44449e-05
-2.98165e-05
-2.00371e-05
-2.68231e-05
-1.60421e-05
-2.36562e-05
-1.24843e-05
-2.03807e-05
-9.37994e-06
-1.7068e-05
-6.73728e-06
-1.37961e-05
-4.556e-06
-1.0649e-05
-2.82739e-06
-7.71711e-06
-1.53469e-06
-5.09631e-06
-6.53716e-07
-2.88811e-06
-1.53936e-07
-1.19897e-06
-1.44871e-07
-4.04402e-07
1.92498e-06
-1.54347e-06
5.98938e-06
-3.34918e-06
1.01205e-05
-5.75849e-06
1.42053e-05
-8.71243e-06
1.81582e-05
-1.21556e-05
2.19123e-05
-1.60355e-05
2.54172e-05
-2.03026e-05
2.86371e-05
-2.49095e-05
3.15482e-05
-2.9811e-05
3.41365e-05
-3.49641e-05
3.63957e-05
-4.03271e-05
3.83253e-05
-4.58603e-05
3.99289e-05
-5.15252e-05
4.12129e-05
-5.72848e-05
4.21851e-05
-6.31031e-05
4.28541e-05
-6.8945e-05
4.32285e-05
-7.47763e-05
4.33161e-05
-8.05635e-05
4.31241e-05
-8.62737e-05
4.26586e-05
-9.18743e-05
4.19246e-05
-9.73333e-05
4.09265e-05
-0.000102619
3.96677e-05
-0.000107699
3.81517e-05
-0.000112544
3.63816e-05
-0.000117123
3.43609e-05
-0.000121404
3.20941e-05
-0.00012536
2.95867e-05
-0.000128962
2.68456e-05
-0.000132182
2.38799e-05
-0.000134993
2.07006e-05
-0.000137373
1.73214e-05
-0.000139297
1.37586e-05
-0.000140746
1.00314e-05
-0.000141701
6.16204e-06
-0.000142148
2.17582e-06
-0.000142073
-1.89898e-06
-0.000141469
-6.03114e-06
-0.00014033
-1.01867e-05
-0.000138655
-1.4329e-05
-0.000136449
-1.84195e-05
-0.000133718
-2.24177e-05
-0.000130477
-2.62816e-05
-0.000126743
-2.99686e-05
-0.00012254
-3.3436e-05
-0.000117895
-3.66415e-05
-0.000112842
-3.95441e-05
-0.000107419
-4.21048e-05
-0.000101671
-4.42875e-05
-9.5644e-05
-4.60596e-05
-8.93909e-05
-4.73933e-05
-8.29671e-05
-4.82658e-05
-7.64311e-05
-4.86605e-05
-6.98435e-05
-4.85675e-05
-6.32665e-05
-4.79842e-05
-5.67625e-05
-4.69159e-05
-5.03935e-05
-4.53762e-05
-4.42196e-05
-4.33872e-05
-3.82987e-05
-4.09795e-05
-3.26844e-05
-3.81928e-05
-2.74258e-05
-3.5075e-05
-2.25663e-05
-3.16826e-05
-1.81423e-05
-2.80802e-05
-1.41831e-05
-2.43399e-05
-1.07098e-05
-2.05413e-05
-7.73495e-06
-1.67709e-05
-5.26261e-06
-1.31214e-05
-3.28808e-06
-9.69164e-06
-1.79837e-06
-6.58601e-06
-7.7286e-07
-3.91363e-06
-1.84243e-07
-1.78759e-06
-3.29114e-07
-4.43728e-07
2.36871e-06
-1.68977e-06
7.23543e-06
-3.65962e-06
1.20903e-05
-6.28054e-06
1.68262e-05
-9.48487e-06
2.13625e-05
-1.32095e-05
2.5637e-05
-1.73955e-05
2.96032e-05
-2.19875e-05
3.32292e-05
-2.69337e-05
3.64943e-05
-3.21849e-05
3.93877e-05
-3.76948e-05
4.19056e-05
-4.34193e-05
4.40498e-05
-4.93165e-05
4.58261e-05
-5.53461e-05
4.72425e-05
-6.14697e-05
4.83087e-05
-6.765e-05
4.90344e-05
-7.38508e-05
4.94293e-05
-8.00371e-05
4.95024e-05
-8.61743e-05
4.92613e-05
-9.22287e-05
4.87129e-05
-9.81669e-05
4.78628e-05
-0.000103956
4.67155e-05
-0.000109563
4.5275e-05
-0.000114956
4.35449e-05
-0.000120104
4.15288e-05
-0.000124973
3.92306e-05
-0.000129534
3.66552e-05
-0.000133757
3.38088e-05
-0.00013761
3.06992e-05
-0.000141067
2.73364e-05
-0.000144099
2.37327e-05
-0.000146681
1.99032e-05
-0.000148788
1.58662e-05
-0.0001504
1.16428e-05
-0.000151495
7.25765e-06
-0.000152058
2.73887e-06
-0.000152075
-1.88223e-06
-0.000151535
-6.57099e-06
-0.000150432
-1.12897e-05
-0.000148764
-1.59976e-05
-0.000146532
-2.06517e-05
-0.000143742
-2.52067e-05
-0.000140408
-2.96158e-05
-0.000136546
-3.38311e-05
-0.000132177
-3.78044e-05
-0.000127331
-4.1488e-05
-0.00012204
-4.48354e-05
-0.000116342
-4.7802e-05
-0.000110283
-5.03465e-05
-0.000103912
-5.24313e-05
-9.72814e-05
-5.40238e-05
-9.04501e-05
-5.50972e-05
-8.34793e-05
-5.56313e-05
-7.64333e-05
-5.56135e-05
-6.93782e-05
-5.50393e-05
-6.2381e-05
-5.39132e-05
-5.55084e-05
-5.22488e-05
-4.8826e-05
-5.00696e-05
-4.23969e-05
-4.74086e-05
-3.62807e-05
-4.4309e-05
-3.05322e-05
-4.08236e-05
-2.52003e-05
-3.70145e-05
-2.03274e-05
-3.29531e-05
-1.59481e-05
-2.87192e-05
-1.20887e-05
-2.44007e-05
-8.76689e-06
-2.00927e-05
-5.99123e-06
-1.58971e-05
-3.7613e-06
-1.19216e-05
-2.06796e-06
-8.27934e-06
-8.93938e-07
-5.08765e-06
-2.14762e-07
-2.46676e-06
-5.43874e-07
-4.81508e-07
2.85022e-06
-1.8305e-06
8.58442e-06
-3.95856e-06
1.42184e-05
-6.7838e-06
1.96514e-05
-1.02303e-05
2.4809e-05
-1.42275e-05
2.96342e-05
-1.87102e-05
3.40859e-05
-2.36175e-05
3.81366e-05
-2.88931e-05
4.17699e-05
-3.4484e-05
4.49786e-05
-4.03407e-05
4.77623e-05
-4.64167e-05
5.01258e-05
-5.26678e-05
5.20772e-05
-5.90523e-05
5.3627e-05
-6.55302e-05
5.47866e-05
-7.20632e-05
5.55674e-05
-7.86141e-05
5.59803e-05
-8.5147e-05
5.60353e-05
-9.16267e-05
5.5741e-05
-9.80187e-05
5.51049e-05
-0.000104289
5.4133e-05
-0.000110404
5.28304e-05
-0.00011633
5.12013e-05
-0.000122035
4.92496e-05
-0.000127485
4.69791e-05
-0.000132649
4.43943e-05
-0.000137494
4.15003e-05
-0.000141989
3.8304e-05
-0.000146104
3.4814e-05
-0.000149808
3.1041e-05
-0.000153074
2.69986e-05
-0.000155874
2.27033e-05
-0.000158183
1.81749e-05
-0.000159977
1.34367e-05
-0.000161235
8.51555e-06
-0.000161938
3.44219e-06
-0.000162071
-1.74907e-06
-0.000161622
-7.02022e-06
-0.000160582
-1.23298e-05
-0.000158946
-1.7633e-05
-0.000156716
-2.28824e-05
-0.000153895
-2.80278e-05
-0.000150493
-3.30172e-05
-0.000146527
-3.77975e-05
-0.000142016
-4.23147e-05
-0.000136989
-4.65153e-05
-0.000131478
-5.03468e-05
-0.000125521
-5.37589e-05
-0.000119163
-5.67041e-05
-0.000112455
-5.91395e-05
-0.000105451
-6.10272e-05
-9.82132e-05
-6.23354e-05
-9.08045e-05
-6.304e-05
-8.32931e-05
-6.31249e-05
-7.57493e-05
-6.25831e-05
-6.8245e-05
-6.14176e-05
-6.08521e-05
-5.96417e-05
-5.3642e-05
-5.72797e-05
-4.66838e-05
-5.43668e-05
-4.00433e-05
-5.09495e-05
-3.37818e-05
-4.70851e-05
-2.79547e-05
-4.28416e-05
-2.26106e-05
-3.82972e-05
-1.77902e-05
-3.35396e-05
-1.35256e-05
-2.86652e-05
-9.84009e-06
-2.37782e-05
-6.7471e-06
-1.899e-05
-4.25073e-06
-1.44179e-05
-2.34574e-06
-1.01843e-05
-1.0181e-06
-6.41528e-06
-2.45839e-07
-3.23902e-06
-7.89712e-07
-5.17708e-07
3.36793e-06
-1.96544e-06
1.00321e-05
-4.24542e-06
1.64984e-05
-7.2671e-06
2.26731e-05
-1.09466e-05
2.84885e-05
-1.52066e-05
3.38942e-05
-1.99755e-05
3.88548e-05
-2.51875e-05
4.33485e-05
-3.07815e-05
4.73639e-05
-3.67011e-05
5.08982e-05
-4.28936e-05
5.39549e-05
-4.93101e-05
5.65423e-05
-5.59045e-05
5.86716e-05
-6.26334e-05
6.03559e-05
-6.94555e-05
6.16087e-05
-7.63315e-05
6.24434e-05
-8.32234e-05
6.28722e-05
-9.00947e-05
6.29065e-05
-9.69094e-05
6.25558e-05
-0.000103633
6.18281e-05
-0.00011023
6.07302e-05
-0.000116667
5.92674e-05
-0.00012291
5.74444e-05
-0.000128926
5.52652e-05
-0.00013468
5.27339e-05
-0.000140142
4.98553e-05
-0.000145276
4.6635e-05
-0.000150052
4.30801e-05
-0.000154438
3.91999e-05
-0.000158403
3.50061e-05
-0.000161918
3.0513e-05
-0.000164953
2.57386e-05
-0.000167482
2.07041e-05
-0.00016948
1.54346e-05
-0.000170924
9.95912e-06
-0.000171793
4.31089e-06
-0.000172069
-1.47292e-06
-0.000171738
-7.35108e-06
-0.000170789
-1.32784e-05
-0.000169216
-1.92063e-05
-0.000167016
-2.50825e-05
-0.000164191
-3.08522e-05
-0.000160751
-3.64581e-05
-0.000156707
-4.18414e-05
-0.000152079
-4.69423e-05
-0.000146893
-5.17011e-05
-0.000141181
-5.60589e-05
-0.000134981
-5.99589e-05
-0.000128338
-6.33475e-05
-0.000121302
-6.61752e-05
-0.000113931
-6.83983e-05
-0.000106287
-6.99795e-05
-9.8437e-05
-7.08898e-05
-9.0453e-05
-7.11089e-05
-8.24095e-05
-7.06266e-05
-7.43833e-05
-6.94438e-05
-6.64521e-05
-6.75728e-05
-5.86936e-05
-6.50382e-05
-5.11835e-05
-6.18769e-05
-4.39945e-05
-5.81385e-05
-3.71949e-05
-5.38846e-05
-3.08473e-05
-4.91892e-05
-2.50073e-05
-4.41372e-05
-1.97224e-05
-3.88245e-05
-1.50313e-05
-3.33563e-05
-1.0963e-05
-2.78465e-05
-7.53655e-06
-2.24165e-05
-4.76075e-06
-1.71937e-05
-2.63442e-06
-1.23107e-05
-1.14671e-06
-7.903e-06
-2.77866e-07
-4.10786e-06
-1.06758e-06
-5.52272e-07
3.9202e-06
-2.09433e-06
1.15742e-05
-4.51957e-06
1.89236e-05
-7.72924e-06
2.58828e-05
-1.16321e-05
3.23913e-05
-1.6144e-05
3.84061e-05
-2.11878e-05
4.38987e-05
-2.66926e-05
4.88533e-05
-3.2593e-05
5.32644e-05
-3.88291e-05
5.71343e-05
-4.53454e-05
6.04712e-05
-5.20905e-05
6.32874e-05
-5.90165e-05
6.55976e-05
-6.60785e-05
6.74179e-05
-7.32341e-05
6.87643e-05
-8.0443e-05
6.96522e-05
-8.76665e-05
7.00958e-05
-9.48675e-05
7.01075e-05
-0.00010201
6.9698e-05