/*--------------------------------*- C++ -*----------------------------------*\
  =========                 |
  \\      /  F ield         | OpenFOAM: The Open Source CFD Toolbox
   \\    /   O peration     | Website:  https://openfoam.org
    \\  /    A nd           | Version:  dev
     \\/     M anipulation  |
\*---------------------------------------------------------------------------*/
FoamFile
{
    format      ascii;
    class       volVectorField;
    location    "22.5";
    object      U;
}
// * * * * * * * * * * * * * * * * * * * * * * * * * * * * * * * * * * * * * //

dimensions      [0 1 -1 0 0 0 0];

internalField   nonuniform List<vector> 
5184
(
(1.22571e-05 -1.27621e-05 0)
(4.5037e-05 -2.09053e-05 0)
(8.02041e-05 -1.72416e-05 0)
(9.58491e-05 -8.18544e-06 0)
(8.20072e-05 2.67694e-06 0)
(3.63119e-05 1.36194e-05 0)
(-4.06824e-05 2.38418e-05 0)
(-0.000146956 3.3037e-05 0)
(-0.000279719 4.10878e-05 0)
(-0.000435916 4.80003e-05 0)
(-0.000612426 5.3836e-05 0)
(-0.000806218 5.86798e-05 0)
(-0.00101443 6.2624e-05 0)
(-0.00123439 6.57596e-05 0)
(-0.00146364 6.81716e-05 0)
(-0.00169994 6.99352e-05 0)
(-0.0019412 7.11146e-05 0)
(-0.00218552 7.17623e-05 0)
(-0.00243111 7.19189e-05 0)
(-0.00267629 7.16142e-05 0)
(-0.00291945 7.08675e-05 0)
(-0.00315904 6.96892e-05 0)
(-0.00339353 6.80823e-05 0)
(-0.00362138 6.60439e-05 0)
(-0.00384109 6.35668e-05 0)
(-0.00405111 6.06412e-05 0)
(-0.00424987 5.72567e-05 0)
(-0.00443583 5.34035e-05 0)
(-0.00460739 4.90748e-05 0)
(-0.00476297 4.42675e-05 0)
(-0.00490103 3.8984e-05 0)
(-0.00502004 3.32337e-05 0)
(-0.00511853 2.70336e-05 0)
(-0.00519514 2.04098e-05 0)
(-0.0052486 1.33979e-05 0)
(-0.0052778 6.04366e-06 0)
(-0.00528179 -1.59702e-06 0)
(-0.00525986 -9.45777e-06 0)
(-0.00521149 -1.74622e-05 0)
(-0.00513646 -2.55244e-05 0)
(-0.00503484 -3.35501e-05 0)
(-0.00490699 -4.14379e-05 0)
(-0.00475362 -4.90805e-05 0)
(-0.00457578 -5.63674e-05 0)
(-0.00437488 -6.31858e-05 0)
(-0.00415267 -6.94239e-05 0)
(-0.00391124 -7.49732e-05 0)
(-0.00365301 -7.97306e-05 0)
(-0.00338072 -8.36018e-05 0)
(-0.00309735 -8.6503e-05 0)
(-0.00280615 -8.83636e-05 0)
(-0.00251053 -8.91285e-05 0)
(-0.00221408 -8.87594e-05 0)
(-0.00192043 -8.72365e-05 0)
(-0.00163325 -8.45595e-05 0)
(-0.0013562 -8.07476e-05 0)
(-0.00109279 -7.584e-05 0)
(-0.000846404 -6.98954e-05 0)
(-0.000620182 -6.29914e-05 0)
(-0.000416973 -5.52239e-05 0)
(-0.000239276 -4.67069e-05 0)
(-8.91662e-05 -3.75731e-05 0)
(3.17671e-05 -2.79771e-05 0)
(0.000122509 -1.81013e-05 0)
(0.000182726 -8.17071e-06 0)
(0.00021292 1.5196e-06 0)
(0.000214674 1.05468e-05 0)
(0.000191035 1.82742e-05 0)
(0.000147026 2.36911e-05 0)
(9.07317e-05 2.51075e-05 0)
(3.66084e-05 1.98379e-05 0)
(6.2261e-06 6.24396e-06 0)
(2.07927e-05 -4.59423e-05 0)
(6.54878e-05 -6.57028e-05 0)
(9.45321e-05 -4.05166e-05 0)
(7.25954e-05 7.67026e-06 0)
(-1.91441e-05 6.56887e-05 0)
(-0.000187489 0.000125965 0)
(-0.000433016 0.000184229 0)
(-0.000752506 0.000238234 0)
(-0.00114042 0.000286844 0)
(-0.00158997 0.000329618 0)
(-0.00209383 0.000366517 0)
(-0.00264454 0.000397731 0)
(-0.0032348 0.00042357 0)
(-0.00385763 0.000444402 0)
(-0.00450642 0.000460603 0)
(-0.00517499 0.000472532 0)
(-0.00585754 0.000480511 0)
(-0.00654861 0.000484815 0)
(-0.0072431 0.000485668 0)
(-0.0079361 0.000483242 0)
(-0.00862294 0.000477657 0)
(-0.00929906 0.000468989 0)
(-0.00995998 0.000457279 0)
(-0.0106013 0.000442535 0)
(-0.0112186 0.000424744 0)
(-0.0118075 0.000403885 0)
(-0.0123635 0.000379932 0)
(-0.0128824 0.000352869 0)
(-0.0133596 0.000322696 0)
(-0.0137909 0.00028944 0)
(-0.014172 0.000253161 0)
(-0.0144988 0.000213963 0)
(-0.0147674 0.000171994 0)
(-0.0149742 0.000127458 0)
(-0.015116 8.06143e-05 0)
(-0.0151898 3.17805e-05 0)
(-0.0151934 -1.86645e-05 0)
(-0.0151249 -7.02829e-05 0)
(-0.0149833 -0.00012258 0)
(-0.0147681 -0.00017501 0)
(-0.0144797 -0.000226979 0)
(-0.0141195 -0.000277854 0)
(-0.0136894 -0.000326976 0)
(-0.0131925 -0.000373667 0)
(-0.0126327 -0.000417242 0)
(-0.012015 -0.000457026 0)
(-0.0113451 -0.000492369 0)
(-0.0106295 -0.000522655 0)
(-0.00987569 -0.000547324 0)
(-0.00909171 -0.000565882 0)
(-0.00828627 -0.000577916 0)
(-0.00746854 -0.000583107 0)
(-0.00664804 -0.000581239 0)
(-0.0058345 -0.000572208 0)
(-0.00503771 -0.00055603 0)
(-0.00426731 -0.000532844 0)
(-0.00353269 -0.000502913 0)
(-0.00284275 -0.000466626 0)
(-0.00220578 -0.000424496 0)
(-0.00162924 -0.000377164 0)
(-0.00111962 -0.000325396 0)
(-0.000682209 -0.000270096 0)
(-0.00032092 -0.000212325 0)
(-3.80386e-05 -0.000153333 0)
(0.000166063 -9.46297e-05 0)
(0.000293301 -3.80925e-05 0)
(0.000348419 1.38231e-05 0)
(0.000339674 5.78124e-05 0)
(0.000279548 8.92872e-05 0)
(0.000185875 0.000101756 0)
(8.62976e-05 8.64533e-05 0)
(1.96659e-05 3.64717e-05 0)
(1.76015e-05 -8.12757e-05 0)
(4.12258e-05 -9.49404e-05 0)
(1.94402e-05 -1.90382e-05 0)
(-8.41719e-05 0.000105977 0)
(-0.000290377 0.000254616 0)
(-0.000607912 0.00041045 0)
(-0.00103803 0.000563177 0)
(-0.00157692 0.000706668 0)
(-0.00221742 0.000837478 0)
(-0.00295035 0.000953903 0)
(-0.00376542 0.00105535 0)
(-0.00465195 0.00114191 0)
(-0.00559921 0.00121411 0)
(-0.00659676 0.00127266 0)
(-0.00763454 0.00131838 0)
(-0.00870299 0.00135211 0)
(-0.00979305 0.0013746 0)
(-0.0108961 0.00138654 0)
(-0.012004 0.00138848 0)
(-0.0131088 0.00138087 0)
(-0.0142031 0.00136404 0)
(-0.0152793 0.0013382 0)
(-0.0163304 0.0013035 0)
(-0.0173491 0.00125998 0)
(-0.0183285 0.00120767 0)
(-0.0192614 0.00114655 0)
(-0.0201408 0.00107662 0)
(-0.0209598 0.000997875 0)
(-0.0217115 0.000910396 0)
(-0.0223892 0.000814316 0)
(-0.0229863 0.000709869 0)
(-0.0234964 0.000597397 0)
(-0.0239138 0.000477375 0)
(-0.0242329 0.000350415 0)
(-0.0244487 0.000217284 0)
(-0.0245572 7.8903e-05 0)
(-0.0245549 -6.3649e-05 0)
(-0.0244393 -0.000209138 0)
(-0.0242089 -0.000356181 0)
(-0.0238634 -0.000503264 0)
(-0.0234036 -0.000648752 0)
(-0.0228315 -0.000790915 0)
(-0.0221508 -0.000927951 0)
(-0.0213663 -0.00105802 0)
(-0.0204841 -0.00117927 0)
(-0.0195119 -0.00128989 0)
(-0.0184586 -0.00138812 0)
(-0.0173344 -0.00147231 0)
(-0.0161508 -0.00154098 0)
(-0.01492 -0.0015928 0)
(-0.0136555 -0.00162668 0)
(-0.0123712 -0.00164177 0)
(-0.0110816 -0.00163752 0)
(-0.00980171 -0.00161367 0)
(-0.00854625 -0.00157028 0)
(-0.00732995 -0.00150775 0)
(-0.00616706 -0.00142685 0)
(-0.00507109 -0.00132865 0)
(-0.00405458 -0.0012146 0)
(-0.00312879 -0.00108652 0)
(-0.00230347 -0.00094657 0)
(-0.0015865 -0.000797316 0)
(-0.000983619 -0.000641762 0)
(-0.000498061 -0.000483437 0)
(-0.000130146 -0.000326536 0)
(0.000123192 -0.000176144 0)
(0.000269037 -3.85707e-05 0)
(0.000319219 7.81715e-05 0)
(0.000290856 0.000163793 0)
(0.000207154 0.000205135 0)
(0.000102348 0.000186098 0)
(2.4955e-05 9.03281e-05 0)
(8.81643e-06 -9.76454e-05 0)
(-7.07793e-06 -7.29874e-05 0)
(-0.000107665 8.49016e-05 0)
(-0.000322399 0.000318364 0)
(-0.000669503 0.000589928 0)
(-0.00115737 0.000873991 0)
(-0.00178674 0.00115354 0)
(-0.00255286 0.0014178 0)
(-0.00344717 0.0016603 0)
(-0.00445866 0.00187752 0)
(-0.00557485 0.00206791 0)
(-0.00678254 0.0022312 0)
(-0.00806835 0.00236797 0)
(-0.00941901 0.00247924 0)
(-0.0108216 0.0025663 0)
(-0.0122638 0.00263047 0)
(-0.0137337 0.00267302 0)
(-0.0152197 0.00269512 0)
(-0.0167112 0.00269774 0)
(-0.0181974 0.00268167 0)
(-0.0196681 0.00264751 0)
(-0.0211135 0.00259569 0)
(-0.0225238 0.00252647 0)
(-0.0238892 0.00244001 0)
(-0.0252004 0.0023364 0)
(-0.0264478 0.00221567 0)
(-0.0276221 0.00207789 0)
(-0.028714 0.00192317 0)
(-0.0297145 0.0017517 0)
(-0.0306145 0.00156385 0)
(-0.0314057 0.00136012 0)
(-0.0320797 0.00114127 0)
(-0.0326291 0.000908263 0)
(-0.0330467 0.000662332 0)
(-0.0333263 0.000404994 0)
(-0.0334627 0.000138046 0)
(-0.0334517 -0.000136424 0)
(-0.0332902 -0.000416049 0)
(-0.0329766 -0.000698196 0)
(-0.0325106 -0.000979992 0)
(-0.0318937 -0.00125835 0)
(-0.0311287 -0.00153002 0)
(-0.0302205 -0.00179163 0)
(-0.0291756 -0.00203973 0)
(-0.0280021 -0.00227089 0)
(-0.0267102 -0.00248173 0)
(-0.0253114 -0.00266898 0)
(-0.0238192 -0.00282961 0)
(-0.0222482 -0.00296085 0)
(-0.0206147 -0.00306027 0)
(-0.0189357 -0.00312584 0)
(-0.0172295 -0.00315604 0)
(-0.0155149 -0.00314983 0)
(-0.0138109 -0.00310676 0)
(-0.0121367 -0.00302699 0)
(-0.0105113 -0.0029113 0)
(-0.00895303 -0.00276111 0)
(-0.00747931 -0.00257852 0)
(-0.00610625 -0.00236629 0)
(-0.00484837 -0.00212787 0)
(-0.00371813 -0.00186739 0)
(-0.00272566 -0.00158976 0)
(-0.00187827 -0.00130068 0)
(-0.0011801 -0.00100681 0)
(-0.000631635 -0.000715974 0)
(-0.00022917 -0.000437425 0)
(3.57551e-05 -0.000182306 0)
(0.000177018 3.57873e-05 0)
(0.000214325 0.000200147 0)
(0.00017382 0.00029039 0)
(9.29109e-05 0.000282237 0)
(2.4003e-05 0.000147154 0)
(-2.13821e-06 -8.42767e-05 0)
(-6.73129e-05 2.10734e-05 0)
(-0.000264081 0.000295525 0)
(-0.000609601 0.000667894 0)
(-0.00111635 0.00109041 0)
(-0.00179052 0.0015292 0)
(-0.00263112 0.00196083 0)
(-0.00363179 0.00236985 0)
(-0.00478239 0.00274655 0)
(-0.00607021 0.00308529 0)
(-0.00748093 0.00338332 0)
(-0.00899929 0.00363981 0)
(-0.0106097 0.00385522 0)
(-0.0122967 0.00403079 0)
(-0.0140449 0.00416819 0)
(-0.0158395 0.00426923 0)
(-0.0176661 0.0043357 0)
(-0.0195111 0.00436925 0)
(-0.0213609 0.0043713 0)
(-0.0232026 0.00434303 0)
(-0.0250237 0.00428534 0)
(-0.0268119 0.00419889 0)
(-0.028555 0.00408414 0)
(-0.0302412 0.0039414 0)
(-0.0318587 0.00377084 0)
(-0.0333959 0.00357263 0)
(-0.0348413 0.00334695 0)
(-0.0361835 0.00309408 0)
(-0.0374115 0.00281446 0)
(-0.0385146 0.00250876 0)
(-0.0394824 0.00217792 0)
(-0.0403052 0.00182321 0)
(-0.0409738 0.00144627 0)
(-0.04148 0.00104917 0)
(-0.0418164 0.000634368 0)
(-0.0419769 0.000204792 0)
(-0.0419567 -0.000236206 0)
(-0.0417523 -0.000684842 0)
(-0.041362 -0.00113693 0)
(-0.0407859 -0.00158792 0)
(-0.0400256 -0.00203295 0)
(-0.0390851 -0.00246691 0)
(-0.0379703 -0.0028845 0)
(-0.036689 -0.00328036 0)
(-0.0352513 -0.0036491 0)
(-0.0336693 -0.00398545 0)
(-0.0319571 -0.00428436 0)
(-0.0301306 -0.00454109 0)
(-0.0282076 -0.00475135 0)
(-0.0262072 -0.00491136 0)
(-0.0241501 -0.00501801 0)
(-0.0220579 -0.00506891 0)
(-0.019953 -0.00506248 0)
(-0.0178581 -0.00499804 0)
(-0.0157962 -0.00487586 0)
(-0.0137899 -0.00469718 0)
(-0.0118611 -0.00446428 0)
(-0.0100305 -0.00418047 0)
(-0.00831734 -0.00385013 0)
(-0.00673903 -0.00347871 0)
(-0.00531047 -0.00307277 0)
(-0.0040438 -0.00264006 0)
(-0.00294787 -0.00218955 0)
(-0.00202784 -0.00173164 0)
(-0.00128465 -0.00127837 0)
(-0.000714543 -0.000843787 0)
(-0.00030855 -0.000444359 0)
(-5.19155e-05 -9.96343e-05 0)
(7.62142e-05 0.000167066 0)
(0.00010332 0.000328024 0)
(6.73875e-05 0.000350521 0)
(1.96408e-05 0.000193942 0)
(-1.36984e-05 -3.73873e-05 0)
(-0.000132803 0.000197503 0)
(-0.000435663 0.000626847 0)
(-0.000924226 0.00116996 0)
(-0.00160311 0.00177095 0)
(-0.00247486 0.00238898 0)
(-0.00353564 0.00299502 0)
(-0.00477675 0.00356931 0)
(-0.00618611 0.00409899 0)
(-0.00774921 0.00457633 0)
(-0.00944993 0.00499724 0)
(-0.0112712 0.00536023 0)
(-0.0131956 0.00566556 0)
(-0.0152055 0.00591459 0)
(-0.0172838 0.0061093 0)
(-0.0194134 0.00625194 0)
(-0.0215781 0.00634481 0)
(-0.0237617 0.00639003 0)
(-0.0259489 0.00638947 0)
(-0.0281245 0.00634469 0)
(-0.0302739 0.00625694 0)
(-0.0323826 0.00612714 0)
(-0.0344366 0.00595596 0)
(-0.0364217 0.00574387 0)
(-0.0383243 0.00549124 0)
(-0.0401308 0.00519837 0)
(-0.0418278 0.00486565 0)
(-0.043402 0.00449362 0)
(-0.0448409 0.00408302 0)
(-0.0461318 0.00363496 0)
(-0.047263 0.00315091 0)
(-0.0482232 0.00263284 0)
(-0.0490022 0.00208321 0)
(-0.0495904 0.00150509 0)
(-0.0499797 0.000902091 0)
(-0.0501632 0.000278482 0)
(-0.0501355 -0.000360884 0)
(-0.049893 -0.00101056 0)
(-0.0494337 -0.00166454 0)
(-0.048758 -0.00231634 0)
(-0.047868 -0.00295902 0)
(-0.0467683 -0.00358533 0)
(-0.0454658 -0.00418777 0)
(-0.0439696 -0.00475874 0)
(-0.0422914 -0.00529064 0)
(-0.0404448 -0.00577605 0)
(-0.0384462 -0.00620782 0)
(-0.0363137 -0.00657931 0)
(-0.0340674 -0.00688444 0)
(-0.0317295 -0.00711793 0)
(-0.0293232 -0.00727537 0)
(-0.0268733 -0.00735342 0)
(-0.0244052 -0.00734985 0)
(-0.0219451 -0.00726372 0)
(-0.0195189 -0.00709541 0)
(-0.0171525 -0.00684669 0)
(-0.0148709 -0.0065208 0)
(-0.012698 -0.00612246 0)
(-0.0106557 -0.0056579 0)
(-0.00876406 -0.00513488 0)
(-0.00704026 -0.00456274 0)
(-0.0054984 -0.00395244 0)
(-0.00414896 -0.00331668 0)
(-0.0029983 -0.00267003 0)
(-0.00204821 -0.00202922 0)
(-0.00129543 -0.00141342 0)
(-0.000731193 -0.000844744 0)
(-0.000340791 -0.000348863 0)
(-0.000103292 4.42687e-05 0)
(8.9128e-06 0.000299731 0)
(3.23882e-05 0.000376734 0)
(1.35976e-05 0.000224257 0)
(-2.51796e-05 4.42159e-05 0)
(-0.000199923 0.000461297 0)
(-0.000613765 0.00108677 0)
(-0.00125221 0.00183395 0)
(-0.00211079 0.00264104 0)
(-0.00318734 0.00346184 0)
(-0.0044743 0.00426274 0)
(-0.00595995 0.00502031 0)
(-0.00762982 0.00571898 0)
(-0.00946735 0.00634904 0)
(-0.0114546 0.00690521 0)
(-0.0135727 0.00738531 0)
(-0.0158025 0.00778937 0)
(-0.0181248 0.0081188 0)
(-0.0205205 0.00837588 0)
(-0.022971 0.00856328 0)
(-0.0254579 0.00868372 0)
(-0.0279636 0.0087398 0)
(-0.0304706 0.00873384 0)
(-0.032962 0.00866777 0)
(-0.0354213 0.00854318 0)
(-0.0378321 0.00836128 0)
(-0.0401785 0.00812296 0)
(-0.0424446 0.00782892 0)
(-0.044615 0.00747971 0)
(-0.0466742 0.00707587 0)
(-0.0486072 0.00661803 0)
(-0.0503993 0.00610705 0)
(-0.052036 0.00554411 0)
(-0.0535034 0.00493081 0)
(-0.0547884 0.00426931 0)
(-0.0558786 0.00356238 0)
(-0.0567623 0.00281346 0)
(-0.0574293 0.00202676 0)
(-0.0578705 0.00120725 0)
(-0.0580784 0.000360703 0)
(-0.0580471 -0.000506311 0)
(-0.0577727 -0.00138647 0)
(-0.0572533 -0.00227174 0)
(-0.0564891 -0.00315345 0)
(-0.0554829 -0.00402236 0)
(-0.0542396 -0.00486883 0)
(-0.0527671 -0.00568291 0)
(-0.0510754 -0.00645451 0)
(-0.0491774 -0.00717359 0)
(-0.0470884 -0.0078303 0)
(-0.0448263 -0.00841522 0)
(-0.0424113 -0.00891954 0)
(-0.0398656 -0.00933523 0)
(-0.0372135 -0.0096553 0)
(-0.034481 -0.0098739 0)
(-0.0316953 -0.00998659 0)
(-0.0288847 -0.00999043 0)
(-0.0260782 -0.00988412 0)
(-0.0233046 -0.00966816 0)
(-0.0205928 -0.00934488 0)
(-0.0179705 -0.00891857 0)
(-0.0154644 -0.00839547 0)
(-0.0130992 -0.00778384 0)
(-0.0108973 -0.00709398 0)
(-0.0088783 -0.00633826 0)
(-0.00705826 -0.0055312 0)
(-0.00544943 -0.00468949 0)
(-0.00405966 -0.00383225 0)
(-0.00289196 -0.00298112 0)
(-0.00194404 -0.00216069 0)
(-0.00120798 -0.00139888 0)
(-0.000669861 -0.000727499 0)
(-0.000309486 -0.000183023 0)
(-0.000100051 0.000192769 0)
(-7.80523e-06 0.000351783 0)
(6.83987e-06 0.000234673 0)
(-3.6323e-05 0.000160527 0)
(-0.00026679 0.000814319 0)
(-0.000793267 0.00167907 0)
(-0.00158463 0.00266487 0)
(-0.00262671 0.00370607 0)
(-0.00391197 0.0047527 0)
(-0.00542843 0.00576774 0)
(-0.00716081 0.00672494 0)
(-0.00909181 0.00760652 0)
(-0.0112026 0.00840123 0)
(-0.0134732 0.00910273 0)
(-0.015883 0.00970831 0)
(-0.0184112 0.0102178 0)
(-0.021037 0.0106327 0)
(-0.0237397 0.0109556 0)
(-0.0264991 0.0111894 0)
(-0.0292953 0.0113375 0)
(-0.0321091 0.0114028 0)
(-0.0349213 0.011388 0)
(-0.0377134 0.0112954 0)
(-0.0404673 0.0111271 0)
(-0.0431649 0.0108844 0)
(-0.0457887 0.0105686 0)
(-0.0483213 0.0101805 0)
(-0.0507456 0.00972093 0)
(-0.0530445 0.00919073 0)
(-0.0552016 0.00859082 0)
(-0.0572006 0.00792245 0)
(-0.0590258 0.00718729 0)
(-0.0606619 0.00638756 0)
(-0.0620946 0.00552617 0)
(-0.0633103 0.00460683 0)
(-0.0642964 0.00363408 0)
(-0.0650418 0.00261342 0)
(-0.0655366 0.00155132 0)
(-0.0657727 0.000455218 0)
(-0.0657437 -0.000666442 0)
(-0.0654454 -0.00180428 0)
(-0.0648757 -0.00294804 0)
(-0.0640351 -0.00408665 0)
(-0.0629262 -0.00520841 0)
(-0.0615546 -0.00630106 0)
(-0.0599287 -0.00735198 0)
(-0.0580593 -0.00834841 0)
(-0.0559602 -0.00927761 0)
(-0.0536482 -0.0101271 0)
(-0.0511423 -0.010885 0)
(-0.0484644 -0.0115402 0)
(-0.0456386 -0.0120823 0)
(-0.0426912 -0.0125026 0)
(-0.0396503 -0.0127937 0)
(-0.0365456 -0.0129498 0)
(-0.0334077 -0.0129671 0)
(-0.0302682 -0.012844 0)
(-0.0271587 -0.012581 0)
(-0.0241107 -0.012181 0)
(-0.0211547 -0.0116493 0)
(-0.0183201 -0.0109939 0)
(-0.0156342 -0.010225 0)
(-0.0131218 -0.00935583 0)
(-0.010805 -0.00840184 0)
(-0.00870197 -0.00738133 0)
(-0.00682694 -0.00631527 0)
(-0.00518956 -0.00522747 0)
(-0.00379443 -0.00414478 0)
(-0.00264072 -0.00309731 0)
(-0.00172186 -0.00211882 0)
(-0.00102529 -0.00124727 0)
(-0.000532231 -0.000525421 0)
(-0.000217337 -1.45772e-06 0)
(-5.05273e-05 0.000270109 0)
(-1.01179e-07 0.000223488 0)
(-4.70327e-05 0.00031091 0)
(-0.000332421 0.00125648 0)
(-0.000971177 0.0024047 0)
(-0.00191587 0.00366455 0)
(-0.00314249 0.00496834 0)
(-0.0046377 0.00626378 0)
(-0.00638468 0.00751166 0)
(-0.00836416 0.00868378 0)
(-0.0105557 0.00976086 0)
(-0.0129378 0.0107305 0)
(-0.0154884 0.0115857 0)
(-0.0181851 0.0123235 0)
(-0.0210055 0.0129435 0)
(-0.0239271 0.0134474 0)
(-0.0269279 0.0138381 0)
(-0.0299862 0.014119 0)
(-0.0330808 0.0142938 0)
(-0.0361908 0.0143658 0)
(-0.0392961 0.0143383 0)
(-0.0423764 0.0142139 0)
(-0.0454123 0.0139948 0)
(-0.0483844 0.0136829 0)
(-0.0512735 0.0132795 0)
(-0.054061 0.0127859 0)
(-0.0567282 0.012203 0)
(-0.059257 0.011532 0)
(-0.0616293 0.0107742 0)
(-0.0638276 0.00993135 0)
(-0.0658351 0.00900555 0)
(-0.0676352 0.00799979 0)
(-0.0692125 0.00691781 0)
(-0.0705524 0.00576434 0)
(-0.0716414 0.00454512 0)
(-0.0724674 0.00326707 0)
(-0.07302 0.00193825 0)
(-0.0732903 0.000567933 0)
(-0.0732714 -0.000833447 0)
(-0.0729588 -0.0022543 0)
(-0.0723501 -0.00368199 0)
(-0.0714456 -0.00510292 0)
(-0.0702481 -0.0065027 0)
(-0.0687634 -0.0078663 0)
(-0.067 -0.00917826 0)
(-0.0649696 -0.0104229 0)
(-0.0626867 -0.0115847 0)
(-0.0601687 -0.0126483 0)
(-0.0574362 -0.0135991 0)
(-0.0545121 -0.0144233 0)
(-0.0514222 -0.0151085 0)
(-0.0481944 -0.0156437 0)
(-0.044859 -0.0160197 0)
(-0.0414475 -0.0162293 0)
(-0.037993 -0.0162679 0)
(-0.0345294 -0.0161333 0)
(-0.031091 -0.0158258 0)
(-0.0277117 -0.015349 0)
(-0.0244248 -0.0147093 0)
(-0.0212624 -0.0139162 0)
(-0.0182544 -0.0129822 0)
(-0.0154284 -0.0119232 0)
(-0.0128088 -0.0107582 0)
(-0.0104162 -0.00950928 0)
(-0.00826714 -0.00820189 0)
(-0.00637337 -0.00686472 0)
(-0.00474143 -0.0055299 0)
(-0.00337239 -0.00423318 0)
(-0.00226146 -0.00301422 0)
(-0.00139797 -0.00191701 0)
(-0.000764963 -0.000990379 0)
(-0.000339044 -0.000288464 0)
(-9.42207e-05 0.000128609 0)
(-6.9558e-06 0.00019005 0)
(-5.72969e-05 0.00049446 0)
(-0.000396335 0.00178653 0)
(-0.00114576 0.00326278 0)
(-0.00224241 0.00483263 0)
(-0.00365256 0.00642783 0)
(-0.00535689 0.00799514 0)
(-0.00733349 0.00949424 0)
(-0.0095588 0.010896 0)
(-0.0120089 0.0121802 0)
(-0.0146596 0.0133341 0)
(-0.0174866 0.0143502 0)
(-0.0204654 0.0152255 0)
(-0.023572 0.0159598 0)
(-0.0267825 0.0165551 0)
(-0.0300735 0.0170147 0)
(-0.0334219 0.0173424 0)
(-0.0368055 0.0175422 0)
(-0.040202 0.0176181 0)
(-0.04359 0.0175736 0)
(-0.0469483 0.0174117 0)
(-0.0502559 0.0171351 0)
(-0.0534922 0.0167457 0)
(-0.0566371 0.0162453 0)
(-0.0596705 0.0156353 0)
(-0.0625726 0.014917 0)
(-0.0653239 0.0140919 0)
(-0.0679053 0.0131616 0)
(-0.0702982 0.0121283 0)
(-0.0724845 0.010995 0)
(-0.0744468 0.00976512 0)
(-0.0761684 0.00844348 0)
(-0.0776338 0.00703586 0)
(-0.0788288 0.0055493 0)
(-0.0797403 0.00399218 0)
(-0.0803571 0.00237429 0)
(-0.0806697 0.000706783 0)
(-0.0806706 -0.000997766 0)
(-0.0803548 -0.00272546 0)
(-0.0797195 -0.00446115 0)
(-0.0787647 -0.00618859 0)
(-0.0774932 -0.00789055 0)
(-0.0759106 -0.00954907 0)
(-0.0740256 -0.0111457 0)
(-0.0718502 -0.0126617 0)
(-0.0693994 -0.0140784 0)
(-0.0666914 -0.0153776 0)
(-0.0637473 -0.0165417 0)
(-0.0605914 -0.0175542 0)
(-0.0572507 -0.0184 0)
(-0.0537546 -0.0190659 0)
(-0.0501351 -0.0195408 0)
(-0.0464257 -0.0198158 0)
(-0.0426616 -0.0198853 0)
(-0.0388791 -0.0197461 0)
(-0.0351148 -0.0193989 0)
(-0.0314054 -0.0188472 0)
(-0.027787 -0.0180987 0)
(-0.0242941 -0.0171644 0)
(-0.0209598 -0.0160591 0)
(-0.0178143 -0.0148015 0)
(-0.0148846 -0.0134141 0)
(-0.0121943 -0.011923 0)
(-0.00976226 -0.0103581 0)
(-0.00760273 -0.00875313 0)
(-0.00572462 -0.00714568 0)
(-0.00413121 -0.00557718 0)
(-0.00281997 -0.00409318 0)
(-0.00178242 -0.00274364 0)
(-0.00100382 -0.00158327 0)
(-0.000462962 -0.000671786 0)
(-0.00013807 -7.43284e-05 0)
(-1.36087e-05 0.000134282 0)
(-6.71331e-05 0.000710145 0)
(-0.000458306 0.00240257 0)
(-0.00131601 0.00425122 0)
(-0.00256205 0.00616713 0)
(-0.00415321 0.00808273 0)
(-0.00606422 0.00994499 0)
(-0.00826793 0.0117136 0)
(-0.0107364 0.0133592 0)
(-0.013442 0.0148617 0)
(-0.0163577 0.0162082 0)
(-0.0194566 0.0173916 0)
(-0.0227125 0.0184089 0)
(-0.0260995 0.0192606 0)
(-0.0295924 0.0199489 0)
(-0.0331663 0.0204776 0)
(-0.0367972 0.0208511 0)
(-0.0404614 0.0210739 0)
(-0.0441359 0.0211504 0)
(-0.047798 0.0210845 0)
(-0.0514254 0.0208797 0)
(-0.0549963 0.0205388 0)
(-0.0584889 0.0200642 0)
(-0.0618821 0.0194578 0)
(-0.0651545 0.0187214 0)
(-0.0682856 0.0178565 0)
(-0.0712546 0.0168649 0)
(-0.0740416 0.0157487 0)
(-0.0766267 0.0145106 0)
(-0.0789909 0.0131542 0)
(-0.0811159 0.0116838 0)
(-0.082984 0.010105 0)
(-0.0845788 0.00842488 0)
(-0.0858851 0.00665173 0)
(-0.0868891 0.00479551 0)
(-0.0875787 0.00286776 0)
(-0.0879436 0.000881616 0)
(-0.0879758 -0.00114815 0)
(-0.0876695 -0.00320525 0)
(-0.0870214 -0.00527193 0)
(-0.086031 -0.00732915 0)
(-0.0847007 -0.00935677 0)
(-0.0830359 -0.0113338 0)
(-0.0810453 -0.0132385 0)
(-0.0787407 -0.0150491 0)
(-0.0761374 -0.0167435 0)
(-0.073254 -0.0183004 0)
(-0.0701123 -0.0196991 0)
(-0.0667373 -0.02092 0)
(-0.0631571 -0.0219454 0)
(-0.0594025 -0.0227594 0)
(-0.0555069 -0.0233487 0)
(-0.0515057 -0.0237029 0)
(-0.0474361 -0.0238146 0)
(-0.0433368 -0.0236802 0)
(-0.0392468 -0.0232996 0)
(-0.0352054 -0.022677 0)
(-0.0312516 -0.0218207 0)
(-0.0274229 -0.0207434 0)
(-0.0237553 -0.0194621 0)
(-0.020282 -0.0179984 0)
(-0.0170332 -0.0163782 0)
(-0.0140352 -0.0146317 0)
(-0.0113099 -0.0127934 0)
(-0.00887443 -0.0109023 0)
(-0.00674035 -0.00900133 0)
(-0.00491356 -0.00713773 0)
(-0.00339408 -0.005363 0)
(-0.00217597 -0.00373303 0)
(-0.00124694 -0.00230829 0)
(-0.00058808 -0.00115387 0)
(-0.000181749 -0.00033954 0)
(-2.00336e-05 5.63504e-05 0)
(-7.65656e-05 0.000956887 0)
(-0.000518231 0.0031023 0)
(-0.00148135 0.00536713 0)
(-0.00287335 0.00766495 0)
(-0.00464191 0.0099299 0)
(-0.00675588 0.0121102 0)
(-0.00918291 0.0141664 0)
(-0.0118905 0.01607 0)
(-0.0148474 0.0178015 0)
(-0.0180235 0.0193487 0)
(-0.0213894 0.0207051 0)
(-0.0249169 0.0218684 0)
(-0.0285784 0.0228397 0)
(-0.0323472 0.0236219 0)
(-0.0361972 0.0242196 0)
(-0.0401033 0.0246376 0)
(-0.0440408 0.024881 0)
(-0.0479857 0.0249547 0)
(-0.0519144 0.0248631 0)
(-0.0558037 0.0246101 0)
(-0.0596309 0.0241986 0)
(-0.0633734 0.0236315 0)
(-0.067009 0.0229109 0)
(-0.0705157 0.0220388 0)
(-0.0738717 0.0210171 0)
(-0.0770557 0.0198479 0)
(-0.0800466 0.0185338 0)
(-0.0828238 0.0170778 0)
(-0.0853672 0.0154842 0)
(-0.0876576 0.0137583 0)
(-0.0896765 0.0119065 0)
(-0.0914066 0.0099371 0)
(-0.0928317 0.00785972 0)
(-0.0939372 0.0056859 0)
(-0.0947101 0.00342896 0)
(-0.0951393 0.00110409 0)
(-0.0952159 -0.00127173 0)
(-0.0949332 -0.00367974 0)
(-0.0942874 -0.00609952 0)
(-0.0932772 -0.00850918 0)
(-0.0919043 -0.0108855 0)
(-0.0901737 -0.0132044 0)
(-0.0880937 -0.0154408 0)
(-0.0856759 -0.0175695 0)
(-0.0829354 -0.0195651 0)
(-0.079891 -0.0214027 0)
(-0.0765648 -0.0230584 0)
(-0.0729824 -0.0245094 0)
(-0.0691728 -0.0257349 0)
(-0.0651678 -0.0267162 0)
(-0.0610022 -0.0274377 0)
(-0.0567133 -0.0278867 0)
(-0.0523403 -0.0280543 0)
(-0.0479238 -0.0279356 0)
(-0.0435057 -0.0275303 0)
(-0.039128 -0.0268425 0)
(-0.0348326 -0.0258813 0)
(-0.0306602 -0.0246607 0)
(-0.02665 -0.0232001 0)
(-0.0228385 -0.0215237 0)
(-0.0192593 -0.0196609 0)
(-0.0159421 -0.0176462 0)
(-0.012912 -0.0155188 0)
(-0.0101893 -0.0133226 0)
(-0.00778872 -0.0111065 0)
(-0.00571907 -0.00892334 0)
(-0.00398325 -0.00683078 0)
(-0.00257811 -0.00489064 0)
(-0.00149396 -0.00316917 0)
(-0.000714243 -0.00173671 0)
(-0.000225259 -0.000667588 0)
(-2.62572e-05 -4.35265e-05 0)
(-8.56161e-05 0.0012336 0)
(-0.000576061 0.00388318 0)
(-0.00164138 0.0066071 0)
(-0.00317532 0.00932219 0)
(-0.00511684 0.0119652 0)
(-0.00742907 0.0144864 0)
(-0.0100745 0.0168482 0)
(-0.0130162 0.0190237 0)
(-0.0162192 0.0209947 0)
(-0.0196502 0.0227503 0)
(-0.0232775 0.0242851 0)
(-0.0270706 0.0255979 0)
(-0.0310003 0.0266908 0)
(-0.0350384 0.0275677 0)
(-0.0391578 0.0282338 0)
(-0.0433323 0.0286947 0)
(-0.0475362 0.0289563 0)
(-0.0517446 0.029024 0)
(-0.0559333 0.0289026 0)
(-0.0600783 0.0285963 0)
(-0.064156 0.0281085 0)
(-0.0681432 0.0274423 0)
(-0.0720169 0.0266001 0)
(-0.0757543 0.0255841 0)
(-0.0793331 0.0243966 0)
(-0.0827308 0.0230398 0)
(-0.0859258 0.0215168 0)
(-0.0888966 0.0198313 0)
(-0.0916223 0.0179881 0)
(-0.0940827 0.0159932 0)
(-0.0962587 0.0138542 0)
(-0.0981318 0.0115802 0)
(-0.0996851 0.00918249 0)
(-0.100903 0.00667404 0)
(-0.101771 0.00406999 0)
(-0.102278 0.00138754 0)
(-0.102414 -0.00135406 0)
(-0.102171 -0.00413356 0)
(-0.101544 -0.00692786 0)
(-0.10053 -0.00971213 0)
(-0.0991322 -0.0124601 0)
(-0.0973531 -0.0151443 0)
(-0.0952007 -0.0177363 0)
(-0.092686 -0.0202073 0)
(-0.0898239 -0.0225283 0)
(-0.0866328 -0.024671 0)
(-0.0831351 -0.0266076 0)
(-0.0793566 -0.028312 0)
(-0.0753268 -0.02976 0)
(-0.0710787 -0.03093 0)
(-0.0666483 -0.0318033 0)
(-0.0620744 -0.032365 0)
(-0.0573982 -0.0326042 0)
(-0.0526627 -0.0325148 0)
(-0.0479122 -0.0320954 0)
(-0.0431919 -0.0313502 0)
(-0.0385466 -0.0302886 0)
(-0.0340205 -0.0289261 0)
(-0.0296564 -0.0272839 0)
(-0.0254944 -0.0253891 0)
(-0.0215718 -0.0232746 0)
(-0.0179221 -0.020979 0)
(-0.0145741 -0.0185462 0)
(-0.0115516 -0.0160256 0)
(-0.00887283 -0.0134715 0)
(-0.00654995 -0.0109431 0)
(-0.00458902 -0.008504 0)
(-0.0029899 -0.00622217 0)
(-0.00174561 -0.00416971 0)
(-0.0008419 -0.00242238 0)
(-0.000268822 -0.00105912 0)
(-3.23379e-05 -0.000165215 0)
(-9.42997e-05 0.00153918 0)
(-0.000631758 0.0047425 0)
(-0.00179582 0.00796731 0)
(-0.00346724 0.0111343 0)
(-0.00557659 0.0141835 0)
(-0.00808155 0.0170683 0)
(-0.0109396 0.0197535 0)
(-0.0141094 0.0222146 0)
(-0.0175522 0.0244355 0)
(-0.0212319 0.026407 0)
(-0.025114 0.0281254 0)
(-0.0291662 0.0295912 0)
(-0.0333574 0.0308075 0)
(-0.0376581 0.0317795 0)
(-0.0420401 0.0325134 0)
(-0.0464761 0.0330159 0)
(-0.0509398 0.0332933 0)
(-0.0554054 0.0333519 0)
(-0.059848 0.0331968 0)
(-0.0642431 0.0328327 0)
(-0.0685664 0.0322636 0)
(-0.0727941 0.0314925 0)
(-0.0769026 0.0305221 0)
(-0.0808686 0.0293551 0)
(-0.0846689 0.0279937 0)
(-0.0882806 0.0264407 0)
(-0.0916812 0.0246996 0)
(-0.0948486 0.0227744 0)
(-0.0977611 0.0206705 0)
(-0.100398 0.0183948 0)
(-0.102738 0.0159557 0)
(-0.104764 0.0133636 0)
(-0.106456 0.010631 0)
(-0.107799 0.0077723 0)
(-0.108777 0.00480454 0)
(-0.109376 0.00174688 0)
(-0.109587 -0.0013792 0)
(-0.1094 -0.00454997 0)
(-0.10881 -0.0077396 0)
(-0.107812 -0.0109203 0)
(-0.106407 -0.0140627 0)
(-0.104598 -0.0171358 0)
(-0.102391 -0.0201078 0)
(-0.0997964 -0.0229462 0)
(-0.0968288 -0.0256182 0)
(-0.0935059 -0.0280915 0)
(-0.0898499 -0.0303346 0)
(-0.0858866 -0.0323177 0)
(-0.081646 -0.0340127 0)
(-0.0771617 -0.0353948 0)
(-0.0724709 -0.0364421 0)
(-0.067614 -0.0371369 0)
(-0.062634 -0.0374661 0)
(-0.0575762 -0.0374216 0)
(-0.0524879 -0.0370012 0)
(-0.047417 -0.0362082 0)
(-0.042412 -0.0350527 0)
(-0.0375206 -0.033551 0)
(-0.0327894 -0.0317263 0)
(-0.0282628 -0.0296083 0)
(-0.0239822 -0.0272332 0)
(-0.019985 -0.0246439 0)
(-0.0163043 -0.0218892 0)
(-0.012968 -0.0190239 0)
(-0.00999804 -0.016108 0)
(-0.00741041 -0.0132071 0)
(-0.00521458 -0.0103909 0)
(-0.00341363 -0.00773392 0)
(-0.0020034 -0.00531427 0)
(-0.00097193 -0.00321337 0)
(-0.000312809 -0.00151511 0)
(-3.83534e-05 -0.000308753 0)
(-0.000102624 0.00187252 0)
(-0.000685279 0.00567743 0)
(-0.00194445 0.00944363 0)
(-0.00374847 0.0130963 0)
(-0.00601999 0.0165794 0)
(-0.00871144 0.0198498 0)
(-0.0117755 0.022876 0)
(-0.0151665 0.0256362 0)
(-0.0188422 0.0281171 0)
(-0.0227634 0.030312 0)
(-0.0268932 0.0322193 0)
(-0.0311971 0.0338412 0)
(-0.0356426 0.0351828 0)
(-0.0401988 0.0362504 0)
(-0.0448364 0.0370517 0)
(-0.0495271 0.0375943 0)
(-0.0542439 0.0378856 0)
(-0.0589605 0.0379322 0)
(-0.0636513 0.0377402 0)
(-0.0682913 0.0373146 0)
(-0.0728558 0.0366596 0)
(-0.0773205 0.0357786 0)
(-0.0816612 0.0346747 0)
(-0.0858543 0.0333504 0)
(-0.0898759 0.0318086 0)
(-0.0937027 0.0300522 0)
(-0.0973116 0.0280849 0)
(-0.10068 0.0259113 0)
(-0.103785 0.0235374 0)
(-0.106605 0.0209707 0)
(-0.109119 0.0182205 0)
(-0.111308 0.0152982 0)
(-0.113151 0.0122175 0)
(-0.114632 0.0089945 0)
(-0.115734 0.00564777 0)
(-0.116443 0.00219843 0)
(-0.116747 -0.00132983 0)
(-0.116635 -0.00491084 0)
(-0.1161 -0.00851606 0)
(-0.115137 -0.0121148 0)
(-0.113745 -0.0156743 0)
(-0.111925 -0.0191604 0)
(-0.109683 -0.0225374 0)
(-0.107027 -0.0257691 0)
(-0.103971 -0.0288187 0)
(-0.100532 -0.0316498 0)
(-0.0967316 -0.0342269 0)
(-0.0925955 -0.0365159 0)
(-0.0881537 -0.0384849 0)
(-0.0834405 -0.040105 0)
(-0.0784939 -0.041351 0)
(-0.0733558 -0.042202 0)
(-0.068071 -0.042642 0)
(-0.0626874 -0.0426609 0)
(-0.0572548 -0.0422547 0)
(-0.0518245 -0.0414262 0)
(-0.0464486 -0.0401851 0)
(-0.0411789 -0.0385487 0)
(-0.0360661 -0.0365417 0)
(-0.0311592 -0.0341964 0)
(-0.026504 -0.0315525 0)
(-0.0221427 -0.0286568 0)
(-0.018113 -0.0255632 0)
(-0.0144471 -0.0223318 0)
(-0.0111715 -0.019029 0)
(-0.00830617 -0.0157265 0)
(-0.0058643 -0.0125009 0)
(-0.00385246 -0.00943322 0)
(-0.00226943 -0.00660807 0)
(-0.00110551 -0.00411291 0)
(-0.000357692 -0.00203706 0)
(-4.43941e-05 -0.000474406 0)
(-0.00011059 0.00223251 0)
(-0.000736564 0.006685 0)
(-0.00208698 0.0110317 0)
(-0.0040184 0.0152026 0)
(-0.00644593 0.0191464 0)
(-0.00931702 0.0228242 0)
(-0.0125797 0.0262085 0)
(-0.0161843 0.0292812 0)
(-0.0200851 0.0320323 0)
(-0.0242398 0.0344579 0)
(-0.0286093 0.0365591 0)
(-0.0331571 0.0383406 0)
(-0.0378491 0.0398092 0)
(-0.0426531 0.0409732 0)
(-0.0475387 0.0418416 0)
(-0.052477 0.0424233 0)
(-0.0574402 0.0427267 0)
(-0.0624015 0.0427592 0)
(-0.0673349 0.0425276 0)
(-0.0722148 0.0420372 0)
(-0.0770164 0.0412928 0)
(-0.0817148 0.040298 0)
(-0.0862857 0.039056 0)
(-0.0907049 0.0375698 0)
(-0.0949482 0.0358422 0)