/*--------------------------------*- C++ -*----------------------------------*\
  =========                 |
  \\      /  F ield         | OpenFOAM: The Open Source CFD Toolbox
   \\    /   O peration     | Website:  https://openfoam.org
    \\  /    A nd           | Version:  dev
     \\/     M anipulation  |
\*---------------------------------------------------------------------------*/
FoamFile
{
    format      ascii;
    class       volScalarField;
    location    "22.5";
    object      Ux;
}
// * * * * * * * * * * * * * * * * * * * * * * * * * * * * * * * * * * * * * //

dimensions      [0 1 -1 0 0 0 0];

internalField   nonuniform List<scalar> 
5184
(
1.22571e-05
4.5037e-05
8.02041e-05
9.58491e-05
8.20072e-05
3.63119e-05
-4.06824e-05
-0.000146956
-0.000279719
-0.000435916
-0.000612426
-0.000806218
-0.00101443
-0.00123439
-0.00146364
-0.00169994
-0.0019412
-0.00218552
-0.00243111
-0.00267629
-0.00291945
-0.00315904
-0.00339353
-0.00362138
-0.00384109
-0.00405111
-0.00424987
-0.00443583
-0.00460739
-0.00476297
-0.00490103
-0.00502004
-0.00511853
-0.00519514
-0.0052486
-0.0052778
-0.00528179
-0.00525986
-0.00521149
-0.00513646
-0.00503484
-0.00490699
-0.00475362
-0.00457578
-0.00437488
-0.00415267
-0.00391124
-0.00365301
-0.00338072
-0.00309735
-0.00280615
-0.00251053
-0.00221408
-0.00192043
-0.00163325
-0.0013562
-0.00109279
-0.000846404
-0.000620182
-0.000416973
-0.000239276
-8.91662e-05
3.17671e-05
0.000122509
0.000182726
0.00021292
0.000214674
0.000191035
0.000147026
9.07317e-05
3.66084e-05
6.2261e-06
2.07927e-05
6.54878e-05
9.45321e-05
7.25954e-05
-1.91441e-05
-0.000187489
-0.000433016
-0.000752506
-0.00114042
-0.00158997
-0.00209383
-0.00264454
-0.0032348
-0.00385763
-0.00450642
-0.00517499
-0.00585754
-0.00654861
-0.0072431
-0.0079361
-0.00862294
-0.00929906
-0.00995998
-0.0106013
-0.0112186
-0.0118075
-0.0123635
-0.0128824
-0.0133596
-0.0137909
-0.014172
-0.0144988
-0.0147674
-0.0149742
-0.015116
-0.0151898
-0.0151934
-0.0151249
-0.0149833
-0.0147681
-0.0144797
-0.0141195
-0.0136894
-0.0131925
-0.0126327
-0.012015
-0.0113451
-0.0106295
-0.00987569
-0.00909171
-0.00828627
-0.00746854
-0.00664804
-0.0058345
-0.00503771
-0.00426731
-0.00353269
-0.00284275
-0.00220578
-0.00162924
-0.00111962
-0.000682209
-0.00032092
-3.80386e-05
0.000166063
0.000293301
0.000348419
0.000339674
0.000279548
0.000185875
8.62976e-05
1.96659e-05
1.76015e-05
4.12258e-05
1.94402e-05
-8.41719e-05
-0.000290377
-0.000607912
-0.00103803
-0.00157692
-0.00221742
-0.00295035
-0.00376542
-0.00465195
-0.00559921
-0.00659676
-0.00763454
-0.00870299
-0.00979305
-0.0108961
-0.012004
-0.0131088
-0.0142031
-0.0152793
-0.0163304
-0.0173491
-0.0183285
-0.0192614
-0.0201408
-0.0209598
-0.0217115
-0.0223892
-0.0229863
-0.0234964
-0.0239138
-0.0242329
-0.0244487
-0.0245572
-0.0245549
-0.0244393
-0.0242089
-0.0238634
-0.0234036
-0.0228315
-0.0221508
-0.0213663
-0.0204841
-0.0195119
-0.0184586
-0.0173344
-0.0161508
-0.01492
-0.0136555
-0.0123712
-0.0110816
-0.00980171
-0.00854625
-0.00732995
-0.00616706
-0.00507109
-0.00405458
-0.00312879
-0.00230347
-0.0015865
-0.000983619
-0.000498061
-0.000130146
0.000123192
0.000269037
0.000319219
0.000290856
0.000207154
0.000102348
2.4955e-05
8.81643e-06
-7.07793e-06
-0.000107665
-0.000322399
-0.000669503
-0.00115737
-0.00178674
-0.00255286
-0.00344717
-0.00445866
-0.00557485
-0.00678254
-0.00806835
-0.00941901
-0.0108216
-0.0122638
-0.0137337
-0.0152197
-0.0167112
-0.0181974
-0.0196681
-0.0211135
-0.0225238
-0.0238892
-0.0252004
-0.0264478
-0.0276221
-0.028714
-0.0297145
-0.0306145
-0.0314057
-0.0320797
-0.0326291
-0.0330467
-0.0333263
-0.0334627
-0.0334517
-0.0332902
-0.0329766
-0.0325106
-0.0318937
-0.0311287
-0.0302205
-0.0291756
-0.0280021
-0.0267102
-0.0253114
-0.0238192
-0.0222482
-0.0206147
-0.0189357
-0.0172295
-0.0155149
-0.0138109
-0.0121367
-0.0105113
-0.00895303
-0.00747931
-0.00610625
-0.00484837
-0.00371813
-0.00272566
-0.00187827
-0.0011801
-0.000631635
-0.00022917
3.57551e-05
0.000177018
0.000214325
0.00017382
9.29109e-05
2.4003e-05
-2.13821e-06
-6.73129e-05
-0.000264081
-0.000609601
-0.00111635
-0.00179052
-0.00263112
-0.00363179
-0.00478239
-0.00607021
-0.00748093
-0.00899929
-0.0106097
-0.0122967
-0.0140449
-0.0158395
-0.0176661
-0.0195111
-0.0213609
-0.0232026
-0.0250237
-0.0268119
-0.028555
-0.0302412
-0.0318587
-0.0333959
-0.0348413
-0.0361835
-0.0374115
-0.0385146
-0.0394824
-0.0403052
-0.0409738
-0.04148
-0.0418164
-0.0419769
-0.0419567
-0.0417523
-0.041362
-0.0407859
-0.0400256
-0.0390851
-0.0379703
-0.036689
-0.0352513
-0.0336693
-0.0319571
-0.0301306
-0.0282076
-0.0262072
-0.0241501
-0.0220579
-0.019953
-0.0178581
-0.0157962
-0.0137899
-0.0118611
-0.0100305
-0.00831734
-0.00673903
-0.00531047
-0.0040438
-0.00294787
-0.00202784
-0.00128465
-0.000714543
-0.00030855
-5.19155e-05
7.62142e-05
0.00010332
6.73875e-05
1.96408e-05
-1.36984e-05
-0.000132803
-0.000435663
-0.000924226
-0.00160311
-0.00247486
-0.00353564
-0.00477675
-0.00618611
-0.00774921
-0.00944993
-0.0112712
-0.0131956
-0.0152055
-0.0172838
-0.0194134
-0.0215781
-0.0237617
-0.0259489
-0.0281245
-0.0302739
-0.0323826
-0.0344366
-0.0364217
-0.0383243
-0.0401308
-0.0418278
-0.043402
-0.0448409
-0.0461318
-0.047263
-0.0482232
-0.0490022
-0.0495904
-0.0499797
-0.0501632
-0.0501355
-0.049893
-0.0494337
-0.048758
-0.047868
-0.0467683
-0.0454658
-0.0439696
-0.0422914
-0.0404448
-0.0384462
-0.0363137
-0.0340674
-0.0317295
-0.0293232
-0.0268733
-0.0244052
-0.0219451
-0.0195189
-0.0171525
-0.0148709
-0.012698
-0.0106557
-0.00876406
-0.00704026
-0.0054984
-0.00414896
-0.0029983
-0.00204821
-0.00129543
-0.000731193
-0.000340791
-0.000103292
8.9128e-06
3.23882e-05
1.35976e-05
-2.51796e-05
-0.000199923
-0.000613765
-0.00125221
-0.00211079
-0.00318734
-0.0044743
-0.00595995
-0.00762982
-0.00946735
-0.0114546
-0.0135727
-0.0158025
-0.0181248
-0.0205205
-0.022971
-0.0254579
-0.0279636
-0.0304706
-0.032962
-0.0354213
-0.0378321
-0.0401785
-0.0424446
-0.044615
-0.0466742
-0.0486072
-0.0503993
-0.052036
-0.0535034
-0.0547884
-0.0558786
-0.0567623
-0.0574293
-0.0578705
-0.0580784
-0.0580471
-0.0577727
-0.0572533
-0.0564891
-0.0554829
-0.0542396
-0.0527671
-0.0510754
-0.0491774
-0.0470884
-0.0448263
-0.0424113
-0.0398656
-0.0372135
-0.034481
-0.0316953
-0.0288847
-0.0260782
-0.0233046
-0.0205928
-0.0179705
-0.0154644
-0.0130992
-0.0108973
-0.0088783
-0.00705826
-0.00544943
-0.00405966
-0.00289196
-0.00194404
-0.00120798
-0.000669861
-0.000309486
-0.000100051
-7.80523e-06
6.83987e-06
-3.6323e-05
-0.00026679
-0.000793267
-0.00158463
-0.00262671
-0.00391197
-0.00542843
-0.00716081
-0.00909181
-0.0112026
-0.0134732
-0.015883
-0.0184112
-0.021037
-0.0237397
-0.0264991
-0.0292953
-0.0321091
-0.0349213
-0.0377134
-0.0404673
-0.0431649
-0.0457887
-0.0483213
-0.0507456
-0.0530445
-0.0552016
-0.0572006
-0.0590258
-0.0606619
-0.0620946
-0.0633103
-0.0642964
-0.0650418
-0.0655366
-0.0657727
-0.0657437
-0.0654454
-0.0648757
-0.0640351
-0.0629262
-0.0615546
-0.0599287
-0.0580593
-0.0559602
-0.0536482
-0.0511423
-0.0484644
-0.0456386
-0.0426912
-0.0396503
-0.0365456
-0.0334077
-0.0302682
-0.0271587
-0.0241107
-0.0211547
-0.0183201
-0.0156342
-0.0131218
-0.010805
-0.00870197
-0.00682694
-0.00518956
-0.00379443
-0.00264072
-0.00172186
-0.00102529
-0.000532231
-0.000217337
-5.05273e-05
-1.01179e-07
-4.70327e-05
-0.000332421
-0.000971177
-0.00191587
-0.00314249
-0.0046377
-0.00638468
-0.00836416
-0.0105557
-0.0129378
-0.0154884
-0.0181851
-0.0210055
-0.0239271
-0.0269279
-0.0299862
-0.0330808
-0.0361908
-0.0392961
-0.0423764
-0.0454123
-0.0483844
-0.0512735
-0.054061
-0.0567282
-0.059257
-0.0616293
-0.0638276
-0.0658351
-0.0676352
-0.0692125
-0.0705524
-0.0716414
-0.0724674
-0.07302
-0.0732903
-0.0732714
-0.0729588
-0.0723501
-0.0714456
-0.0702481
-0.0687634
-0.067
-0.0649696
-0.0626867
-0.0601687
-0.0574362
-0.0545121
-0.0514222
-0.0481944
-0.044859
-0.0414475
-0.037993
-0.0345294
-0.031091
-0.0277117
-0.0244248
-0.0212624
-0.0182544
-0.0154284
-0.0128088
-0.0104162
-0.00826714
-0.00637337
-0.00474143
-0.00337239
-0.00226146
-0.00139797
-0.000764963
-0.000339044
-9.42207e-05
-6.9558e-06
-5.72969e-05
-0.000396335
-0.00114576
-0.00224241
-0.00365256
-0.00535689
-0.00733349
-0.0095588
-0.0120089
-0.0146596
-0.0174866
-0.0204654
-0.023572
-0.0267825
-0.0300735
-0.0334219
-0.0368055
-0.040202
-0.04359
-0.0469483
-0.0502559
-0.0534922
-0.0566371
-0.0596705
-0.0625726
-0.0653239
-0.0679053
-0.0702982
-0.0724845
-0.0744468
-0.0761684
-0.0776338
-0.0788288
-0.0797403
-0.0803571
-0.0806697
-0.0806706
-0.0803548
-0.0797195
-0.0787647
-0.0774932
-0.0759106
-0.0740256
-0.0718502
-0.0693994
-0.0666914
-0.0637473
-0.0605914
-0.0572507
-0.0537546
-0.0501351
-0.0464257
-0.0426616
-0.0388791
-0.0351148
-0.0314054
-0.027787
-0.0242941
-0.0209598
-0.0178143
-0.0148846
-0.0121943
-0.00976226
-0.00760273
-0.00572462
-0.00413121
-0.00281997
-0.00178242
-0.00100382
-0.000462962
-0.00013807
-1.36087e-05
-6.71331e-05
-0.000458306
-0.00131601
-0.00256205
-0.00415321
-0.00606422
-0.00826793
-0.0107364
-0.013442
-0.0163577
-0.0194566
-0.0227125
-0.0260995
-0.0295924
-0.0331663
-0.0367972
-0.0404614
-0.0441359
-0.047798
-0.0514254
-0.0549963
-0.0584889
-0.0618821
-0.0651545
-0.0682856
-0.0712546
-0.0740416
-0.0766267
-0.0789909
-0.0811159
-0.082984
-0.0845788
-0.0858851
-0.0868891
-0.0875787
-0.0879436
-0.0879758
-0.0876695
-0.0870214
-0.086031
-0.0847007
-0.0830359
-0.0810453
-0.0787407
-0.0761374
-0.073254
-0.0701123
-0.0667373
-0.0631571
-0.0594025
-0.0555069
-0.0515057
-0.0474361
-0.0433368
-0.0392468
-0.0352054
-0.0312516
-0.0274229
-0.0237553
-0.020282
-0.0170332
-0.0140352
-0.0113099
-0.00887443
-0.00674035
-0.00491356
-0.00339408
-0.00217597
-0.00124694
-0.00058808
-0.000181749
-2.00336e-05
-7.65656e-05
-0.000518231
-0.00148135
-0.00287335
-0.00464191
-0.00675588
-0.00918291
-0.0118905
-0.0148474
-0.0180235
-0.0213894
-0.0249169
-0.0285784
-0.0323472
-0.0361972
-0.0401033
-0.0440408
-0.0479857
-0.0519144
-0.0558037
-0.0596309
-0.0633734
-0.067009
-0.0705157
-0.0738717
-0.0770557
-0.0800466
-0.0828238
-0.0853672
-0.0876576
-0.0896765
-0.0914066
-0.0928317
-0.0939372
-0.0947101
-0.0951393
-0.0952159
-0.0949332
-0.0942874
-0.0932772
-0.0919043
-0.0901737
-0.0880937
-0.0856759
-0.0829354
-0.079891
-0.0765648
-0.0729824
-0.0691728
-0.0651678
-0.0610022
-0.0567133
-0.0523403
-0.0479238
-0.0435057
-0.039128
-0.0348326
-0.0306602
-0.02665
-0.0228385
-0.0192593
-0.0159421
-0.012912
-0.0101893
-0.00778872
-0.00571907
-0.00398325
-0.00257811
-0.00149396
-0.000714243
-0.000225259
-2.62572e-05
-8.56161e-05
-0.000576061
-0.00164138
-0.00317532
-0.00511684
-0.00742907
-0.0100745
-0.0130162
-0.0162192
-0.0196502
-0.0232775
-0.0270706
-0.0310003
-0.0350384
-0.0391578
-0.0433323
-0.0475362
-0.0517446
-0.0559333
-0.0600783
-0.064156
-0.0681432
-0.0720169
-0.0757543
-0.0793331
-0.0827308
-0.0859258
-0.0888966
-0.0916223
-0.0940827
-0.0962587
-0.0981318
-0.0996851
-0.100903
-0.101771
-0.102278
-0.102414
-0.102171
-0.101544
-0.10053
-0.0991322
-0.0973531
-0.0952007
-0.092686
-0.0898239
-0.0866328
-0.0831351
-0.0793566
-0.0753268
-0.0710787
-0.0666483
-0.0620744
-0.0573982
-0.0526627
-0.0479122
-0.0431919
-0.0385466
-0.0340205
-0.0296564
-0.0254944
-0.0215718
-0.0179221
-0.0145741
-0.0115516
-0.00887283
-0.00654995
-0.00458902
-0.0029899
-0.00174561
-0.0008419
-0.000268822
-3.23379e-05
-9.42997e-05
-0.000631758
-0.00179582
-0.00346724
-0.00557659
-0.00808155
-0.0109396
-0.0141094
-0.0175522
-0.0212319
-0.025114
-0.0291662
-0.0333574
-0.0376581
-0.0420401
-0.0464761
-0.0509398
-0.0554054
-0.059848
-0.0642431
-0.0685664
-0.0727941
-0.0769026
-0.0808686
-0.0846689
-0.0882806
-0.0916812
-0.0948486
-0.0977611
-0.100398
-0.102738
-0.104764
-0.106456
-0.107799
-0.108777
-0.109376
-0.109587
-0.1094
-0.10881
-0.107812
-0.106407
-0.104598
-0.102391
-0.0997964
-0.0968288
-0.0935059
-0.0898499
-0.0858866
-0.081646
-0.0771617
-0.0724709
-0.067614
-0.062634
-0.0575762
-0.0524879
-0.047417
-0.042412
-0.0375206
-0.0327894
-0.0282628
-0.0239822
-0.019985
-0.0163043
-0.012968
-0.00999804
-0.00741041
-0.00521458
-0.00341363
-0.0020034
-0.00097193
-0.000312809
-3.83534e-05
-0.000102624
-0.000685279
-0.00194445
-0.00374847
-0.00601999
-0.00871144
-0.0117755
-0.0151665
-0.0188422
-0.0227634
-0.0268932
-0.0311971
-0.0356426
-0.0401988
-0.0448364
-0.0495271
-0.0542439
-0.0589605
-0.0636513
-0.0682913
-0.0728558
-0.0773205
-0.0816612
-0.0858543
-0.0898759
-0.0937027
-0.0973116
-0.10068
-0.103785
-0.106605
-0.109119
-0.111308
-0.113151
-0.114632
-0.115734
-0.116443
-0.116747
-0.116635
-0.1161
-0.115137
-0.113745
-0.111925
-0.109683
-0.107027
-0.103971
-0.100532
-0.0967316
-0.0925955
-0.0881537
-0.0834405
-0.0784939
-0.0733558
-0.068071
-0.0626874
-0.0572548
-0.0518245
-0.0464486
-0.0411789
-0.0360661
-0.0311592
-0.026504
-0.0221427
-0.018113
-0.0144471
-0.0111715
-0.00830617
-0.0058643
-0.00385246
-0.00226943
-0.00110551
-0.000357692
-4.43941e-05
-0.00011059
-0.000736564
-0.00208698
-0.0040184
-0.00644593
-0.00931702
-0.0125797
-0.0161843
-0.0200851
-0.0242398
-0.0286093
-0.0331571
-0.0378491
-0.0426531
-0.0475387
-0.052477
-0.0574402
-0.0624015
-0.0673349
-0.0722148
-0.0770164
-0.0817148
-0.0862857
-0.0907049
-0.0949482
-0.0989919
-0.102812
-0.106386
-0.10969
-0.112702
-0.115399
-0.117762
-0.11977
-0.121404
-0.122647
-0.123483
-0.123898
-0.12388
-0.123421
-0.122514
-0.121156
-0.119346
-0.117089
-0.114391
-0.111265
-0.107728
-0.103798
-0.0995022
-0.0948699
-0.0899358
-0.0847386
-0.0793215
-0.0737312
-0.0680179
-0.0622344
-0.0564354
-0.0506768
-0.0450148
-0.0395047
-0.0342003
-0.0291526
-0.0244089
-0.0200121
-0.0159993
-0.0124018
-0.00924409
-0.00654346
-0.00431021
-0.00254622
-0.00124404
-0.000404013
-5.05575e-05
-0.000118191
-0.000785532
-0.00222315
-0.00427642
-0.00685332
-0.00989659
-0.01335
-0.0171597
-0.0212769
-0.0256564
-0.0302569
-0.03504
-0.03997
-0.0450135
-0.0501393
-0.0553176
-0.0605201
-0.0657196
-0.0708897
-0.0760045
-0.0810389
-0.085968
-0.090767
-0.0954115
-0.0998771
-0.10414
-0.108175
-0.111959
-0.115469
-0.118681
-0.121573
-0.124122
-0.126308
-0.128111
-0.129511
-0.130492
-0.131038
-0.131136
-0.130774
-0.129945
-0.128643
-0.126866
-0.124615
-0.121897
-0.118722
-0.115103
-0.111061
-0.106621
-0.10181
-0.0966644
-0.091223
-0.0855302
-0.0796345
-0.0735884
-0.0674476
-0.0612704
-0.055117
-0.0490479
-0.0431238
-0.0374037
-0.0319443
-0.0267984
-0.0220147
-0.0176359
-0.0136985
-0.0102319
-0.007258
-0.00479119
-0.00283657
-0.00138907
-0.000452361
-5.69461e-05
-0.000125415
-0.000832078
-0.00235262
-0.00452184
-0.00724102
-0.0104485
-0.0140838
-0.0180896
-0.0224138
-0.0270087
-0.0318307
-0.0368396
-0.0419984
-0.0472726
-0.0526299
-0.0580401
-0.0634744
-0.068905
-0.0743055
-0.0796499
-0.0849127
-0.0900689
-0.0950938
-0.0999626
-0.104651
-0.109134
-0.113388
-0.117388
-0.121111
-0.124532
-0.127628
-0.130376
-0.132755
-0.134742
-0.136317
-0.137462
-0.138159
-0.138394
-0.138152
-0.137424
-0.136202
-0.134481
-0.132261
-0.129545
-0.126342
-0.122664
-0.118528
-0.113959
-0.108984
-0.103638
-0.0979611
-0.0919975
-0.0857979
-0.0794168
-0.0729132
-0.066349
-0.0597886
-0.0532978
-0.0469425
-0.0407876
-0.0348959
-0.0293267
-0.0241347
-0.0193688
-0.0150716
-0.0112778
-0.00801435
-0.00530003
-0.00314352
-0.00154224
-0.000503357
-6.3665e-05
-0.000132243
-0.000876077
-0.00247503
-0.00475396
-0.00760786
-0.0109709
-0.0147789
-0.018971
-0.023492
-0.028292
-0.0333252
-0.0385498
-0.0439273
-0.0494224
-0.055002
-0.0606353
-0.066293
-0.0719473
-0.0775713
-0.0831392
-0.0886253
-0.0940048
-0.0992528
-0.104345
-0.109256
-0.113961
-0.118437
-0.122658
-0.1266
-0.130238
-0.133549
-0.136508
-0.139092
-0.141279
-0.143048
-0.144376
-0.145246
-0.145639
-0.145541
-0.144938
-0.14382
-0.14218
-0.140016
-0.137328
-0.134121
-0.130405
-0.126198
-0.121519
-0.116397
-0.110864
-0.104962
-0.0987346
-0.0922344
-0.0855182
-0.0786476
-0.0716886
-0.0647101
-0.057783
-0.0509791
-0.0443698
-0.0380245
-0.0320095
-0.0263862
-0.0212107
-0.0165318
-0.0123905
-0.00881922
-0.00584159
-0.00347023
-0.00170528
-0.000557642
-7.08207e-05
-0.000138654
-0.000917386
-0.00258997
-0.00497199
-0.00795258
-0.0114621
-0.0154328
-0.0198006
-0.0245076
-0.0295016
-0.0347348
-0.040164
-0.0457496
-0.051455
-0.0572468
-0.0630934
-0.0689655
-0.0748349
-0.0806749
-0.0864594
-0.0921632
-0.0977611
-0.103229
-0.108541
-0.113674
-0.118602
-0.123302
-0.127748
-0.131915
-0.135778
-0.139313
-0.142495
-0.145299
-0.147702
-0.14968
-0.151211
-0.152273
-0.152848
-0.152917
-0.152464
-0.151477
-0.149946
-0.147864
-0.145229
-0.142045
-0.138318
-0.134061
-0.129295
-0.124045
-0.118343
-0.112228
-0.105748
-0.098953
-0.0919036
-0.0846641
-0.0773041
-0.0698974
-0.0625203
-0.0552509
-0.0481675
-0.0413467
-0.0348623
-0.0287836
-0.0231741
-0.01809
-0.0135789
-0.00967953
-0.00642089
-0.00381996
-0.00187994
-0.000615872
-7.8521e-05
-0.000144622
-0.000955846
-0.00269701
-0.0051751
-0.00827386
-0.0119202
-0.0160429
-0.0205752
-0.0254566
-0.0306327
-0.0360541
-0.041676
-0.0474578
-0.0533622
-0.059355
-0.0654044
-0.0714808
-0.077556
-0.0836032
-0.0895966
-0.095511
-0.101322
-0.107004
-0.112534
-0.117886
-0.123037
-0.127962
-0.132635
-0.137032
-0.141127
-0.144895
-0.148309
-0.151346
-0.153979
-0.156184
-0.157936
-0.159212
-0.159991
-0.160251
-0.159974
-0.159145
-0.157749
-0.155778
-0.153226
-0.150092
-0.146381
-0.142103
-0.137274
-0.131918
-0.126067
-0.119758
-0.113036
-0.105957
-0.0985793
-0.0909716
-0.083207
-0.0753638
-0.0675245
-0.0597735
-0.0521965
-0.0448781
-0.0379003
-0.0313409
-0.0252717
-0.0197569
-0.0148519
-0.0106023
-0.007043
-0.00419601
-0.00206803
-0.000678711
-8.68739e-05
-0.00015012
-0.000991288
-0.00279569
-0.00536245
-0.00857038
-0.0123432
-0.0166068
-0.0212916
-0.026335
-0.0316805
-0.0372772
-0.043079
-0.0490444
-0.0551353
-0.0613171
-0.0675576
-0.0738271
-0.0800975
-0.0863422
-0.0925354
-0.0986523
-0.104668
-0.11056
-0.116302
-0.121871
-0.127242
-0.132392
-0.137294
-0.141923
-0.146255
-0.150262
-0.153919
-0.157199
-0.160076
-0.162522
-0.164514
-0.166024
-0.167028
-0.167503
-0.167428
-0.166784
-0.165553
-0.163722
-0.161283
-0.158231
-0.154566
-0.150295
-0.145433
-0.139998
-0.134021
-0.127538
-0.120594
-0.113243
-0.105546
-0.0975743
-0.0894043
-0.0811192
-0.0728073
-0.0645602
-0.0564711
-0.0486332
-0.0411377
-0.0340715
-0.0275157
-0.0215434
-0.0162186
-0.0115945
-0.00771302
-0.00460172
-0.00227135
-0.000746827
-9.59885e-05
-0.000155117
-0.00102354
-0.00288555
-0.00553316
-0.00884078
-0.0127293
-0.0171219
-0.0219467
-0.0271388
-0.0326402
-0.0383985
-0.0443666
-0.050502
-0.0567659
-0.0631235
-0.0695423
-0.0759926
-0.0824464
-0.0888772
-0.0952597
-0.101569
-0.107782
-0.113875
-0.119823
-0.125603
-0.131191
-0.136563
-0.141693
-0.146556
-0.151127
-0.155379
-0.159285
-0.162818
-0.16595
-0.168653
-0.170899
-0.172662
-0.173913
-0.174627
-0.174779
-0.174347
-0.17331
-0.171651
-0.169357
-0.166419
-0.162834
-0.158604
-0.153739
-0.148256
-0.142182
-0.13555
-0.128405
-0.1208
-0.112798
-0.10447
-0.095898
-0.0871689
-0.0783771
-0.0696213
-0.0610031
-0.0526249
-0.0445875
-0.036988
-0.0299176
-0.0234597
-0.0176875
-0.012663
-0.00843603
-0.00504042
-0.0024917
-0.00082089
-0.000105974
-0.000159584
-0.00105242
-0.00296612
-0.00568638
-0.00908374
-0.0130765
-0.0175857
-0.0225371
-0.0278641
-0.0335071
-0.0394125
-0.0455322
-0.0518229
-0.0582454
-0.0647643
-0.0713474
-0.0779648
-0.0845886
-0.0911929
-0.0977526
-0.104244
-0.110643
-0.116927
-0.123072
-0.129056
-0.134855
-0.140444
-0.145799
-0.150895
-0.155706
-0.160206
-0.164365
-0.168158
-0.171554
-0.174525
-0.177042
-0.179073
-0.180591
-0.181566
-0.181971
-0.181778
-0.180965
-0.17951
-0.177394
-0.174605
-0.171135
-0.166982
-0.16215
-0.156654
-0.150515
-0.143765
-0.136446
-0.12861
-0.12032
-0.111651
-0.102684
-0.0935131
-0.0842375
-0.0749637
-0.0658017
-0.0568637
-0.0482609
-0.0401017
-0.0324885
-0.0255156
-0.019267
-0.0138147
-0.009217
-0.0055154
-0.0027309
-0.000901575
-0.000116942
-0.000163493
-0.00107777
-0.00303695
-0.0058213
-0.00929798
-0.0133832
-0.0179958
-0.0230599
-0.0285072
-0.0342767
-0.0403138
-0.0465695
-0.0529997
-0.0595651
-0.06623
-0.0729619
-0.0797312
-0.0865104
-0.0932738
-0.0999969
-0.106656
-0.113229
-0.119693
-0.126025
-0.132203
-0.138203
-0.144003
-0.149577
-0.154902
-0.159951
-0.164697
-0.169112
-0.173169
-0.176836
-0.180084
-0.182882
-0.185198
-0.187
-0.188257
-0.188937
-0.189012
-0.188452
-0.187232
-0.185329
-0.182726
-0.179409
-0.175371
-0.170612
-0.165141
-0.158975
-0.152142
-0.144682
-0.136645
-0.128092
-0.1191
-0.109752
-0.100146
-0.0903874
-0.0805898
-0.0708724
-0.0613573
-0.0521672
-0.0434225
-0.035238
-0.0277202
-0.0209652
-0.0150559
-0.0100608
-0.00602991
-0.00299073
-0.000989552
-0.000129004
-0.000166815
-0.00109943
-0.00309764
-0.00593716
-0.00948234
-0.0136476
-0.0183501
-0.0235122
-0.0290645
-0.0349447
-0.0410973
-0.0474724
-0.0540256
-0.0607171
-0.067511
-0.074375
-0.0812797
-0.0881978
-0.0951042
-0.101975
-0.108787
-0.115519
-0.122148
-0.128653
-0.135013
-0.141204
-0.147204
-0.152989
-0.158535
-0.163816
-0.168805
-0.173475
-0.177796
-0.181737
-0.185269
-0.188357
-0.190969
-0.193071
-0.194628
-0.195607
-0.195973
-0.195695
-0.194742
-0.193088
-0.190708
-0.187584
-0.183703
-0.179059
-0.173656
-0.167506
-0.160632
-0.15307
-0.144866
-0.136082
-0.126791
-0.117082
-0.107055
-0.0968194
-0.0864972
-0.0762165
-0.0661103
-0.0563132
-0.0469585
-0.0381746
-0.0300819
-0.0227894
-0.0163928
-0.0109722
-0.00658713
-0.00327295
-0.00108549
-0.000142272
-0.000169526
-0.00111725
-0.00314783
-0.0060333
-0.0096358
-0.0138683
-0.0186466
-0.0238917
-0.029533
-0.0355073
-0.0417583
-0.0482354
-0.0548938
-0.0616934
-0.0685983
-0.0755763
-0.0825982
-0.0896371
-0.0966685
-0.103669
-0.110617
-0.11749
-0.124268
-0.130931
-0.137456
-0.143824
-0.150011
-0.155994
-0.161751
-0.167255
-0.17248
-0.177398
-0.181981
-0.186197
-0.190014
-0.193398
-0.196315
-0.198728
-0.200601
-0.201897
-0.202579
-0.20261
-0.201956
-0.200584
-0.198466
-0.195577
-0.191897
-0.187415
-0.182128
-0.176041
-0.169173
-0.161553
-0.153225
-0.144247
-0.134692
-0.124649
-0.114219
-0.103519
-0.0926776
-0.0818309
-0.0711234
-0.0607025
-0.0507154
-0.0413053
-0.0326076
-0.0247464
-0.0178313
-0.0119556
-0.00719014
-0.00357932
-0.00119007
-0.000156863
-0.000171606
-0.00113114
-0.00318723
-0.0061092
-0.00975754
-0.0140441
-0.0188837
-0.0241962
-0.02991
-0.0359613
-0.0422927
-0.0488536
-0.0555984
-0.0624871
-0.0694837
-0.0765561
-0.0836754
-0.0908153
-0.0979517
-0.105062
-0.112125
-0.119121
-0.126029
-0.13283
-0.139504
-0.146029
-0.152386
-0.158553
-0.164505
-0.170219
-0.175669
-0.180827
-0.185664
-0.190149
-0.19425
-0.197931
-0.201157
-0.203891
-0.206092
-0.207722
-0.208739
-0.209105
-0.208779
-0.207725
-0.205907
-0.203295
-0.199862
-0.195591
-0.19047
-0.1845
-0.177689
-0.170063
-0.16166
-0.152534
-0.142756
-0.132413
-0.12161
-0.110466
-0.0991162
-0.0877067
-0.0763929
-0.0653354
-0.0546963
-0.044635
-0.0353033
-0.0268419
-0.0193766
-0.0130152
-0.0078419
-0.00391153
-0.00130394
-0.000172894
-0.00017304
-0.00114101
-0.00321563
-0.00616448
-0.00984698
-0.0141743
-0.0190603
-0.0244241
-0.0301936
-0.0363039
-0.0426974
-0.0493228
-0.0561344
-0.063092
-0.0701597
-0.0773055
-0.0845009
-0.0917201
-0.0989398
-0.106138
-0.113295
-0.120391
-0.127406
-0.134324
-0.141124
-0.147787
-0.154294
-0.160623
-0.166753
-0.17266
-0.178319
-0.183703
-0.188783
-0.193528
-0.197906
-0.201881
-0.205417
-0.208474
-0.211012
-0.212988
-0.214359
-0.215081
-0.215112
-0.214407
-0.212927
-0.210634
-0.207497
-0.203487
-0.198588
-0.192789
-0.186095
-0.178521
-0.1701
-0.16088
-0.150927
-0.140329
-0.129188
-0.117629
-0.105791
-0.093829
-0.0819099
-0.070208
-0.0589013
-0.0481663
-0.0381731
-0.0290809
-0.0210332
-0.014155
-0.00854522
-0.00427124
-0.00142777
-0.000190483
-0.00017382
-0.00114682
-0.00323294
-0.00619897
-0.00990384
-0.0142583
-0.0191757
-0.0245747
-0.0303823
-0.0365334
-0.0429699
-0.04964
-0.0564979
-0.0635031
-0.07062
-0.0778168
-0.0850654
-0.0923406
-0.0996197
-0.106882
-0.114107
-0.121279
-0.128377
-0.135386
-0.142288
-0.149064
-0.155697
-0.162166
-0.168451
-0.174529
-0.180377
-0.185968
-0.191274
-0.196266
-0.200909
-0.20517
-0.20901
-0.21239
-0.215268
-0.217598
-0.219336
-0.220434
-0.220845
-0.22052
-0.219415
-0.217484
-0.214688
-0.210993
-0.206371
-0.200806
-0.194291
-0.186834
-0.178458
-0.169206
-0.159138
-0.148337
-0.136906
-0.124969
-0.112671
-0.100176
-0.0876598
-0.075312
-0.0633268
-0.0518993
-0.0412195
-0.0314669
-0.0228051
-0.0153784
-0.00930271
-0.00466001
-0.0015622
-0.000209752
-0.000173945
-0.00114857
-0.00323919
-0.00621274
-0.00992819
-0.0142962
-0.0192299
-0.0246476
-0.0304759
-0.0366492
-0.0431089
-0.0498032
-0.056686
-0.0637168
-0.0708599
-0.078084
-0.0853614
-0.0926674
-0.0999801
-0.10728
-0.114547
-0.121766
-0.12892
-0.135993
-0.142968
-0.14983
-0.15656
-0.163142
-0.169555
-0.175779
-0.181791
-0.187566
-0.193077
-0.198295
-0.203187
-0.20772
-0.211855
-0.215551
-0.218767
-0.221455
-0.223568
-0.225056
-0.225867
-0.22595
-0.225251
-0.223723
-0.221316
-0.217988
-0.213704
-0.208436
-0.202167
-0.194897
-0.186639
-0.177425
-0.167309
-0.156368
-0.144703
-0.132437
-0.119719
-0.106717
-0.0936217
-0.0806337
-0.0679652
-0.055831
-0.0444427
-0.0340021
-0.0246954
-0.0166883
-0.0101168
-0.00507936
-0.00170788
-0.000230826
-0.000173425
-0.00114634
-0.00323457
-0.00620611
-0.00992053
-0.0142887
-0.0192237
-0.0246437
-0.0304749
-0.0366515
-0.0431146
-0.049812
-0.0566976
-0.0637309
-0.0708763
-0.0781027
-0.0853829
-0.092693
-0.100012
-0.10732
-0.114601
-0.121838
-0.129017
-0.136122
-0.14314
-0.150055
-0.156852
-0.163515
-0.170025
-0.176364
-0.182511
-0.188441
-0.194131
-0.199551
-0.20467
-0.209455
-0.213868
-0.217869
-0.221415
-0.224458
-0.226949
-0.228836
-0.230064
-0.230576
-0.230315
-0.229226
-0.227253
-0.224346
-0.220458
-0.215553
-0.209603
-0.202594
-0.194531
-0.185433
-0.175347
-0.16434
-0.152508
-0.139973
-0.126884
-0.113416
-0.0997674
-0.0861537
-0.0728045
-0.0599551
-0.0478405
-0.036687
-0.0267059
-0.0180873
-0.0109895
-0.0055307
-0.00186541
-0.000253832
-0.000172278
-0.00114025
-0.00321941
-0.00617972
-0.00988181
-0.014237
-0.0191586
-0.0245646
-0.0303812
-0.0365422
-0.0429885
-0.0496676
-0.0565334
-0.0635453
-0.070668
-0.0778706
-0.0851264
-0.0924121
-0.0997073
-0.106994
-0.114256
-0.121479
-0.12865
-0.135754
-0.14278
-0.149714
-0.156543
-0.163251
-0.169824
-0.176243
-0.18249
-0.188544
-0.19438
-0.199972
-0.20529
-0.210302
-0.214972
-0.219259
-0.223121
-0.226511
-0.229377
-0.231666
-0.233319
-0.234278
-0.234481
-0.233865
-0.232369
-0.229932
-0.2265
-0.222024
-0.216466
-0.2098
-0.202014
-0.193119
-0.183148
-0.172159
-0.160239
-0.147506
-0.134109
-0.120225
-0.106061
-0.0918463
-0.0778273
-0.0642613
-0.0514079
-0.0395203
-0.0288374
-0.0195769
-0.0119227
-0.00601529
-0.00203539
-0.000278896
-0.000170535
-0.00113049
-0.00319426
-0.00613456
-0.00981353
-0.0141431
-0.019037
-0.0244132
-0.0301978
-0.0363244
-0.0427337
-0.049373
-0.0561959
-0.0631621
-0.0702361
-0.0773877
-0.0845905
-0.091822
-0.0990627
-0.106296
-0.113506
-0.12068
-0.127807
-0.134873
-0.14187
-0.148785
-0.155606
-0.162321
-0.168917
-0.175379
-0.181688
-0.187826
-0.193772
-0.199501
-0.204985
-0.210193
-0.215092
-0.219641
-0.2238
-0.22752
-0.230751
-0.233438
-0.235521
-0.236939
-0.237624
-0.23751
-0.236528
-0.23461
-0.231691
-0.227711
-0.22262
-0.216377
-0.208958
-0.200358
-0.190597
-0.179719
-0.167801
-0.154955
-0.141324
-0.127088
-0.112459
-0.0976786
-0.0830108
-0.068735
-0.0551368
-0.0424984
-0.0310895
-0.0211583
-0.0129178
-0.00653427
-0.0022184
-0.00030615
-0.00016824
-0.00111735
-0.00315988
-0.00607202
-0.00971777
-0.0140099
-0.0188624
-0.0241936
-0.0299294
-0.0360032
-0.0423554
-0.0489331
-0.0556899
-0.0625853
-0.0695843
-0.0766568
-0.083777
-0.0909231
-0.0980764
-0.105221
-0.112344
-0.119433
-0.126477
-0.133468
-0.140395
-0.147249
-0.154022
-0.160702
-0.167278
-0.173738
-0.180067
-0.186249
-0.192263
-0.198088
-0.203699
-0.209068
-0.214161
-0.218941
-0.223369
-0.227398
-0.230978
-0.234052
-0.236562
-0.238442
-0.239623
-0.240034
-0.239598
-0.238241
-0.235888
-0.232469
-0.227918
-0.222183
-0.215222
-0.207016
-0.197566
-0.186903
-0.175089
-0.162225
-0.148449
-0.133937
-0.118908
-0.10361
-0.0883261
-0.0733568
-0.0590154
-0.0456154
-0.0334599
-0.0228314
-0.0139756
-0.00708859
-0.00241494
-0.000335724
-0.000165451
-0.00110118
-0.00311725
-0.0059939
-0.00959729
-0.013841
-0.0186396
-0.0239114
-0.0295822
-0.0355853
-0.0418606
-0.0483552
-0.0550225
-0.061822
-0.0687189
-0.0756833
-0.0826903
-0.0897186
-0.0967506
-0.103772
-0.11077
-0.117734
-0.124657
-0.131529
-0.138344
-0.145095
-0.151774
-0.158373
-0.164885
-0.171297
-0.177599
-0.183777
-0.189814
-0.195691
-0.201386
-0.206872
-0.21212
-0.217095
-0.221759
-0.226068
-0.229972
-0.233416
-0.236341
-0.238681
-0.240363
-0.241313
-0.241449
-0.24069
-0.238952
-0.236153
-0.232216
-0.227071
-0.220662
-0.212951
-0.20392
-0.193583
-0.181986
-0.169213
-0.155393
-0.140698
-0.125345
-0.109593
-0.0937375
-0.0781021
-0.0630282
-0.0488625
-0.0359446
-0.0245952
-0.0150967
-0.00767899
-0.00262551
-0.000367748
-0.000162242
-0.00108246
-0.00306761
-0.0059025
-0.00945555
-0.0136413
-0.0183745
-0.0235736
-0.0291643
-0.0350795
-0.0412589
-0.0476492
-0.0542037
-0.0608819
-0.0676491
-0.0744761
-0.0813383
-0.0882154
-0.0950909
-0.101951
-0.108786
-0.115586
-0.122344
-0.129055
-0.135713
-0.142314
-0.148852
-0.155323
-0.16172
-0.168036
-0.174262
-0.180387
-0.186396
-0.192276
-0.198006
-0.203563
-0.20892
-0.214048
-0.218908
-0.223461
-0.227659
-0.231448
-0.234769
-0.237556
-0.239737
-0.241232
-0.241959
-0.241827
-0.240745
-0.238621
-0.235364
-0.230891
-0.225127
-0.218014
-0.209516
-0.199624
-0.188364
-0.175803
-0.162055
-0.147283
-0.1317
-0.11557
-0.0992023
-0.0829406
-0.0671553
-0.052228
-0.038538
-0.0264475
-0.0162807
-0.00830599
-0.00285052
-0.000402353
-0.000158705
-0.00106174
-0.00301252
-0.00580066
-0.00929687
-0.0134164
-0.0180743
-0.023189
-0.0286858
-0.034497
-0.0405621
-0.0468274
-0.053246
-0.0597776
-0.0663875
-0.0730471
-0.0797324
-0.086424
-0.0931066
-0.0997679
-0.106399
-0.112992
-0.119543
-0.126047
-0.132502
-0.138905
-0.145254
-0.151546
-0.157777
-0.163945
-0.170041
-0.17606
-0.18199
-0.187819
-0.193531
-0.199108
-0.204526
-0.209757
-0.214769