/*--------------------------------*- C++ -*----------------------------------*\
  =========                 |
  \\      /  F ield         | OpenFOAM: The Open Source CFD Toolbox
   \\    /   O peration     | Website:  https://openfoam.org
    \\  /    A nd           | Version:  dev
     \\/     M anipulation  |
\*---------------------------------------------------------------------------*/
FoamFile
{
    format      ascii;
    class       volScalarField;
    location    "30.6";
    object      p;
}
// * * * * * * * * * * * * * * * * * * * * * * * * * * * * * * * * * * * * * //

dimensions      [0 2 -2 0 0 0 0];

internalField   nonuniform List<scalar> 
5184
(
1.65652e-06
-9.75649e-06
-9.55898e-05
-0.00024845
-0.000447836
-0.000676479
-0.000920142
-0.00116686
-0.00140748
-0.00163486
-0.00184358
-0.00202961
-0.00219003
-0.00232273
-0.00242625
-0.00249957
-0.00254202
-0.00255317
-0.00253274
-0.00248056
-0.00239655
-0.0022807
-0.00213305
-0.00195374
-0.00174301
-0.00150123
-0.00122896
-0.000926925
-0.000596133
-0.000237852
0.000146336
0.000554504
0.000984361
0.00143323
0.00189806
0.0023754
0.00286143
0.00335198
0.00384259
0.0043285
0.00480477
0.00526635
0.00570808
0.0061249
0.00651186
0.00686423
0.00717767
0.00744823
0.00767256
0.0078479
0.00797226
0.00804442
0.00806404
0.00803169
0.00794886
0.007818
0.0076425
0.00742668
0.00717575
0.00689576
0.00659359
0.00627683
0.0059538
0.00563345
0.00532533
0.00503953
0.00478656
0.00457703
0.00442092
0.00432665
0.00429972
0.00432699
1.53319e-05
2.88598e-06
-7.16901e-05
-0.000199439
-0.000364676
-0.000554931
-0.000759273
-0.0009681
-0.00117348
-0.00136903
-0.00154969
-0.00171156
-0.00185167
-0.00196779
-0.00205828
-0.00212195
-0.00215793
-0.00216562
-0.00214459
-0.00209456
-0.00201536
-0.00190689
-0.00176917
-0.0016023
-0.00140651
-0.00118215
-0.000929768
-0.000650085
-0.000344061
-1.29136e-05
0.000341853
0.000718421
0.00111464
0.00152802
0.00195573
0.00239457
0.00284102
0.00329128
0.00374124
0.00418659
0.00462281
0.00504532
0.00544946
0.00583066
0.00618445
0.00650662
0.00679326
0.00704088
0.00724652
0.00740777
0.00752291
0.00759096
0.00761172
0.00758582
0.00751472
0.00740076
0.00724711
0.00705779
0.0068376
0.0065921
0.00632753
0.00605076
0.00576924
0.00549088
0.005224
0.00497718
0.00475907
0.00457806
0.00444143
0.00435514
0.00432658
0.00435417
0.000102047
7.73326e-05
2.00542e-06
-0.000115524
-0.000263222
-0.000431452
-0.000611507
-0.00079555
-0.000976881
-0.00114994
-0.00131021
-0.00145412
-0.00157885
-0.00168223
-0.00176263
-0.00181878
-0.00184978
-0.00185493
-0.00183373
-0.00178583
-0.00171098
-0.00160904
-0.00147998
-0.00132386
-0.00114086
-0.000931316
-0.000695711
-0.000434727
-0.000149262
0.000159543
0.000490277
0.000841237
0.00121041
0.00159548
0.00199378
0.00240236
0.00281792
0.00323693
0.00365558
0.00406985
0.00447557
0.00486847
0.00524425
0.00559869
0.00592765
0.00622726
0.00649393
0.00672445
0.00691612
0.00706677
0.00717486
0.00723955
0.00726071
0.007239
0.00717586
0.00707353
0.00693501
0.00676407
0.00656521
0.00634359
0.00610495
0.00585562
0.00560234
0.00535222
0.00511266
0.00489108
0.00469499
0.00453142
0.0044064
0.00432518
0.00429739
0.00432803
0.000257086
0.000205685
0.000117895
-1.04454e-06
-0.000143468
-0.000301598
-0.000468308
-0.000637226
-0.000802812
-0.000960377
-0.00110605
-0.00123669
-0.00134981
-0.00144342
-0.00151601
-0.0015664
-0.00159367
-0.00159714
-0.00157629
-0.00153072
-0.00146015
-0.0013644
-0.00124337
-0.00109708
-0.000925662
-0.000729378
-0.000508654
-0.000264095
3.48637e-06
0.000293043
0.000603275
0.000932604
0.00127916
0.00164077
0.00201495
0.00239893
0.00278962
0.00318369
0.00357756
0.00396744
0.0043494
0.00471942
0.00507343
0.00540743
0.00571754
0.00600008
0.00625167
0.0064693
0.0066504
0.00679296
0.00689554
0.00695736
0.00697835
0.00695917
0.0069012
0.00680658
0.00667821
0.00651964
0.00633513
0.00612953
0.0059082
0.00567699
0.00544212
0.00521007
0.0049875
0.00478108
0.00459742
0.0044428
0.00432265
0.00424201
0.00421097
0.00423622
0.000461829
0.000373239
0.000264658
0.000136976
-7.36186e-06
-0.000162191
-0.00032174
-0.000481005
-0.000635575
-0.000781651
-0.000916055
-0.00103617
-0.0011399
-0.00122554
-0.00129177
-0.00133752
-0.00136199
-0.00136451
-0.00134458
-0.00130179
-0.00123583
-0.00114647
-0.00103357
-0.000897091
-0.000737091
-0.00055376
-0.000347437
-0.000118634
0.000131942
0.000403357
0.000694437
0.00100374
0.00132954
0.00166982
0.00202227
0.00238428
0.00275297
0.00312516
0.00349749
0.00386634
0.00422799
0.00457858
0.00491425
0.00523116
0.0055256
0.00579402
0.0060332
0.00624022
0.00641263
0.00654849
0.00664642
0.00670569
0.00672621
0.00670863
0.00665427
0.00656521
0.00644417
0.00629458
0.00612047
0.0059264
0.00571743
0.005499
0.00527686
0.00505697
0.00484538
0.00464811
0.00447107
0.0043199
0.00419954
0.00411476
0.00407436
0.00408418
0.000700114
0.00056811
0.000432966
0.000290948
0.000139045
-1.79715e-05
-0.000175496
-0.000329786
-0.000477503
-0.000615725
-0.000741981
-0.000854221
-0.000950773
-0.00103029
-0.00109168
-0.00113407
-0.00115676
-0.00115918
-0.00114084
-0.00110136
-0.00104039
-0.000957695
-0.000853064
-0.00072639
-0.000577658
-0.000406965
-0.000214552
-8.18684e-07
0.000233646
0.00048804
0.000761324
0.0010522
0.0013591
0.00168015
0.00201321
0.00235584
0.0027053
0.0030586
0.00341252
0.00376361
0.00410827
0.00444281
0.00476347
0.00506654
0.00534839
0.00560559
0.00583497
0.00603367
0.0061993
0.00632992
0.00642419
0.00648134
0.00650129
0.00648462
0.00643261
0.00634722
0.00623109
0.00608747
0.00592021
0.00573366
0.00553257
0.00532208
0.00510754
0.00489448
0.00468843
0.00449489
0.00431918
0.00416637
0.004041
0.00394749
0.0038923
0.00387921
0.000958156
0.000779424
0.000613915
0.000453402
0.000289515
0.000125862
-3.39367e-05
-0.00018728
-0.000331832
-0.000465509
-0.000586537
-0.000693444
-0.000785023
-0.00086029
-0.000918443
-0.000958822
-0.000980874
-0.000984122
-0.000968149
-0.000932581
-0.000877082
-0.000801358
-0.000705162
-0.000588311
-0.0004507
-0.000292328
-0.000113319
8.60488e-05
0.000305321
0.000543837
0.000800702
0.00107477
0.00136463
0.00166856
0.00198458
0.00231039
0.00264341
0.00298078
0.00331941
0.00365596
0.00398695
0.00430877
0.00461774
0.00491021
0.00518259
0.00543149
0.00565374
0.0058465
0.00600734
0.00613433
0.00622607
0.00628176
0.00630125
0.00628506
0.0062344
0.00615113
0.00603778
0.00589748
0.0057339
0.0055512
0.00535393
0.00514695
0.0049353
0.00472415
0.00451864
0.00432383
0.00414457
0.00398543
0.00385065
0.00374426
0.00366995
0.00362893
0.00122383
0.000997044
0.000798912
0.00061705
0.000437976
0.00026433
9.89006e-05
-5.67403e-05
-0.000201184
-0.000333135
-0.000451495
-0.000555365
-0.000644009
-0.000716823
-0.000773308
-0.000813035
-0.00083562
-0.000840703
-0.000827937
-0.00079698
-0.000747492
-0.000679149
-0.000591648
-0.000484727
-0.000358186
-0.000211913
-4.59076e-05
0.00013969
0.000344569
0.000568218
0.000809902
0.00106863
0.00134314
0.00163188
0.00193301
0.00224437
0.00256351
0.00288769
0.00321391
0.00353894
0.00385936
0.0041716
0.00447202
0.00475698
0.00502289
0.00526632
0.00548407
0.00567326
0.00583138
0.00595644
0.00604695
0.00610203
0.00612145
0.00610564
0.00605569
0.0059734
0.00586116
0.00572199
0.00555944
0.0053775
0.00518054
0.00497323
0.00476036
0.00454682
0.00433745
0.00413696
0.00394984
0.00378026
0.00363222
0.00350944
0.00341267
0.0033405
0.00148689
0.00121182
0.0009799
0.000774858
0.000578374
0.000392284
0.00021867
5.8174e-05
-8.86482e-05
-0.000221238
-0.000339145
-0.000442019
-0.000529592
-0.000601642
-0.000657976
-0.000698403
-0.000722718
-0.000730686
-0.000722035
-0.000696458
-0.000653615
-0.000593149
-0.000514697
-0.000417914
-0.000302496
-0.00016821
-1.49201e-05
0.000157379
0.000348531
0.000558187
0.000785772
0.00103046
0.00129115
0.00156644
0.00185463
0.0021537
0.00246132
0.00277485
0.00309137
0.0034077
0.00372046
0.00402611
0.00432098
0.00460141
0.00486376
0.00510453
0.00532043
0.00550846
0.00566603
0.005791
0.00588178
0.00593736
0.00595739
0.00594217
0.0058927
0.00581064
0.00569829
0.00555856
0.00539488
0.00521111
0.00501151
0.00480056
0.0045829
0.00436322
0.00414614
0.00393612
0.00373736
0.00355373
0.0033891
0.00324701
0.00312527
0.00301994
0.00173834
0.0014155
0.00114939
0.000920097
0.00070474
0.000504472
0.000320769
0.00015343
2.22582e-06
-0.000132975
-0.000252329
-0.000356017
-0.000444218
-0.000517084
-0.000574725
-0.000617188
-0.000644443
-0.000656382
-0.00065281
-0.000633454
-0.000597972
-0.000545968
-0.000477015
-0.000390679
-0.000286545
-0.000164247
-2.35053e-05
0.000135841
0.0003138
0.000510191
0.00072461
0.0009564
0.00120462
0.00146803
0.00174507
0.00203384
0.00233212
0.00263736
0.00294671
0.00325701
0.00356491
0.00386683
0.00415909
0.00443792
0.00469961
0.00494054
0.00515728
0.00534669
0.00550601
0.00563295
0.00572574
0.0057832
0.00580484
0.00579079
0.00574193
0.00565979
0.00554655
0.00540501
0.0052385
0.00505081
0.00484607
0.00462867
0.00440314
0.00417404
0.00394585
0.00372288
0.00350915
0.00330832
0.00312424
0.00296036
0.00281174
0.00267202
0.00197026
0.00160058
0.00130039
0.00104636
0.000811252
0.000595641
0.000400475
0.000224781
6.76026e-05
-7.18349e-05
-0.00019426
-0.000300354
-0.000390724
-0.00046588
-0.000526223
-0.000572029
-0.000603442
-0.00062047
-0.000622992
-0.000610765
-0.000583438
-0.000540574
-0.000481674
-0.000406204
-0.000313629
-0.000203446
-7.52189e-05
7.13785e-05
0.000236528
0.000420228
0.000622252
0.000842117
0.00107905
0.00133198
0.00159946
0.00187975
0.0021707
0.00246986
0.00277441
0.00308123
0.00338694
0.00368793
0.00398043
0.00426059
0.00452454
0.00476851
0.0049889
0.00518237
0.00534595
0.00547713
0.00557394
0.00563499
0.00565957
0.00564766
0.00559995
0.00551783
0.00540335
0.00525921
0.00508864
0.00489537
0.00468347
0.00445725
0.00422121
0.00397983
0.00373755
0.00349861
0.00326694
0.00304612
0.00284008
0.00265231
0.00247526
0.00230034
0.0021755
0.00176018
0.0014264
0.00114755
0.000892261
0.000660592
0.000453017
0.000267845
0.000103447
-4.15566e-05
-0.000168431
-0.000278331
-0.000372264
-0.000451083
-0.000515461
-0.000565892
-0.000602679
-0.000625942
-0.000635623
-0.000631501
-0.000613209
-0.00058026
-0.000532073
-0.000468008
-0.000387399
-0.000289595
-0.000173997
-4.01006e-05
0.000112459
0.000283867
0.000474086
0.000682815
0.00090946
0.0011531
0.00141245
0.00168587
0.00197135
0.00226646
0.00256846
0.00287422
0.00318033
0.00348311
0.0037787
0.0040631
0.00433229
0.00458229
0.00480927
0.00500966
0.00518023
0.00531822
0.00542136
0.00548805
0.00551731
0.0055089
0.0054633
0.00538174
0.00526613
0.00511905
0.00494365
0.00474358
0.0045229
0.00428592
0.00403711
0.00378098
0.00352199
0.00326439
0.00301214
0.00276883
0.00253858
0.00232506
0.00211824
0.00190746
0.0023475
0.00188791
0.00152129
0.00121786
0.000942298
0.000694206
0.000473614
0.000278161
0.00010558
-4.60707e-05
-0.000178565
-0.000293499
-0.000392264
-0.000476026
-0.000545716
-0.000602028
-0.000645412
-0.000676085
-0.000694041
-0.000699071
-0.000690781
-0.000668624
-0.000631928
-0.000579937
-0.000511844
-0.000426839
-0.000324148
-0.00020308
-6.30762e-05
9.62483e-05
0.000275054
0.000473233
0.000690375
0.000925725
0.00117816
0.00144616
0.00172781
0.00202077
0.00232231
0.00262931
0.00293832
0.00324557
0.00354708
0.00383869
0.00411617
0.0043753
0.004612
0.0048224
0.00500297
0.00515062
0.00526278
0.00533753
0.00537361
0.00537049
0.00532844
0.00524845
0.00513227
0.00498237
0.0048018
0.00459418
0.00436354
0.00411423
0.00385078
0.00357777
0.00329976
0.00302112
0.00274589
0.00247779
0.00222127
0.00198026
0.00174239
0.00149502
0.00248018
0.00197783
0.00157928
0.00125173
0.00095608
0.000691466
0.000457516
0.000251229
6.97366e-05
-8.94403e-05
-0.000228551
-0.000349611
-0.000454365
-0.000544275
-0.000620508
-0.00068394
-0.000735151
-0.000774442
-0.000801846
-0.00081715
-0.000819924
-0.000809548
-0.00078525
-0.000746144
-0.000691275
-0.000619659
-0.000530338
-0.000422421
-0.000295142
-0.000147907
1.96564e-05
0.000207647
0.000415849
0.000643688
0.000890203
0.00115401
0.0014333
0.00172581
0.00202884
0.00233928
0.0026536
0.00296797
0.00327823
0.00358006
0.00386897
0.0041405
0.00439024
0.00461399
0.00480786
0.00496839
0.00509264
0.00517831
0.00522379
0.00522825
0.00519164
0.00511472
0.00499905
0.00484692
0.00466132
0.00444582
0.00420447
0.00394167
0.00366205
0.00337035
0.00307129
0.00276944
0.00246905
0.00217403
0.00188925
0.00161905
0.00134881
0.00106395
0.00256782
0.0020243
0.00159489
0.00124388
0.000928502
0.000647478
0.000400034
0.00018256
-8.39185e-06
-0.00017581
-0.000322396
-0.000450557
-0.000562372
-0.000659574
-0.000743548
-0.000815332
-0.000875619
-0.000924775
-0.00096286
-0.000989645
-0.00100465
-0.00100717
-0.000996312
-0.000971063
-0.000930298
-0.000872852
-0.000797566
-0.000703339
-0.000589184
-0.000454281
-0.000298032
-0.000120118
7.9456e-05
0.000300313
0.000541667
0.000802285
0.00108047
0.00137405
0.00168036
0.00199629
0.00231826
0.00264232
0.00296418
0.00327929
0.00358291
0.00387027
0.0041366
0.00437732
0.00458814
0.00476515
0.00490498
0.00500489
0.00506287
0.00507769
0.00504897
0.00497715
0.00486356
0.00471033
0.00452033
0.00429708
0.00404468
0.00376761
0.00347065
0.00315876
0.00283687
0.00250986
0.00218225
0.00185828
0.00154331
0.0012422
0.000938116
0.000614563
0.00260503
0.00202202
0.00156292
0.00118923
0.000854648
0.000557483
0.000296571
6.77074e-05
-0.00013311
-0.000309358
-0.000464169
-0.00060032
-0.000720201
-0.000825797
-0.000918691
-0.00100006
-0.0010707
-0.00113102
-0.00118109
-0.00122066
-0.00124917
-0.00126583
-0.00126962
-0.00125937
-0.00123378
-0.00119149
-0.00113113
-0.00105138
-0.000950998
-0.000828934
-0.000684346
-0.000516675
-0.000325696
-0.00011157
0.00012511
0.00038328
0.00066138
0.000957332
0.00126853
0.00159186
0.0019237
0.00226
0.00259629
0.0029278
0.00324951
0.0035563
0.00384302
0.00410465
0.00433641
0.00453392
0.0046933
0.0048113
0.00488542
0.00491396
0.00489613
0.00483203
0.00472269
0.00457002
0.00437676
0.0041464
0.00388306
0.00359134
0.00327623
0.00294291
0.00259667
0.00224272
0.00188597
0.00153106
0.00118395
0.000850103
0.000510505
0.000146718
0.00258664
0.00196591
0.00147842
0.00108293
0.000729789
0.000416876
0.000142641
-9.76975e-05
-0.000308679
-0.000494251
-0.000657956
-0.000802923
-0.000931831
-0.0010469
-0.00114988
-0.00124209
-0.00132439
-0.00139724
-0.00146069
-0.00151443
-0.00155786
-0.00159005
-0.00160986
-0.00161594
-0.00160681
-0.0015809
-0.00153661
-0.00147237
-0.0013867
-0.00127827
-0.00114599
-0.000989041
-0.000806937
-0.000599603
-0.000367414
-0.00011124
0.000167518
0.0004669
0.000784375
0.00111684
0.00146065
0.00181164
0.00216518
0.00251626
0.00285955
0.00318957
0.00350073
0.00378752
0.00404463
0.00426712
0.00445052
0.004591
0.00468548
0.00473172
0.00472844
0.00467531
0.004573
0.00442316
0.00422837
0.00399206
0.00371837
0.00341205
0.00307831
0.00272267
0.00235076
0.00196826
0.00158053
0.0011927
0.000811455
0.00044293
6.58952e-05
-0.000340076
0.00250776
0.00185118
0.00133666
0.00092036
0.000549397
0.000221223
-6.60984e-05
-0.000317911
-0.000539279
-0.000734601
-0.000907814
-0.00106238
-0.00120125
-0.00132686
-0.00144112
-0.00154545
-0.00164077
-0.00172757
-0.00180587
-0.00187532
-0.0019352
-0.00198448
-0.00202186
-0.00204581
-0.00205466
-0.00204659
-0.00201978
-0.00197238
-0.00190266
-0.00180899
-0.00169001
-0.0015446
-0.001372
-0.00117186
-0.000944326
-0.000690027
-0.000410181
-0.0001066
0.000218285
0.000561418
0.000919126
0.00128716
0.00166072
0.00203455
0.00240302
0.00276023
0.00310013
0.00341667
0.00370394
0.00395637
0.00416881
0.00433677
0.00445649
0.0045251
0.00454072
0.0045025
0.0044107
0.00426664
0.00407268
0.00383215
0.00354923
0.00322882
0.00287638
0.0024978
0.00209916
0.00168665
0.00126619
0.000843467
0.000425993
2.06811e-05
-0.000395999
-0.000846538
0.00236374
0.00167328
0.00113318
0.000697132
0.000309157
-3.37198e-05
-0.000333822
-0.000597048
-0.000828968
-0.00103442
-0.00121772
-0.00138265
-0.00153241
-0.00166963
-0.00179637
-0.00191414
-0.00202392
-0.00212617
-0.00222091
-0.00230771
-0.00238573
-0.00245383
-0.00251052
-0.00255411
-0.00258267
-0.00259419
-0.00258656
-0.00255766
-0.00250545
-0.00242803
-0.00232369
-0.00219102
-0.00202894
-0.00183681
-0.00161447
-0.0013623
-0.0010813
-0.000773082
-0.000439954
-8.48944e-05
0.000288431
0.000675699
0.00107196
0.00147173
0.00186904
0.00225756
0.00263075
0.00298196
0.00330463
0.00359245
0.00383955
0.00404062
0.00419116
0.00428754
0.00432718
0.00430862
0.00423158
0.00409698
0.00390691
0.00366455
0.0033741
0.00304061
0.00266983
0.00226804
0.00184186
0.00139804
0.000943154
0.000483557
2.76682e-05
-0.000416724
-0.000875566
-0.00137352
0.00215016
0.00142789
0.000863769
0.000409097
4.98373e-06
-0.00035198
-0.000664509
-0.000939043
-0.00118165
-0.00139759
-0.00159154
-0.00176758
-0.00192916
-0.00207908
-0.00221954
-0.00235213
-0.00247785
-0.00259716
-0.00271003
-0.00281595
-0.00291397
-0.00300278
-0.00308075
-0.00314596
-0.00319627
-0.00322939
-0.00324295
-0.00323453
-0.00320178
-0.00314246
-0.00305452
-0.0029362
-0.00278608
-0.00260319
-0.00238702
-0.00213767
-0.00185585
-0.00154296
-0.00120112
-0.000833185
-0.00044279
-3.42949e-05
0.000387227
0.000816052
0.00124588
0.00166996
0.0020812
0.00247232
0.00283603
0.00316523
0.00345318
0.00369371
0.00388139
0.00401175
0.00408138
0.00408806
0.00403088
0.00391026
0.00372792
0.00348686
0.00319125
0.00284626
0.00245798
0.0020331
0.00157883
0.0011026
0.000611685
0.000113206
-0.000383398
-0.000869361
-0.0013732
-0.0019219
0.00186285
0.00111098
0.000524466
5.23676e-05
-0.000366956
-0.000737346
-0.00106191
-0.00134762
-0.00160102
-0.00182779
-0.00203295
-0.00222086
-0.00239521
-0.00255896
-0.00271443
-0.00286326
-0.00300648
-0.00314455
-0.00327736
-0.00340431
-0.00352433
-0.00363596
-0.00373738
-0.00382644
-0.00390078
-0.00395783
-0.00399492
-0.00400932
-0.00399835
-0.00395939
-0.00389003
-0.00378813
-0.00365189
-0.00347994
-0.00327141
-0.00302604
-0.00274422
-0.00242706
-0.00207645
-0.00169508
-0.0012865
-0.00085506
-0.000405935
5.49451e-05
0.000520962
0.000984912
0.00143914
0.00187569
0.0022865
0.00266357
0.0029992
0.00328622
0.00351819
0.0036896
0.00379608
0.00383454
0.00380328
0.00370208
0.00353221
0.0032964
0.00299872
0.00264449
0.00224008
0.00179268
0.00131011
0.00080056
0.000272106
-0.000267269
-0.000806996
-0.00133723
-0.00188924
-0.00249248
0.00149797
0.000718808
0.000111611
-0.000376662
-0.000810223
-0.00119335
-0.00152953
-0.00182627
-0.00209057
-0.00232851
-0.00254544
-0.002746
-0.00293408
-0.00311281
-0.00328461
-0.00345118
-0.00361355
-0.00377216
-0.00392683
-0.00407687
-0.00422107
-0.00435781
-0.00448505
-0.00460046
-0.00470138
-0.00478499
-0.0048483
-0.00488824
-0.00490175
-0.00488585
-0.00483772
-0.0047548
-0.00463484
-0.00447605
-0.00427715
-0.00403746
-0.00375697
-0.00343647
-0.00307753
-0.00268263
-0.00225515
-0.0017994
-0.00132061
-0.000824873
-0.000319114
0.000189027
0.000691314
0.00117907
0.00164339
0.00207531
0.00246607
0.00280737
0.00309158
0.00331204
0.00346324
0.00354103
0.00354277
0.00346748
0.00331581
0.00309012
0.00279434
0.00243385
0.00201532
0.00154646
0.00103577
0.000492246
-7.51216e-05
-0.000657399
-0.00124276
-0.00182015
-0.00242383
-0.00308594
0.00105193
0.000247928
-0.000378153
-0.000881293
-0.00132808
-0.00172321
-0.00207059
-0.0023782
-0.0026535
-0.00290294
-0.00313221
-0.00334621
-0.00354903
-0.00374393
-0.00393343
-0.00411929
-0.00430254
-0.00448357
-0.00466214
-0.00483745
-0.00500816
-0.00517248
-0.00532816
-0.00547263
-0.005603
-0.00571611
-0.00580866
-0.00587722
-0.00591835
-0.00592865
-0.00590487
-0.00584396
-0.00574324
-0.0056004
-0.00541369
-0.00518195
-0.00490473
-0.00458238
-0.00421612
-0.00380812
-0.00336154
-0.00288056
-0.00237041
-0.0018373
-0.00128843
-0.000731863
-0.000176413
0.000368502
0.000893062
0.00138727
0.0018412
0.00224529
0.00259057
0.00286905
0.00307387
0.00319964
0.00324263
0.00320084
0.00307422
0.00286459
0.00257562
0.00221273
0.00178284
0.00129418
0.000755978
0.000178144
-0.000429349
-0.0010565
-0.00169008
-0.00231773
-0.00297691
-0.00370268
0.000521523
-0.00030476
-0.000947847
-0.0014645
-0.00192346
-0.00232986
-0.00268798
-0.0030063
-0.00329269
-0.003554
-0.0037962
-0.00402444
-0.004243
-0.0044553
-0.00466392
-0.00487066
-0.00507657
-0.00528199
-0.00548661
-0.00568952
-0.00588923
-0.00608377
-0.0062707
-0.00644721
-0.00661011
-0.00675597
-0.00688113
-0.00698179
-0.00705408
-0.00709418
-0.00709834
-0.00706304
-0.00698505
-0.00686153
-0.00669018
-0.0064693
-0.00619791
-0.00587587
-0.00550394
-0.00508389
-0.00461859
-0.004112
-0.00356927
-0.00299668
-0.00240163
-0.00179258
-0.00117892
-0.000570821
2.09552e-05
0.000585291
0.00111099
0.00158708
0.00200312
0.00234955
0.00261801
0.00280163
0.00289531
0.00289591
0.00280241
0.00261594
0.00233981
0.00197933
0.00154168
0.00103558
0.000471036
-0.000141074
-0.000789679
-0.0014636
-0.00214805
-0.00282922
-0.00354806
-0.00434276
-9.61063e-05
-0.000941991
-0.00160014
-0.00212889
-0.00259895
-0.00301586
-0.00338427
-0.00371312
-0.00401072
-0.00428423
-0.00453995
-0.00478325
-0.00501859
-0.00524953
-0.00547871
-0.00570799
-0.0059384
-0.00617025
-0.00640315
-0.00663607
-0.00686739
-0.00709497
-0.00731615
-0.00752788
-0.00772669
-0.00790883
-0.00807029
-0.00820688
-0.00831429
-0.00838823
-0.00842444
-0.00841885
-0.00836765
-0.00826744
-0.00811526
-0.00790882
-0.00764653
-0.00732764
-0.00695238
-0.00652205
-0.00603908
-0.00550715
-0.00493121
-0.00431754
-0.00367367
-0.00300841
-0.00233167
-0.00165439
-0.000988296
-0.000345691
0.000260857
0.000818836
0.00131615
0.00174149
0.00208472
0.00233728
0.00249244
0.00254566
0.0024947
0.00233984
0.00208379
0.00173168
0.00129084
0.000770472
0.000181391
-0.00046449
-0.0011549
-0.00187736
-0.00261536
-0.00335346
-0.00413642
-0.00500584
-0.000803409
-0.00166611
-0.00233729
-0.00287672
-0.00335677
-0.0037834
-0.00416164
-0.00450085
-0.00480973
-0.00509581
-0.00536563
-0.0056248
-0.00587797
-0.00612878
-0.00638
-0.00663348
-0.00689027
-0.00715063
-0.0074141
-0.00767954
-0.0079452
-0.00820876
-0.00846735
-0.00871767
-0.00895598
-0.00917821
-0.00937996
-0.00955665
-0.00970353
-0.00981578
-0.00988861
-0.00991736
-0.00989762
-0.00982528
-0.00969676
-0.00950904
-0.00925982
-0.0089477
-0.00857225
-0.00813416
-0.00763535
-0.00707909
-0.00647004
-0.00581433
-0.00511956
-0.0043948
-0.00365044
-0.00289816
-0.00215066
-0.00142146
-0.000724607
-7.42701e-05
0.00051561
0.00103177
0.00146208
0.00179596
0.00202479
0.0021423
0.00214481
0.00203142
0.0018041
0.00146758
0.00102924
0.000498741
-0.000112314
-0.000790898
-0.00152344
-0.00229601
-0.00309021
-0.00388878
-0.00474063
-0.005691
-0.0016024
-0.00247904
-0.00316119
-0.00370981
-0.00419873
-0.00463428
-0.00502186
-0.00537124
-0.0056915
-0.00599047
-0.00627497
-0.00655082
-0.00682282
-0.00709476
-0.00736945
-0.0076488
-0.00793385
-0.00822482
-0.00852118
-0.00882171
-0.0091245
-0.00942707
-0.00972635
-0.0100188
-0.0103004
-0.0105667
-0.010813
-0.0110343
-0.0112253
-0.0113808
-0.0114953
-0.0115635
-0.0115804
-0.0115411
-0.0114414
-0.0112774
-0.011046
-0.010745
-0.0103733
-0.00993087
-0.00941891
-0.00884018
-0.00819892
-0.00750101
-0.00675398
-0.00596704
-0.00515103
-0.00431827
-0.00348244
-0.00265831
-0.00186144
-0.00110782
-0.000413376
0.000206443
0.000737226
0.0011661
0.00148223
0.00167727
0.00174575
0.00168532
0.0014969
0.00118463
0.000755773
0.000220363
-0.000409203
-0.00111874
-0.00189327
-0.00271727
-0.00357023
-0.0044329
-0.00535866
-0.0063967
-0.00249463
-0.00338226
-0.00407326
-0.00462957
-0.00512621
-0.00556987
-0.0059663
-0.00632565
-0.00665735
-0.00696951
-0.00726922
-0.00756251
-0.00785433
-0.00814857
-0.00844815
-0.00875499
-0.00907015
-0.00939381
-0.00972539
-0.0100636
-0.0104063
-0.010751
-0.0110943
-0.0114325
-0.0117613
-0.0120759
-0.0123713
-0.0126419
-0.0128821
-0.0130859
-0.0132475
-0.0133608
-0.01342
-0.0134196
-0.0133545
-0.0132198
-0.0130117
-0.0127272
-0.0123641
-0.0119215
-0.0114
-0.0108016
-0.01013
-0.00939062
-0.00859082
-0.00773983
-0.00684879
-0.00593061
-0.0049999
-0.00407266
-0.00316603
-0.00229789
-0.00148634
-0.000749224
-0.000103506
0.000435319
0.000853832
0.00114125
0.00128991
0.00129564
0.00115797
0.000880202
0.00046927
-6.45545e-05
-0.000708118
-0.00144604
-0.00226182
-0.00313822
-0.00405237
-0.00498281
-0.00598774
-0.00712061
-0.00348115
-0.00437678
-0.00507448
-0.00563697
-0.00614018
-0.00659112
-0.00699588
-0.00736496
-0.00770811
-0.00803373
-0.00834913
-0.00866055
-0.00897309
-0.00929076
-0.00961655
-0.00995244
-0.0102995
-0.0106578
-0.0110269
-0.0114052
-0.0117907
-0.0121806
-0.0125713
-0.0129589
-0.0133389
-0.0137061
-0.0140551
-0.01438
-0.0146745
-0.0149323
-0.0151467
-0.0153111
-0.0154189
-0.0154637
-0.0154394
-0.0153405
-0.015162
-0.0148999
-0.014551
-0.0141136
-0.0135872
-0.0129729
-0.0122738
-0.0114948
-0.0106427
-0.00972675
-0.00875818
-0.0077504
-0.00671883
-0.0056807
-0.00465473
-0.00366074
-0.00271917
-0.00185046
-0.0010744
-0.000409458
0.000127974
0.000524244
0.000769058
0.00085598
0.000782766
0.00055151
0.000168568
-0.000355733
-0.00100757
-0.00177033
-0.00262595
-0.00355524
-0.0045328
-0.00553465
-0.00662422
-0.00785952
-0.00456252
-0.00546313
-0.00616538
-0.00673253
-0.00724113
-0.00769851
-0.00811105
-0.00848959
-0.00884415
-0.00918341
-0.0095149
-0.00984505
-0.0101791
-0.0105212
-0.0108744
-0.0112407
-0.0116213
-0.0120163
-0.0124249
-0.0128458
-0.0132768
-0.0137148
-0.0141562
-0.014597
-0.0150321
-0.0154562
-0.0158636
-0.0162477
-0.016602
-0.0169194
-0.0171927
-0.0174145
-0.0175774
-0.0176741
-0.0176977
-0.0176415
-0.0174995
-0.0172665
-0.0169385
-0.0165123
-0.0159866
-0.0153614
-0.0146389
-0.013823
-0.0129204
-0.0119397
-0.0108922
-0.00979156
-0.008654
-0.00749783
-0.00634334
-0.00521235
-0.00412771
-0.00311265
-0.00219009
-0.00138178
-0.000707521
-0.000184309
0.000174436
0.000359511
0.000366417
0.000195616
-0.000147462
-0.000652672
-0.00130565
-0.0020886
-0.00298176
-0.0039639
-0.00500674
-0.00608358
-0.00726343
-0.00860914
-0.00573875
-0.00664133
-0.007346
-0.0079163
-0.00842912
-0.00889207
-0.00931182
-0.00969947
-0.0100653
-0.0104183
-0.0107662
-0.0111155
-0.0114717
-0.0118391
-0.0122207
-0.0126187
-0.0130343
-0.0134675
-0.0139177
-0.0143835
-0.0148623
-0.0153513
-0.0158467
-0.016344
-0.0168382
-0.0173236
-0.0177939
-0.0182423
-0.0186618
-0.0190447
-0.0193831
-0.0196688
-0.0198936
-0.0200494
-0.0201281
-0.0201221
-0.0200242
-0.019828
-0.0195281
-0.0191203
-0.0186018
-0.0179717
-0.0172309
-0.0163825
-0.0154322
-0.0143882
-0.0132615
-0.0120661
-0.0108185
-0.00953807
-0.00824661
-0.0069679
-0.00572729
-0.00455096
-0.00346517
-0.00249535
-0.00166512
-0.000995324
-0.000503071
-0.000200906
-9.61487e-05
-0.000190483
-0.000479835
-0.00095457
-0.00159997
-0.00239714
-0.00332455
-0.00435877
-0.00546839
-0.00662363
-0.0078995
-0.00936398
-0.00700931
-0.00791093
-0.00861591
-0.00918787
-0.00970376
-0.0101714
-0.0105977
-0.0109941
-0.011371
-0.0117377
-0.012102
-0.0124708
-0.0128496
-0.0132428
-0.0136536
-0.0140843
-0.0145361
-0.015009
-0.0155025
-0.016015
-0.0165441
-0.0170867
-0.0176389
-0.0181962
-0.0187531
-0.0193037
-0.0198415
-0.0203593
-0.0208493
-0.0213034
-0.021713
-0.0220693
-0.0223631
-0.0225853
-0.0227269
-0.0227789
-0.0227331
-0.0225818
-0.0223181
-0.0219366
-0.021433
-0.020805
-0.0200523
-0.0191768
-0.0181831
-0.0170787
-0.0158742
-0.0145833
-0.013223
-0.0118133
-0.0103775
-0.00894111
-0.00753211
-0.00617971
-0.00491374
-0.00376362
-0.00275723
-0.0019198
-0.00127273
-0.00083256
-0.000610081
-0.000609741
-0.000829357
-0.00126022
-0.00188756
-0.00269146
-0.00364866
-0.00473334
-0.00591068
-0.00714749
-0.00852519
-0.0101172
-0.00837316
-0.00927097
-0.00997424
-0.0105464
-0.0110642
-0.0115356
-0.0119678
-0.0123724
-0.0127601
-0.0131402
-0.0135209
-0.0139091
-0.0143107
-0.0147301
-0.0151706
-0.0156347
-0.0161234
-0.0166372
-0.0171753
-0.0177361
-0.0183174
-0.0189159
-0.0195276
-0.0201477
-0.0207707
-0.0213905
-0.022
-0.0225917
-0.0231575
-0.0236885
-0.0241756
-0.024609
-0.0249788
-0.0252748
-0.025487
-0.0256053
-0.02562
-0.0255222
-0.0253035
-0.0249569
-0.0244766
-0.0238589
-0.0231017
-0.0222058
-0.0211745
-0.0200142
-0.0187346
-0.0173493
-0.015875
-0.0143326
-0.0127463
-0.0111435
-0.00955455
-0.0080118
-0.00654881
-0.00519928
-0.00399577
-0.00296845
-0.00214366
-0.00154264
-0.00118042
-0.00106491
-0.00119649
-0.0015679
-0.00216469
-0.00296615
-0.0039473
-0.00507983
-0.00632517
-0.00764639
-0.00913169
-0.0108602
-0.00982869
-0.01072
-0.0114196
-0.0119907
-0.0125092
-0.0129835
-0.0134208
-0.013833
-0.0142308
-0.0146239
-0.0150207
-0.0154282
-0.0158523
-0.0162978
-0.0167682
-0.0172658
-0.017792
-0.0183473
-0.0189308
-0.0195413
-0.0201762
-0.0208324
-0.0215057
-0.0221913
-0.0228834
-0.0235757
-0.0242609
-0.024931
-0.0255773
-0.0261906
-0.0267609
-0.0272778
-0.0277304
-0.0281077
-0.0283984
-0.0285911
-0.0286751
-0.0286396
-0.028475
-0.0281725
-0.0277248
-0.0271263
-0.0263733
-0.025465
-0.0244031
-0.0231928
-0.0218428
-0.0203657
-0.0187782
-0.0171013
-0.01536
-0.0135835
-0.0118044
-0.0100579
-0.00838159
-0.0068136
-0.00539162
-0.00415124
-0.00312444
-0.00233794
-0.00181181
-0.00155832
-0.00158115
-0.00187518
-0.00242676
-0.0032147
-0.0042124
-0.00538897
-0.00670179
-0.0081098
-0.00970841
-0.0115826
-0.0113738
-0.0122561
-0.0129504
-0.0135189
-0.0140372
-0.0145134
-0.014955
-0.0153739
-0.0157812
-0.0161867
-0.0165988
-0.0170249
-0.0174711
-0.0179422
-0.018442
-0.0189729
-0.0195366
-0.0201334
-0.0207629
-0.0214236
-0.0221131
-0.0228282
-0.0235648
-0.0243179
-0.0250817
-0.0258494
-0.0266135
-0.0273658
-0.0280971
-0.0287976
-0.0294566
-0.030063
-0.030605
-0.0310707
-0.0314474
-0.0317229
-0.0318846
-0.0319206
-0.0318194
-0.0315707
-0.0311653
-0.0305957
-0.0298565
-0.0289449
-0.0278609
-0.0266081
-0.0251937
-0.0236294
-0.0219312
-0.0201201
-0.0182215
-0.0162659
-0.0142878
-0.0123257
-0.0104207
-0.00861575
-0.00695392
-0.00547679
-0.00422259
-0.00322439
-0.00250821
-0.0020916
-0.00198249
-0.00217872
-0.00266808
-0.0034293
-0.00443439
-0.00564982
-0.00702865
-0.00852527
-0.0102427
-0.0122721
-0.0130059
-0.0138771
-0.0145643
-0.0151292
-0.0156461
-0.0161232
-0.0165682
-0.0169929
-0.0174087
-0.0178255
-0.0182519
-0.0186956
-0.0191628
-0.0196585
-0.0201868
-0.0207504
-0.0213508
-0.0219888
-0.0226639
-0.0233748
-0.0241192
-0.024894
-0.0256948
-0.0265168
-0.0273539