/*--------------------------------*- C++ -*----------------------------------*\
  =========                 |
  \\      /  F ield         | OpenFOAM: The Open Source CFD Toolbox
   \\    /   O peration     | Website:  https://openfoam.org
    \\  /    A nd           | Version:  dev
     \\/     M anipulation  |
\*---------------------------------------------------------------------------*/
FoamFile
{
    format      ascii;
    class       volTensorField;
    location    "0.5";
    object      grad(U);
}
// * * * * * * * * * * * * * * * * * * * * * * * * * * * * * * * * * * * * * //

dimensions      [0 0 -1 0 0 0 0];

internalField   nonuniform List<tensor> 
400
(
(0.0394611 -0.0139032 0 0.017593 -0.041985 0 0 0 0)
(-0.143044 0.0815079 0 -0.147045 0.175632 0 0 0 0)
(-0.362249 0.0773596 0 -0.687029 0.418212 0 0 0 0)
(-0.520076 0.0481127 0 -1.52009 0.592014 0 0 0 0)
(-0.598868 0.017677 0 -2.52713 0.678933 0 0 0 0)
(-0.60258 -0.0087858 0 -3.58725 0.682236 0 0 0 0)
(-0.541574 -0.0301318 0 -4.5875 0.612989 0 0 0 0)
(-0.42868 -0.0463227 0 -5.43152 0.485324 0 0 0 0)
(-0.27736 -0.0575906 0 -6.04374 0.314246 0 0 0 0)
(-0.10127 -0.0639945 0 -6.37096 0.115154 0 0 0 0)
(0.08533 -0.0652959 0 -6.38357 -0.0958577 0 0 0 0)
(0.26722 -0.0610174 0 -6.07704 -0.301565 0 0 0 0)
(0.42802 -0.0505922 0 -5.47348 -0.483438 0 0 0 0)
(0.550402 -0.0335796 0 -4.62307 -0.621977 0 0 0 0)
(0.617052 -0.0099745 0 -3.6042 -0.69782 0 0 0 0)
(0.612609 0.0193083 0 -2.52111 -0.693929 0 0 0 0)
(0.526881 0.0517645 0 -1.49682 -0.599324 0 0 0 0)
(0.359724 0.08078 0 -0.660008 -0.414604 0 0 0 0)
(0.135435 0.0818816 0 -0.129672 -0.164958 0 0 0 0)
(-0.046432 -0.0172034 0 0.0225298 0.0489882 0 0 0 0)
(-0.168913 0.147551 0 -0.0782053 0.134214 0 0 0 0)
(-0.561577 0.378689 0 -0.385286 0.562523 0 0 0 0)
(-1.01079 0.339022 0 -0.941266 0.966048 0 0 0 0)
(-1.32003 0.212608 0 -1.65118 1.25235 0 0 0 0)
(-1.46829 0.072545 0 -2.43892 1.39015 0 0 0 0)
(-1.45779 -0.057158 0 -3.23553 1.3778 0 0 0 0)
(-1.3027 -0.16678 0 -3.97201 1.22987 0 0 0 0)
(-1.02756 -0.25242 0 -4.5863 0.969643 0 0 0 0)
(-0.66208 -0.31258 0 -5.0284 0.624775 0 0 0 0)
(-0.23856 -0.34611 0 -5.26286 0.225441 0 0 0 0)
(0.20859 -0.351423 0 -5.27027 -0.196147 0 0 0 0)
(0.64287 -0.326563 0 -5.04832 -0.605759 0 0 0 0)
(1.02595 -0.26982 0 -4.61258 -0.967455 0 0 0 0)
(1.31888 -0.180802 0 -3.99664 -1.24477 0 0 0 0)
(1.48491 -0.061977 0 -3.2513 -1.40333 0 0 0 0)
(1.49477 0.079188 0 -2.44207 -1.41525 0 0 0 0)
(1.33422 0.22756 0 -1.64296 -1.26587 0 0 0 0)
(1.00742 0.353586 0 -0.927773 -0.962309 0 0 0 0)
(0.547103 0.381711 0 -0.374518 -0.546101 0 0 0 0)
(0.153574 0.133173 0 -0.0744746 -0.121127 0 0 0 0)
(-0.42403 0.682833 0 -0.085082 0.364946 0 0 0 0)
(-1.00611 0.913342 0 -0.408024 1.05766 0 0 0 0)
(-1.62814 0.767185 0 -0.960965 1.63055 0 0 0 0)
(-2.01773 0.47222 0 -1.61992 2.01644 0 0 0 0)
(-2.18322 0.14313 0 -2.30949 2.18552 0 0 0 0)
(-2.13567 -0.16907 0 -2.97806 2.13787 0 0 0 0)
(-1.89234 -0.43829 0 -3.57857 1.89385 0 0 0 0)
(-1.48507 -0.651418 0 -4.0702 1.48623 0 0 0 0)
(-0.95392 -0.801792 0 -4.42076 0.95485 0 0 0 0)
(-0.34314 -0.884917 0 -4.60751 0.34383 0 0 0 0)
(0.29987 -0.896496 0 -4.61774 -0.299506 0 0 0 0)
(0.92491 -0.832325 0 -4.4492 -0.925024 0 0 0 0)
(1.4797 -0.689602 0 -4.11066 -1.48046 0 0 0 0)
(1.91168 -0.46945 0 -3.62228 -1.91325 0 0 0 0)
(2.17162 -0.18046 0 -3.01579 -2.17426 0 0 0 0)
(2.22095 0.15676 0 -2.33418 -2.22384 0 0 0 0)
(2.04118 0.50471 0 -1.6291 -2.04041 0 0 0 0)
(1.62817 0.800552 0 -0.958099 -1.63033 0 0 0 0)
(0.988733 0.923063 0 -0.401221 -1.03691 0 0 0 0)
(0.40256 0.650025 0 -0.0819074 -0.345252 0 0 0 0)
(-0.66202 1.57016 0 -0.0750372 0.578656 0 0 0 0)
(-1.43746 1.64429 0 -0.382489 1.52183 0 0 0 0)
(-2.22269 1.2978 0 -0.92164 2.22873 0 0 0 0)
(-2.66855 0.76758 0 -1.55441 2.66972 0 0 0 0)
(-2.82643 0.19398 0 -2.19799 2.83457 0 0 0 0)
(-2.72687 -0.34883 0 -2.80379 2.73556 0 0 0 0)
(-2.39484 -0.81842 0 -3.33454 2.40233 0 0 0 0)
(-1.86975 -1.19142 0 -3.76184 1.87579 0 0 0 0)
(-1.19939 -1.45498 0 -4.06526 1.20359 0 0 0 0)
(-0.43554 -1.60047 0 -4.23081 0.4375 0 0 0 0)
(0.3669 -1.62028 0 -4.24992 -0.367421 0 0 0 0)
(1.14995 -1.50751 0 -4.11918 -1.15301 0 0 0 0)
(1.85287 -1.25805 0 -3.84118 -1.85834 0 0 0 0)
(2.41375 -0.8746 0 -3.42523 -2.42132 0 0 0 0)
(2.77301 -0.37256 0 -2.89001 -2.78232 0 0 0 0)
(2.88146 0.21303 0 -2.26574 -2.89049 0 0 0 0)
(2.7103 0.82107 0 -1.59562 -2.71241 0 0 0 0)
(2.2353 1.35709 0 -0.9372 -2.24147 0 0 0 0)
(1.42329 1.66679 0 -0.382227 -1.50403 0 0 0 0)
(0.636702 1.51533 0 -0.0726869 -0.554961 0 0 0 0)
(-0.881556 2.78332 0 -0.0679325 0.773623 0 0 0 0)
(-1.85271 2.56342 0 -0.362663 1.96549 0 0 0 0)
(-2.80007 1.91507 0 -0.89077 2.80315 0 0 0 0)
(-3.29408 1.07806 0 -1.50861 3.28757 0 0 0 0)
(-3.4326 0.20897 0 -2.1272 3.43417 0 0 0 0)
(-3.27222 -0.60131 0 -2.69742 3.27451 0 0 0 0)
(-2.85039 -1.29806 0 -3.18719 2.85206 0 0 0 0)
(-2.21579 -1.85016 0 -3.57665 2.21728 0 0 0 0)
(-1.42289 -2.24008 0 -3.85404 1.4242 0 0 0 0)
(-0.5278 -2.45593 0 -4.01186 0.528789 0 0 0 0)
(0.4115 -2.48701 0 -4.0446 -0.410869 0 0 0 0)
(1.33365 -2.32324 0 -3.94726 -1.33363 0 0 0 0)
(2.17365 -1.95791 0 -3.71615 -2.17439 0 0 0 0)
(2.86285 -1.39343 0 -3.35113 -2.86443 0 0 0 0)
(3.33111 -0.64963 0 -2.85998 -3.33399 0 0 0 0)
(3.51534 0.22667 0 -2.26408 -3.51796 0 0 0 0)
(3.36972 1.15373 0 -1.60289 -3.36455 0 0 0 0)
(2.84156 2.00893 0 -0.93841 -2.84536 0 0 0 0)
(1.85325 2.60957 0 -0.374933 -1.96306 0 0 0 0)
(0.857474 2.70902 0 -0.0676169 -0.750396 0 0 0 0)
(-1.09262 4.30927 0 -0.066111 0.959966 0 0 0 0)
(-2.2603 3.67382 0 -0.358506 2.40213 0 0 0 0)
(-3.36864 2.61988 0 -0.88453 3.37239 0 0 0 0)
(-3.90498 1.3986 0 -1.49444 3.89572 0 0 0 0)
(-4.01524 0.18092 0 -2.09406 4.0157 0 0 0 0)
(-3.78686 -0.93094 0 -2.63439 3.78823 0 0 0 0)
(-3.27407 -1.87565 0 -3.08869 3.27475 0 0 0 0)
(-2.5366 -2.61928 0 -3.44519 2.53723 0 0 0 0)
(-1.6346 -3.14347 0 -3.7009 1.63547 0 0 0 0)
(-0.6261 -3.43553 0 -3.855 0.627092 0 0 0 0)
(0.4315 -3.4827 0 -3.9049 -0.430634 0 0 0 0)
(1.4784 -3.27104 0 -3.8439 -1.47783 0 0 0 0)
(2.449 -2.78885 0 -3.66165 -2.44889 0 0 0 0)
(3.26992 -2.0342 0 -3.34825 -3.27048 0 0 0 0)
(3.86006 -1.02609 0 -2.89955 -3.8621 0 0 0 0)
(4.13855 0.18247 0 -2.32701 -4.14046 0 0 0 0)
(4.03597 1.49367 0 -1.6655 -4.02858 0 0 0 0)
(3.46326 2.75858 0 -0.98094 -3.46852 0 0 0 0)
(2.29409 3.76175 0 -0.39129 -2.43494 0 0 0 0)
(1.07925 4.22879 0 -0.069639 -0.945362 0 0 0 0)
(-1.30617 6.14542 0 -0.069246 1.14795 0 0 0 0)
(-2.67113 4.97584 0 -0.370677 2.84266 0 0 0 0)
(-3.936 3.40866 0 -0.90408 3.94121 0 0 0 0)
(-4.50361 1.72137 0 -1.50758 4.49248 0 0 0 0)
(-4.57255 0.10148 0 -2.08157 4.57285 0 0 0 0)
(-4.26685 -1.34226 0 -2.57977 4.26806 0 0 0 0)
(-3.66119 -2.54906 0 -2.9841 3.66161 0 0 0 0)
(-2.828 -3.48944 0 -3.2939 2.82852 0 0 0 0)
(-1.8327 -4.15022 0 -3.5174 1.83347 0 0 0 0)
(-0.7318 -4.52203 0 -3.6627 0.732694 0 0 0 0)
(0.4226 -4.59193 0 -3.731 -0.421735 0 0 0 0)
(1.5769 -4.3415 0 -3.7145 -1.57613 0 0 0 0)
(2.6693 -3.75056 0 -3.596 -2.66896 0 0 0 0)
(3.62495 -2.80664 0 -3.3533 -3.62542 0 0 0 0)
(4.35235 -1.51961 0 -2.96712 -4.35466 0 0 0 0)
(4.74939 0.06019 0 -2.43387 -4.75168 0 0 0 0)
(4.71579 1.82567 0 -1.77842 -4.70713 0 0 0 0)
(4.11577 3.60257 0 -1.06701 -4.12355 0 0 0 0)
(2.76455 5.13273 0 -0.43313 -2.93923 0 0 0 0)
(1.3184 6.08932 0 -0.078855 -1.15492 0 0 0 0)
(-1.53254 8.29988 0 -0.077153 1.34699 0 0 0 0)
(-3.09513 6.46708 0 -0.39865 3.29822 0 0 0 0)
(-4.50554 4.2697 0 -0.94635 4.51227 0 0 0 0)
(-5.08247 2.03024 0 -1.53671 5.06901 0 0 0 0)
(-5.08743 -0.0435 0 -2.06398 5.0871 0 0 0 0)
(-4.68939 -1.84218 0 -2.48929 4.68993 0 0 0 0)
(-3.9882 -3.31519 0 -2.8088 3.98776 0 0 0 0)
(-3.0699 -4.44742 0 -3.0395 3.06968 0 0 0 0)
(-2.0034 -5.2393 0 -3.2052 2.00353 0 0 0 0)
(-0.8397 -5.69074 0 -3.3262 0.84022 0 0 0 0)
(0.3797 -5.79152 0 -3.4105 -0.37883 0 0 0 0)
(1.6134 -5.51826 0 -3.4503 -1.6124 0 0 0 0)
(2.8102 -4.83814 0 -3.4211 -2.80937 0 0 0 0)
(3.8988 -3.7199 0 -3.2855 -3.8987 0 0 0 0)
(4.77949 -2.15235 0 -3.00365 -4.78153 0 0 0 0)
(5.32725 -0.17 0 -2.54825 -5.32959 0 0 0 0)
(5.40283 2.1218 0 -1.92482 -5.39232 0 0 0 0)
(4.80855 4.52648 0 -1.19215 -4.81926 0 0 0 0)
(3.28224 6.73038 0 -0.50042 -3.49559 0 0 0 0)
(1.59124 8.32294 0 -0.095458 -1.39381 0 0 0 0)
(-1.78198 10.7906 0 -0.090757 1.56645 0 0 0 0)
(-3.54032 8.14112 0 -0.44409 3.77881 0 0 0 0)
(-5.07406 5.17945 0 -1.00896 5.08254 0 0 0 0)
(-5.62124 2.2962 0 -1.56758 5.6049 0 0 0 0)
(-5.52513 -0.2776 0 -2.00839 5.5235 0 0 0 0)
(-5.01167 -2.4416 0 -2.3077 5.0111 0 0 0 0)
(-4.2114 -4.16931 0 -2.4856 4.20968 0 0 0 0)
(-3.2244 -5.47367 0 -2.5842 3.22289 0 0 0 0)
(-2.1194 -6.37968 0 -2.6499 2.11858 0 0 0 0)
(-0.9371 -6.90439 0 -2.7197 0.93697 0 0 0 0)
(0.2985 -7.04455 0 -2.812 -0.2979 0 0 0 0)
(1.5663 -6.77204 0 -2.921 -1.56519 0 0 0 0)
(2.8341 -6.03686 0 -3.015 -2.83274 0 0 0 0)
(4.0424 -4.7788 0 -3.0395 -4.04155 0 0 0 0)
(5.0896 -2.9505 0 -2.9272 -5.0911 0 0 0 0)
(5.82822 -0.5506 0 -2.61619 -5.8301 0 0 0 0)
(6.07189 2.336 0 -2.07744 -6.0589 0 0 0 0)
(5.54017 5.4993 0 -1.34873 -5.5544 0 0 0 0)
(3.86124 8.55818 0 -0.59427 -4.12098 0 0 0 0)
(1.91428 10.9787 0 -0.12072 -1.67696 0 0 0 0)
(-2.06738 13.6451 0 -0.113228 1.81814 0 0 0 0)
(-4.01333 9.98317 0 -0.5138 4.29365 0 0 0 0)
(-5.62903 6.09579 0 -1.09315 5.6395 0 0 0 0)
(-6.0819 2.4712 0 -1.58374 6.0616 0 0 0 0)
(-5.82755 -0.6373 0 -1.87257 5.8239 0 0 0 0)
(-5.1666 -3.156 0 -1.9646 5.1641 0 0 0 0)
(-4.2647 -5.1034 0 -1.9177 4.261 0 0 0 0)
(-3.2342 -6.53852 0 -1.8095 3.23111 0 0 0 0)
(-2.1389 -7.52522 0 -1.7158 2.13678 0 0 0 0)
(-1.0018 -8.10722 0 -1.6952 1.00075 0 0 0 0)
(0.1784 -8.29368 0 -1.7797 -0.17839 0 0 0 0)
(1.4104 -8.0531 0 -1.9686 -1.40935 0 0 0 0)
(2.6917 -7.3145 0 -2.2252 -2.6897 0 0 0 0)
(3.9866 -5.97826 0 -2.4775 -3.9846 0 0 0 0)
(5.2028 -3.9409 0 -2.6252 -5.2034 0 0 0 0)
(6.17701 -1.1378 0 -2.5593 -6.1777 0 0 0 0)
(6.67029 2.3975 0 -2.19543 -6.6537 0 0 0 0)
(6.29172 6.4644 0 -1.52659 -6.3104 0 0 0 0)
(4.51025 10.6078 0 -0.71917 -4.8277 0 0 0 0)
(2.30623 14.1209 0 -0.158082 -2.02147 0 0 0 0)
(-2.409 16.9024 0 -0.151769 2.12113 0 0 0 0)
(-4.52025 11.9625 0 -0.62283 4.85279 0 0 0 0)
(-6.144 6.9474 0 -1.20416 6.1566 0 0 0 0)
(-6.40066 2.4806 0 -1.56194 6.3744 0 0 0 0)
(-5.90599 -1.1751 0 -1.5961 5.8991 0 0 0 0)
(-5.0568 -4.0045 0 -1.3643 5.0515 0 0 0 0)
(-4.0563 -6.1023 0 -0.9803 4.0498 0 0 0 0)
(-3.0225 -7.59789 0 -0.5691 3.017 0 0 0 0)
(-2.0051 -8.61004 0 -0.2412 2.00123 0 0 0 0)
(-1.001 -9.21956 0 -0.0794 0.9987 0 0 0 0)
(0.0251 -9.45465 0 -0.1315 -0.02577 0 0 0 0)
(1.1208 -9.28335 0 -0.4051 -1.11973 0 0 0 0)
(2.3252 -8.61211 0 -0.8635 -2.32246 0 0 0 0)
(3.6424 -7.2925 0 -1.4206 -3.6389 0 0 0 0)
(5.0078 -5.1436 0 -1.9429 -5.0064 0 0 0 0)
(6.25799 -2.0009 0 -2.2627 -6.2563 0 0 0 0)
(7.1046 2.2033 0 -2.21501 -7.0823 0 0 0 0)
(7.01643 7.3253 0 -1.70973 -7.0401 0 0 0 0)
(5.22975 12.8471 0 -0.88489 -5.6208 0 0 0 0)
(2.79153 17.8279 0 -0.21485 -2.45048 0 0 0 0)
(-2.84198 20.6191 0 -0.22076 2.50995 0 0 0 0)
(-5.06573 14.0186 0 -0.79795 5.4669 0 0 0 0)
(-6.56814 7.6174 0 -1.34618 6.5818 0 0 0 0)
(-6.47384 2.2137 0 -1.45701 6.438 0 0 0 0)
(-5.62991 -1.9602 0 -1.0803 5.6174 0 0 0 0)
(-4.5508 -5.0053 0 -0.365 4.5411 0 0 0 0)
(-3.4695 -7.1379 0 0.4952 3.4594 0 0 0 0)
(-2.4951 -8.58709 0 1.3204 2.4869 0 0 0 0)
(-1.6492 -9.54352 0 1.9647 1.6434 0 0 0 0)
(-0.8921 -10.1342 0 2.3243 0.88849 0 0 0 0)
(-0.1473 -10.4121 0 2.3373 0.14606 0 0 0 0)
(0.6784 -10.3498 0 1.9845 -0.67704 0 0 0 0)
(1.6762 -9.83367 0 1.2954 -1.6719 0 0 0 0)
(2.9072 -8.6622 0 0.3588 -2.9009 0 0 0 0)
(4.3607 -6.5583 0 -0.667 -4.3557 0 0 0 0)
(5.9049 -3.2137 0 -1.5537 -5.8981 0 0 0 0)
(7.22326 1.6137 0 -2.02929 -7.1904 0 0 0 0)
(7.62184 7.9259 0 -1.86598 -7.6492 0 0 0 0)
(6.00513 15.1974 0 -1.10764 -6.4917 0 0 0 0)
(3.40597 22.1922 0 -0.305074 -2.99997 0 0 0 0)
(-3.42771 24.8793 0 -0.346667 3.04749 0 0 0 0)
(-5.64567 16.0343 0 -1.0788 6.1402 0 0 0 0)
(-6.80306 7.9185 0 -1.5029 6.8127 0 0 0 0)
(-6.13478 1.5162 0 -1.16461 6.0815 0 0 0 0)
(-4.81398 -3.072 0 -0.1452 4.7918 0 0 0 0)
(-3.4813 -6.1625 0 1.2569 3.4652 0 0 0 0)
(-2.3709 -8.1565 0 2.7469 2.3564 0 0 0 0)
(-1.553 -9.41389 0 4.091 1.5423 0 0 0 0)
(-1.0012 -10.2085 0 5.1216 0.99391 0 0 0 0)
(-0.6284 -10.7169 0 5.727 0.62432 0 0 0 0)
(-0.3147 -11.0202 0 5.8395 0.31378 0 0 0 0)
(0.0789 -11.1013 0 5.4283 -0.07638 0 0 0 0)
(0.6995 -10.836 0 4.5051 -0.6927 0 0 0 0)
(1.68 -9.9763 0 3.1406 -1.669 0 0 0 0)
(3.0953 -8.1408 0 1.4926 -3.0835 0 0 0 0)
(4.8957 -4.8356 0 -0.1676 -4.8785 0 0 0 0)
(6.79232 0.4522 0 -1.4498 -6.7399 0 0 0 0)
(7.93808 8.024 0 -1.92021 -7.9633 0 0 0 0)
(6.79065 17.4963 0 -1.40627 -7.4009 0 0 0 0)
(4.20425 27.3196 0 -0.453393 -3.72844 0 0 0 0)
(-4.26745 29.8068 0 -0.571586 3.84073 0 0 0 0)
(-6.22196 17.7838 0 -1.50338 6.8398 0 0 0 0)
(-6.65395 7.5587 0 -1.57883 6.6463 0 0 0 0)
(-5.11614 0.1928 0 -0.43698 5.0345 0 0 0 0)
(-3.2084 -4.5765 0 1.5507 3.1728 0 0 0 0)
(-1.6587 -7.4407 0 3.8668 1.6355 0 0 0 0)
(-0.6354 -9.0608 0 6.11433 0.6174 0 0 0 0)
(-0.1204 -9.94958 0 8.03383 0.1086 0 0 0 0)
(-0.0132 -10.4615 0 9.47026 0.00666 0 0 0 0)
(-0.1742 -10.8143 0 10.3336 0.17158 0 0 0 0)
(-0.446 -11.1128 0 10.5685 0.446986 0 0 0 0)
(-0.656 -11.3563 0 10.1378 0.66104 0 0 0 0)
(-0.6115 -11.4263 0 9.02351 0.6221 0 0 0 0)
(-0.1053 -11.053 0 7.2484 0.1223 0 0 0 0)
(1.0525 -9.7678 0 4.9211 -1.0312 0 0 0 0)
(2.9625 -6.8701 0 2.3013 -2.9294 0 0 0 0)
(5.47065 -1.4711 0 -0.1325 -5.3866 0 0 0 0)
(7.66537 7.2649 0 -1.6873 -7.6727 0 0 0 0)
(7.47195 19.4323 0 -1.77592 -8.2313 0 0 0 0)
(5.26563 33.3215 0 -0.694403 -4.72424 0 0 0 0)
(-5.50268 35.5598 0 -0.935729 5.06125 0 0 0 0)
(-6.65291 18.8399 0 -2.02817 7.4125 0 0 0 0)
(-5.73666 6.1132 0 -1.23738 5.6834 0 0 0 0)
(-3.00525 -1.9573 0 1.29431 2.8867 0 0 0 0)
(-0.5102 -6.471 0 4.64668 0.4644 0 0 0 0)
(1.08233 -8.7179 0 8.05181 -1.1071 0 0 0 0)
(1.79613 -9.6834 0 11.0705 -1.8116 0 0 0 0)
(1.80293 -10.0246 0 13.495 -1.8099 0 0 0 0)
(1.29861 -10.1455 0 15.2468 -1.29968 0 0 0 0)
(0.46981 -10.2766 0 16.3037 -0.46729 0 0 0 0)
(-0.51057 -10.5307 0 16.651 0.515959 0 0 0 0)
(-1.46606 -10.9262 0 16.2564 1.47489 0 0 0 0)
(-2.18987 -11.3747 0 15.065 2.2043 0 0 0 0)
(-2.42241 -11.6296 0 13.0174 2.445 0 0 0 0)
(-1.8518 -11.1925 0 10.1036 1.8823 0 0 0 0)
(-0.1579 -9.191 0 6.46596 0.2087 0 0 0 0)
(2.80372 -4.2911 0 2.55488 -2.6765 0 0 0 0)
(6.29466 5.1793 0 -0.71274 -6.2523 0 0 0 0)
(7.78355 20.4448 0 -2.08399 -8.6917 0 0 0 0)
(6.67457 40.2751 0 -1.04175 -6.1137 0 0 0 0)
(-7.23135 42.2805 0 -1.36823 7.0075 0 0 0 0)
(-6.52361 18.406 0 -2.25149 7.3809 0 0 0 0)
(-3.33147 3.0329 0 0.49642 3.1328 0 0 0 0)
(0.76792 -5.0262 0 5.25503 -0.9693 0 0 0 0)
(3.5491 -8.5703 0 10.2773 -3.6249 0 0 0 0)
(4.76516 -9.7167 0 14.6949 -4.8003 0 0 0 0)
(4.80778 -9.7636 0 18.2182 -4.8235 0 0 0 0)
(4.05583 -9.43766 0 20.8308 -4.0578 0 0 0 0)
(2.79551 -9.11889 0 22.6203 -2.78984 0 0 0 0)
(1.22999 -8.99871 0 23.6833 -1.22037 0 0 0 0)
(-0.49327 -9.17063 0 24.0744 0.50573 0 0 0 0)
(-2.24194 -9.66793 0 23.7826 2.2583 0 0 0 0)
(-3.85054 -10.4562 0 22.7195 3.87437 0 0 0 0)
(-5.0667 -11.375 0 20.7229 5.104 0 0 0 0)
(-5.49893 -12.0041 0 17.5948 5.556 0 0 0 0)
(-4.58624 -11.4289 0 13.2111 4.6863 0 0 0 0)
(-1.70805 -7.9321 0 7.74334 1.9319 0 0 0 0)
(3.0265 1.2497 0 2.05871 -2.8349 0 0 0 0)
(7.14294 19.5709 0 -1.77398 -8.1205 0 0 0 0)
(8.39137 48.1269 0 -1.34819 -8.1028 0 0 0 0)
(-9.1224 49.9482 0 -1.20997 9.8517 0 0 0 0)
(-4.78826 14.9652 0 -0.6077 5.3622 0 0 0 0)
(1.76986 -2.237 0 6.08434 -2.4216 0 0 0 0)
(6.77561 -8.715 0 13.8622 -7.2347 0 0 0 0)
(8.9297 -10.302 0 20.268 -9.1508 0 0 0 0)
(9.02327 -9.9165 0 24.9598 -9.1382 0 0 0 0)
(7.93197 -8.9409 0 28.1794 -7.98904 0 0 0 0)
(6.20505 -7.99097 0 30.2764 -6.22845 0 0 0 0)
(4.1511 -7.30804 0 31.5724 -4.15578 0 0 0 0)
(1.9239 -6.981 0 32.3025 -1.91684 0 0 0 0)
(-0.4112 -7.05205 0 32.5975 0.427944 0 0 0 0)
(-2.821 -7.55756 0 32.4794 2.84938 0 0 0 0)
(-5.2496 -8.52901 0 31.8488 5.29648 0 0 0 0)
(-7.54711 -9.94797 0 30.4638 7.62724 0 0 0 0)
(-9.36362 -11.6102 0 27.9257 9.5057 0 0 0 0)
(-10.0094 -12.8151 0 23.7164 10.2692 0 0 0 0)
(-8.34865 -11.8123 0 17.3447 8.836 0 0 0 0)
(-3.22266 -4.8731 0 8.88735 3.8547 0 0 0 0)
(4.37665 15.1769 0 0.86108 -4.9317 0 0 0 0)
(9.79674 56.4984 0 -0.78258 -10.5644 0 0 0 0)
(-9.04902 57.4944 0 3.35328 10.015 0 0 0 0)
(0.7707 6.1327 0 8.55574 -2.2799 0 0 0 0)
(11.1384 -9.564 0 21.2398 -12.039 0 0 0 0)
(14.9516 -11.7554 0 31.2536 -15.1924 0 0 0 0)
(14.6467 -10.4738 0 36.9944 -14.7027 0 0 0 0)
(12.6765 -8.55494 0 39.9144 -12.6603 0 0 0 0)
(10.1244 -6.85385 0 41.2088 -10.081 0 0 0 0)
(7.4489 -5.6044 0 41.6334 -7.40858 0 0 0 0)
(4.8216 -4.80728 0 41.6741 -4.79393 0 0 0 0)
(2.2551 -4.41499 0 41.6255 -2.24068 0 0 0 0)
(-0.3164 -4.40441 0 41.6436 0.317757 0 0 0 0)
(-2.9907 -4.79939 0 41.7757 2.97835 0 0 0 0)
(-5.8661 -5.67832 0 41.9574 5.84001 0 0 0 0)
(-8.9898 -7.16578 0 41.9692 8.95839 0 0 0 0)
(-12.2463 -9.36214 0 41.3513 12.2467 0 0 0 0)
(-15.1672 -12.0986 0 39.273 15.2637 0 0 0 0)
(-16.5371 -14.3466 0 34.3006 16.8137 0 0 0 0)
(-13.4571 -12.518 0 24.5096 14.3758 0 0 0 0)
(-2.52699 5.1518 0 11.1227 4.4954 0 0 0 0)
(8.31287 63.623 0 4.63424 -9.162 0 0 0 0)
(2.78662 57.6833 0 32.9253 -9.3085 0 0 0 0)
(13.0983 -7.0888 0 45.7113 -20.8265 0 0 0 0)
(24.4677 -15.1495 0 57.9362 -22.4414 0 0 0 0)
(22.5302 -11.3787 0 62.3944 -19.6405 0 0 0 0)
(17.5905 -7.76993 0 61.6315 -15.7377 0 0 0 0)
(13.2376 -5.29485 0 59.0144 -12.0148 0 0 0 0)
(9.651 -3.68915 0 56.1147 -8.81872 0 0 0 0)
(6.6704 -2.70387 0 53.5702 -6.13421 0 0 0 0)
(4.1432 -2.14014 0 51.6558 -3.83284 0 0 0 0)
(1.8934 -1.86932 0 50.4902 -1.76294 0 0 0 0)
(-0.261 -1.83302 0 50.1288 0.229488 0 0 0 0)
(-2.5072 -2.0353 0 50.6077 2.30503 0 0 0 0)
(-5.0561 -2.54897 0 51.9528 4.64496 0 0 0 0)
(-8.1532 -3.54126 0 54.1496 7.46245 0 0 0 0)
(-12.0598 -5.30491 0 57.0504 10.9914 0 0 0 0)
(-17.0601 -8.24812 0 60.1439 15.3897 0 0 0 0)
(-23.1121 -12.7002 0 61.9207 20.4149 0 0 0 0)
(-26.4005 -17.1914 0 58.7141 24.6476 0 0 0 0)
(-15.4987 -8.3609 0 47.0496 24.0744 0 0 0 0)
(-5.96023 61.165 0 33.7278 11.815 0 0 0 0)
(69.5876 27.3594 0 169.231 -42.7952 0 0 0 0)
(25.7816 -7.00015 0 158.394 -42.2475 0 0 0 0)
(27.8215 -8.37797 0 130.351 -28.7062 0 0 0 0)
(18.6469 -5.05174 0 106.105 -18.72 0 0 0 0)
(11.2667 -2.84811 0 89.1743 -12.2758 0 0 0 0)
(7.1597 -1.63597 0 77.2481 -8.10199 0 0 0 0)
(4.6802 -0.973276 0 68.777 -5.34501 0 0 0 0)
(2.99 -0.618518 0 62.9169 -3.43956 0 0 0 0)
(1.7416 -0.436009 0 59.1166 -2.02262 0 0 0 0)
(0.7281 -0.352658 0 57.0321 -0.863416 0 0 0 0)
(-0.1989 -0.336444 0 56.4951 0.199356 0 0 0 0)
(-1.1667 -0.38392 0 57.492 1.30605 0 0 0 0)
(-2.3242 -0.520902 0 60.169 2.61858 0 0 0 0)
(-3.8922 -0.819371 0 64.8723 4.37592 0 0 0 0)
(-6.252 -1.43488 0 72.2144 6.97921 0 0 0 0)
(-10.297 -2.67506 0 83.1841 11.1157 0 0 0 0)
(-17.9669 -5.08872 0 99.5715 17.9024 0 0 0 0)
(-28.3281 -8.85851 0 124.263 28.9046 0 0 0 0)
(-27.5133 -7.68079 0 154.3 43.9523 0 0 0 0)
(-72.4646 27.7336 0 167.275 44.9463 0 0 0 0)
)
;

boundaryField
{
    movingWall
    {
        type            extrapolatedCalculated;
        value           nonuniform List<tensor> 
20
(
(69.5876 27.3594 0 280.158 -58.4364 0 0 0 0)
(25.7816 -7.00015 0 241.491 -51.0012 0 0 0 0)
(27.8215 -8.37797 0 177.032 -30.4358 0 0 0 0)
(18.6469 -5.05174 0 130.205 -17.4893 0 0 0 0)
(11.2667 -2.84811 0 102.444 -10.2288 0 0 0 0)
(7.1597 -1.63597 0 85.1384 -6.09688 0 0 0 0)
(4.6802 -0.973276 0 73.8056 -3.68495 0 0 0 0)
(2.99 -0.618518 0 66.4176 -2.20378 0 0 0 0)
(1.7416 -0.436009 0 61.8456 -1.21088 0 0 0 0)
(0.7281 -0.352658 0 59.4512 -0.45974 0 0 0 0)
(-0.1989 -0.336444 0 58.9332 0.199758 0 0 0 0)
(-1.1667 -0.38392 0 60.2468 0.886036 0 0 0 0)
(-2.3242 -0.520902 0 63.6 1.73544 0 0 0 0)
(-3.8922 -0.819371 0 69.5436 2.96964 0 0 0 0)
(-6.252 -1.43488 0 79.1688 5.01292 0 0 0 0)
(-10.297 -2.67506 0 94.5516 8.70916 0 0 0 0)
(-17.9669 -5.08872 0 120.357 15.7132 0 0 0 0)
(-28.3281 -8.85851 0 166.419 29.064 0 0 0 0)
(-27.5133 -7.68079 0 233.669 51.1472 0 0 0 0)
(-72.4646 27.7336 0 276.472 59.7872 0 0 0 0)
)
;
    }
    fixedWalls
    {
        type            extrapolatedCalculated;
        value           nonuniform List<tensor> 
60
(
(0.101362 -0.100182 0 0.017593 -0.041985 0 0 0 0)
(-0.03099 -0.0677576 0 -0.0782053 0.134214 0 0 0 0)
(-0.211459 0.436672 0 -0.085082 0.364946 0 0 0 0)
(-0.371318 1.39203 0 -0.0750372 0.578656 0 0 0 0)
(-0.511608 2.7513 0 -0.0679325 0.773623 0 0 0 0)
(-0.643048 4.48652 0 -0.066111 0.959966 0 0 0 0)
(-0.776052 6.59116 0 -0.069246 1.14795 0 0 0 0)
(-0.920032 9.07832 0 -0.077153 1.34699 0 0 0 0)
(-1.08466 11.9791 0 -0.090757 1.56645 0 0 0 0)
(-1.28306 15.3441 0 -0.113228 1.81814 0 0 0 0)
(-1.53758 19.2517 0 -0.151769 2.12113 0 0 0 0)
(-1.89014 23.8286 0 -0.22076 2.50995 0 0 0 0)
(-2.42062 29.2915 0 -0.346667 3.04749 0 0 0 0)
(-3.2768 36.0186 0 -0.571586 3.84073 0 0 0 0)
(-4.70696 44.6544 0 -0.935729 5.06125 0 0 0 0)
(-7.01972 56.2636 0 -1.36823 7.0075 0 0 0 0)
(-10.1799 72.6844 0 -1.20997 9.8517 0 0 0 0)
(-11.8596 95.6704 0 3.35328 10.015 0 0 0 0)
(3.23323 112.744 0 32.9253 -9.3085 0 0 0 0)
(119.842 58.4364 0 169.231 -42.7952 0 0 0 0)
(-0.10715 -0.10496 0 0.0225298 0.0489882 0 0 0 0)
(0.0170309 -0.0909924 0 -0.0744746 -0.121127 0 0 0 0)
(0.190748 0.379549 0 -0.0819074 -0.345252 0 0 0 0)
(0.34466 1.29002 0 -0.0726869 -0.554961 0 0 0 0)
(0.481496 2.59939 0 -0.0676169 -0.750396 0 0 0 0)
(0.615128 4.2916 0 -0.069639 -0.945362 0 0 0 0)
(0.760052 6.38084 0 -0.078855 -1.15492 0 0 0 0)
(0.930548 8.91128 0 -0.095458 -1.39381 0 0 0 0)
(1.14188 11.9561 0 -0.12072 -1.67696 0 0 0 0)
(1.41343 15.6191 0 -0.158082 -2.02147 0 0 0 0)
(1.77421 20.042 0 -0.21485 -2.45048 0 0 0 0)
(2.27283 25.421 0 -0.305074 -2.99997 0 0 0 0)
(2.99451 32.0418 0 -0.453393 -3.72844 0 0 0 0)
(4.0864 40.3348 0 -0.694403 -4.72424 0 0 0 0)
(5.77212 50.9388 0 -1.04175 -6.1137 0 0 0 0)
(8.2534 64.7896 0 -1.34819 -8.1028 0 0 0 0)
(11.1649 83.35 0 -0.78258 -10.5644 0 0 0 0)
(11.3837 107.047 0 4.63424 -9.162 0 0 0 0)
(-7.37208 119.998 0 33.7278 11.815 0 0 0 0)
(-123.528 59.7872 0 167.275 44.9463 0 0 0 0)
(0.0394611 -0.0139032 0 0.101362 -0.100182 0 0 0 0)
(-0.143044 0.0815079 0 0.0564824 0.0445696 0 0 0 0)
(-0.362249 0.0773596 0 -0.470816 0.225849 0 0 0 0)
(-0.520076 0.0481127 0 -1.39251 0.354008 0 0 0 0)
(-0.598868 0.017677 0 -2.55112 0.4183 0 0 0 0)
(-0.60258 -0.0087858 0 -3.78798 0.424716 0 0 0 0)
(-0.541574 -0.0301318 0 -4.96144 0.383157 0 0 0 0)
(-0.42868 -0.0463227 0 -5.95428 0.304189 0 0 0 0)
(-0.27736 -0.0575906 0 -6.67616 0.197866 0 0 0 0)
(-0.10127 -0.0639945 0 -7.06372 0.0738264 0 0 0 0)
(0.08533 -0.0652959 0 -7.08124 -0.058112 0 0 0 0)
(0.26722 -0.0610174 0 -6.7224 -0.187357 0 0 0 0)
(0.42802 -0.0505922 0 -6.01236 -0.302182 0 0 0 0)
(0.550402 -0.0335796 0 -5.01032 -0.389726 0 0 0 0)
(0.617052 -0.0099745 0 -3.81075 -0.4365 0 0 0 0)
(0.612609 0.0193083 0 -2.54211 -0.429624 0 0 0 0)
(0.526881 0.0517645 0 -1.36032 -0.359267 0 0 0 0)
(0.359724 0.08078 0 -0.434588 -0.222566 0 0 0 0)
(0.135435 0.0818816 0 0.078578 -0.0361467 0 0 0 0)
(-0.046432 -0.0172034 0 0.10715 0.10496 0 0 0 0)
)
;
    }
    frontAndBack
    {
        type            empty;
    }
}


// ************************************************************************* //
