#           y            Uy
         0.05             0
         0.05     0.0154278
         0.05     0.0308556
         0.05     0.0462834
         0.05     0.0617112
         0.05     0.0769218
         0.05     0.0880053
         0.05     0.0990887
         0.05      0.110172
         0.05      0.121256
         0.05      0.131889
         0.05      0.138477
         0.05      0.145064
         0.05      0.151651
         0.05      0.158239
         0.05      0.164213
         0.05      0.166714
         0.05      0.169215
         0.05      0.171716
         0.05      0.174217
         0.05      0.176034
         0.05      0.175119
         0.05      0.174203
         0.05      0.173288
         0.05      0.172373
         0.05      0.170782
         0.05      0.167166
         0.05      0.163549
         0.05      0.159933
         0.05      0.156317
         0.05      0.152087
         0.05      0.146428
         0.05      0.140769
         0.05      0.135109
         0.05       0.12945
         0.05      0.123273
         0.05      0.116133
         0.05      0.108994
         0.05      0.101854
         0.05     0.0947149
         0.05     0.0871717
         0.05     0.0790228
         0.05     0.0708738
         0.05     0.0627249
         0.05      0.054576
         0.05     0.0461562
         0.05     0.0374055
         0.05     0.0286548
         0.05     0.0199041
         0.05     0.0111534
         0.05    0.00229622
         0.05    -0.0066674
         0.05     -0.015631
         0.05    -0.0245946
         0.05    -0.0335583
         0.05    -0.0424075
         0.05    -0.0511631
         0.05    -0.0599187
         0.05    -0.0686744
         0.05      -0.07743
         0.05    -0.0857584
         0.05    -0.0938021
         0.05     -0.101846
         0.05     -0.109889
         0.05     -0.117933
         0.05     -0.125105
         0.05     -0.131807
         0.05     -0.138509
         0.05     -0.145212
         0.05     -0.151914
         0.05     -0.157136
         0.05     -0.161724
         0.05     -0.166312
         0.05     -0.170901
         0.05     -0.175489
         0.05     -0.177825
         0.05      -0.17941
         0.05     -0.180995
         0.05      -0.18258
         0.05     -0.184166
         0.05     -0.182624
         0.05       -0.1803
         0.05     -0.177977
         0.05     -0.175653
         0.05      -0.17333
         0.05     -0.167061
         0.05     -0.160097
         0.05     -0.153133
         0.05     -0.146168
         0.05     -0.139204
         0.05     -0.127846
         0.05     -0.116001
         0.05     -0.104155
         0.05     -0.092309
         0.05    -0.0804632
         0.05    -0.0645422
         0.05    -0.0484066
         0.05    -0.0322711
         0.05    -0.0161355
         0.05             0