/*--------------------------------*- C++ -*----------------------------------*\
  =========                 |
  \\      /  F ield         | OpenFOAM: The Open Source CFD Toolbox
   \\    /   O peration     | Website:  https://openfoam.org
    \\  /    A nd           | Version:  dev
     \\/     M anipulation  |
\*---------------------------------------------------------------------------*/
FoamFile
{
    format      ascii;
    class       volScalarField;
    location    "39.15";
    object      p;
}
// * * * * * * * * * * * * * * * * * * * * * * * * * * * * * * * * * * * * * //

dimensions      [0 2 -2 0 0 0 0];

internalField   nonuniform List<scalar> 
5184
(
1.6097e-06
-9.82984e-06
-9.56927e-05
-0.000248604
-0.000448063
-0.000676788
-0.000920546
-0.00116736
-0.00140809
-0.00163558
-0.00184441
-0.00203056
-0.0021911
-0.00232392
-0.00242755
-0.00250098
-0.00254353
-0.00255479
-0.00253445
-0.00248236
-0.00239843
-0.00228265
-0.00213506
-0.00195581
-0.00174512
-0.00150338
-0.00123112
-0.00092911
-0.000598325
-0.000240041
0.000144156
0.00055234
0.00098222
0.00143112
0.00189598
0.00237335
0.00285942
0.00335001
0.00384065
0.0043266
0.00480291
0.00526452
0.00570628
0.00612312
0.00651009
0.00686247
0.0071759
0.00744645
0.00767074
0.00784604
0.00797035
0.00804244
0.00806198
0.00802954
0.0079466
0.00781563
0.00764
0.00742405
0.00717298
0.00689285
0.00659053
0.00627363
0.00595046
0.00562998
0.00532175
0.00503586
0.00478281
0.00457322
0.00441706
0.00432278
0.00429587
0.00432317
1.52473e-05
2.79951e-06
-7.18006e-05
-0.000199594
-0.000364892
-0.000555217
-0.000759639
-0.000968551
-0.00117403
-0.00136967
-0.00155044
-0.00171242
-0.00185264
-0.00196887
-0.00205947
-0.00212324
-0.00215932
-0.00216711
-0.00214618
-0.00209624
-0.00201712
-0.00190872
-0.00177107
-0.00160425
-0.00140851
-0.0011842
-0.000931845
-0.000652185
-0.000346176
-1.50361e-05
0.000339729
0.000716302
0.00111253
0.00152593
0.00195365
0.00239251
0.00283899
0.00328927
0.00373926
0.00418463
0.00462087
0.0050434
0.00544756
0.00582877
0.00618257
0.00650473
0.00679136
0.00703896
0.00724456
0.00740577
0.00752086
0.00758885
0.00760954
0.00758354
0.00751234
0.00739827
0.00724451
0.00705507
0.00683476
0.00658912
0.00632442
0.00604752
0.00576588
0.00548741
0.00522043
0.00497351
0.00475533
0.00457426
0.0044376
0.00435129
0.00432273
0.00435036
0.00010197
7.7256e-05
1.90627e-06
-0.000115663
-0.000263413
-0.000431707
-0.000611833
-0.000795955
-0.00097737
-0.00115052
-0.00131089
-0.0014549
-0.00157974
-0.00168322
-0.00176372
-0.00181998
-0.00185108
-0.00185632
-0.00183522
-0.00178741
-0.00171264
-0.00161078
-0.00148179
-0.00132572
-0.00114278
-0.00093328
-0.000697714
-0.00043676
-0.000151318
0.000157471
0.000488194
0.000839149
0.00120833
0.00159339
0.0019917
0.00240029
0.00281587
0.0032349
0.00365356
0.00406784
0.00447357
0.00486648
0.00524227
0.00559671
0.00592568
0.00622528
0.00649193
0.00672243
0.00691406
0.00706467
0.00717271
0.00723733
0.00725842
0.00723663
0.00717339
0.00707096
0.00693233
0.00676128
0.0065623
0.00634055
0.0061018
0.00585235
0.00559896
0.00534874
0.00510908
0.00488741
0.00469125
0.00452762
0.00440258
0.00432134
0.00429355
0.00432421
0.000257049
0.000205644
0.000117829
-1.14995e-06
-0.000143624
-0.000301813
-0.000468589
-0.000637582
-0.00080325
-0.000960903
-0.00110667
-0.00123741
-0.00135062
-0.00144434
-0.00151703
-0.00156751
-0.00159488
-0.00159845
-0.0015777
-0.00153222
-0.00146173
-0.00136605
-0.0012451
-0.00109887
-0.000927508
-0.000731275
-0.000510595
-0.000266073
1.47687e-06
0.00029101
0.000601223
0.000930538
0.00127708
0.00163869
0.00201287
0.00239685
0.00278755
0.00318162
0.0035755
0.00396539
0.00434735
0.00471737
0.00507138
0.00540539
0.00571549
0.00599802
0.00624959
0.00646719
0.00664826
0.00679077
0.0068933
0.00695506
0.00697598
0.00695671
0.00689864
0.00680393
0.00667545
0.00651678
0.00633216
0.00612644
0.005905
0.00567368
0.0054387
0.00520655
0.00498389
0.00477739
0.00459366
0.00443899
0.0043188
0.00423815
0.00420711
0.00423239
0.000461857
0.000373252
0.000264642
0.000136919
-7.46988e-06
-0.000162357
-0.000321971
-0.000481309
-0.000635959
-0.000782121
-0.000916614
-0.00103683
-0.00114064
-0.00122638
-0.0012927
-0.00133856
-0.00136312
-0.00136574
-0.0013459
-0.0013032
-0.00123732
-0.00114804
-0.00103522
-0.000898806
-0.000738869
-0.000555596
-0.000349324
-0.000120565
0.000129972
0.000401355
0.000692408
0.00100169
0.00132747
0.00166774
0.00202018
0.00238218
0.00275086
0.00312306
0.00349538
0.00386424
0.00422589
0.00457648
0.00491215
0.00522906
0.00552348
0.00579189
0.00603104
0.00623803
0.00641041
0.00654623
0.00664411
0.00670331
0.00672376
0.00670609
0.00665164
0.00656248
0.00644135
0.00629166
0.00611744
0.00592326
0.00571417
0.00549564
0.0052734
0.00505341
0.00484173
0.00464439
0.00446729
0.00431606
0.00419567
0.00411087
0.00407047
0.00408033
0.000700229
0.000568196
0.000433015
0.000290952
0.000138995
-1.80824e-05
-0.000175674
-0.000330035
-0.000477832
-0.000616137
-0.000742477
-0.000854804
-0.000951447
-0.00103105
-0.00109254
-0.00113503
-0.00115782
-0.00116033
-0.00114208
-0.00110269
-0.00104181
-0.000959191
-0.000854638
-0.000728038
-0.000579375
-0.000408747
-0.000216392
-2.7105e-06
0.000231708
0.00048606
0.000759308
0.00105015
0.00135702
0.00167805
0.0020111
0.00235371
0.00270316
0.00305646
0.00341037
0.00376145
0.00410611
0.00444065
0.0047613
0.00506437
0.00534621
0.00560339
0.00583274
0.00603141
0.006197
0.00632758
0.00642179
0.00647888
0.00649876
0.00648201
0.00642991
0.00634442
0.00622819
0.00608448
0.00591711
0.00573045
0.00552926
0.00531867
0.00510404
0.00489088
0.00468475
0.00449114
0.00431537
0.0041625
0.0040371
0.00394356
0.00388837
0.00387531
0.000958377
0.000779599
0.000614041
0.000453475
0.00028953
0.000125811
-3.40569e-05
-0.000187474
-0.000332105
-0.000465862
-0.000586972
-0.000693964
-0.000785631
-0.000860988
-0.000919234
-0.000959708
-0.000981854
-0.000985196
-0.000969315
-0.000933837
-0.000878426
-0.000802787
-0.000706674
-0.000589902
-0.000452367
-0.000294066
-0.000115123
8.41844e-05
0.000303402
0.000541867
0.000798687
0.00107272
0.00136254
0.00166644
0.00198244
0.00230823
0.00264123
0.00297859
0.0033172
0.00365375
0.00398473
0.00430654
0.00461551
0.00490797
0.00518034
0.00542922
0.00565144
0.00584417
0.00600497
0.00613192
0.0062236
0.00627923
0.00629865
0.00628238
0.00623163
0.00614827
0.00603482
0.00589441
0.00573073
0.00554793
0.00535056
0.00514348
0.00493174
0.0047205
0.00451491
0.00432003
0.00414071
0.00398152
0.0038467
0.00374029
0.00366598
0.00362498
0.00122417
0.000997317
0.000799123
0.000617199
0.000438058
0.000264341
9.88388e-05
-5.68778e-05
-0.0002014
-0.00033343
-0.000451873
-0.000555826
-0.000644556
-0.000717459
-0.000774036
-0.000813856
-0.000836534
-0.000841711
-0.000829038
-0.000798172
-0.000748776
-0.000680522
-0.000593109
-0.000486274
-0.000359816
-0.000213622
-4.76905e-05
0.000137838
0.000342653
0.000566244
0.000807873
0.00106655
0.00134102
0.00162972
0.00193082
0.00224215
0.00256127
0.00288544
0.00321165
0.00353667
0.00385708
0.00416931
0.00446972
0.00475467
0.00502057
0.00526398
0.0054817
0.00567086
0.00582894
0.00595395
0.00604441
0.00609943
0.00611878
0.00610288
0.00605286
0.00597047
0.00585813
0.00571886
0.0055562
0.00537415
0.0051771
0.00496969
0.00475673
0.0045431
0.00433366
0.00413311
0.00394593
0.00377629
0.00362821
0.00350541
0.00340864
0.00333647
0.00148735
0.0012122
0.0009802
0.000775084
0.000578525
0.000392358
0.000218667
5.80921e-05
-8.88088e-05
-0.000221479
-0.000339467
-0.000442425
-0.000530083
-0.000602221
-0.000658646
-0.000699166
-0.000723575
-0.000731637
-0.00072308
-0.000697598
-0.000654851
-0.000594479
-0.000516121
-0.000419431
-0.000304104
-0.000169905
-1.66981e-05
0.000155524
0.000346603
0.000556191
0.000783712
0.00102834
0.00128898
0.00156423
0.00185238
0.00215142
0.00245902
0.00277253
0.00308903
0.00340535
0.0037181
0.00402374
0.00431861
0.00459903
0.00486137
0.00510212
0.00531799
0.00550599
0.00566352
0.00578845
0.00587917
0.00593469
0.00595465
0.00593935
0.00588979
0.00580764
0.0056952
0.00555536
0.00539157
0.0052077
0.005008
0.00479695
0.00457921
0.00435944
0.00414228
0.00393219
0.00373337
0.00354969
0.00338503
0.00324291
0.00312115
0.00301582
0.00173893
0.00141598
0.00114977
0.0009204
0.000704959
0.000504608
0.000320823
0.000153402
2.11729e-06
-0.000133164
-0.0002526
-0.000356372
-0.000444659
-0.000517614
-0.000575346
-0.000617901
-0.000645252
-0.000657287
-0.000653813
-0.000634555
-0.000599173
-0.00054727
-0.00047842
-0.000392184
-0.000288148
-0.000165946
-2.52965e-05
0.000133963
0.000311839
0.000508153
0.0007225
0.000954224
0.00120239
0.00146575
0.00174275
0.00203148
0.00232974
0.00263496
0.00294428
0.00325458
0.00356246
0.00386438
0.00415662
0.00443545
0.00469713
0.00493804
0.00515475
0.00534414
0.00550342
0.00563032
0.00572305
0.00578045
0.00580201
0.00578789
0.00573895
0.00565671
0.00554338
0.00540174
0.00523513
0.00504733
0.00484249
0.00462499
0.00439937
0.00417019
0.00394192
0.00371888
0.00350509
0.0033042
0.00312009
0.00295618
0.00280752
0.0026678
0.00197097
0.00160116
0.00130086
0.00104674
0.000811538
0.000595837
0.000400585
0.000224805
6.75428e-05
-7.19772e-05
-0.000194485
-0.000300665
-0.000391122
-0.000466368
-0.000526803
-0.000572703
-0.000604213
-0.00062134
-0.000623965
-0.000611842
-0.000584621
-0.000541866
-0.000483075
-0.000407715
-0.000315247
-0.000205169
-7.70433e-05
6.94573e-05
0.000234515
0.000418128
0.00062007
0.000839862
0.00107673
0.0013296
0.00159704
0.00187729
0.00216821
0.00246735
0.00277188
0.00307869
0.00338439
0.00368537
0.00397786
0.00425801
0.00452196
0.00476591
0.00498628
0.00517972
0.00534327
0.00547441
0.00557116
0.00563215
0.00565667
0.00564468
0.00559689
0.00551467
0.0054001
0.00525586
0.0050852
0.00489183
0.00467981
0.0044535
0.00421736
0.00397589
0.00373353
0.00349452
0.00326279
0.00304192
0.00283583
0.00264803
0.00247094
0.00229601
0.00217631
0.00176085
0.00142695
0.001148
0.000892611
0.000660846
0.000453178
0.000267917
0.000103431
-4.16577e-05
-0.000168618
-0.000278603
-0.000372626
-0.000451536
-0.000516009
-0.000566537
-0.000603425
-0.000626792
-0.000636581
-0.00063257
-0.000614391
-0.000581558
-0.000533489
-0.000469543
-0.000389052
-0.000291364
-0.000175877
-4.2088e-05
0.000110369
0.00028168
0.000471809
0.000680456
0.000907028
0.0011506
0.0014099
0.00168329
0.00196872
0.00226382
0.00256579
0.00287154
0.00317764
0.00348041
0.003776
0.0040604
0.00432958
0.00457957
0.00480654
0.0050069
0.00517745
0.00531539
0.00541849
0.00548511
0.00551431
0.00550582
0.00546015
0.0053785
0.0052628
0.00511562
0.00494012
0.00473996
0.00451918
0.00428209
0.00403318
0.00377696
0.00351789
0.00326022
0.00300791
0.00276453
0.00253423
0.00232067
0.00211382
0.00190301
0.00234842
0.00188867
0.00152191
0.00121837
0.000942707
0.00069451
0.00047382
0.000278273
0.000105602
-4.61378e-05
-0.00017872
-0.000293743
-0.0003926
-0.000476456
-0.000546244
-0.000602657
-0.000646147
-0.00067693
-0.000695001
-0.000700149
-0.000691981
-0.00066995
-0.000633382
-0.000581519
-0.000513556
-0.000428677
-0.000326109
-0.00020516
-6.52692e-05
9.39481e-05
0.000272653
0.000470742
0.000687803
0.000923085
0.00117546
0.00144342
0.00172503
0.00201796
0.00231948
0.00262647
0.00293547
0.00324272
0.00354423
0.00383584
0.00411332
0.00437244
0.00460913
0.00481951
0.00500005
0.00514767
0.00525979
0.00533449
0.0053705
0.00536732
0.00532518
0.00524511
0.00512884
0.00497885
0.00479819
0.00459047
0.00435973
0.00411032
0.00384677
0.00357367
0.00329557
0.00301685
0.00274156
0.0024734
0.00221681
0.00197575
0.00173785
0.00149044
0.0024812
0.00197867
0.00157997
0.0012523
0.000956537
0.000691813
0.000457758
0.000251373
6.97852e-05
-8.94834e-05
-0.000228685
-0.000349837
-0.000454686
-0.000544694
-0.00062103
-0.000684569
-0.000735892
-0.0007753
-0.000802826
-0.000818258
-0.000821164
-0.000810924
-0.000786765
-0.0007478
-0.000693072
-0.000621595
-0.000532409
-0.000424623
-0.000297469
-0.000150351
1.71026e-05
0.000204994
0.000413107
0.000640871
0.000887324
0.00115108
0.00143034
0.00172282
0.00202583
0.00233625
0.00265057
0.00296493
0.0032752
0.00357703
0.00386595
0.00413748
0.00438721
0.00461095
0.0048048
0.0049653
0.00508952
0.00517514
0.00522057
0.00522497
0.00518828
0.00511128
0.00499552
0.0048433
0.00465761
0.00444202
0.00420057
0.00393767
0.00365796
0.00336617
0.00306701
0.00276508
0.00246461
0.00216953
0.00188469
0.00161443
0.00134415
0.00105923
0.00256892
0.0020252
0.00159563
0.00124449
0.000928995
0.000647854
0.0004003
0.000182722
-8.32838e-06
-0.000175842
-0.000322522
-0.000450779
-0.000562693
-0.000659998
-0.000744081
-0.000815978
-0.000876384
-0.000925667
-0.000963884
-0.000990806
-0.00100595
-0.00100862
-0.000997916
-0.00097282
-0.000932209
-0.000874915
-0.000799778
-0.000705695
-0.000591676
-0.000456901
-0.000300773
-0.000122968
7.65096e-05
0.000297284
0.00053857
0.000799134
0.00107728
0.00137083
0.00167712
0.00199303
0.002315
0.00263907
0.00296093
0.00327605
0.00357968
0.00386705
0.00413338
0.0043741
0.0045849
0.00476189
0.00490169
0.00500158
0.00505951
0.00507428
0.00504548
0.00497359
0.00485992
0.0047066
0.00451651
0.00429318
0.00404068
0.00376351
0.00346647
0.00315447
0.0028325
0.0025054
0.00217771
0.00185366
0.00153863
0.00123745
0.000933314
0.0006097
0.00260619
0.00202296
0.0015637
0.00118987
0.000855161
0.000557872
0.000296846
6.7874e-05
-0.000133046
-0.000309393
-0.000464302
-0.000600554
-0.000720539
-0.000826245
-0.000919253
-0.00100074
-0.00107151
-0.00113197
-0.00118218
-0.0012219
-0.00125056
-0.00126738
-0.00127134
-0.00126126
-0.00123584
-0.00119372
-0.00113352
-0.00105392
-0.00095369
-0.000831767
-0.000687309
-0.000519757
-0.000328883
-0.000114848
0.000121757
0.000379869
0.000657926
0.000953847
0.00126503
0.00158834
0.00192019
0.00225649
0.00259279
0.00292431
0.00324604
0.00355285
0.00383958
0.00410122
0.00433298
0.00453048
0.00468984
0.00480782
0.0048819
0.0049104
0.00489251
0.00482834
0.00471892
0.00456617
0.00437283
0.00414238
0.00387895
0.00358714
0.00327193
0.00293852
0.00259219
0.00223815
0.00188131
0.00152631
0.00117913
0.00084522
0.000505557
0.0001417
0.00258784
0.00196688
0.00147921
0.00108358
0.000730303
0.000417262
0.000142907
-9.75427e-05
-0.000308631
-0.000494306
-0.000658114
-0.000803187
-0.000932205
-0.00104739
-0.0011505
-0.00124284
-0.00132528
-0.00139827
-0.00146187
-0.00151578
-0.00155937
-0.00159174
-0.00161173
-0.00161799
-0.00160905
-0.00158332
-0.00153921
-0.00147513
-0.00138962
-0.00128135
-0.00114922
-0.000992394
-0.000810405
-0.00060317
-0.000371062
-0.000114951
0.00016376
0.000463109
0.000780564
0.00111302
0.00145684
0.00180783
0.00216139
0.00251249
0.00285581
0.00318585
0.00349703
0.00378384
0.00404097
0.00426346
0.00444685
0.00458732
0.00468177
0.00472799
0.00472466
0.00467147
0.0045691
0.00441919
0.00422432
0.00398792
0.00371414
0.00340773
0.0030739
0.00271816
0.00234617
0.00196357
0.00157575
0.00118783
0.000806503
0.000437903
6.07926e-05
-0.000345256
0.00250898
0.00185216
0.00133745
0.000920996
0.000549893
0.000221586
-6.58584e-05
-0.000317787
-0.000539265
-0.000734694
-0.000908015
-0.00106269
-0.00120168
-0.00132741
-0.0014418
-0.00154627
-0.00164175
-0.0017287
-0.00180717
-0.0018768
-0.00193687
-0.00198634
-0.00202391
-0.00204806
-0.00205711
-0.00204924
-0.00202262
-0.00197541
-0.00190586
-0.00181236
-0.00169353
-0.00154826
-0.00137579
-0.00117576
-0.000948311
-0.000694082
-0.000414288
-0.000110741
0.000214124
0.000557249
0.000914963
0.00128301
0.00165659
0.00203045
0.00239896
0.0027562
0.00309613
0.0034127
0.00370001
0.00395245
0.00416491
0.00433287
0.00445257
0.00452117
0.00453675
0.0044985
0.00440665
0.00426253
0.0040685
0.00382788
0.00354487
0.00322437
0.00287185
0.00249317
0.00209444
0.00168184
0.00126127
0.000838461
0.000420898
1.5504e-05
-0.000401262
-0.00085189
0.00236494
0.00167423
0.00113394
0.000697733
0.000309613
-3.34002e-05
-0.000333629
-0.000596973
-0.000829008
-0.00103457
-0.00121799
-0.00138303
-0.00153292
-0.00167027
-0.00179715
-0.00191508
-0.00202501
-0.00212744
-0.00222237
-0.00230935
-0.00238758
-0.00245588
-0.00251279
-0.00255659
-0.00258537
-0.00259711
-0.00258968
-0.00256098
-0.00250897
-0.00243173
-0.00232756
-0.00219504
-0.00203309
-0.00184108
-0.00161883
-0.00136675
-0.0010858
-0.000777621
-0.000444514
-8.946e-05
0.000283874
0.000671162
0.00106746
0.00146727
0.00186462
0.00225318
0.00262641
0.00297767
0.00330038
0.00358824
0.00383537
0.00403646
0.00418701
0.00428338
0.00432301
0.00430443
0.00422735
0.0040927
0.00390257
0.00366014
0.00336961
0.00303603
0.00266516
0.00226328
0.001837
0.00139309
0.000938106
0.000478411
2.24247e-05
-0.000422057
-0.000880994
-0.00137905
0.00215131
0.00142879
0.00086447
0.000409637
5.37617e-06
-0.000351726
-0.000664385
-0.000939041
-0.00118176
-0.00139782
-0.00159189
-0.00176806
-0.00192977
-0.00207984
-0.00222046
-0.00235321
-0.0024791
-0.0025986
-0.00271167
-0.00281779
-0.00291603
-0.00300507
-0.00308327
-0.00314871
-0.00319925
-0.00323261
-0.00324639
-0.00323819
-0.00320565
-0.00314652
-0.00305877
-0.00294061
-0.00279065
-0.00260788
-0.00239182
-0.00214255
-0.0018608
-0.00154795
-0.00120612
-0.000838198
-0.000447791
-3.92692e-05
0.000382291
0.000811163
0.00124105
0.00166519
0.00207648
0.00246766
0.00283143
0.00316069
0.00344869
0.00368926
0.00387697
0.00400735
0.00407697
0.00408365
0.00402646
0.0039058
0.00372342
0.0034823
0.00318661
0.00284154
0.00245317
0.00202821
0.00157384
0.00109751
0.000606492
0.00010791
-0.000388796
-0.000874858
-0.0013788
-0.00192761
0.00186394
0.0011118
0.000525083
5.28211e-05
-0.000366653
-0.000737184
-0.00106188
-0.00134772
-0.00160124
-0.00182813
-0.00203342
-0.00222147
-0.00239596
-0.00255986
-0.00271549
-0.0028645
-0.00300792
-0.00314619
-0.00327921
-0.00340638
-0.00352664
-0.00363852
-0.00374018
-0.0038295
-0.00390409
-0.00396139
-0.00399873
-0.00401337
-0.00400261
-0.00396387
-0.00389471
-0.00379299
-0.00365691
-0.00348509
-0.00327668
-0.0030314
-0.00274965
-0.00243254
-0.00208195
-0.00170059
-0.00129199
-0.000860524
-0.000411352
4.95857e-05
0.000515668
0.000979691
0.001434
0.00187063
0.00228151
0.00265865
0.00299436
0.00328145
0.00351347
0.00368492
0.00379143
0.00382989
0.00379863
0.00369742
0.00352752
0.00329166
0.00299392
0.00263962
0.00223512
0.00178763
0.00130497
0.000795319
0.00026676
-0.000272722
-0.000812557
-0.00134289
-0.00189501
-0.00249839
0.00149894
0.000719513
0.000112113
-0.000376324
-0.000810036
-0.0011933
-0.00152963
-0.00182649
-0.00209092
-0.00232898
-0.00254605
-0.00274675
-0.00293499
-0.00311389
-0.00328586
-0.00345262
-0.0036152
-0.00377403
-0.00392893
-0.00407921
-0.00422367
-0.00436067
-0.00448818
-0.00460386
-0.00470506
-0.00478894
-0.00485251
-0.00489271
-0.00490646
-0.00489079
-0.00484288
-0.00476014
-0.00464036
-0.00448172
-0.00428295
-0.00404335
-0.00376294
-0.00344249
-0.00308358
-0.00268868
-0.00226119
-0.00180541
-0.00132656
-0.000830755
-0.000324915
0.000183314
0.000685694
0.00117355
0.00163797
0.00206998
0.00246084
0.00280222
0.00308652
0.00330705
0.0034583
0.00353612
0.00353788
0.00346259
0.00331091
0.00308519
0.00278936
0.00242881
0.00201021
0.00154126
0.00103047
0.00048685
-8.06279e-05
-0.000663018
-0.00124849
-0.001826
-0.00242979
-0.00309204
0.00105276
0.000248489
-0.000377796
-0.0008811
-0.00132804
-0.00172332
-0.00207083
-0.00237857
-0.002654
-0.00290358
-0.003133
-0.00334715
-0.00355012
-0.00374521
-0.0039349
-0.00412096
-0.00430443
-0.0044857
-0.00466452
-0.0048401
-0.00501108
-0.00517568
-0.00533166
-0.00547642
-0.00560708
-0.00572048
-0.00581331
-0.00588215
-0.00592354
-0.00593409
-0.00591054
-0.00584984
-0.0057493
-0.00560663
-0.00542005
-0.00518842
-0.00491128
-0.00458899
-0.00422276
-0.00381477
-0.00336817
-0.00288716
-0.00237694
-0.00184376
-0.00129479
-0.000738119
-0.000182556
0.000362478
0.000887161
0.00138149
0.00183554
0.00223974
0.00258513
0.0028637
0.0030686
0.00319444
0.00323747
0.00319571
0.00306909
0.00285945
0.00257045
0.0022075
0.00177755
0.00128881
0.000750521
0.000172584
-0.000435022
-0.00106229
-0.00169599
-0.00232375
-0.00298306
-0.00370897
0.000522175
-0.000304376
-0.000947668
-0.00146448
-0.0019236
-0.00233014
-0.0026884
-0.00300685
-0.00329338
-0.00355483
-0.00379718
-0.00402558
-0.00424432
-0.00445681
-0.00466563
-0.0048726
-0.00507875
-0.00528442
-0.00548931
-0.0056925
-0.0058925
-0.00608735
-0.00627459
-0.00645141
-0.00661463
-0.0067608
-0.00688627
-0.00698722
-0.0070598
-0.00710016
-0.00710457
-0.0070695
-0.0069917
-0.00686837
-0.00669716
-0.0064764
-0.0062051
-0.00588312
-0.00551122
-0.00509118
-0.00462586
-0.00411923
-0.00357643
-0.00300376
-0.0024086
-0.00179943
-0.00118564
-0.000577394
1.45291e-05
0.000579014
0.00110486
0.00158109
0.00199727
0.00234382
0.00261239
0.00279611
0.00288986
0.00289051
0.00279703
0.00261057
0.00233443
0.00197392
0.00153621
0.00103004
0.000465407
-0.000146804
-0.000795522
-0.00146956
-0.00215414
-0.00283543
-0.0035544
-0.00434926
-9.56703e-05
-0.00094182
-0.00160017
-0.00212909
-0.0025993
-0.00301634
-0.0033849
-0.00371388
-0.00401162
-0.00428528
-0.00454115
-0.00478463
-0.00502016
-0.00525129
-0.0054807
-0.00571022
-0.00594089
-0.00617301
-0.00640619
-0.00663941
-0.00687105
-0.00709895
-0.00732047
-0.00753253
-0.00773168
-0.00791416
-0.00807595
-0.00821285
-0.00832057
-0.00839479
-0.00843127
-0.00842592
-0.00837495
-0.00827492
-0.00812291
-0.00791659
-0.0076544
-0.00733557
-0.00696035
-0.00653003
-0.00604704
-0.00551506
-0.00493906
-0.00432529
-0.0036813
-0.0030159
-0.002339
-0.00166156
-0.000995292
-0.00035251
0.000254216
0.000812368
0.00130984
0.00173534
0.00207872
0.0023314
0.00248667
0.00253996
0.00248906
0.00233423
0.00207818
0.00172606
0.00128517
0.000764746
0.000175583
-0.000470397
-0.00116092
-0.0018835
-0.00262163
-0.00335986
-0.00414296
-0.00501255
-0.000803225
-0.00166619
-0.00233757
-0.00287715
-0.00335735
-0.00378412
-0.0041625
-0.00450185
-0.00481088
-0.0050971
-0.00536709
-0.00562645
-0.00587981
-0.00613084
-0.00638229
-0.00663603
-0.00689309
-0.00715374
-0.00741752
-0.00768329
-0.00794928
-0.00821318
-0.00847213
-0.00872281
-0.00896149
-0.00918407
-0.00938618
-0.0095632
-0.0097104
-0.00982296
-0.00989607
-0.00992509
-0.00990558
-0.00983346
-0.00970511
-0.00951752
-0.00926841
-0.00895636
-0.00858095
-0.00814287
-0.00764404
-0.00708773
-0.0064786
-0.00582279
-0.0051279
-0.00440297
-0.00365844
-0.00290597
-0.00215827
-0.00142887
-0.000731802
-8.12586e-05
0.000508822
0.00102518
0.00145566
0.00178969
0.00201866
0.00213628
0.00213888
0.00202555
0.00179825
0.00146174
0.00102337
0.000492822
-0.000118306
-0.000796985
-0.00152964
-0.00230233
-0.00309666
-0.00389537
-0.00474736
-0.00569792
-0.0016025
-0.0024794
-0.00316173
-0.00371051
-0.00419957
-0.00463526
-0.00502298
-0.00537251
-0.00569292
-0.00599204
-0.00627671
-0.00655275
-0.00682496
-0.00709713
-0.00737207
-0.00765169
-0.00793703
-0.00822831
-0.00852501
-0.00882588
-0.00912903
-0.00943196
-0.00973163
-0.0100245
-0.0103064
-0.0105731
-0.0108198
-0.0110415
-0.0112328
-0.0113886
-0.0115034
-0.0115719
-0.0115891
-0.01155
-0.0114505
-0.0112866
-0.0110553
-0.0107545
-0.0103828
-0.00994036
-0.00942838
-0.00884959
-0.00820824
-0.00751022
-0.00676305
-0.00597594
-0.00515974
-0.00432676
-0.0034907
-0.00266634
-0.00186923
-0.00111536
-0.000420688
0.000199358
0.000730353
0.00115942
0.00147572
0.00167091
0.00173951
0.00167917
0.00149079
0.00117855
0.00074969
0.000214244
-0.000415385
-0.00112501
-0.00189965
-0.00272377
-0.00357687
-0.00443968
-0.00536559
-0.00640382
-0.00249505
-0.00338293
-0.00407411
-0.00463057
-0.00512735
-0.00557115
-0.00596771
-0.00632721
-0.00665905
-0.00697138
-0.00727127
-0.00756476
-0.0078568
-0.00815129
-0.00845113
-0.00875826
-0.00907372
-0.00939772
-0.00972965
-0.0100682
-0.0104113
-0.0107564
-0.0111001
-0.0114387
-0.0117679
-0.0120829
-0.0123787
-0.0126497
-0.0128902
-0.0130944
-0.0132563
-0.0133699
-0.0134294
-0.0134293
-0.0133643
-0.0132298
-0.0130219
-0.0127374
-0.0123743
-0.0119318
-0.0114103
-0.0108118
-0.0101401
-0.00940061
-0.00860066
-0.00774949
-0.00685824
-0.00593983
-0.00500886
-0.00408135
-0.00317445
-0.00230603
-0.00149421
-0.00075683
-0.000110861
0.000428196
0.00084692
0.00113452
0.00128334
0.00128919
0.0011516
0.000873879
0.000462962
-7.08819e-05
-0.000714497
-0.0014525
-0.00226839
-0.00314491
-0.0040592
-0.00498978
-0.00599487
-0.00712794
-0.00348193
-0.00437779
-0.00507566
-0.00563829
-0.00614163
-0.00659271
-0.00699761
-0.00736683
-0.00771013
-0.00803592
-0.00835151
-0.00866314
-0.00897591
-0.00929384
-0.00961991
-0.00995609
-0.0103035
-0.0106622
-0.0110316
-0.0114103
-0.0117962
-0.0121865
-0.0125776
-0.0129657
-0.0133461
-0.0137137
-0.0140632
-0.0143884
-0.0146834
-0.0149415
-0.0151563
-0.015321
-0.0154291
-0.0154741
-0.0154501
-0.0153513
-0.015173
-0.0149109
-0.0145621
-0.0141247
-0.0135983
-0.012984
-0.0122848
-0.0115056
-0.0106533
-0.00973719
-0.0087684
-0.00776036
-0.00672852
-0.00569009
-0.00466381
-0.00366951
-0.00272763
-0.00185861
-0.00108227
-0.000417052
0.00012063
0.000517122
0.000762127
0.000849203
0.000776106
0.000544928
0.000162023
-0.000362279
-0.00101415
-0.00177699
-0.0026327
-0.00356212
-0.00453981
-0.00554181
-0.00663155
-0.00786704
-0.00456368
-0.0054645
-0.00616691
-0.0067342
-0.00724293
-0.00770043
-0.00811311
-0.00849179
-0.00884651
-0.00918594
-0.00951763
-0.00984799
-0.0101823
-0.0105247
-0.0108782
-0.0112448
-0.0116257
-0.012021
-0.0124301
-0.0128514
-0.0132828
-0.0137212
-0.0141631
-0.0146043
-0.0150399
-0.0154645
-0.0158722
-0.0162568
-0.0166115
-0.0169293
-0.017203
-0.0174251
-0.0175883
-0.0176853
-0.0177091
-0.0176531
-0.0175112
-0.0172784
-0.0169504
-0.0165243
-0.0159985
-0.0153733
-0.0146506
-0.0138347
-0.0129319
-0.0119509
-0.0109032
-0.00980229
-0.00866443
-0.00750794
-0.00635311
-0.00522178
-0.00413678
-0.00312139
-0.00219849
-0.00138987
-0.00071532
-0.000191845
0.000167129
0.000352397
0.000359454
0.000188761
-0.000154253
-0.000659443
-0.00131244
-0.00209545
-0.0029887
-0.00397096
-0.00501394
-0.00609093
-0.00727095
-0.00861686
-0.00574031
-0.0066431
-0.00734791
-0.00791833
-0.00843128
-0.00889436
-0.00931424
-0.00970203
-0.0100681
-0.0104212
-0.0107693
-0.0111188
-0.0114753
-0.0118429
-0.0122249
-0.0126232
-0.0130391
-0.0134728
-0.0139234
-0.0143895
-0.0148689
-0.0153583
-0.0158542
-0.016352
-0.0168466
-0.0173324
-0.0178032
-0.0182521
-0.018672
-0.0190553
-0.0193941
-0.0196801
-0.0199053
-0.0200614
-0.0201403
-0.0201345
-0.0200368
-0.0198407
-0.0195409
-0.0191331
-0.0186146
-0.0179844
-0.0172435
-0.0163949
-0.0154444
-0.0144002
-0.0132733
-0.0120776
-0.0108297
-0.00954891
-0.00825708
-0.006978
-0.005737
-0.00456029
-0.00347413
-0.00250395
-0.00167339
-0.00100329
-0.00051077
-0.000208374
-0.000103429
-0.000197622
-0.000486882
-0.000961572
-0.00160698
-0.00240418
-0.00333168
-0.00436601
-0.00547576
-0.00663115
-0.0079072
-0.00937189
-0.00701131
-0.00791311
-0.00861822
-0.0091903
-0.0097063
-0.0101741
-0.0106005
-0.010997
-0.0113741
-0.0117409
-0.0121055
-0.0124745
-0.0128535
-0.013247
-0.0136582
-0.0140893
-0.0145414
-0.0150147
-0.0155086
-0.0160216
-0.0165512
-0.0170943
-0.017647
-0.0182047
-0.0187621
-0.0193132
-0.0198515
-0.0203697
-0.0208602
-0.0213148
-0.0217248
-0.0220814
-0.0223756
-0.0225981
-0.0227399
-0.0227921
-0.0227465
-0.0225953
-0.0223318
-0.0219503
-0.0214467
-0.0208186
-0.0200657
-0.0191901
-0.0181962
-0.0170916
-0.0158868
-0.0145956
-0.0132349
-0.0118249
-0.0103886
-0.00895189
-0.00754247
-0.00618965
-0.00492328
-0.00377275
-0.00276599
-0.00192822
-0.00128084
-0.000840394
-0.000617691
-0.000617174
-0.000836666
-0.00126746
-0.00189478
-0.0026987
-0.00365597
-0.00474076
-0.00591822
-0.00715518
-0.00853305
-0.0101252
-0.00837561
-0.00927357
-0.00997696
-0.0105492
-0.0110671
-0.0115387
-0.011971
-0.0123757
-0.0127635
-0.0131438
-0.0135247
-0.0139132
-0.0143151
-0.0147347
-0.0151756
-0.01564
-0.0161292
-0.0166434
-0.0171819
-0.0177432
-0.018325
-0.018924
-0.0195362
-0.0201568
-0.0207803
-0.0214006
-0.0220107
-0.0226029
-0.0231691
-0.0237006
-0.0241881
-0.0246218
-0.024992
-0.0252884
-0.0255008
-0.0256193
-0.0256342
-0.0255365
-0.0253179
-0.0249713
-0.0244911
-0.0238733
-0.023116
-0.0222199
-0.0211884
-0.0200278
-0.018748
-0.0173623
-0.0158877
-0.0143449
-0.0127582
-0.0111549
-0.00956556
-0.00802236
-0.00655893
-0.00520895
-0.00400503
-0.00297733
-0.00215218
-0.00155085
-0.00118836
-0.00107264
-0.00120406
-0.00157538
-0.00217212
-0.00297358
-0.00395479
-0.00508741
-0.00633287
-0.00765423
-0.00913971
-0.0108684
-0.00983161
-0.0107231
-0.0114228
-0.0119939
-0.0125126
-0.012987
-0.0134244
-0.0138367
-0.0142347
-0.014628
-0.015025
-0.0154327
-0.0158571
-0.0163029
-0.0167736
-0.0172716
-0.0177983
-0.0183539
-0.018938
-0.0195489
-0.0201844
-0.020841
-0.0215149
-0.022201
-0.0228937
-0.0235865
-0.0242722
-0.0249428
-0.0255896
-0.0262033
-0.0267741
-0.0272914
-0.0277444
-0.028122
-0.0284129
-0.0286059
-0.02869
-0.0286547
-0.0284902
-0.0281878
-0.0277401
-0.0271415
-0.0263884
-0.0254799
-0.0244178
-0.0232073
-0.0218569
-0.0203795
-0.0187916
-0.0171143
-0.0153726
-0.0135957
-0.011816
-0.0100691
-0.00839228
-0.00682382
-0.00540138
-0.00416057
-0.00313337
-0.00234652
-0.0018201
-0.00156635
-0.00158899
-0.00188289
-0.0024344
-0.00322232
-0.00422005
-0.0053967
-0.00670963
-0.00811778
-0.00971657
-0.011591
-0.0113772
-0.0122597
-0.012954
-0.0135226
-0.0140409
-0.0145172
-0.0149589
-0.015378
-0.0157855
-0.0161911
-0.0166034
-0.0170298
-0.0174763
-0.0179477
-0.0184478
-0.0189792
-0.0195433
-0.0201406
-0.0207705
-0.0214317
-0.0221218
-0.0228374
-0.0235746
-0.0243282
-0.0250925
-0.0258607
-0.0266254
-0.0273783
-0.0281101
-0.028811
-0.0294704
-0.0300772
-0.0306197
-0.0310856
-0.0314627
-0.0317384
-0.0319003
-0.0319364
-0.0318354
-0.0315867
-0.0311813
-0.0306116
-0.0298723
-0.0289605
-0.0278763
-0.0266232
-0.0252085
-0.0236439
-0.0219453
-0.0201337
-0.0182347
-0.0162786
-0.0143001
-0.0123374
-0.0104319
-0.0086265
-0.00696418
-0.00548657
-0.00423195
-0.00323335
-0.00251683
-0.00209993
-0.0019906
-0.00218666
-0.00267591
-0.0034371
-0.0044422
-0.00565769
-0.00703662
-0.00853337
-0.010251
-0.0122806
-0.0130098
-0.0138811
-0.0145684
-0.0151333
-0.0156503
-0.0161275
-0.0165725
-0.0169974
-0.0174134
-0.0178304
-0.018257
-0.0187009
-0.0191684
-0.0196645
-0.0201931
-0.0207571
-0.0213579
-0.0219964
-0.022672
-0.0233834
-0.0241284
-0.0249037
-0.0257051