/*--------------------------------*- C++ -*----------------------------------*\
  =========                 |
  \\      /  F ield         | OpenFOAM: The Open Source CFD Toolbox
   \\    /   O peration     | Website:  https://openfoam.org
    \\  /    A nd           | Version:  dev
     \\/     M anipulation  |
\*---------------------------------------------------------------------------*/
FoamFile
{
    format      ascii;
    class       surfaceScalarField;
    location    "39.15";
    object      phi;
}
// * * * * * * * * * * * * * * * * * * * * * * * * * * * * * * * * * * * * * //

dimensions      [0 3 -1 0 0 0 0];

internalField   nonuniform List<scalar> 
10224
(
3.38212e-08
-3.4876e-08
8.78936e-08
-5.40725e-08
1.2447e-07
-3.65765e-08
1.25445e-07
-9.74933e-10
8.38192e-08
4.16259e-08
-1.6798e-09
8.54999e-08
-1.29225e-07
1.27546e-07
-2.95514e-07
1.6629e-07
-4.96484e-07
2.00971e-07
-7.27833e-07
2.3135e-07
-9.85291e-07
2.57458e-07
-1.26476e-06
2.79473e-07
-1.56241e-06
2.97647e-07
-1.87467e-06
3.12266e-07
-2.19828e-06
3.23612e-07
-2.53024e-06
3.31954e-07
-2.86776e-06
3.37527e-07
-3.2083e-06
3.40533e-07
-3.54943e-06
3.41132e-07
-3.88887e-06
3.39448e-07
-4.22444e-06
3.35566e-07
-4.55398e-06
3.29538e-07
-4.87537e-06
3.21389e-07
-5.18649e-06
3.11123e-07
-5.48521e-06
2.98726e-07
-5.76939e-06
2.84178e-07
-6.03685e-06
2.67457e-07
-6.28539e-06
2.48546e-07
-6.51283e-06
2.2744e-07
-6.71699e-06
2.04154e-07
-6.89571e-06
1.78726e-07
-7.04694e-06
1.51224e-07
-7.16868e-06
1.21749e-07
-7.25912e-06
9.04411e-08
-7.31661e-06
5.74811e-08
-7.3397e-06
2.30916e-08
-7.32724e-06
-1.24617e-08
-7.27837e-06
-4.887e-08
-7.19258e-06
-8.5784e-08
-7.06977e-06
-1.22816e-07
-6.91022e-06
-1.59546e-07
-6.7147e-06
-1.95523e-07
-6.48442e-06
-2.30279e-07
-6.22109e-06
-2.63328e-07
-5.92691e-06
-2.94185e-07
-5.60454e-06
-3.22366e-07
-5.25714e-06
-3.47406e-07
-4.88827e-06
-3.68865e-07
-4.50193e-06
-3.86342e-07
-4.10245e-06
-3.99483e-07
-3.69446e-06
-4.07992e-07
-3.28282e-06
-4.11638e-07
-2.87255e-06
-4.10267e-07
-2.46875e-06
-4.03804e-07
-2.07649e-06
-3.92257e-07
-1.70077e-06
-3.75723e-07
-1.34638e-06
-3.54388e-07
-1.01785e-06
-3.28526e-07
-7.19353e-07
-2.98498e-07
-4.54598e-07
-2.64754e-07
-2.26766e-07
-2.27832e-07
-3.84006e-08
-1.88365e-07
1.08691e-07
-1.47091e-07
2.13572e-07
-1.04881e-07
2.76358e-07
-6.27853e-08
2.98482e-07
-2.21229e-08
2.83123e-07
1.53586e-08
2.35882e-07
4.72411e-08
1.65823e-07
7.00582e-08
8.72489e-08
7.85753e-08
2.25454e-08
6.47051e-08
2.25465e-08
5.39356e-08
-8.88117e-08
1.1249e-07
-1.12627e-07
1.18324e-07
-4.24103e-08
3.903e-08
7.83205e-08
-1.41806e-07
2.22463e-07
-4.2951e-07
3.73205e-07
-8.2232e-07
5.20358e-07
-1.31409e-06
6.58061e-07
-1.89625e-06
7.83136e-07
-2.559e-06
8.94095e-07
-3.29204e-06
9.90503e-07
-4.08514e-06
1.07257e-06
-4.92835e-06
1.14087e-06
-5.81225e-06
1.19616e-06
-6.72794e-06
1.2393e-06
-7.66709e-06
1.2711e-06
-8.62188e-06
1.29233e-06
-9.58499e-06
1.30364e-06
-1.05494e-05
1.30558e-06
-1.15086e-05
1.29859e-06
-1.2456e-05
1.28298e-06
-1.33854e-05
1.25894e-06
-1.42906e-05
1.22661e-06
-1.51655e-05
1.18603e-06
-1.6004e-05
1.1372e-06
-1.67999e-05
1.08009e-06
-1.75471e-05
1.01468e-06
-1.82395e-05
9.40964e-07
-1.88711e-05
8.58993e-07
-1.94358e-05
7.68878e-07
-1.99279e-05
6.70824e-07
-2.03418e-05
5.6514e-07
-2.06723e-05
4.52262e-07
-2.09146e-05
3.32757e-07
-2.10645e-05
2.07342e-07
-2.11183e-05
7.68784e-08
-2.10731e-05
-5.76155e-08
-2.0927e-05
-1.94975e-07
-2.06789e-05
-3.33892e-07
-2.03288e-05
-4.72928e-07
-1.98778e-05
-6.10531e-07
-1.93283e-05
-7.45053e-07
-1.86838e-05
-8.74778e-07
-1.79492e-05
-9.9795e-07
-1.71306e-05
-1.1128e-06
-1.62353e-05
-1.2176e-06
-1.52721e-05
-1.31066e-06
-1.42505e-05
-1.39042e-06
-1.31814e-05
-1.45543e-06
-1.20765e-05
-1.50444e-06
-1.09481e-05
-1.5364e-06
-9.80921e-06
-1.55049e-06
-8.6733e-06
-1.54618e-06
-7.5539e-06
-1.52321e-06
-6.46451e-06
-1.48164e-06
-5.41838e-06
-1.42186e-06
-4.4282e-06
-1.34456e-06
-3.50595e-06
-1.25078e-06
-2.66255e-06
-1.1419e-06
-1.9077e-06
-1.0196e-06
-1.24958e-06
-8.85947e-07
-6.94598e-07
-7.4335e-07
-2.47048e-07
-5.94641e-07
9.12228e-08
-4.43152e-07
3.21296e-07
-2.92859e-07
4.47774e-07
-1.486e-07
4.79659e-07
-1.65264e-08
4.31437e-07
9.54635e-08
3.2456e-07
1.76935e-07
1.89054e-07
2.14078e-07
6.43983e-08
1.89359e-07
8.69458e-08
3.73723e-08
-1.26184e-07
4.3384e-08
-1.18638e-07
-4.31973e-08
4.41721e-08
-2.58666e-07
2.93791e-07
-6.22648e-07
5.86446e-07
-1.14226e-06
8.92823e-07
-1.81578e-06
1.19388e-06
-2.63555e-06
1.47783e-06
-3.59019e-06
1.73778e-06
-4.66617e-06
1.97008e-06
-5.84894e-06
2.17327e-06
-7.12358e-06
2.34721e-06
-8.47539e-06
2.49268e-06
-9.89013e-06
2.6109e-06
-1.13542e-05
2.70333e-06
-1.28545e-05
2.77148e-06
-1.4379e-05
2.81677e-06
-1.59158e-05
2.84047e-06
-1.74539e-05
2.84367e-06
-1.89825e-05
2.8272e-06
-2.04913e-05
2.79173e-06
-2.197e-05
2.7377e-06
-2.34088e-05
2.66539e-06
-2.47977e-05
2.57495e-06
-2.6127e-05
2.46645e-06
-2.73868e-05
2.3399e-06
-2.85675e-05
2.19534e-06
-2.96593e-05
2.03285e-06
-3.0653e-05
1.85263e-06
-3.15391e-05
1.655e-06
-3.23088e-05
1.4405e-06
-3.29535e-05
1.20988e-06
-3.34654e-05
9.64139e-07
-3.38372e-05
7.04572e-07
-3.40626e-05
4.32764e-07
-3.41364e-05
1.50609e-07
-3.40543e-05
-1.39687e-07
-3.38137e-05
-4.35617e-07
-3.34132e-05
-7.34385e-07
-3.28532e-05
-1.03293e-06
-3.21357e-05
-1.32798e-06
-3.12647e-05
-1.61604e-06
-3.0246e-05
-1.89353e-06
-2.90871e-05
-2.15677e-06
-2.77979e-05
-2.40206e-06
-2.63897e-05
-2.62578e-06
-2.48759e-05
-2.82446e-06
-2.32715e-05
-2.99483e-06
-2.1593e-05
-3.13392e-06
-1.98583e-05
-3.23912e-06
-1.80865e-05
-3.30826e-06
-1.62973e-05
-3.33969e-06
-1.45112e-05
-3.3323e-06
-1.27488e-05
-3.2856e-06
-1.10307e-05
-3.19975e-06
-9.37694e-06
-3.07558e-06
-7.80691e-06
-2.91459e-06
-6.33869e-06
-2.71901e-06
-4.9888e-06
-2.49178e-06
-3.77186e-06
-2.23654e-06
-2.70011e-06
-1.9577e-06
-1.783e-06
-1.66045e-06
-1.02678e-06
-1.35086e-06
-4.33904e-07
-1.03602e-06
-2.46754e-09
-7.24294e-07
2.7462e-07
-4.25688e-07
4.10431e-07
-1.52336e-07
4.25217e-07
8.06783e-08
3.47622e-07
2.54531e-07
2.15864e-07
3.45836e-07
7.8679e-08
3.26543e-07
1.65625e-07
1.92889e-09
-1.28113e-07
-7.89113e-08
-3.77969e-08
-2.97621e-07
2.62884e-07
-6.87944e-07
6.84115e-07
-1.26821e-06
1.16671e-06
-2.04469e-06
1.66931e-06
-3.0146e-06
2.16379e-06
-4.16869e-06
2.63192e-06
-5.49335e-06
3.06244e-06
-6.97225e-06
3.44899e-06
-8.58755e-06
3.78856e-06
-1.03208e-05
4.08042e-06
-1.21533e-05
4.32527e-06
-1.40672e-05
4.52471e-06
-1.60446e-05
4.68077e-06
-1.80687e-05
4.79564e-06
-2.01234e-05
4.87146e-06
-2.21931e-05
4.91017e-06
-2.42629e-05
4.91345e-06
-2.63184e-05
4.88265e-06
-2.83455e-05
4.81883e-06
-3.03305e-05
4.72274e-06
-3.226e-05
4.59488e-06
-3.41206e-05
4.43557e-06
-3.58992e-05
4.245e-06
-3.75826e-05
4.02331e-06
-3.91579e-05
3.77065e-06
-4.06123e-05
3.48731e-06
-4.19334e-05
3.17373e-06
-4.3109e-05
2.83061e-06
-4.41275e-05
2.45898e-06
-4.49779e-05
2.06024e-06
-4.56499e-05
1.6362e-06
-4.61345e-05
1.18914e-06
-4.64236e-05
7.21861e-07
-4.65106e-05
2.37623e-07
-4.63905e-05
-2.59782e-07
-4.60601e-05
-7.66077e-07
-4.55179e-05
-1.27652e-06
-4.47649e-05
-1.78595e-06
-4.3804e-05
-2.28883e-06
-4.26407e-05
-2.77936e-06
-4.12828e-05
-3.2515e-06
-3.97404e-05
-3.69913e-06
-3.80263e-05
-4.11612e-06
-3.61557e-05
-4.49644e-06
-3.41458e-05
-4.83432e-06
-3.20163e-05
-5.12436e-06
-2.97886e-05
-5.36164e-06
-2.74858e-05
-5.54186e-06
-2.51326e-05
-5.66144e-06
-2.27547e-05
-5.71766e-06
-2.03783e-05
-5.70871e-06
-1.803e-05
-5.63381e-06
-1.57365e-05
-5.49325e-06
-1.35237e-05
-5.28844e-06
-1.14163e-05
-5.02197e-06
-9.43773e-06
-4.69758e-06
-7.60925e-06
-4.32026e-06
-5.9496e-06
-3.89619e-06
-4.47449e-06
-3.43282e-06
-3.19603e-06
-2.93892e-06
-2.12217e-06
-2.42472e-06
-1.25611e-06
-1.90208e-06
-5.95596e-07
-1.38481e-06
-1.32183e-07
-8.891e-07
1.49642e-07
-4.34162e-07
2.73355e-07
-4.30356e-08
2.71437e-07
2.5645e-07
1.86404e-07
4.30869e-07
7.22506e-08
4.40696e-07
2.37875e-07
-4.2044e-08
-8.60689e-08
-2.30033e-07
1.50194e-07
-6.06608e-07
6.3946e-07
-1.19837e-06
1.27588e-06
-2.01908e-06
1.98742e-06
-3.0719e-06
2.72213e-06
-4.35165e-06
3.44355e-06
-5.84691e-06
4.12718e-06
-7.5418e-06
4.75733e-06
-9.41752e-06
5.3247e-06
-1.14535e-05
5.82454e-06
-1.36283e-05
6.25523e-06
-1.59203e-05
6.61728e-06
-1.83081e-05
6.9125e-06
-2.07707e-05
7.14341e-06
-2.32879e-05
7.31285e-06
-2.58401e-05
7.42366e-06
-2.84084e-05
7.47846e-06
-3.09745e-05
7.47954e-06
-3.35207e-05
7.4288e-06
-3.60296e-05
7.32773e-06
-3.84843e-05
7.17744e-06
-4.08681e-05
6.97871e-06
-4.31646e-05
6.73207e-06
-4.53575e-05
6.43791e-06
-4.74307e-05
6.09654e-06
-4.93685e-05
5.70837e-06
-5.11551e-05
5.27395e-06
-5.27755e-05
4.79413e-06
-5.4215e-05
4.27011e-06
-5.54596e-05
3.7036e-06
-5.64962e-05
3.09683e-06
-5.73127e-05
2.45268e-06
-5.78982e-05
1.77468e-06
-5.82435e-05
1.0671e-06
-5.83407e-05
3.34912e-07
-5.81844e-05
-4.16162e-07
-5.77707e-05
-1.1797e-06
-5.70986e-05
-1.94863e-06
-5.61693e-05
-2.71526e-06
-5.49868e-05
-3.47139e-06
-5.35577e-05
-4.20843e-06
-5.18917e-05
-4.91748e-06
-5.00013e-05
-5.58952e-06
-4.79019e-05
-6.21552e-06
-4.56117e-05
-6.78666e-06
-4.31515e-05
-7.29447e-06
-4.05449e-05
-7.73103e-06
-3.78174e-05
-8.08913e-06
-3.49968e-05
-8.36248e-06
-3.21124e-05
-8.54585e-06
-2.91948e-05
-8.63526e-06
-2.62754e-05
-8.62808e-06
-2.33861e-05
-8.52317e-06
-2.05583e-05
-8.32099e-06
-1.78231e-05
-8.02364e-06
-1.52101e-05
-7.63497e-06
-1.27471e-05
-7.16056e-06
-1.04596e-05
-6.60779e-06
-8.36994e-06
-5.98585e-06
-6.49695e-06
-5.30581e-06
-4.85521e-06
-4.58066e-06
-3.45445e-06
-3.82548e-06
-2.2989e-06
-3.05763e-06
-1.38659e-06
-2.29712e-06
-7.08666e-07
-1.56703e-06
-2.4864e-07
-8.94188e-07
1.8353e-08
-3.10029e-07
1.26382e-07
1.4842e-07
1.19612e-07
4.3764e-07
5.36962e-08
5.06611e-07
2.91571e-07
-8.94435e-08
3.37551e-09
-3.95398e-07
4.56149e-07
-9.45263e-07
1.18933e-06
-1.75564e-06
2.08625e-06
-2.83333e-06
3.06511e-06
-4.17657e-06
4.06538e-06
-5.77653e-06
5.04351e-06
-7.6188e-06
5.96945e-06
-9.68492e-06
6.82345e-06
-1.19536e-05
7.59337e-06
-1.44017e-05
8.27269e-06
-1.70054e-05
8.85886e-06
-1.97401e-05
9.35207e-06
-2.25819e-05
9.75427e-06
-2.55069e-05
1.00684e-05
-2.8492e-05
1.02979e-05
-3.15146e-05
1.04462e-05
-3.45528e-05
1.05167e-05
-3.75855e-05
1.05122e-05
-4.0592e-05
1.04352e-05
-4.35519e-05
1.02877e-05
-4.64455e-05
1.0071e-05
-4.92532e-05
9.78639e-06
-5.19557e-05
9.43457e-06
-5.4534e-05
9.01619e-06
-5.69693e-05
8.53186e-06
-5.92432e-05
7.98227e-06
-6.13376e-05
7.3684e-06
-6.32351e-05
6.69158e-06
-6.49187e-05
5.9537e-06
-6.63723e-05
5.15728e-06
-6.75811e-05
4.30562e-06
-6.85313e-05
3.40283e-06
-6.92106e-05
2.45395e-06
-6.96084e-05
1.46499e-06
-6.97164e-05
4.42903e-07
-6.95282e-05
-6.04359e-07
-6.904e-05
-1.66791e-06
-6.82507e-05
-2.738e-06
-6.71618e-05
-3.80407e-06
-6.57784e-05
-4.85488e-06
-6.41081e-05
-5.87868e-06
-6.21622e-05
-6.86335e-06
-5.99552e-05
-7.79657e-06
-5.75046e-05
-8.66609e-06
-5.48314e-05
-9.45991e-06
-5.19593e-05
-1.01665e-05
-4.89153e-05
-1.07751e-05
-4.57284e-05
-1.1276e-05
-4.24304e-05
-1.16605e-05
-3.90546e-05
-1.19216e-05
-3.5636e-05
-1.20539e-05
-3.22103e-05
-1.20538e-05
-2.88137e-05
-1.19197e-05
-2.54825e-05
-1.16522e-05
-2.22519e-05
-1.12543e-05
-1.91558e-05
-1.07311e-05
-1.62261e-05
-1.00902e-05
-1.3492e-05
-9.34186e-06
-1.09794e-05
-8.4985e-06
-8.70993e-06
-7.57525e-06
-6.70075e-06
-6.58983e-06
-4.96353e-06
-5.56269e-06
-3.50393e-06
-4.51724e-06
-2.32089e-06
-3.48016e-06
-1.40605e-06
-2.48187e-06
-7.4308e-07
-1.55716e-06
-3.07131e-07
-7.45978e-07
-6.42117e-08
-9.44999e-08
2.9453e-08
3.43975e-07
2.83452e-08
5.07718e-07
3.19916e-07
-1.37666e-07
1.41042e-07
-5.66424e-07
8.84909e-07
-1.29775e-06
1.92066e-06
-2.33675e-06
3.12525e-06
-3.68173e-06
4.41008e-06
-5.32462e-06
5.70827e-06
-7.25181e-06
6.9707e-06
-9.44518e-06
8.16283e-06
-1.18832e-05
9.26145e-06
-1.45418e-05
1.0252e-05
-1.73955e-05
1.11264e-05
-2.04178e-05
1.18812e-05
-2.35821e-05
1.25163e-05
-2.68617e-05
1.30339e-05
-3.02304e-05
1.34371e-05
-3.36625e-05
1.373e-05
-3.7133e-05
1.39167e-05
-4.06175e-05
1.40012e-05
-4.4092e-05
1.39868e-05
-4.75334e-05
1.38766e-05
-5.09187e-05
1.3673e-05
-5.42256e-05
1.33779e-05
-5.74319e-05
1.29927e-05
-6.05158e-05
1.25185e-05
-6.34559e-05
1.19563e-05
-6.6231e-05
1.13069e-05
-6.88203e-05
1.05716e-05
-7.12036e-05
9.7517e-06
-7.33612e-05
8.84922e-06
-7.52744e-05
7.86685e-06
-7.69252e-05
6.8081e-06
-7.8297e-05
5.67745e-06
-7.93747e-05
4.4805e-06
-8.01447e-05
3.22397e-06
-8.05956e-05
1.91583e-06
-8.07179e-05
5.65265e-07
-8.0505e-05
-8.1728e-07
-7.99527e-05
-2.22019e-06
-7.906e-05
-3.63075e-06
-7.78288e-05
-5.03522e-06
-7.62647e-05
-6.41905e-06
-7.43763e-05
-7.767e-06
-7.21763e-05
-9.0634e-06
-6.96805e-05
-1.02923e-05
-6.69086e-05
-1.1438e-05
-6.38837e-05
-1.24849e-05
-6.06321e-05
-1.34181e-05
-5.71834e-05
-1.42238e-05
-5.357e-05
-1.48893e-05
-4.98269e-05
-1.54037e-05
-4.59909e-05
-1.57576e-05
-4.21008e-05
-1.5944e-05
-3.81963e-05
-1.59583e-05
-3.43175e-05
-1.57984e-05
-3.05047e-05
-1.54651e-05
-2.67971e-05
-1.49619e-05
-2.32326e-05
-1.42955e-05
-1.98469e-05
-1.34759e-05
-1.66728e-05
-1.2516e-05
-1.37394e-05
-1.14319e-05
-1.10714e-05
-1.02432e-05
-8.68864e-06
-8.97262e-06
-6.60497e-06
-7.64636e-06
-4.82795e-06
-6.29426e-06
-3.35806e-06
-4.95005e-06
-2.18819e-06
-3.65174e-06
-1.30313e-06
-2.44221e-06
-6.79139e-07
-1.36997e-06
-2.83554e-07
-4.90085e-07
-7.45039e-08
1.34924e-07
-5.54465e-10
4.33768e-07
3.19361e-07
-1.85463e-07
3.26505e-07
-7.3822e-07
1.43767e-06
-1.65429e-06
2.83673e-06
-2.92669e-06
4.39765e-06
-4.54434e-06
6.02773e-06
-6.49192e-06
7.65585e-06
-8.7502e-06
9.22898e-06
-1.12966e-05
1.07093e-05
-1.41061e-05
1.2071e-05
-1.71517e-05
1.32976e-05
-2.04052e-05
1.43799e-05
-2.38378e-05
1.53138e-05
-2.74204e-05
1.6099e-05
-3.11244e-05
1.67379e-05
-3.49213e-05
1.7234e-05
-3.87833e-05
1.7592e-05
-4.26829e-05
1.78164e-05
-4.65937e-05
1.79119e-05
-5.04895e-05
1.78826e-05
-5.43446e-05
1.77318e-05
-5.81341e-05
1.74625e-05
-6.18333e-05
1.7077e-05
-6.54176e-05
1.65771e-05
-6.88632e-05
1.59641e-05
-7.21464e-05
1.52394e-05
-7.52438e-05
1.44044e-05
-7.81327e-05
1.34605e-05
-8.07908e-05
1.24098e-05
-8.31966e-05
1.12551e-05
-8.53296e-05
9.99984e-06
-8.71703e-05
8.64875e-06
-8.87005e-05
7.20766e-06
-8.99037e-05
5.68375e-06
-9.07654e-05
4.08563e-06
-9.1273e-05
2.42341e-06
-9.14164e-05
7.08726e-07
-9.11884e-05
-1.0453e-06
-9.05845e-05
-2.82408e-06
-8.96036e-05
-4.61169e-06
-8.82478e-05
-6.391e-06
-8.6523e-05
-8.14384e-06
-8.44388e-05
-9.85124e-06
-8.20085e-05
-1.14937e-05
-7.92494e-05
-1.30514e-05
-7.61827e-05
-1.45047e-05
-7.28331e-05
-1.58344e-05
-6.92293e-05
-1.70219e-05
-6.54032e-05
-1.80499e-05
-6.13899e-05
-1.89027e-05
-5.72271e-05
-1.95665e-05
-5.2955e-05
-2.00297e-05
-4.86156e-05
-2.02834e-05
-4.42521e-05
-2.03218e-05
-3.99084e-05
-2.01421e-05
-3.56285e-05
-1.9745e-05
-3.14553e-05
-1.9135e-05
-2.74305e-05
-1.83203e-05
-2.35936e-05
-1.73129e-05
-1.99808e-05
-1.61288e-05
-1.66246e-05
-1.47881e-05
-1.35529e-05
-1.33149e-05
-1.07884e-05
-1.17371e-05
-8.34765e-06
-1.00871e-05
-6.24048e-06
-8.40144e-06
-4.4695e-06
-6.72103e-06
-3.02955e-06
-5.09168e-06
-1.90731e-06
-3.56445e-06
-1.081e-06
-2.19629e-06
-5.20225e-07
-1.05086e-06
-1.86023e-07
-1.99278e-07
-3.10456e-08
2.7879e-07
2.88316e-07
-2.32193e-07
5.58698e-07
-9.08026e-07
2.1135e-06
-2.00889e-06
3.93759e-06
-3.51572e-06
5.90449e-06
-5.40764e-06
7.91966e-06
-7.6615e-06
9.90971e-06
-1.02518e-05
1.18193e-05
-1.31512e-05
1.36086e-05
-1.63305e-05
1.52502e-05
-1.97594e-05
1.67265e-05
-2.3407e-05
1.80275e-05
-2.72421e-05
1.91489e-05
-3.12336e-05
2.00905e-05
-3.53504e-05
2.08547e-05
-3.95623e-05
2.14459e-05
-4.38394e-05
2.18691e-05
-4.81525e-05
2.21295e-05
-5.2473e-05
2.22324e-05
-5.67728e-05
2.21824e-05
-6.10244e-05
2.19834e-05
-6.52007e-05
2.16388e-05
-6.9275e-05
2.11513e-05
-7.32209e-05
2.0523e-05
-7.70125e-05
1.97557e-05
-8.06243e-05
1.88512e-05
-8.4031e-05
1.78111e-05
-8.7208e-05
1.66375e-05
-9.01313e-05
1.53331e-05
-9.27777e-05
1.39015e-05
-9.51251e-05
1.23473e-05
-9.71526e-05
1.06762e-05
-9.88405e-05
8.89562e-06
-0.000100171
7.01449e-06
-0.000101129
5.04342e-06
-0.0001017
2.99482e-06
-0.000101875
8.829e-07
-0.000101644
-1.27633e-06
-0.000101003
-3.46515e-06
-9.995e-05
-5.66424e-06
-9.84881e-05
-7.85284e-06
-9.6623e-05
-1.0009e-05
-9.43645e-05
-1.21097e-05
-9.17268e-05
-1.41315e-05
-8.87279e-05
-1.60503e-05
-8.53901e-05
-1.78425e-05
-8.17399e-05
-1.94846e-05
-7.78074e-05
-2.09544e-05
-7.36265e-05
-2.22307e-05
-6.92347e-05
-2.32945e-05
-6.46723e-05
-2.41289e-05
-5.99822e-05
-2.47197e-05
-5.52095e-05
-2.50561e-05
-5.04007e-05
-2.51306e-05
-4.56032e-05
-2.49396e-05
-4.08643e-05
-2.44839e-05
-3.62309e-05
-2.37684e-05
-3.17483e-05
-2.28028e-05
-2.74597e-05
-2.16015e-05
-2.3405e-05
-2.01835e-05
-1.96204e-05
-1.85728e-05
-1.6137e-05
-1.67982e-05
-1.29808e-05
-1.48933e-05
-1.01714e-05
-1.28966e-05
-7.72146e-06
-1.08514e-05
-5.63624e-06
-8.80625e-06
-3.91315e-06
-6.81477e-06
-2.54139e-06
-4.93622e-06
-1.50179e-06
-3.23588e-06
-7.6692e-07
-1.78573e-06
-3.01288e-07
-6.6491e-07
-6.20253e-08
3.95268e-08
2.2629e-07
-2.77577e-07
8.36275e-07
-1.0743e-06
2.91023e-06
-2.35789e-06
5.22119e-06
-4.09753e-06
7.64412e-06
-6.26245e-06
1.00846e-05
-8.82139e-06
1.24686e-05
-1.17423e-05
1.47402e-05
-1.49924e-05
1.68587e-05
-1.85382e-05
1.8796e-05
-2.2346e-05
2.05343e-05
-2.63818e-05
2.20634e-05
-3.06121e-05
2.33791e-05
-3.50033e-05
2.44817e-05
-3.95228e-05
2.53742e-05
-4.41381e-05
2.60613e-05
-4.88178e-05
2.65488e-05
-5.35309e-05
2.68426e-05
-5.82471e-05
2.69486e-05
-6.29366e-05
2.68719e-05
-6.75702e-05
2.6617e-05
-7.21191e-05
2.61877e-05
-7.65548e-05
2.5587e-05
-8.08494e-05
2.48176e-05
-8.49752e-05
2.38815e-05
-8.89048e-05
2.27808e-05
-9.26115e-05
2.15178e-05
-9.60691e-05
2.0095e-05
-9.92518e-05
1.85159e-05
-0.000102135
1.67849e-05
-0.000104696
1.49076e-05
-0.00010691
1.28911e-05
-0.000108759
1.07444e-05
-0.000110223
8.47816e-06
-0.000111285
6.10514e-06
-0.00011193
3.64016e-06
-0.000112147
1.10014e-06
-0.000111928
-1.49592e-06
-0.000111266
-4.12702e-06
-0.00011016
-6.77029e-06
-0.000108611
-9.40118e-06
-0.000106627
-1.19937e-05
-0.000104216
-1.45208e-05
-0.000101392
-1.69546e-05
-9.8176e-05
-1.92667e-05
-9.45894e-05
-2.14291e-05
-9.06599e-05
-2.34141e-05
-8.64193e-05
-2.51951e-05
-8.1903e-05
-2.6747e-05
-7.71503e-05
-2.80472e-05
-7.22039e-05
-2.90753e-05
-6.71093e-05
-2.98143e-05
-6.19144e-05
-3.02511e-05
-5.66687e-05
-3.03763e-05
-5.1423e-05
-3.01853e-05
-4.62282e-05
-2.96787e-05
-4.11349e-05
-2.88617e-05
-3.61923e-05
-2.77455e-05
-3.14472e-05
-2.63466e-05
-2.69436e-05
-2.46871e-05
-2.27214e-05
-2.2795e-05
-1.88157e-05
-2.07039e-05
-1.52559e-05
-1.84531e-05
-1.20651e-05
-1.60874e-05
-9.25929e-06
-1.36572e-05
-6.84703e-06
-1.12185e-05
-4.82878e-06
-8.83302e-06
-3.19679e-06
-6.56821e-06
-1.93503e-06
-4.49764e-06
-1.0194e-06
-2.70136e-06
-4.18184e-07
-1.26613e-06
-9.29392e-08
-2.85719e-07
1.33351e-07
-3.21501e-07
1.15778e-06
-1.2362e-06
3.82493e-06
-2.69907e-06
6.68406e-06
-4.66798e-06
9.61303e-06
-7.10247e-06
1.25191e-05
-9.96306e-06
1.53292e-05
-1.32109e-05
1.79881e-05
-1.68077e-05
2.04555e-05
-2.07153e-05
2.27037e-05
-2.48964e-05
2.47154e-05
-2.9314e-05
2.6481e-05
-3.39318e-05
2.7997e-05
-3.87144e-05
2.92642e-05
-4.36268e-05
3.02866e-05
-4.86352e-05
3.10696e-05
-5.37063e-05
3.16199e-05
-5.88077e-05
3.1944e-05
-6.39076e-05
3.20485e-05
-6.89748e-05
3.1939e-05
-7.39785e-05
3.16207e-05
-7.88884e-05
3.10977e-05
-8.36748e-05
3.03734e-05
-8.83081e-05
2.94509e-05
-9.27592e-05
2.83325e-05
-9.69992e-05
2.70209e-05
-0.000101
2.55186e-05
-0.000104734
2.38289e-05
-0.000108174
2.19559e-05
-0.000111294
1.99049e-05
-0.000114069
1.76827e-05
-0.000116476
1.52977e-05
-0.000118492
1.27604e-05
-0.000120097
1.00834e-05
-0.000121273
7.28163e-06
-0.000122006
4.3724e-06
-0.000122281
1.37539e-06
-0.000122089
-1.6873e-06
-0.000121425
-4.79131e-06
-0.000120285
-7.9101e-06
-0.000118671
-1.10152e-05
-0.000116589
-1.40765e-05
-0.000114047
-1.70625e-05
-0.00011106
-1.9941e-05
-0.000107648
-2.26789e-05
-0.000103834
-2.52436e-05
-9.9645e-05
-2.76028e-05
-9.51147e-05
-2.97254e-05
-9.02796e-05
-3.15821e-05
-8.51808e-05
-3.3146e-05
-7.98628e-05
-3.43933e-05
-7.43735e-05
-3.53036e-05
-6.87634e-05
-3.58611e-05
-6.30853e-05
-3.60544e-05
-5.7393e-05
-3.58776e-05
-5.17411e-05
-3.53305e-05
-4.6184e-05
-3.44188e-05
-4.07749e-05
-3.31547e-05
-3.55648e-05
-3.15567e-05
-3.06017e-05
-2.96501e-05
-2.59298e-05
-2.74669e-05
-2.15884e-05
-2.50453e-05
-1.7611e-05
-2.24305e-05
-1.40246e-05
-1.96738e-05
-1.08492e-05
-1.68326e-05
-8.09679e-06
-1.39709e-05
-5.7716e-06
-1.11582e-05
-3.86936e-06
-8.47045e-06
-2.37756e-06
-5.98944e-06
-1.27567e-06
-3.80325e-06
-5.35782e-07
-2.00602e-06
-1.23584e-07
-6.97916e-07
9.76674e-09
-3.63923e-07
1.5217e-06
-1.39323e-06
4.85424e-06
-3.031e-06
8.32182e-06
-5.22433e-06
1.18064e-05
-7.9233e-06
1.5218e-05
-1.10803e-05
1.84863e-05
-1.46497e-05
2.15575e-05
-1.85875e-05
2.43932e-05
-2.28509e-05
2.69671e-05
-2.73986e-05
2.92631e-05
-3.21907e-05
3.1273e-05
-3.71881e-05
3.29944e-05
-4.23533e-05
3.44294e-05
-4.76495e-05
3.55828e-05
-5.30411e-05
3.64613e-05
-5.84935e-05
3.70723e-05
-6.39728e-05
3.74234e-05
-6.9446e-05
3.75216e-05
-7.48805e-05
3.73735e-05
-8.02444e-05
3.69846e-05
-8.55061e-05
3.63594e-05
-9.06347e-05
3.5502e-05
-9.55992e-05
3.44154e-05
-0.000100369
3.31027e-05
-0.000104915
3.15667e-05
-0.000109207
2.98105e-05
-0.000113216
2.78379e-05
-0.000116914
2.56539e-05
-0.000120274
2.32644e-05
-0.000123268
2.06775e-05
-0.000125874
1.7903e-05
-0.000128066
1.49528e-05
-0.000129824
1.18416e-05
-0.000131129
8.58644e-06
-0.000131964
5.20707e-06
-0.000132314
1.72603e-06
-0.00013217
-1.83149e-06
-0.000131524
-5.43766e-06
-0.000130372
-9.06221e-06
-0.000128714
-1.26727e-05
-0.000126556
-1.62346e-05
-0.000123907
-1.97122e-05
-0.000120779
-2.30683e-05
-0.000117193
-2.62653e-05
-0.000113171
-2.92654e-05
-0.000108742
-3.20317e-05
-0.00010394
-3.45281e-05
-9.88009e-05
-3.67208e-05
-9.33686e-05
-3.85783e-05
-8.7689e-05
-4.00729e-05
-8.18122e-05
-4.11805e-05
-7.57912e-05
-4.18821e-05
-6.96817e-05
-4.21639e-05
-6.3541e-05
-4.20183e-05
-5.74274e-05
-4.14441e-05
-5.13992e-05
-4.0447e-05
-4.55137e-05
-3.90401e-05
-3.98266e-05
-3.72438e-05
-3.43904e-05
-3.50863e-05
-2.9254e-05
-3.26033e-05
-2.44611e-05
-2.98382e-05
-2.00499e-05
-2.68417e-05
-1.60521e-05
-2.36716e-05
-1.24917e-05
-2.0393e-05
-9.38533e-06
-1.70773e-05
-6.74097e-06
-1.38026e-05
-4.55835e-06
-1.06531e-05
-2.82875e-06
-7.71905e-06
-1.53536e-06
-5.09664e-06
-6.53974e-07
-2.88741e-06
-1.53986e-07
-1.1979e-06
-1.4422e-07
-4.04831e-07
1.92653e-06
-1.54511e-06
5.99452e-06
-3.35275e-06
1.01295e-05
-5.76462e-06
1.42182e-05
-8.7217e-06
1.81751e-05
-1.21685e-05
2.1933e-05
-1.60525e-05
2.54415e-05
-2.03241e-05
2.86647e-05
-2.49358e-05
3.15788e-05
-2.98425e-05
3.41698e-05
-3.50008e-05
3.64314e-05
-4.03694e-05
3.8363e-05
-4.59082e-05
3.99682e-05
-5.1579e-05
4.12535e-05
-5.73444e-05
4.22267e-05
-6.31684e-05
4.28964e-05
-6.90161e-05
4.3271e-05
-7.48532e-05
4.33587e-05
-8.0646e-05
4.31664e-05
-8.63617e-05
4.27002e-05
-9.19677e-05
4.19654e-05
-9.74317e-05
4.0966e-05
-0.000102722
3.97058e-05
-0.000107807
3.8188e-05
-0.000112656
3.64158e-05
-0.000117239
3.43927e-05
-0.000121524
3.21233e-05
-0.000125483
2.96129e-05
-0.000129087
2.68687e-05
-0.000132309
2.38996e-05
-0.000135123
2.07167e-05
-0.000137504
1.73337e-05
-0.000139429
1.37669e-05
-0.000140878
1.00356e-05
-0.000141833
6.16211e-06
-0.000142279
2.17167e-06
-0.000142203
-1.90737e-06
-0.000141597
-6.04374e-06
-0.000140456
-1.02034e-05
-0.000138779
-1.43498e-05
-0.000136569
-1.84442e-05
-0.000133835
-2.2446e-05
-0.00013059
-2.63133e-05
-0.000126852
-3.00035e-05
-0.000122644
-3.34737e-05
-0.000117994
-3.66817e-05
-0.000112936
-3.95863e-05
-0.000107508
-4.21487e-05
-0.000101754
-4.43326e-05
-9.57209e-05
-4.61055e-05
-8.94619e-05
-4.74395e-05
-8.30322e-05
-4.83118e-05
-7.64903e-05
-4.87059e-05
-6.98969e-05
-4.86117e-05
-6.33142e-05
-4.80268e-05
-5.68047e-05
-4.69566e-05
-5.04303e-05
-4.54145e-05
-4.42514e-05
-4.34227e-05
-3.83257e-05
-4.1012e-05
-3.2707e-05
-3.8222e-05
-2.74444e-05
-3.51008e-05
-2.25812e-05
-3.17049e-05
-1.8154e-05
-2.80988e-05
-1.4192e-05
-2.4355e-05
-1.07163e-05
-2.0553e-05
-7.73951e-06
-1.67794e-05
-5.26559e-06
-1.3127e-05
-3.28985e-06
-9.69478e-06
-1.79929e-06
-6.58719e-06
-7.73229e-07
-3.91347e-06
-1.84322e-07
-1.78681e-06
-3.28541e-07
-4.44211e-07
2.37074e-06
-1.69161e-06
7.24192e-06
-3.6636e-06
1.21014e-05
-6.28736e-06
1.6842e-05
-9.49514e-06
2.13829e-05
-1.32238e-05
2.56617e-05
-1.74142e-05
2.9632e-05
-2.20111e-05
3.32617e-05
-2.69625e-05
3.65302e-05
-3.22192e-05
3.94265e-05
-3.77348e-05
4.1947e-05
-4.34652e-05
4.40934e-05
-4.93684e-05
4.58714e-05
-5.54042e-05
4.72893e-05
-6.15339e-05
4.83564e-05
-6.77204e-05
4.90828e-05
-7.39273e-05
4.9478e-05
-8.01196e-05
4.9551e-05
-8.62627e-05
4.93095e-05
-9.23229e-05
4.87604e-05
-9.82666e-05
4.79091e-05
-0.000104061
4.67604e-05
-0.000109673
4.53182e-05
-0.000115071
4.3586e-05
-0.000120223
4.15674e-05
-0.000125097
3.92665e-05
-0.000129662
3.66881e-05
-0.000133887
3.38383e-05
-0.000137743
3.07251e-05
-0.000141202
2.73584e-05
-0.000144236
2.37506e-05
-0.000146819
1.99169e-05
-0.000148928
1.58753e-05
-0.00015054
1.16473e-05
-0.000151635
7.25756e-06
-0.000152197
2.73403e-06
-0.000152213
-1.89183e-06
-0.000151671
-6.58531e-06
-0.000150566
-1.13086e-05
-0.000148895
-1.60211e-05
-0.00014666
-2.06795e-05
-0.000143867
-2.52387e-05
-0.000140529
-2.96516e-05
-0.000136662
-3.38704e-05
-0.000132288
-3.78469e-05
-0.000127437
-4.15333e-05
-0.00012214
-4.4883e-05
-0.000116437
-4.78516e-05
-0.000110372
-5.03974e-05
-0.000103995
-5.24832e-05
-9.73581e-05
-5.40761e-05
-9.05206e-05
-5.51493e-05
-8.35437e-05
-5.56828e-05
-7.64916e-05
-5.56638e-05
-6.94305e-05
-5.5088e-05
-6.24274e-05
-5.39597e-05
-5.55491e-05
-5.22927e-05
-4.88613e-05
-5.01105e-05
-4.24271e-05
-4.74462e-05
-3.63062e-05
-4.4343e-05
-3.05532e-05
-4.08537e-05
-2.52174e-05
-3.70407e-05
-2.03409e-05
-3.29753e-05
-1.59584e-05
-2.87374e-05
-1.20964e-05
-2.44151e-05
-8.77232e-06
-2.01034e-05
-5.99483e-06
-1.59045e-05
-3.76349e-06
-1.19261e-05
-2.06913e-06
-8.28156e-06
-8.94418e-07
-5.08818e-06
-2.14869e-07
-2.46636e-06
-5.43411e-07
-4.82044e-07
2.85279e-06
-1.83253e-06
8.5924e-06
-3.96293e-06
1.42319e-05
-6.79127e-06
1.96703e-05
-1.02415e-05
2.48331e-05
-1.4243e-05
2.96632e-05
-1.87305e-05
3.41195e-05
-2.36431e-05
3.81743e-05
-2.89243e-05
4.18113e-05
-3.4521e-05
4.50233e-05
-4.03838e-05
4.78098e-05
-4.6466e-05
5.01756e-05
-5.27235e-05
5.21289e-05
-5.91145e-05
5.36802e-05
-6.55989e-05
5.48408e-05
-7.21383e-05
5.56222e-05
-7.86956e-05
5.60353e-05
-8.52348e-05
5.60902e-05
-9.17206e-05
5.57954e-05
-9.81186e-05
5.51583e-05
-0.000104395
5.41851e-05
-0.000110515
5.28808e-05
-0.000116446
5.12497e-05
-0.000122156
4.92955e-05
-0.000127611
4.70223e-05
-0.000132779
4.44343e-05
-0.000137628
4.15369e-05
-0.000142126
3.83369e-05
-0.000146244
3.48428e-05
-0.000149951
3.10654e-05
-0.000153218
2.70184e-05
-0.00015602
2.27183e-05
-0.00015833
1.81849e-05
-0.000160124
1.34416e-05
-0.000161382
8.51529e-06
-0.000162084
3.43664e-06
-0.000162216
-1.7599e-06
-0.000161765
-7.0363e-06
-0.000160723
-1.2351e-05
-0.000159085
-1.76593e-05
-0.000156851
-2.29135e-05
-0.000154026
-2.80634e-05
-0.00015062
-3.30572e-05
-0.000146649
-3.78414e-05
-0.000142134
-4.23622e-05
-0.000137101
-4.65659e-05
-0.000131584
-5.04001e-05
-0.000125622
-5.38143e-05
-0.000119258
-5.67612e-05
-0.000112543
-5.91976e-05
-0.000105534
-6.10858e-05
-9.82891e-05
-6.2394e-05
-9.08739e-05
-6.30979e-05
-8.33561e-05
-6.31816e-05
-7.58061e-05
-6.2638e-05
-6.82955e-05
-6.14702e-05
-6.08966e-05
-5.96916e-05
-5.36808e-05
-5.73264e-05
-4.67171e-05
-5.44098e-05
-4.00716e-05
-5.09886e-05
-3.38053e-05
-4.712e-05
-2.79739e-05
-4.28721e-05
-2.26259e-05
-3.83233e-05
-1.7802e-05
-3.35613e-05
-1.35345e-05
-2.86826e-05
-9.8464e-06
-2.37915e-05
-6.75134e-06
-1.89995e-05
-4.25334e-06
-1.44241e-05
-2.34714e-06
-1.01878e-05
-1.01869e-06
-6.41663e-06
-2.45975e-07
-3.23908e-06
-7.89386e-07
-5.18291e-07
3.37108e-06
-1.96764e-06
1.00417e-05
-4.25016e-06
1.65144e-05
-7.27517e-06
2.26953e-05
-1.09587e-05
2.85167e-05
-1.52233e-05
3.39278e-05
-1.99974e-05
3.88936e-05
-2.52149e-05
4.33918e-05
-3.08149e-05
4.74113e-05
-3.67406e-05
5.0949e-05
-4.29396e-05
5.40087e-05
-4.93626e-05
5.65986e-05
-5.59637e-05
5.873e-05
-6.26993e-05
6.04158e-05
-6.95281e-05
6.16697e-05
-7.64108e-05
6.25049e-05
-8.33094e-05
6.29339e-05
-9.01872e-05
6.29679e-05
-9.70083e-05
6.26165e-05
-0.000103738
6.18877e-05
-0.000110341
6.07883e-05
-0.000116784
5.93235e-05
-0.000123032
5.74981e-05
-0.000129053
5.53162e-05
-0.000134812
5.27818e-05
-0.000140278
4.98997e-05
-0.000145416
4.66755e-05
-0.000150196
4.31164e-05
-0.000154584
3.92317e-05
-0.000158552
3.5033e-05
-0.000162068
3.05348e-05
-0.000165105
2.57551e-05
-0.000167635
2.0715e-05
-0.000169634
1.54399e-05
-0.000171077
9.9587e-06
-0.000171945
4.30466e-06
-0.00017222
-1.48497e-06
-0.000171887
-7.3689e-06
-0.000170936
-1.33019e-05
-0.00016936
-1.92353e-05
-0.000167157
-2.51168e-05
-0.000164329
-3.08915e-05
-0.000160884
-3.65022e-05
-0.000156835
-4.18899e-05
-0.000152203
-4.69947e-05
-0.000147012
-5.1757e-05
-0.000141294
-5.61178e-05
-0.000135088
-6.00203e-05
-0.000128438
-6.34107e-05
-0.000121396
-6.62397e-05
-0.000114019
-6.84635e-05
-0.000106368
-7.00447e-05
-9.85114e-05
-7.09544e-05
-9.05208e-05
-7.11723e-05
-8.24706e-05
-7.06882e-05
-7.44379e-05
-6.95029e-05
-6.65005e-05
-6.7629e-05
-5.87359e-05
-6.50909e-05
-5.122e-05
-6.19258e-05
-4.40255e-05
-5.8183e-05
-3.72209e-05
-5.39246e-05
-3.08686e-05
-4.92244e-05
-2.50243e-05
-4.41676e-05
-1.97357e-05
-3.885e-05
-1.50413e-05
-3.3377e-05
-1.09702e-05
-2.78626e-05
-7.54142e-06
-2.24283e-05
-4.76378e-06
-1.72018e-05
-2.63606e-06
-1.23155e-05
-1.14741e-06
-7.90528e-06
-2.78031e-07
-4.10846e-06
-1.06742e-06
-5.529e-07
3.92398e-06
-2.09669e-06
1.15855e-05
-4.52464e-06
1.89423e-05
-7.73786e-06
2.59086e-05
-1.1645e-05
3.24238e-05
-1.61618e-05
3.84447e-05
-2.12111e-05
4.39428e-05
-2.67217e-05
4.89024e-05
-3.26283e-05
5.33179e-05
-3.88709e-05
5.71916e-05
-4.53939e-05
6.05317e-05
-5.21459e-05
6.33506e-05
-5.90788e-05
6.56629e-05
-6.61478e-05
6.74848e-05
-7.33103e-05
6.88322e-05
-8.05261e-05
6.97207e-05
-8.77565e-05
7.01643e-05
-9.49643e-05
7.01756e-05
-0.000102113
6.97653e-05
-0.000109167
6.89421e-05
-0.000116093