/*--------------------------------*- C++ -*----------------------------------*\
  =========                 |
  \\      /  F ield         | OpenFOAM: The Open Source CFD Toolbox
   \\    /   O peration     | Website:  https://openfoam.org
    \\  /    A nd           | Version:  dev
     \\/     M anipulation  |
\*---------------------------------------------------------------------------*/
FoamFile
{
    format      ascii;
    class       volVectorField;
    location    "39.15";
    object      U;
}
// * * * * * * * * * * * * * * * * * * * * * * * * * * * * * * * * * * * * * //

dimensions      [0 1 -1 0 0 0 0];

internalField   nonuniform List<vector> 
5184
(
(1.233e-05 -1.27103e-05 0)
(4.51827e-05 -2.0894e-05 0)
(8.03605e-05 -1.72538e-05 0)
(9.60323e-05 -8.2006e-06 0)
(8.22108e-05 2.66701e-06 0)
(3.65147e-05 1.36181e-05 0)
(-4.05094e-05 2.38483e-05 0)
(-0.000146843 3.3053e-05 0)
(-0.000279691 4.11125e-05 0)
(-0.000435998 4.80326e-05 0)
(-0.000612641 5.38749e-05 0)
(-0.000806586 5.87243e-05 0)
(-0.00101496 6.26732e-05 0)
(-0.00123511 6.58129e-05 0)
(-0.00146456 6.82281e-05 0)
(-0.00170106 6.99944e-05 0)
(-0.00194254 7.11759e-05 0)
(-0.00218708 7.18252e-05 0)
(-0.00243289 7.19831e-05 0)
(-0.0026783 7.16791e-05 0)
(-0.00292169 7.09327e-05 0)
(-0.0031615 6.97543e-05 0)
(-0.00339621 6.81469e-05 0)
(-0.00362429 6.61074e-05 0)
(-0.00384421 6.36286e-05 0)
(-0.00405443 6.07008e-05 0)
(-0.00425339 5.73135e-05 0)
(-0.00443953 5.3457e-05 0)
(-0.00461126 4.91242e-05 0)
(-0.004767 4.43122e-05 0)
(-0.00490519 3.90233e-05 0)
(-0.00502431 3.3267e-05 0)
(-0.0051229 2.70603e-05 0)
(-0.00519958 2.04293e-05 0)
(-0.00525308 1.34097e-05 0)
(-0.0052823 6.04727e-06 0)
(-0.00528629 -1.60189e-06 0)
(-0.00526431 -9.47128e-06 0)
(-0.00521588 -1.74844e-05 0)
(-0.00514075 -2.55552e-05 0)
(-0.005039 -3.35894e-05 0)
(-0.004911 -4.14854e-05 0)
(-0.00475746 -4.91359e-05 0)
(-0.00457942 -5.64298e-05 0)
(-0.0043783 -6.32547e-05 0)
(-0.00415584 -6.94984e-05 0)
(-0.00391415 -7.50523e-05 0)
(-0.00365565 -7.98133e-05 0)
(-0.00338308 -8.36868e-05 0)
(-0.00309942 -8.6589e-05 0)
(-0.00280793 -8.84495e-05 0)
(-0.00251204 -8.92128e-05 0)
(-0.0022153 -8.88409e-05 0)
(-0.00192138 -8.73139e-05 0)
(-0.00163395 -8.46316e-05 0)
(-0.00135666 -8.08134e-05 0)
(-0.00109304 -7.58984e-05 0)
(-0.000846466 -6.99457e-05 0)
(-0.000620082 -6.30328e-05 0)
(-0.00041674 -5.52558e-05 0)
(-0.000238939 -4.67288e-05 0)
(-8.87571e-05 -3.75849e-05 0)
(3.22176e-05 -2.79791e-05 0)
(0.000122971 -1.80939e-05 0)
(0.000183172 -8.15474e-06 0)
(0.000213324 1.54362e-06 0)
(0.000215015 1.05769e-05 0)
(0.000191297 1.83081e-05 0)
(0.000147201 2.37248e-05 0)
(9.08241e-05 2.51349e-05 0)
(3.66372e-05 1.98525e-05 0)
(6.22771e-06 6.24368e-06 0)
(2.08544e-05 -4.58957e-05 0)
(6.5655e-05 -6.57332e-05 0)
(9.47767e-05 -4.05808e-05 0)
(7.28912e-05 7.62032e-06 0)
(-1.88453e-05 6.56779e-05 0)
(-0.000187251 0.000126005 0)
(-0.00043291 0.000184321 0)
(-0.000752607 0.000238381 0)
(-0.00114079 0.000287042 0)
(-0.00159069 0.000329863 0)
(-0.00209495 0.000366803 0)
(-0.00264611 0.000398052 0)
(-0.00323687 0.000423922 0)
(-0.00386024 0.00044478 0)
(-0.00450961 0.000461002 0)
(-0.00517877 0.000472949 0)
(-0.00586194 0.000480941 0)
(-0.00655365 0.000485256 0)
(-0.00724878 0.000486115 0)
(-0.00794244 0.000483692 0)
(-0.00862993 0.000478107 0)
(-0.00930669 0.000469436 0)
(-0.00996825 0.000457719 0)
(-0.0106102 0.000442965 0)
(-0.0112281 0.00042516 0)
(-0.0118176 0.000404283 0)
(-0.0123742 0.000380308 0)
(-0.0128935 0.000353219 0)
(-0.0133712 0.000323016 0)
(-0.0138029 0.000289726 0)
(-0.0141843 0.000253409 0)
(-0.0145115 0.000214169 0)
(-0.0147803 0.000172154 0)
(-0.0149873 0.000127569 0)
(-0.0151292 8.06736e-05 0)
(-0.0152031 3.17859e-05 0)
(-0.0152066 -1.87145e-05 0)
(-0.015138 -7.03894e-05 0)
(-0.0149962 -0.000122743 0)
(-0.0147807 -0.000175229 0)
(-0.014492 -0.000227252 0)
(-0.0141313 -0.00027818 0)
(-0.0137007 -0.000327351 0)
(-0.0132032 -0.000374087 0)
(-0.0126429 -0.000417702 0)
(-0.0120245 -0.000457522 0)
(-0.0113538 -0.000492893 0)
(-0.0106375 -0.000523201 0)
(-0.00988287 -0.000547885 0)
(-0.00909809 -0.000566449 0)
(-0.00829185 -0.000578482 0)
(-0.00747333 -0.000583664 0)
(-0.00665205 -0.000581779 0)
(-0.00583776 -0.000572723 0)
(-0.00504026 -0.000556514 0)
(-0.0042692 -0.000533289 0)
(-0.00353396 -0.000503313 0)
(-0.00284348 -0.000466975 0)
(-0.00220604 -0.000424791 0)
(-0.00162911 -0.000377401 0)
(-0.00111917 -0.000325573 0)
(-0.000681522 -0.000270214 0)
(-0.000320076 -0.000212384 0)
(-3.71162e-05 -0.000153335 0)
(0.000166991 -9.45801e-05 0)
(0.00029417 -3.79962e-05 0)
(0.000349171 1.39546e-05 0)
(0.000340271 5.79667e-05 0)
(0.000279966 8.94467e-05 0)
(0.000186115 0.000101897 0)
(8.6396e-05 8.65458e-05 0)
(1.96855e-05 3.64957e-05 0)
(1.76448e-05 -8.13367e-05 0)
(4.13619e-05 -9.50802e-05 0)
(1.96535e-05 -1.91739e-05 0)
(-8.39401e-05 0.000105914 0)
(-0.000290212 0.000254668 0)
(-0.000607913 0.000410639 0)
(-0.00103831 0.000563511 0)
(-0.00157758 0.000707146 0)
(-0.00221857 0.000838093 0)
(-0.00295208 0.000954645 0)
(-0.00376783 0.0010562 0)
(-0.00465512 0.00114287 0)
(-0.00560321 0.00121515 0)
(-0.00660164 0.00127377 0)
(-0.00764036 0.00131955 0)
(-0.00870979 0.00135333 0)
(-0.00980086 0.00137586 0)
(-0.010905 0.00138782 0)
(-0.0120139 0.00138978 0)
(-0.0131198 0.00138218 0)
(-0.0142151 0.00136534 0)
(-0.0152924 0.00133949 0)
(-0.0163445 0.00130476 0)
(-0.0173642 0.00126121 0)
(-0.0183445 0.00120886 0)
(-0.0192783 0.00114768 0)
(-0.0201586 0.00107768 0)
(-0.0209784 0.000998859 0)
(-0.0217309 0.000911291 0)
(-0.0224092 0.000815111 0)
(-0.0230068 0.000710551 0)
(-0.0235175 0.000597958 0)
(-0.0239352 0.000477803 0)
(-0.0242545 0.000350704 0)
(-0.0244706 0.000217426 0)
(-0.0245791 7.88919e-05 0)
(-0.0245767 -6.38165e-05 0)
(-0.0244608 -0.000209464 0)
(-0.0242301 -0.000356666 0)
(-0.0238841 -0.000503905 0)
(-0.0234237 -0.000649545 0)
(-0.022851 -0.000791852 0)
(-0.0221695 -0.000929024 0)
(-0.021384 -0.00105922 0)
(-0.0205008 -0.00118058 0)
(-0.0195275 -0.00129129 0)
(-0.0184731 -0.0013896 0)
(-0.0173477 -0.00147386 0)
(-0.0161628 -0.00154256 0)
(-0.0149308 -0.0015944 0)
(-0.013665 -0.00162828 0)
(-0.0123795 -0.00164335 0)
(-0.0110887 -0.00163905 0)
(-0.0098076 -0.00161513 0)
(-0.00855101 -0.00157165 0)
(-0.00733366 -0.00150903 0)
(-0.00616979 -0.001428 0)
(-0.00507294 -0.00132966 0)
(-0.00405566 -0.00121547 0)
(-0.00312922 -0.00108723 0)
(-0.00230336 -0.000947121 0)
(-0.00158597 -0.000797705 0)
(-0.000982789 -0.000641992 0)
(-0.00049705 -0.000483515 0)
(-0.000129061 -0.000326475 0)
(0.00012425 -0.000175961 0)
(0.000269982 -3.82913e-05 0)
(0.00031999 7.85145e-05 0)
(0.000291414 0.000164158 0)
(0.000207488 0.00020547 0)
(0.00010249 0.000186341 0)
(2.49849e-05 9.04173e-05 0)
(8.84628e-06 -9.77848e-05 0)
(-6.98927e-06 -7.32086e-05 0)
(-0.000107553 8.47413e-05 0)
(-0.000322352 0.000318364 0)
(-0.000669637 0.000590152 0)
(-0.00115782 0.000874474 0)
(-0.00178764 0.00115429 0)
(-0.00255435 0.00141882 0)
(-0.00344938 0.00166158 0)
(-0.00446172 0.00187903 0)
(-0.00557887 0.00206963 0)
(-0.00678763 0.00223311 0)
(-0.00807459 0.00237003 0)
(-0.00942649 0.00248145 0)
(-0.0108304 0.00256862 0)
(-0.0122739 0.00263287 0)
(-0.0137452 0.0026755 0)
(-0.0152327 0.00269764 0)
(-0.0167255 0.00270029 0)
(-0.0182131 0.00268423 0)
(-0.0196853 0.00265006 0)
(-0.0211321 0.0025982 0)
(-0.0225438 0.00252893 0)
(-0.0239106 0.0024424 0)
(-0.025223 0.00233869 0)
(-0.0264717 0.00221786 0)
(-0.0276471 0.00207994 0)
(-0.0287401 0.00192505 0)
(-0.0297415 0.00175341 0)
(-0.0306424 0.00156535 0)
(-0.0314343 0.00136141 0)
(-0.032109 0.00114232 0)
(-0.0326588 0.000909054 0)
(-0.0330767 0.000662851 0)
(-0.0333565 0.000405228 0)
(-0.0334929 0.000137986 0)
(-0.0334818 -0.000136785 0)
(-0.03332 -0.000416713 0)
(-0.0330059 -0.000699163 0)
(-0.0325393 -0.000981256 0)
(-0.0319215 -0.0012599 0)
(-0.0311556 -0.00153185 0)
(-0.0302463 -0.00179372 0)
(-0.0292002 -0.00204206 0)
(-0.0280254 -0.00227343 0)
(-0.026732 -0.00248444 0)
(-0.0253317 -0.00267185 0)
(-0.0238378 -0.00283259 0)
(-0.0222653 -0.0029639 0)
(-0.02063 -0.00306336 0)
(-0.0189494 -0.00312893 0)
(-0.0172416 -0.00315908 0)
(-0.0155253 -0.00315279 0)
(-0.0138197 -0.0031096 0)
(-0.012144 -0.00302966 0)
(-0.0105172 -0.00291378 0)
(-0.00895757 -0.00276336 0)
(-0.00748264 -0.00258052 0)
(-0.00610853 -0.00236802 0)
(-0.00484972 -0.0021293 0)
(-0.00371872 -0.00186853 0)
(-0.00272563 -0.00159059 0)
(-0.00187778 -0.00130122 0)
(-0.0011793 -0.00100707 0)
(-0.000630658 -0.000715968 0)
(-0.000228147 -0.000437194 0)
(3.67135e-05 -0.000181891 0)
(0.000177828 3.63267e-05 0)
(0.000214928 0.000200738 0)
(0.000174191 0.000290947 0)
(9.30707e-05 0.000282657 0)
(2.40366e-05 0.000147327 0)
(-2.12087e-06 -8.44559e-05 0)
(-6.72848e-05 2.08358e-05 0)
(-0.000264118 0.00029543 0)
(-0.000609823 0.000668079 0)
(-0.0011169 0.00109096 0)
(-0.00179157 0.00153015 0)
(-0.00263283 0.00196221 0)
(-0.00363432 0.00237164 0)
(-0.0047859 0.00274874 0)
(-0.00607485 0.00308785 0)
(-0.00748683 0.00338621 0)
(-0.00900657 0.00364298 0)
(-0.0106185 0.00385865 0)
(-0.012307 0.00403443 0)
(-0.0140568 0.00417201 0)
(-0.0158532 0.00427318 0)
(-0.0176816 0.00433976 0)
(-0.0195283 0.00437338 0)
(-0.0213799 0.00437547 0)
(-0.0232235 0.0043472 0)
(-0.0250463 0.00428948 0)
(-0.0268363 0.00420297 0)
(-0.0285811 0.00408813 0)
(-0.030269 0.00394526 0)
(-0.031888 0.00377454 0)
(-0.0334267 0.00357614 0)
(-0.0348735 0.00335023 0)
(-0.036217 0.0030971 0)
(-0.0374462 0.00281718 0)
(-0.0385503 0.00251115 0)
(-0.039519 0.00217995 0)
(-0.0403425 0.00182484 0)
(-0.0410117 0.00144749 0)
(-0.0415182 0.00104995 0)
(-0.0418548 0.00063469 0)
(-0.0420153 0.00020464 0)
(-0.0419948 -0.00023684 0)
(-0.0417901 -0.000685961 0)
(-0.0413992 -0.00113853 0)
(-0.0408222 -0.00159 0)
(-0.040061 -0.00203549 0)
(-0.0391193 -0.00246988 0)
(-0.0380031 -0.00288788 0)
(-0.0367203 -0.00328411 0)
(-0.035281 -0.00365318 0)
(-0.0336972 -0.00398982 0)
(-0.0319831 -0.00428897 0)
(-0.0301547 -0.00454588 0)
(-0.0282296 -0.00475625 0)
(-0.0262272 -0.00491633 0)
(-0.024168 -0.00502297 0)
(-0.0220738 -0.0050738 0)
(-0.0199668 -0.00506724 0)
(-0.01787 -0.00500262 0)
(-0.0158063 -0.00488018 0)
(-0.0137982 -0.0047012 0)
(-0.0118677 -0.00446795 0)
(-0.0100356 -0.00418375 0)
(-0.0083211 -0.00385298 0)
(-0.00674161 -0.00348111 0)
(-0.00531205 -0.00307471 0)
(-0.00404455 -0.00264153 0)
(-0.00294798 -0.00219055 0)
(-0.00202748 -0.0017322 0)
(-0.00128399 -0.00127853 0)
(-0.000713733 -0.000843583 0)
(-0.000307723 -0.000443864 0)
(-5.11796e-05 -9.8933e-05 0)
(7.67834e-05 0.000167867 0)
(0.00010368 0.000328799 0)
(6.75461e-05 0.000351122 0)
(1.96744e-05 0.000194202 0)
(-1.36941e-05 -3.75704e-05 0)
(-0.000132845 0.00019733 0)
(-0.00043588 0.000626938 0)
(-0.000924776 0.00117048 0)
(-0.00160417 0.001772 0)
(-0.00247662 0.00239062 0)
(-0.00353829 0.00299726 0)
(-0.00478048 0.00357213 0)
(-0.0061911 0.00410238 0)
(-0.00775562 0.00458023 0)
(-0.0094579 0.0050016 0)
(-0.0112809 0.00536501 0)
(-0.0132071 0.00567069 0)
(-0.0152189 0.00592002 0)
(-0.0172992 0.00611497 0)
(-0.0194309 0.00625781 0)
(-0.0215976 0.00635081 0)
(-0.0237834 0.00639612 0)
(-0.0259727 0.0063956 0)
(-0.0281505 0.00635082 0)
(-0.030302 0.00626302 0)
(-0.0324128 0.00613312 0)
(-0.0344687 0.00596179 0)
(-0.0364558 0.00574951 0)
(-0.0383603 0.00549662 0)
(-0.0401685 0.00520346 0)
(-0.0418671 0.0048704 0)
(-0.0434429 0.00449797 0)
(-0.0448831 0.00408693 0)
(-0.0461752 0.00363837 0)
(-0.0473074 0.0031538 0)
(-0.0482685 0.00263515 0)
(-0.049048 0.00208492 0)
(-0.0496366 0.00150614 0)
(-0.0500261 0.000902483 0)
(-0.0502096 0.000278188 0)
(-0.0501816 -0.000361875 0)
(-0.0499385 -0.00101225 0)
(-0.0494785 -0.00166693 0)
(-0.0488018 -0.0023194 0)
(-0.0479106 -0.00296275 0)
(-0.0468096 -0.00358968 0)
(-0.0455055 -0.00419271 0)
(-0.0440075 -0.00476421 0)
(-0.0423273 -0.00529659 0)
(-0.0404788 -0.0057824 0)
(-0.0384779 -0.00621451 0)
(-0.0363431 -0.00658625 0)
(-0.0340945 -0.00689156 0)
(-0.0317542 -0.00712513 0)
(-0.0293455 -0.00728258 0)
(-0.0268932 -0.00736053 0)
(-0.0244227 -0.00735678 0)
(-0.0219603 -0.00727039 0)
(-0.0195319 -0.00710172 0)
(-0.0171634 -0.00685258 0)
(-0.0148799 -0.0065262 0)
(-0.0127051 -0.00612731 0)
(-0.0106612 -0.00566215 0)
(-0.00876812 -0.0051385 0)
(-0.00704306 -0.0045657 0)
(-0.00550016 -0.00395474 0)
(-0.00414988 -0.00331833 0)
(-0.00299858 -0.00267106 0)
(-0.00204803 -0.00202967 0)
(-0.00129498 -0.00141335 0)
(-0.000730612 -0.000844255 0)
(-0.000340216 -0.000348066 0)
(-0.000102817 4.52336e-05 0)
(9.22718e-06 0.000300695 0)
(3.25313e-05 0.0003775 0)
(1.36288e-05 0.0002246 0)
(-2.51883e-05 4.40683e-05 0)
(-0.000200041 0.000461285 0)
(-0.000614181 0.00108718 0)
(-0.00125313 0.00183499 0)
(-0.00211242 0.00264281 0)
(-0.0031899 0.00346439 0)
(-0.004478 0.00426609 0)
(-0.00596501 0.00502445 0)
(-0.00763642 0.00572385 0)
(-0.00947567 0.00635459 0)
(-0.0114648 0.00691137 0)
(-0.0135849 0.00739201 0)
(-0.0158169 0.00779653 0)
(-0.0181415 0.00812635 0)
(-0.0205395 0.00838375 0)
(-0.0229924 0.00857139 0)
(-0.0254818 0.00869201 0)
(-0.0279899 0.0087482 0)
(-0.0304993 0.00874228 0)
(-0.0329932 0.00867619 0)
(-0.0354549 0.00855152 0)
(-0.0378681 0.00836946 0)
(-0.0402168 0.00813092 0)
(-0.0424851 0.0078366 0)
(-0.0446576 0.00748703 0)
(-0.0467189 0.00708277 0)
(-0.0486537 0.00662445 0)
(-0.0504474 0.00611292 0)
(-0.0520856 0.00554936 0)
(-0.0535544 0.00493539 0)
(-0.0548405 0.00427315 0)
(-0.0559315 0.00356543 0)
(-0.0568159 0.00281568 0)
(-0.0574833 0.0020281 0)
(-0.0579247 0.00120769 0)
(-0.0581325 0.000360213 0)
(-0.0581008 -0.000507744 0)
(-0.0578258 -0.00138885 0)
(-0.0573055 -0.00227506 0)
(-0.0565402 -0.00315768 0)
(-0.0555326 -0.00402747 0)
(-0.0542878 -0.00487478 0)
(-0.0528135 -0.00568964 0)
(-0.0511198 -0.00646195 0)
(-0.0492196 -0.00718167 0)
(-0.0471283 -0.00783893 0)
(-0.0448637 -0.0084243 0)
(-0.0424461 -0.00892896 0)
(-0.0398977 -0.00934489 0)
(-0.0372429 -0.00966507 0)
(-0.0345076 -0.00988368 0)
(-0.0317192 -0.00999626 0)
(-0.028906 -0.00999986 0)
(-0.0260968 -0.00989321 0)
(-0.0233207 -0.00967679 0)
(-0.0206065 -0.00935296 0)
(-0.0179819 -0.00892601 0)
(-0.0154737 -0.00840218 0)
(-0.0131066 -0.00778977 0)
(-0.010903 -0.00709907 0)
(-0.00888253 -0.0063425 0)
(-0.00706121 -0.00553455 0)
(-0.00545133 -0.00469199 0)
(-0.00406073 -0.00383391 0)
(-0.00289239 -0.00298201 0)
(-0.00194405 -0.0021609 0)
(-0.00120774 -0.0013985 0)
(-0.000669511 -0.000726694 0)
(-0.000309149 -0.000181962 0)
(-9.98088e-05 0.000193874 0)
(-7.6883e-06 0.000352686 0)
(6.86696e-06 0.000235087 0)
(-3.63455e-05 0.000160457 0)
(-0.000266989 0.000814573 0)
(-0.000793898 0.00167996 0)
(-0.00158594 0.0026666 0)
(-0.00262895 0.00370877 0)
(-0.00391538 0.00475641 0)
(-0.00543325 0.00577247 0)
(-0.00716727 0.00673067 0)
(-0.00910012 0.00761318 0)
(-0.0112129 0.00840874 0)
(-0.0134857 0.00911101 0)
(-0.0158979 0.00971727 0)
(-0.0184286 0.0102273 0)
(-0.0210569 0.0106427 0)
(-0.0237623 0.010966 0)
(-0.0265245 0.0112001 0)
(-0.0293235 0.0113484 0)
(-0.03214 0.0114138 0)
(-0.034955 0.011399 0)
(-0.0377499 0.0113064 0)
(-0.0405065 0.011138 0)
(-0.0432068 0.0108951 0)
(-0.0458332 0.0105789 0)
(-0.0483682 0.0101904 0)
(-0.0507948 0.00973042 0)
(-0.053096 0.00919966 0)
(-0.0552551 0.0085991 0)
(-0.0572559 0.00792999 0)
(-0.0590827 0.00719401 0)
(-0.0607203 0.0063934 0)
(-0.0621542 0.00553105 0)
(-0.0633708 0.00461068 0)
(-0.0643576 0.00363685 0)
(-0.0651034 0.00261505 0)
(-0.0655984 0.00155177 0)
(-0.0658343 0.000454475 0)
(-0.0658049 -0.000668399 0)
(-0.0655059 -0.00180745 0)
(-0.0649353 -0.00295241 0)
(-0.0640933 -0.0040922 0)
(-0.0629829 -0.00521509 0)
(-0.0616096 -0.0063088 0)
(-0.0599816 -0.00736073 0)
(-0.05811 -0.00835806 0)
(-0.0560086 -0.00928808 0)
(-0.0536939 -0.0101383 0)
(-0.0511853 -0.0108968 0)
(-0.0485045 -0.0115523 0)
(-0.0456758 -0.0120948 0)
(-0.0427254 -0.0125153 0)
(-0.0396814 -0.0128064 0)
(-0.0365737 -0.0129623 0)
(-0.0334328 -0.0129793 0)
(-0.0302904 -0.0128558 0)
(-0.0271781 -0.0125922 0)
(-0.0241273 -0.0121915 0)
(-0.0211688 -0.0116591 0)
(-0.0183318 -0.0110027 0)
(-0.0156437 -0.0102329 0)
(-0.0131294 -0.00936266 0)
(-0.0108108 -0.00840758 0)
(-0.00870624 -0.00738596 0)
(-0.00682994 -0.00631881 0)
(-0.00519152 -0.00522996 0)
(-0.00379558 -0.00414628 0)
(-0.00264127 -0.00309792 0)
(-0.00172201 -0.00211869 0)
(-0.00102522 -0.00124656 0)
(-0.000532066 -0.00052435 0)
(-0.000217185 -2.74548e-07 0)
(-5.04437e-05 0.000271108 0)
(-7.96993e-08 0.000223956 0)
(-4.70691e-05 0.000310958 0)
(-0.000332702 0.0012571 0)
(-0.00097203 0.00240623 0)
(-0.00191759 0.00366719 0)
(-0.00314537 0.00497221 0)
(-0.004642 0.00626892 0)
(-0.00639067 0.00751806 0)
(-0.00837209 0.0086914 0)
(-0.0105657 0.00976961 0)
(-0.0129502 0.0107403 0)
(-0.0155034 0.0115965 0)
(-0.0182028 0.012335 0)
(-0.0210259 0.0129557 0)
(-0.0239504 0.0134602 0)
(-0.0269542 0.0138514 0)
(-0.0300156 0.0141327 0)
(-0.0331133 0.0143076 0)
(-0.0362264 0.0143798 0)
(-0.0393347 0.0143523 0)
(-0.0424182 0.0142278 0)
(-0.045457 0.0140085 0)
(-0.048432 0.0136963 0)
(-0.051324 0.0132925 0)
(-0.0541142 0.0127983 0)
(-0.0567839 0.0122149 0)
(-0.0593151 0.0115432 0)
(-0.0616896 0.0107845 0)
(-0.0638899 0.00994071 0)
(-0.0658991 0.00901388 0)
(-0.0677007 0.00800699 0)
(-0.0692793 0.00692379 0)
(-0.0706202 0.00576902 0)
(-0.0717099 0.00454845 0)
(-0.0725364 0.00326898 0)
(-0.0730891 0.0019387 0)
(-0.0733592 0.000566881 0)
(-0.0733399 -0.000836007 0)
(-0.0730264 -0.00225837 0)
(-0.0724167 -0.00368755 0)
(-0.0715107 -0.00510993 0)
(-0.0703116 -0.00651111 0)
(-0.0688249 -0.00787603 0)
(-0.0670594 -0.00918922 0)
(-0.0650265 -0.010435 0)
(-0.062741 -0.0115978 0)
(-0.0602202 -0.0126623 0)
(-0.0574847 -0.0136138 0)
(-0.0545575 -0.0144386 0)
(-0.0514644 -0.0151242 0)
(-0.0482334 -0.0156595 0)
(-0.0448946 -0.0160355 0)
(-0.0414798 -0.016245 0)
(-0.038022 -0.0162833 0)
(-0.0345552 -0.0161481 0)
(-0.0311136 -0.01584 0)
(-0.0277313 -0.0153624 0)
(-0.0244416 -0.0147217 0)
(-0.0212766 -0.0139274 0)
(-0.0182661 -0.0129923 0)
(-0.0154379 -0.011932 0)
(-0.0128162 -0.0107657 0)
(-0.0104219 -0.00951543 0)
(-0.00827134 -0.0082067 0)
(-0.00637631 -0.00686823 0)
(-0.00474337 -0.00553219 0)
(-0.00337355 -0.00423437 0)
(-0.00226206 -0.00301448 0)
(-0.0013982 -0.00191652 0)
(-0.000764993 -0.000989396 0)
(-0.000338995 -0.000287278 0)
(-9.41748e-05 0.000129655 0)
(-6.94068e-06 0.000190555 0)
(-5.73469e-05 0.00049467 0)
(-0.0003967 0.00178764 0)
(-0.00114684 0.00326511 0)
(-0.00224455 0.00483638 0)
(-0.00365608 0.00643311 0)
(-0.0053621 0.00800197 0)
(-0.00734067 0.0095026 0)
(-0.00956821 0.0109058 0)
(-0.0120208 0.0121914 0)
(-0.0146742 0.0133464 0)
(-0.017504 0.0143637 0)
(-0.0204858 0.0152399 0)
(-0.0235955 0.0159751 0)
(-0.0268093 0.0165711 0)
(-0.0301035 0.0170312 0)
(-0.0334554 0.0173592 0)
(-0.0368423 0.0175593 0)
(-0.0402423 0.0176353 0)
(-0.0436336 0.0175908 0)
(-0.0469952 0.0174288 0)
(-0.050306 0.0171519 0)
(-0.0535455 0.0167621 0)
(-0.0566935 0.0162612 0)
(-0.0597297 0.0156505 0)
(-0.0626346 0.0149314 0)
(-0.0653884 0.0141054 0)
(-0.0679722 0.013174 0)
(-0.0703672 0.0121396 0)
(-0.0725554 0.011005 0)
(-0.0745192 0.00977375 0)
(-0.0762422 0.00845063 0)
(-0.0777087 0.00704142 0)
(-0.0789044 0.0055532 0)
(-0.0798163 0.00399436 0)
(-0.0804332 0.00237469 0)
(-0.0807456 0.000705371 0)
(-0.080746 -0.001001 0)
(-0.0804293 -0.00273051 0)
(-0.0797928 -0.004468 0)
(-0.0788366 -0.00619718 0)
(-0.0775632 -0.00790082 0)
(-0.0759785 -0.00956094 0)
(-0.0740912 -0.0111591 0)
(-0.0719132 -0.0126764 0)
(-0.0694596 -0.0140944 0)
(-0.0667485 -0.0153946 0)
(-0.0638012 -0.0165596 0)
(-0.060642 -0.0175727 0)
(-0.0572978 -0.018419 0)
(-0.0537983 -0.0190852 0)
(-0.0501751 -0.0195601 0)
(-0.0464622 -0.019835 0)
(-0.0426945 -0.019904 0)
(-0.0389085 -0.0197643 0)
(-0.0351408 -0.0194162 0)
(-0.0314282 -0.0188636 0)
(-0.0278066 -0.018114 0)
(-0.0243109 -0.0171783 0)
(-0.0209738 -0.0160717 0)
(-0.0178257 -0.0148126 0)
(-0.0148939 -0.0134236 0)
(-0.0122015 -0.0119309 0)
(-0.00976773 -0.0103644 0)
(-0.00760673 -0.00875788 0)
(-0.0057274 -0.00714897 0)
(-0.00413303 -0.00557913 0)
(-0.00282105 -0.00409398 0)
(-0.00178298 -0.00274351 0)
(-0.00100406 -0.00158249 0)
(-0.000463023 -0.00067068 0)
(-0.000138064 -7.32891e-05 0)
(-1.36001e-05 0.000134803 0)
(-6.71968e-05 0.00071056 0)
(-0.000458754 0.00240428 0)
(-0.00131732 0.00425453 0)
(-0.00256461 0.00617221 0)
(-0.00415739 0.00808967 0)
(-0.00607034 0.00995379 0)
(-0.0082763 0.0117242 0)
(-0.0107473 0.0133715 0)
(-0.0134556 0.0148756 0)
(-0.0163743 0.0162236 0)
(-0.0194764 0.0174082 0)
(-0.0227357 0.0184266 0)
(-0.0261261 0.0192792 0)
(-0.0296225 0.0199682 0)
(-0.0332 0.0204976 0)
(-0.0368346 0.0208715 0)
(-0.0405025 0.0210946 0)
(-0.0441806 0.0211711 0)
(-0.0478464 0.0211052 0)
(-0.0514774 0.0209002 0)
(-0.0550517 0.0205589 0)
(-0.0585477 0.0200838 0)
(-0.0619441 0.0194768 0)
(-0.0652197 0.0187395 0)
(-0.0683536 0.0178736 0)
(-0.0713254 0.0168809 0)
(-0.0741148 0.0157635 0)
(-0.0767022 0.014524 0)
(-0.0790684 0.013166 0)
(-0.081195 0.0116939 0)
(-0.0830645 0.0101134 0)
(-0.0846604 0.00843134 0)
(-0.0859674 0.00665622 0)
(-0.0869719 0.00479795 0)
(-0.0876615 0.00286808 0)
(-0.0880262 0.000879798 0)
(-0.0880578 -0.00115213 0)
(-0.0877506 -0.00321137 0)
(-0.0871012 -0.00528017 0)
(-0.0861092 -0.00733945 0)
(-0.084777 -0.00936906 0)
(-0.08311 -0.0113479 0)
(-0.0811168 -0.0132544 0)
(-0.0788095 -0.0150666 0)
(-0.0762033 -0.0167625 0)
(-0.0733167 -0.0183206 0)
(-0.0701716 -0.0197203 0)
(-0.0667931 -0.020942 0)
(-0.0632092 -0.021968 0)
(-0.0594508 -0.0227823 0)
(-0.0555514 -0.0233717 0)
(-0.0515463 -0.0237257 0)
(-0.047473 -0.023837 0)
(-0.0433699 -0.0237019 0)
(-0.0392762 -0.0233204 0)
(-0.0352314 -0.0226967 0)
(-0.0312741 -0.0218391 0)
(-0.0274423 -0.0207603 0)
(-0.0237716 -0.0194775 0)
(-0.0202955 -0.018012 0)
(-0.0170442 -0.0163899 0)
(-0.0140439 -0.0146416 0)
(-0.0113167 -0.0128015 0)
(-0.00887952 -0.0109085 0)
(-0.006744 -0.00900581 0)
(-0.00491606 -0.00714062 0)
(-0.00339567 -0.0053645 0)
(-0.00217689 -0.00373339 0)
(-0.0012474 -0.00230782 0)
(-0.000588256 -0.00115293 0)
(-0.000181784 -0.000338563 0)
(-2.00314e-05 5.68681e-05 0)
(-7.66428e-05 0.000957548 0)
(-0.000518762 0.00310472 0)
(-0.00148287 0.00537158 0)
(-0.00287632 0.00767157 0)
(-0.00464673 0.00993874 0)
(-0.00676291 0.0121212 0)
(-0.00919246 0.0141795 0)
(-0.0119029 0.0160851 0)
(-0.0148628 0.0178184 0)
(-0.0180422 0.0193673 0)
(-0.0214116 0.020725 0)
(-0.0249428 0.0218896 0)
(-0.028608 0.0228619 0)
(-0.0323806 0.023645 0)
(-0.0362345 0.0242433 0)
(-0.0401446 0.0246617 0)
(-0.044086 0.0249054 0)
(-0.0480348 0.0249792 0)
(-0.0519674 0.0248876 0)
(-0.0558605 0.0246342 0)
(-0.0596914 0.0242223 0)
(-0.0634375 0.0236545 0)
(-0.0670765 0.0229331 0)
(-0.0705865 0.02206 0)
(-0.0739456 0.0210372 0)
(-0.0771324 0.0198666 0)
(-0.0801259 0.0185509 0)
(-0.0829054 0.0170933 0)
(-0.0854509 0.0154979 0)
(-0.087743 0.01377 0)
(-0.0897634 0.0119161 0)
(-0.0914946 0.00994449 0)
(-0.0929205 0.0078648 0)
(-0.0940264 0.00568858 0)
(-0.0947994 0.00342919 0)
(-0.0952283 0.00110182 0)
(-0.0953042 -0.0012765 0)
(-0.0950206 -0.003687 0)
(-0.0943734 -0.00610923 0)
(-0.0933615 -0.00852128 0)
(-0.0919866 -0.0108999 0)
(-0.0902537 -0.013221 0)
(-0.0881711 -0.0154594 0)
(-0.0857504 -0.0175899 0)
(-0.0830068 -0.0195872 0)
(-0.079959 -0.0214263 0)
(-0.0766293 -0.0230832 0)
(-0.0730432 -0.0245351 0)
(-0.0692297 -0.0257613 0)
(-0.0652207 -0.026743 0)
(-0.0610511 -0.0274646 0)
(-0.0567582 -0.0279134 0)
(-0.0523811 -0.0280806 0)
(-0.0479606 -0.0279612 0)
(-0.0435386 -0.0275549 0)
(-0.0391572 -0.0268658 0)
(-0.0348581 -0.0259031 0)
(-0.0306822 -0.0246809 0)
(-0.0266687 -0.0232185 0)
(-0.0228542 -0.0215401 0)
(-0.0192722 -0.0196752 0)
(-0.0159525 -0.0176583 0)
(-0.0129202 -0.0155288 0)
(-0.0101956 -0.0133305 0)
(-0.00779329 -0.0111123 0)
(-0.00572227 -0.00892736 0)
(-0.00398536 -0.00683315 0)
(-0.00257939 -0.00489164 0)
(-0.00149465 -0.00316912 0)
(-0.000714536 -0.00173603 0)
(-0.000225336 -0.000666732 0)
(-2.62612e-05 -4.30341e-05 0)
(-8.57063e-05 0.00123455 0)
(-0.000576671 0.00388642 0)
(-0.00164312 0.00661285 0)
(-0.0031787 0.00933056 0)
(-0.00512228 0.0119762 0)
(-0.00743697 0.0144999 0)
(-0.0100852 0.0168641 0)
(-0.01303 0.0190419 0)
(-0.0162363 0.0210149 0)
(-0.0196709 0.0227724 0)
(-0.023302 0.0243088 0)
(-0.027099 0.025623 0)
(-0.0310327 0.026717 0)
(-0.035075 0.0275948 0)
(-0.0391986 0.0282615 0)
(-0.0433772 0.028723 0)
(-0.0475853 0.0289848 0)
(-0.0517979 0.0290525 0)
(-0.0559907 0.0289309 0)
(-0.0601397 0.0286242 0)
(-0.0642213 0.0281359 0)
(-0.0682123 0.027469 0)
(-0.0720896 0.0266258 0)
(-0.0758304 0.0256086 0)
(-0.0794123 0.0244196 0)
(-0.0828131 0.0230613 0)
(-0.0860107 0.0215365 0)
(-0.0889839 0.0198491 0)
(-0.0917118 0.0180037 0)
(-0.094174 0.0160066 0)
(-0.0963515 0.0138651 0)
(-0.0982257 0.0115886 0)
(-0.0997798 0.00918817 0)
(-0.100998 0.00667697 0)
(-0.101867 0.0040701 0)
(-0.102373 0.0013848 0)
(-0.102508 -0.00135967 0)
(-0.102264 -0.00414202 0)
(-0.101635 -0.00693912 0)
(-0.100621 -0.00972611 0)
(-0.0992203 -0.0124767 0)
(-0.0974388 -0.0151633 0)
(-0.0952836 -0.0177577 0)
(-0.0927659 -0.0202308 0)
(-0.0899006 -0.0225538 0)
(-0.086706 -0.0246981 0)
(-0.0832046 -0.0266361 0)
(-0.0794222 -0.0283416 0)
(-0.0753884 -0.0297904 0)
(-0.0711362 -0.0309609 0)
(-0.0667016 -0.0318343 0)
(-0.0621234 -0.0323959 0)
(-0.0574429 -0.0326347 0)
(-0.0527032 -0.0325445 0)
(-0.0479486 -0.032124 0)
(-0.0432242 -0.0313774 0)
(-0.038575 -0.0303141 0)
(-0.0340452 -0.0289498 0)
(-0.0296775 -0.0273055 0)
(-0.0255122 -0.0254085 0)
(-0.0215866 -0.0232917 0)
(-0.0179341 -0.0209936 0)
(-0.0145836 -0.0185584 0)
(-0.011559 -0.0160354 0)
(-0.00887832 -0.013479 0)
(-0.00655387 -0.0109485 0)
(-0.00459167 -0.00850742 0)
(-0.00299155 -0.00622396 0)
(-0.00174652 -0.00417022 0)
(-0.000842312 -0.00242204 0)
(-0.00026894 -0.00105844 0)
(-3.23478e-05 -0.000164769 0)
(-9.44024e-05 0.00154045 0)
(-0.000632445 0.00474667 0)
(-0.00179778 0.00797452 0)
(-0.00347101 0.0111446 0)
(-0.00558264 0.0141969 0)
(-0.00809029 0.0170845 0)
(-0.0109514 0.0197725 0)
(-0.0141246 0.0222361 0)
(-0.0175711 0.0244593 0)
(-0.0212546 0.0264329 0)
(-0.0251407 0.0281531 0)
(-0.0291971 0.0296204 0)
(-0.0333926 0.0308379 0)
(-0.0376977 0.0318109 0)
(-0.0420842 0.0325455 0)
(-0.0465246 0.0330484 0)
(-0.0509927 0.0333261 0)
(-0.0554627 0.0333846 0)
(-0.0599096 0.0332293 0)
(-0.0643088 0.0328648 0)
(-0.0686362 0.0322949 0)
(-0.0728679 0.0315228 0)
(-0.0769801 0.0305514 0)
(-0.0809496 0.0293829 0)
(-0.0847532 0.0280199 0)
(-0.088368 0.0264651 0)
(-0.0917714 0.0247219 0)
(-0.0949413 0.0227944 0)
(-0.097856 0.0206881 0)
(-0.100495 0.0184098 0)
(-0.102837 0.015968 0)
(-0.104863 0.013373 0)
(-0.106557 0.0106373 0)
(-0.1079 0.00777548 0)
(-0.108877 0.00480454 0)
(-0.109477 0.00174364 0)
(-0.109687 -0.00138567 0)
(-0.109499 -0.00455966 0)
(-0.108907 -0.00775244 0)
(-0.107908 -0.0109362 0)
(-0.1065 -0.0140815 0)
(-0.104689 -0.0171575 0)
(-0.102479 -0.0201321 0)
(-0.0998815 -0.0229729 0)
(-0.0969105 -0.025647 0)
(-0.0935841 -0.0281222 0)
(-0.0899242 -0.030367 0)
(-0.0859569 -0.0323513 0)
(-0.0817121 -0.0340473 0)
(-0.0772236 -0.0354299 0)
(-0.0725284 -0.0364775 0)
(-0.067667 -0.0371722 0)
(-0.0626825 -0.0375009 0)
(-0.0576204 -0.0374556 0)
(-0.0525277 -0.037034 0)
(-0.0474525 -0.0362395 0)
(-0.0424433 -0.0350822 0)
(-0.0375479 -0.0335785 0)
(-0.032813 -0.0317515 0)
(-0.0282828 -0.029631 0)
(-0.0239988 -0.0272533 0)
(-0.0199986 -0.0246613 0)
(-0.0163152 -0.0219039 0)
(-0.0129765 -0.0190358 0)
(-0.0100045 -0.0161174 0)
(-0.00741506 -0.0132139 0)
(-0.00521776 -0.0103956 0)
(-0.00341565 -0.00773665 0)
(-0.00200454 -0.00531547 0)
(-0.00097246 -0.00321349 0)
(-0.000312968 -0.00151467 0)
(-3.83694e-05 -0.000308375 0)
(-0.000102739 0.00187417 0)
(-0.00068604 0.00568262 0)
(-0.0019466 0.00945247 0)
(-0.0037526 0.0131087 0)
(-0.0060266 0.0165953 0)
(-0.00872098 0.0198691 0)
(-0.0117883 0.0228984 0)
(-0.015183 0.0256614 0)
(-0.0188626 0.0281449 0)
(-0.0227879 0.030342 0)
(-0.026922 0.0322512 0)
(-0.0312304 0.0338748 0)
(-0.0356804 0.0352176 0)
(-0.0402412 0.0362863 0)
(-0.0448834 0.0370884 0)
(-0.0495788 0.0376314 0)
(-0.0543002 0.0379229 0)
(-0.0590214 0.0379695 0)
(-0.0637167 0.0377771 0)
(-0.0683611 0.0373509 0)
(-0.0729298 0.036695 0)
(-0.0773985 0.0358129 0)
(-0.0817432 0.0347076 0)
(-0.0859399 0.0333817 0)
(-0.089965 0.031838 0)
(-0.0937949 0.0300795 0)
(-0.0974066 0.0281099 0)
(-0.100777 0.0259337 0)
(-0.103884 0.0235571 0)
(-0.106707 0.0209874 0)
(-0.109222 0.0182341 0)
(-0.111412 0.0153085 0)
(-0.113256 0.0122244 0)
(-0.114738 0.00899794 0)
(-0.11584 0.00564763 0)
(-0.116549 0.00219469 0)
(-0.116852 -0.00133718 0)
(-0.116739 -0.00492178 0)
(-0.116202 -0.00853053 0)
(-0.115238 -0.0121327 0)
(-0.113843 -0.0156955 0)
(-0.112021 -0.0191847 0)
(-0.109776 -0.0225647 0)
(-0.107117 -0.025799 0)
(-0.104057 -0.0288511 0)
(-0.100615 -0.0316843 0)
(-0.0968105 -0.0342632 0)
(-0.0926703 -0.0365536 0)
(-0.0882243 -0.0385237 0)
(-0.0835066 -0.0401446 0)
(-0.0785555 -0.0413909 0)
(-0.0734127 -0.0422418 0)
(-0.0681233 -0.0426814 0)
(-0.0627351 -0.0426994 0)
(-0.0572979 -0.042292 0)
(-0.0518631 -0.0414618 0)
(-0.0464828 -0.0402188 0)
(-0.0412089 -0.0385802 0)
(-0.0360921 -0.0365707 0)
(-0.0311813 -0.0342227 0)
(-0.0265225 -0.0315759 0)
(-0.022158 -0.0286772 0)
(-0.0181253 -0.0255805 0)
(-0.0144568 -0.0223461 0)
(-0.0111789 -0.0190404 0)
(-0.00831154 -0.0157351 0)
(-0.00586801 -0.012507 0)
(-0.00385484 -0.00943705 0)
(-0.0022708 -0.00661007 0)
(-0.00110616 -0.00411357 0)
(-0.000357892 -0.00203692 0)
(-4.44161e-05 -0.000474117 0)
(-0.000110716 0.00223456 0)
(-0.000737393 0.00669131 0)
(-0.00208932 0.0110423 0)
(-0.00402288 0.0152174 0)
(-0.00645307 0.0191652 0)
(-0.00932729 0.0228467 0)
(-0.0125935 0.0262345 0)
(-0.016202 0.0293103 0)
(-0.0201069 0.0320642 0)
(-0.024266 0.0344922 0)
(-0.02864 0.0365956 0)
(-0.0331925 0.0383787 0)
(-0.0378893 0.0398487 0)
(-0.0426981 0.0410138 0)
(-0.0475886 0.041883 0)
(-0.0525318 0.0424652 0)
(-0.0574998 0.0427687 0)
(-0.0624658 0.0428011 0)
(-0.0674038 0.042569 0)
(-0.0722883 0.0420779 0)
(-0.0770942 0.0413324 0)
(-0.0817968 0.0403363 0)
(-0.0863717 0.0390927 0)
(-0.0907946 0.0376047 0)
(-0.0950414 0.0358749 0)
(-0.0990883 0.0339068 0)