/*--------------------------------*- C++ -*----------------------------------*\
  =========                 |
  \\      /  F ield         | OpenFOAM: The Open Source CFD Toolbox
   \\    /   O peration     | Website:  https://openfoam.org
    \\  /    A nd           | Version:  dev
     \\/     M anipulation  |
\*---------------------------------------------------------------------------*/
FoamFile
{
    format      ascii;
    class       volScalarField;
    location    "39.15";
    object      Ux;
}
// * * * * * * * * * * * * * * * * * * * * * * * * * * * * * * * * * * * * * //

dimensions      [0 1 -1 0 0 0 0];

internalField   nonuniform List<scalar> 
5184
(
1.233e-05
4.51827e-05
8.03605e-05
9.60323e-05
8.22108e-05
3.65147e-05
-4.05094e-05
-0.000146843
-0.000279691
-0.000435998
-0.000612641
-0.000806586
-0.00101496
-0.00123511
-0.00146456
-0.00170106
-0.00194254
-0.00218708
-0.00243289
-0.0026783
-0.00292169
-0.0031615
-0.00339621
-0.00362429
-0.00384421
-0.00405443
-0.00425339
-0.00443953
-0.00461126
-0.004767
-0.00490519
-0.00502431
-0.0051229
-0.00519958
-0.00525308
-0.0052823
-0.00528629
-0.00526431
-0.00521588
-0.00514075
-0.005039
-0.004911
-0.00475746
-0.00457942
-0.0043783
-0.00415584
-0.00391415
-0.00365565
-0.00338308
-0.00309942
-0.00280793
-0.00251204
-0.0022153
-0.00192138
-0.00163395
-0.00135666
-0.00109304
-0.000846466
-0.000620082
-0.00041674
-0.000238939
-8.87571e-05
3.22176e-05
0.000122971
0.000183172
0.000213324
0.000215015
0.000191297
0.000147201
9.08241e-05
3.66372e-05
6.22771e-06
2.08544e-05
6.5655e-05
9.47767e-05
7.28912e-05
-1.88453e-05
-0.000187251
-0.00043291
-0.000752607
-0.00114079
-0.00159069
-0.00209495
-0.00264611
-0.00323687
-0.00386024
-0.00450961
-0.00517877
-0.00586194
-0.00655365
-0.00724878
-0.00794244
-0.00862993
-0.00930669
-0.00996825
-0.0106102
-0.0112281
-0.0118176
-0.0123742
-0.0128935
-0.0133712
-0.0138029
-0.0141843
-0.0145115
-0.0147803
-0.0149873
-0.0151292
-0.0152031
-0.0152066
-0.015138
-0.0149962
-0.0147807
-0.014492
-0.0141313
-0.0137007
-0.0132032
-0.0126429
-0.0120245
-0.0113538
-0.0106375
-0.00988287
-0.00909809
-0.00829185
-0.00747333
-0.00665205
-0.00583776
-0.00504026
-0.0042692
-0.00353396
-0.00284348
-0.00220604
-0.00162911
-0.00111917
-0.000681522
-0.000320076
-3.71162e-05
0.000166991
0.00029417
0.000349171
0.000340271
0.000279966
0.000186115
8.6396e-05
1.96855e-05
1.76448e-05
4.13619e-05
1.96535e-05
-8.39401e-05
-0.000290212
-0.000607913
-0.00103831
-0.00157758
-0.00221857
-0.00295208
-0.00376783
-0.00465512
-0.00560321
-0.00660164
-0.00764036
-0.00870979
-0.00980086
-0.010905
-0.0120139
-0.0131198
-0.0142151
-0.0152924
-0.0163445
-0.0173642
-0.0183445
-0.0192783
-0.0201586
-0.0209784
-0.0217309
-0.0224092
-0.0230068
-0.0235175
-0.0239352
-0.0242545
-0.0244706
-0.0245791
-0.0245767
-0.0244608
-0.0242301
-0.0238841
-0.0234237
-0.022851
-0.0221695
-0.021384
-0.0205008
-0.0195275
-0.0184731
-0.0173477
-0.0161628
-0.0149308
-0.013665
-0.0123795
-0.0110887
-0.0098076
-0.00855101
-0.00733366
-0.00616979
-0.00507294
-0.00405566
-0.00312922
-0.00230336
-0.00158597
-0.000982789
-0.00049705
-0.000129061
0.00012425
0.000269982
0.00031999
0.000291414
0.000207488
0.00010249
2.49849e-05
8.84628e-06
-6.98927e-06
-0.000107553
-0.000322352
-0.000669637
-0.00115782
-0.00178764
-0.00255435
-0.00344938
-0.00446172
-0.00557887
-0.00678763
-0.00807459
-0.00942649
-0.0108304
-0.0122739
-0.0137452
-0.0152327
-0.0167255
-0.0182131
-0.0196853
-0.0211321
-0.0225438
-0.0239106
-0.025223
-0.0264717
-0.0276471
-0.0287401
-0.0297415
-0.0306424
-0.0314343
-0.032109
-0.0326588
-0.0330767
-0.0333565
-0.0334929
-0.0334818
-0.03332
-0.0330059
-0.0325393
-0.0319215
-0.0311556
-0.0302463
-0.0292002
-0.0280254
-0.026732
-0.0253317
-0.0238378
-0.0222653
-0.02063
-0.0189494
-0.0172416
-0.0155253
-0.0138197
-0.012144
-0.0105172
-0.00895757
-0.00748264
-0.00610853
-0.00484972
-0.00371872
-0.00272563
-0.00187778
-0.0011793
-0.000630658
-0.000228147
3.67135e-05
0.000177828
0.000214928
0.000174191
9.30707e-05
2.40366e-05
-2.12087e-06
-6.72848e-05
-0.000264118
-0.000609823
-0.0011169
-0.00179157
-0.00263283
-0.00363432
-0.0047859
-0.00607485
-0.00748683
-0.00900657
-0.0106185
-0.012307
-0.0140568
-0.0158532
-0.0176816
-0.0195283
-0.0213799
-0.0232235
-0.0250463
-0.0268363
-0.0285811
-0.030269
-0.031888
-0.0334267
-0.0348735
-0.036217
-0.0374462
-0.0385503
-0.039519
-0.0403425
-0.0410117
-0.0415182
-0.0418548
-0.0420153
-0.0419948
-0.0417901
-0.0413992
-0.0408222
-0.040061
-0.0391193
-0.0380031
-0.0367203
-0.035281
-0.0336972
-0.0319831
-0.0301547
-0.0282296
-0.0262272
-0.024168
-0.0220738
-0.0199668
-0.01787
-0.0158063
-0.0137982
-0.0118677
-0.0100356
-0.0083211
-0.00674161
-0.00531205
-0.00404455
-0.00294798
-0.00202748
-0.00128399
-0.000713733
-0.000307723
-5.11796e-05
7.67834e-05
0.00010368
6.75461e-05
1.96744e-05
-1.36941e-05
-0.000132845
-0.00043588
-0.000924776
-0.00160417
-0.00247662
-0.00353829
-0.00478048
-0.0061911
-0.00775562
-0.0094579
-0.0112809
-0.0132071
-0.0152189
-0.0172992
-0.0194309
-0.0215976
-0.0237834
-0.0259727
-0.0281505
-0.030302
-0.0324128
-0.0344687
-0.0364558
-0.0383603
-0.0401685
-0.0418671
-0.0434429
-0.0448831
-0.0461752
-0.0473074
-0.0482685
-0.049048
-0.0496366
-0.0500261
-0.0502096
-0.0501816
-0.0499385
-0.0494785
-0.0488018
-0.0479106
-0.0468096
-0.0455055
-0.0440075
-0.0423273
-0.0404788
-0.0384779
-0.0363431
-0.0340945
-0.0317542
-0.0293455
-0.0268932
-0.0244227
-0.0219603
-0.0195319
-0.0171634
-0.0148799
-0.0127051
-0.0106612
-0.00876812
-0.00704306
-0.00550016
-0.00414988
-0.00299858
-0.00204803
-0.00129498
-0.000730612
-0.000340216
-0.000102817
9.22718e-06
3.25313e-05
1.36288e-05
-2.51883e-05
-0.000200041
-0.000614181
-0.00125313
-0.00211242
-0.0031899
-0.004478
-0.00596501
-0.00763642
-0.00947567
-0.0114648
-0.0135849
-0.0158169
-0.0181415
-0.0205395
-0.0229924
-0.0254818
-0.0279899
-0.0304993
-0.0329932
-0.0354549
-0.0378681
-0.0402168
-0.0424851
-0.0446576
-0.0467189
-0.0486537
-0.0504474
-0.0520856
-0.0535544
-0.0548405
-0.0559315
-0.0568159
-0.0574833
-0.0579247
-0.0581325
-0.0581008
-0.0578258
-0.0573055
-0.0565402
-0.0555326
-0.0542878
-0.0528135
-0.0511198
-0.0492196
-0.0471283
-0.0448637
-0.0424461
-0.0398977
-0.0372429
-0.0345076
-0.0317192
-0.028906
-0.0260968
-0.0233207
-0.0206065
-0.0179819
-0.0154737
-0.0131066
-0.010903
-0.00888253
-0.00706121
-0.00545133
-0.00406073
-0.00289239
-0.00194405
-0.00120774
-0.000669511
-0.000309149
-9.98088e-05
-7.6883e-06
6.86696e-06
-3.63455e-05
-0.000266989
-0.000793898
-0.00158594
-0.00262895
-0.00391538
-0.00543325
-0.00716727
-0.00910012
-0.0112129
-0.0134857
-0.0158979
-0.0184286
-0.0210569
-0.0237623
-0.0265245
-0.0293235
-0.03214
-0.034955
-0.0377499
-0.0405065
-0.0432068
-0.0458332
-0.0483682
-0.0507948
-0.053096
-0.0552551
-0.0572559
-0.0590827
-0.0607203
-0.0621542
-0.0633708
-0.0643576
-0.0651034
-0.0655984
-0.0658343
-0.0658049
-0.0655059
-0.0649353
-0.0640933
-0.0629829
-0.0616096
-0.0599816
-0.05811
-0.0560086
-0.0536939
-0.0511853
-0.0485045
-0.0456758
-0.0427254
-0.0396814
-0.0365737
-0.0334328
-0.0302904
-0.0271781
-0.0241273
-0.0211688
-0.0183318
-0.0156437
-0.0131294
-0.0108108
-0.00870624
-0.00682994
-0.00519152
-0.00379558
-0.00264127
-0.00172201
-0.00102522
-0.000532066
-0.000217185
-5.04437e-05
-7.96993e-08
-4.70691e-05
-0.000332702
-0.00097203
-0.00191759
-0.00314537
-0.004642
-0.00639067
-0.00837209
-0.0105657
-0.0129502
-0.0155034
-0.0182028
-0.0210259
-0.0239504
-0.0269542
-0.0300156
-0.0331133
-0.0362264
-0.0393347
-0.0424182
-0.045457
-0.048432
-0.051324
-0.0541142
-0.0567839
-0.0593151
-0.0616896
-0.0638899
-0.0658991
-0.0677007
-0.0692793
-0.0706202
-0.0717099
-0.0725364
-0.0730891
-0.0733592
-0.0733399
-0.0730264
-0.0724167
-0.0715107
-0.0703116
-0.0688249
-0.0670594
-0.0650265
-0.062741
-0.0602202
-0.0574847
-0.0545575
-0.0514644
-0.0482334
-0.0448946
-0.0414798
-0.038022
-0.0345552
-0.0311136
-0.0277313
-0.0244416
-0.0212766
-0.0182661
-0.0154379
-0.0128162
-0.0104219
-0.00827134
-0.00637631
-0.00474337
-0.00337355
-0.00226206
-0.0013982
-0.000764993
-0.000338995
-9.41748e-05
-6.94068e-06
-5.73469e-05
-0.0003967
-0.00114684
-0.00224455
-0.00365608
-0.0053621
-0.00734067
-0.00956821
-0.0120208
-0.0146742
-0.017504
-0.0204858
-0.0235955
-0.0268093
-0.0301035
-0.0334554
-0.0368423
-0.0402423
-0.0436336
-0.0469952
-0.050306
-0.0535455
-0.0566935
-0.0597297
-0.0626346
-0.0653884
-0.0679722
-0.0703672
-0.0725554
-0.0745192
-0.0762422
-0.0777087
-0.0789044
-0.0798163
-0.0804332
-0.0807456
-0.080746
-0.0804293
-0.0797928
-0.0788366
-0.0775632
-0.0759785
-0.0740912
-0.0719132
-0.0694596
-0.0667485
-0.0638012
-0.060642
-0.0572978
-0.0537983
-0.0501751
-0.0464622
-0.0426945
-0.0389085
-0.0351408
-0.0314282
-0.0278066
-0.0243109
-0.0209738
-0.0178257
-0.0148939
-0.0122015
-0.00976773
-0.00760673
-0.0057274
-0.00413303
-0.00282105
-0.00178298
-0.00100406
-0.000463023
-0.000138064
-1.36001e-05
-6.71968e-05
-0.000458754
-0.00131732
-0.00256461
-0.00415739
-0.00607034
-0.0082763
-0.0107473
-0.0134556
-0.0163743
-0.0194764
-0.0227357
-0.0261261
-0.0296225
-0.0332
-0.0368346
-0.0405025
-0.0441806
-0.0478464
-0.0514774
-0.0550517
-0.0585477
-0.0619441
-0.0652197
-0.0683536
-0.0713254
-0.0741148
-0.0767022
-0.0790684
-0.081195
-0.0830645
-0.0846604
-0.0859674
-0.0869719
-0.0876615
-0.0880262
-0.0880578
-0.0877506
-0.0871012
-0.0861092
-0.084777
-0.08311
-0.0811168
-0.0788095
-0.0762033
-0.0733167
-0.0701716
-0.0667931
-0.0632092
-0.0594508
-0.0555514
-0.0515463
-0.047473
-0.0433699
-0.0392762
-0.0352314
-0.0312741
-0.0274423
-0.0237716
-0.0202955
-0.0170442
-0.0140439
-0.0113167
-0.00887952
-0.006744
-0.00491606
-0.00339567
-0.00217689
-0.0012474
-0.000588256
-0.000181784
-2.00314e-05
-7.66428e-05
-0.000518762
-0.00148287
-0.00287632
-0.00464673
-0.00676291
-0.00919246
-0.0119029
-0.0148628
-0.0180422
-0.0214116
-0.0249428
-0.028608
-0.0323806
-0.0362345
-0.0401446
-0.044086
-0.0480348
-0.0519674
-0.0558605
-0.0596914
-0.0634375
-0.0670765
-0.0705865
-0.0739456
-0.0771324
-0.0801259
-0.0829054
-0.0854509
-0.087743
-0.0897634
-0.0914946
-0.0929205
-0.0940264
-0.0947994
-0.0952283
-0.0953042
-0.0950206
-0.0943734
-0.0933615
-0.0919866
-0.0902537
-0.0881711
-0.0857504
-0.0830068
-0.079959
-0.0766293
-0.0730432
-0.0692297
-0.0652207
-0.0610511
-0.0567582
-0.0523811
-0.0479606
-0.0435386
-0.0391572
-0.0348581
-0.0306822
-0.0266687
-0.0228542
-0.0192722
-0.0159525
-0.0129202
-0.0101956
-0.00779329
-0.00572227
-0.00398536
-0.00257939
-0.00149465
-0.000714536
-0.000225336
-2.62612e-05
-8.57063e-05
-0.000576671
-0.00164312
-0.0031787
-0.00512228
-0.00743697
-0.0100852
-0.01303
-0.0162363
-0.0196709
-0.023302
-0.027099
-0.0310327
-0.035075
-0.0391986
-0.0433772
-0.0475853
-0.0517979
-0.0559907
-0.0601397
-0.0642213
-0.0682123
-0.0720896
-0.0758304
-0.0794123
-0.0828131
-0.0860107
-0.0889839
-0.0917118
-0.094174
-0.0963515
-0.0982257
-0.0997798
-0.100998
-0.101867
-0.102373
-0.102508
-0.102264
-0.101635
-0.100621
-0.0992203
-0.0974388
-0.0952836
-0.0927659
-0.0899006
-0.086706
-0.0832046
-0.0794222
-0.0753884
-0.0711362
-0.0667016
-0.0621234
-0.0574429
-0.0527032
-0.0479486
-0.0432242
-0.038575
-0.0340452
-0.0296775
-0.0255122
-0.0215866
-0.0179341
-0.0145836
-0.011559
-0.00887832
-0.00655387
-0.00459167
-0.00299155
-0.00174652
-0.000842312
-0.00026894
-3.23478e-05
-9.44024e-05
-0.000632445
-0.00179778
-0.00347101
-0.00558264
-0.00809029
-0.0109514
-0.0141246
-0.0175711
-0.0212546
-0.0251407
-0.0291971
-0.0333926
-0.0376977
-0.0420842
-0.0465246
-0.0509927
-0.0554627
-0.0599096
-0.0643088
-0.0686362
-0.0728679
-0.0769801
-0.0809496
-0.0847532
-0.088368
-0.0917714
-0.0949413
-0.097856
-0.100495
-0.102837
-0.104863
-0.106557
-0.1079
-0.108877
-0.109477
-0.109687
-0.109499
-0.108907
-0.107908
-0.1065
-0.104689
-0.102479
-0.0998815
-0.0969105
-0.0935841
-0.0899242
-0.0859569
-0.0817121
-0.0772236
-0.0725284
-0.067667
-0.0626825
-0.0576204
-0.0525277
-0.0474525
-0.0424433
-0.0375479
-0.032813
-0.0282828
-0.0239988
-0.0199986
-0.0163152
-0.0129765
-0.0100045
-0.00741506
-0.00521776
-0.00341565
-0.00200454
-0.00097246
-0.000312968
-3.83694e-05
-0.000102739
-0.00068604
-0.0019466
-0.0037526
-0.0060266
-0.00872098
-0.0117883
-0.015183
-0.0188626
-0.0227879
-0.026922
-0.0312304
-0.0356804
-0.0402412
-0.0448834
-0.0495788
-0.0543002
-0.0590214
-0.0637167
-0.0683611
-0.0729298
-0.0773985
-0.0817432
-0.0859399
-0.089965
-0.0937949
-0.0974066
-0.100777
-0.103884
-0.106707
-0.109222
-0.111412
-0.113256
-0.114738
-0.11584
-0.116549
-0.116852
-0.116739
-0.116202
-0.115238
-0.113843
-0.112021
-0.109776
-0.107117
-0.104057
-0.100615
-0.0968105
-0.0926703
-0.0882243
-0.0835066
-0.0785555
-0.0734127
-0.0681233
-0.0627351
-0.0572979
-0.0518631
-0.0464828
-0.0412089
-0.0360921
-0.0311813
-0.0265225
-0.022158
-0.0181253
-0.0144568
-0.0111789
-0.00831154
-0.00586801
-0.00385484
-0.0022708
-0.00110616
-0.000357892
-4.44161e-05
-0.000110716
-0.000737393
-0.00208932
-0.00402288
-0.00645307
-0.00932729
-0.0125935
-0.016202
-0.0201069
-0.024266
-0.02864
-0.0331925
-0.0378893
-0.0426981
-0.0475886
-0.0525318
-0.0574998
-0.0624658
-0.0674038
-0.0722883
-0.0770942
-0.0817968
-0.0863717
-0.0907946
-0.0950414
-0.0990883
-0.102912
-0.106488
-0.109794
-0.112808
-0.115507
-0.117871
-0.11988
-0.121515
-0.122758
-0.123593
-0.124007
-0.123989
-0.123528
-0.122619
-0.121259
-0.119447
-0.117186
-0.114486
-0.111356
-0.107815
-0.103881
-0.0995813
-0.0949447
-0.090006
-0.0848042
-0.0793823
-0.0737872
-0.0680691
-0.0622808
-0.0564771
-0.0507139
-0.0450474
-0.039533
-0.0342245
-0.029173
-0.0244259
-0.0200258
-0.0160102
-0.0124101
-0.00925019
-0.00654771
-0.00431297
-0.00254782
-0.00124481
-0.000404254
-5.05856e-05
-0.000118327
-0.000786423
-0.00222565
-0.0042812
-0.00686095
-0.00990755
-0.0133646
-0.0171785
-0.0213
-0.0256841
-0.0302894
-0.0350774
-0.0400123
-0.0450609
-0.0501917
-0.055375
-0.0605825
-0.0657869
-0.0709617
-0.0760812
-0.0811201
-0.0860534
-0.0908565
-0.0955048
-0.099974
-0.10424
-0.108278
-0.112065
-0.115577
-0.118791
-0.121685
-0.124235
-0.126422
-0.128225
-0.129626
-0.130606
-0.131152
-0.131248
-0.130885
-0.130054
-0.12875
-0.12697
-0.124717
-0.121996
-0.118817
-0.115195
-0.111149
-0.106704
-0.101889
-0.0967384
-0.0912923
-0.0855946
-0.079694
-0.0736429
-0.0674971
-0.0613151
-0.0551568
-0.0490831
-0.0431545
-0.0374301
-0.0319666
-0.026817
-0.0220298
-0.0176479
-0.0137077
-0.0102387
-0.00726279
-0.00479432
-0.0028384
-0.00138995
-0.000452643
-5.69802e-05
-0.00012556
-0.000833025
-0.00235527
-0.00452691
-0.00724908
-0.01046
-0.0140993
-0.0181094
-0.0224381
-0.0270378
-0.0318647
-0.0368787
-0.0420426
-0.047322
-0.0526845
-0.0580999
-0.0635392
-0.0689749
-0.0743803
-0.0797293
-0.0849967
-0.0901573
-0.0951863
-0.100059
-0.104751
-0.109238
-0.113494
-0.117497
-0.121222
-0.124645
-0.127743
-0.130493
-0.132872
-0.134859
-0.136435
-0.13758
-0.138276
-0.13851
-0.138267
-0.137537
-0.136312
-0.134589
-0.132366
-0.129647
-0.12644
-0.122758
-0.118619
-0.114046
-0.109066
-0.103716
-0.0980338
-0.0920653
-0.0858606
-0.0794745
-0.0729658
-0.0663965
-0.0598312
-0.0533355
-0.0469755
-0.0408161
-0.0349201
-0.0293469
-0.0241512
-0.019382
-0.0150817
-0.0112853
-0.00801967
-0.00530352
-0.00314558
-0.00154324
-0.00050368
-6.3705e-05
-0.000132396
-0.000877073
-0.00247781
-0.00475927
-0.00761629
-0.010983
-0.014795
-0.0189915
-0.0235173
-0.0283222
-0.0333605
-0.0385903
-0.0439732
-0.0494736
-0.0550585
-0.060697
-0.0663599
-0.0720193
-0.0776483
-0.0832209
-0.0887117
-0.0940956
-0.0993477
-0.104443
-0.109358
-0.114067
-0.118546
-0.122769
-0.126713
-0.130354
-0.133666
-0.136627
-0.139212
-0.1414
-0.143168
-0.144496
-0.145365
-0.145758
-0.145658
-0.145053
-0.143933
-0.142292
-0.140124
-0.137433
-0.134222
-0.130503
-0.126292
-0.121609
-0.116482
-0.110945
-0.105038
-0.0988056
-0.0923003
-0.0855788
-0.0787031
-0.0717389
-0.0647552
-0.0578231
-0.0510143
-0.0444003
-0.0380505
-0.0320312
-0.0264041
-0.021225
-0.0165429
-0.0123987
-0.00882507
-0.00584545
-0.00347251
-0.0017064
-0.000558006
-7.08666e-05
-0.000138814
-0.000918422
-0.00259286
-0.0049775
-0.00796132
-0.0114746
-0.0154495
-0.0198218
-0.0245337
-0.0295327
-0.0347712
-0.0402058
-0.0457967
-0.0515076
-0.0573047
-0.0631567
-0.069034
-0.0749086
-0.0807536
-0.086543
-0.0922513
-0.0978537
-0.103325
-0.108642
-0.113778
-0.11871
-0.123413
-0.127861
-0.13203
-0.135896
-0.139432
-0.142615
-0.145421
-0.147824
-0.149802
-0.151333
-0.152395
-0.152969
-0.153036
-0.152582
-0.151593
-0.150059
-0.147975
-0.145337
-0.142149
-0.138418
-0.134158
-0.129388
-0.124133
-0.118427
-0.112307
-0.105821
-0.0990216
-0.091967
-0.0847222
-0.077357
-0.0699449
-0.0625627
-0.0552882
-0.0481999
-0.0413744
-0.0348856
-0.0288028
-0.0231895
-0.0181019
-0.0135878
-0.00968591
-0.00642511
-0.00382247
-0.00188118
-0.000616277
-7.85726e-05
-0.000144787
-0.000956913
-0.00269999
-0.00518077
-0.00828285
-0.011933
-0.0160601
-0.020597
-0.0254833
-0.0306645
-0.0360912
-0.0417186
-0.0475058
-0.0534157
-0.059414
-0.0654688
-0.0715505
-0.0776308
-0.0836831
-0.0896813
-0.0956003
-0.101415
-0.107102
-0.112636
-0.117992
-0.123146
-0.128074
-0.13275
-0.137149
-0.141246
-0.145015
-0.148431
-0.151469
-0.154102
-0.156307
-0.158059
-0.159335
-0.160113
-0.160371
-0.160093
-0.159262
-0.157864
-0.15589
-0.153335
-0.150198
-0.146484
-0.142202
-0.137369
-0.132009
-0.126153
-0.119839
-0.113113
-0.106028
-0.0986452
-0.0910322
-0.0832622
-0.0754137
-0.067569
-0.0598128
-0.0522307
-0.0449074
-0.0379251
-0.0313614
-0.0252882
-0.0197698
-0.0148616
-0.0106092
-0.00704758
-0.00419874
-0.00206938
-0.000679156
-8.69314e-05
-0.000150288
-0.000992378
-0.00279873
-0.00536822
-0.00857953
-0.0123563
-0.0166242
-0.0213138
-0.0263621
-0.0317128
-0.0373149
-0.0431222
-0.0490931
-0.0551895
-0.0613768
-0.0676227
-0.0738975
-0.0801731
-0.0864227
-0.0926207
-0.0987422
-0.104763
-0.110658
-0.116404
-0.121977
-0.127351
-0.132504
-0.137408
-0.14204
-0.146374
-0.150383
-0.154041
-0.157322
-0.160199
-0.162646
-0.164637
-0.166147
-0.16715
-0.167624
-0.167548
-0.166902
-0.165668
-0.163836
-0.161394
-0.158338
-0.15467
-0.150396
-0.145529
-0.140091
-0.134109
-0.127621
-0.120672
-0.113316
-0.105614
-0.097637
-0.0894616
-0.0811711
-0.0728538
-0.0646013
-0.0565071
-0.0486642
-0.0411639
-0.0340932
-0.0275332
-0.0215571
-0.0162289
-0.0116019
-0.00771796
-0.00460468
-0.00227281
-0.000747312
-9.6052e-05
-0.000155288
-0.00102464
-0.00288862
-0.00553899
-0.00885002
-0.0127425
-0.0171395
-0.021969
-0.0271661
-0.0326728
-0.0384365
-0.0444101
-0.0505509
-0.0568204
-0.0631834
-0.0696076
-0.0760631
-0.082522
-0.0889578
-0.0953451
-0.101659
-0.107877
-0.113973
-0.119925
-0.125709
-0.1313
-0.136674
-0.141807
-0.146673
-0.151246
-0.155499
-0.159407
-0.16294
-0.166073
-0.168776
-0.171022
-0.172784
-0.174035
-0.174748
-0.174899
-0.174465
-0.173426
-0.171765
-0.169468
-0.166527
-0.162939
-0.158705
-0.153836
-0.14835
-0.142271
-0.135635
-0.128485
-0.120875
-0.112867
-0.104535
-0.0959571
-0.0872226
-0.0784253
-0.0696642
-0.0610407
-0.0526573
-0.044615
-0.0370108
-0.0299361
-0.0234742
-0.0176985
-0.0126709
-0.00844131
-0.0050436
-0.00249328
-0.000821417
-0.000106044
-0.000159756
-0.00105353
-0.00296919
-0.00569223
-0.00909299
-0.0130897
-0.0176033
-0.0225594
-0.0278914
-0.0335397
-0.0394504
-0.0455756
-0.0518717
-0.0582996
-0.064824
-0.0714124
-0.078035
-0.0846639
-0.0912731
-0.0978375
-0.104333
-0.110736
-0.117024
-0.123173
-0.129161
-0.134962
-0.140554
-0.145912
-0.151011
-0.155823
-0.160324
-0.164485
-0.168279
-0.171676
-0.174647
-0.177163
-0.179194
-0.180711
-0.181686
-0.182089
-0.181895
-0.18108
-0.179622
-0.177504
-0.174713
-0.17124
-0.167083
-0.162248
-0.156748
-0.150604
-0.14385
-0.136527
-0.128686
-0.120391
-0.111717
-0.102745
-0.0935683
-0.0842873
-0.075008
-0.0658407
-0.0568974
-0.0482896
-0.0401256
-0.0325079
-0.0255309
-0.0192787
-0.013823
-0.00922263
-0.00551879
-0.00273259
-0.000902142
-0.000117018
-0.000163663
-0.00107887
-0.00304001
-0.0058271
-0.00930716
-0.0133963
-0.0180133
-0.023082
-0.0285342
-0.034309
-0.0403514
-0.0466124
-0.0530481
-0.0596188
-0.066289
-0.0730262
-0.0798006
-0.0865847
-0.0933529
-0.100081
-0.106744
-0.113321
-0.119789
-0.126124
-0.132305
-0.138309
-0.144111
-0.149688
-0.155015
-0.160065
-0.164813
-0.169229
-0.173287
-0.176955
-0.180203
-0.183001
-0.185317
-0.187118
-0.188374
-0.189053
-0.189126
-0.188565
-0.187343
-0.185438
-0.182832
-0.179512
-0.175471
-0.170709
-0.165234
-0.159065
-0.152228
-0.144763
-0.136721
-0.128164
-0.119166
-0.109814
-0.100202
-0.0904383
-0.0806354
-0.0709125
-0.0613922
-0.0521971
-0.0434475
-0.0352583
-0.0277363
-0.0209774
-0.0150647
-0.0100668
-0.00603352
-0.00299253
-0.00099016
-0.000129086
-0.000166982
-0.00110051
-0.00310065
-0.00594286
-0.00949136
-0.0136605
-0.0183672
-0.023534
-0.0290911
-0.0349764
-0.0411342
-0.0475145
-0.054073
-0.0607697
-0.0675689
-0.074438
-0.0813476
-0.0882705
-0.0951815
-0.102057
-0.108873
-0.115609
-0.122242
-0.12875
-0.135113
-0.141307
-0.147309
-0.153097
-0.158644
-0.163927
-0.168918
-0.173588
-0.17791
-0.181853
-0.185384
-0.188473
-0.191084
-0.193186
-0.194742
-0.195719
-0.196084
-0.195805
-0.19485
-0.193194
-0.190812
-0.187685
-0.183801
-0.179155
-0.173749
-0.167595
-0.160718
-0.153151
-0.144943
-0.136154
-0.126859
-0.117145
-0.107112
-0.0968712
-0.0865437
-0.0762577
-0.0661462
-0.056344
-0.0469843
-0.0381958
-0.0300986
-0.0228022
-0.0164021
-0.0109785
-0.00659094
-0.00327487
-0.00108614
-0.000142361
-0.000169689
-0.00111831
-0.00315076
-0.00603885
-0.00964459
-0.0138808
-0.0186632
-0.0239129
-0.0295589
-0.0355382
-0.0417942
-0.0482764
-0.0549399
-0.0617446
-0.0686546
-0.0756375
-0.0826642
-0.0897077
-0.0967435
-0.103748
-0.1107
-0.117577
-0.124359
-0.131025
-0.137553
-0.143923
-0.150112
-0.156098
-0.161856
-0.167362
-0.172588
-0.177508
-0.182091
-0.186307
-0.190124
-0.193509
-0.196425
-0.198838
-0.200711
-0.202005
-0.202686
-0.202716
-0.20206
-0.200687
-0.198567
-0.195675
-0.191993
-0.187509
-0.182218
-0.176128
-0.169257
-0.161633
-0.153301
-0.144318
-0.134759
-0.124711
-0.114276
-0.103572
-0.0927247
-0.0818728
-0.0711601
-0.060734
-0.050742
-0.0413271
-0.032625
-0.0247597
-0.017841
-0.0119622
-0.00719415
-0.00358135
-0.00119076
-0.000156959
-0.000171762
-0.00113215
-0.00319004
-0.00611454
-0.009766
-0.0140562
-0.0188998
-0.0242166
-0.029935
-0.035991
-0.0423274
-0.0488931
-0.0556429
-0.0625365
-0.0695379
-0.076615
-0.0837389
-0.0908832
-0.0980238
-0.105138
-0.112205
-0.119205
-0.126116
-0.13292
-0.139596
-0.146124
-0.152484
-0.158652
-0.164606
-0.170321
-0.175772
-0.180931
-0.185769
-0.190254
-0.194355
-0.198036
-0.201262
-0.203995
-0.206196
-0.207825
-0.208841
-0.209206
-0.208879
-0.207823
-0.206003
-0.203389
-0.199955
-0.195681
-0.190558
-0.184584
-0.177771
-0.170141
-0.161735
-0.152605
-0.142822
-0.132475
-0.121667
-0.110518
-0.0991636
-0.087749
-0.0764301
-0.0653675
-0.0547235
-0.0446573
-0.0353212
-0.0268557
-0.0193866
-0.0130221
-0.00784609
-0.00391366
-0.00130467
-0.000172995
-0.000173188
-0.00114197
-0.00321831
-0.00616957
-0.00985503
-0.0141858
-0.0190756
-0.0244436
-0.0302174
-0.0363323
-0.0427304
-0.0493605
-0.0561769
-0.0631391
-0.0702113
-0.0773616
-0.0845613
-0.0917848
-0.0990084
-0.106211
-0.113371
-0.12047
-0.127489
-0.134409
-0.141211
-0.147877
-0.154386
-0.160717
-0.166848
-0.172756
-0.178416
-0.1838
-0.188881
-0.193627
-0.198004
-0.20198
-0.205515
-0.208572
-0.211109
-0.213084
-0.214455
-0.215176
-0.215205
-0.214499
-0.213018
-0.210724
-0.207584
-0.203573
-0.198671
-0.19287
-0.186173
-0.178596
-0.170172
-0.160948
-0.150992
-0.14039
-0.129245
-0.117681
-0.105838
-0.0938713
-0.0819473
-0.0702404
-0.0589288
-0.0481891
-0.0381914
-0.029095
-0.0210436
-0.0141621
-0.00854957
-0.00427345
-0.00142853
-0.00019059
-0.000173959
-0.00114772
-0.00323545
-0.00620375
-0.0099114
-0.0142691
-0.0191901
-0.024593
-0.0304048
-0.0365602
-0.043001
-0.0496755
-0.0565379
-0.0635475
-0.0706687
-0.0778697
-0.0851224
-0.0924015
-0.0996842
-0.10695
-0.114179
-0.121353
-0.128454
-0.135466
-0.14237
-0.149148
-0.155782
-0.162253
-0.168539
-0.174619
-0.180467
-0.186059
-0.191365
-0.196357
-0.201
-0.205261
-0.209101
-0.21248
-0.215357
-0.217687
-0.219425
-0.220522
-0.220931
-0.220606
-0.219499
-0.217567
-0.214769
-0.211073
-0.20645
-0.200882
-0.194365
-0.186906
-0.178527
-0.169272
-0.159201
-0.148396
-0.136961
-0.12502
-0.112718
-0.100218
-0.0876971
-0.0753445
-0.0633545
-0.0519223
-0.0412381
-0.0314813
-0.0228158
-0.0153857
-0.00930721
-0.00466231
-0.001563
-0.000209866
-0.000174073
-0.0011494
-0.00324151
-0.00621715
-0.00993519
-0.0143062
-0.0192433
-0.0246646
-0.0304967
-0.036674
-0.0431379
-0.0498363
-0.0567232
-0.0637581
-0.0709052
-0.0781332
-0.0854144
-0.092724
-0.10004
-0.107343
-0.114613
-0.121835
-0.128992
-0.136066
-0.143044
-0.149907
-0.156639
-0.163222
-0.169636
-0.175861
-0.181873
-0.187648
-0.19316
-0.198377
-0.20327
-0.207802
-0.211937
-0.215633
-0.218848
-0.221535
-0.223648
-0.225135
-0.225945
-0.226027
-0.225328
-0.223798
-0.22139
-0.218062
-0.213776
-0.208506
-0.202236
-0.194964
-0.186703
-0.177487
-0.167369
-0.156425
-0.144756
-0.132486
-0.119764
-0.106759
-0.0936585
-0.080666
-0.0679929
-0.0558542
-0.0444615
-0.0340167
-0.0247062
-0.0166958
-0.0101214
-0.00508174
-0.0017087
-0.000230946
-0.00017354
-0.00114709
-0.00323666
-0.00621011
-0.00992689
-0.0142978
-0.0192359
-0.0246592
-0.030494
-0.0366742
-0.0431411
-0.0498423
-0.0567317
-0.0637687
-0.0709178
-0.0781478
-0.0854314
-0.0927447
-0.100066
-0.107378
-0.114661
-0.121901
-0.129081
-0.136189
-0.143208
-0.150125
-0.156923
-0.163587
-0.170098
-0.176437
-0.182584
-0.188515
-0.194204
-0.199624
-0.204743
-0.209528
-0.213941
-0.217941
-0.221486
-0.224529
-0.22702
-0.228906
-0.230133
-0.230644
-0.230383
-0.229293
-0.22732
-0.224412
-0.220523
-0.215617
-0.209666
-0.202656
-0.194591
-0.185491
-0.175403
-0.164393
-0.152558
-0.14002
-0.126928
-0.113456
-0.0998033
-0.0861854
-0.0728318
-0.0599781
-0.0478593
-0.0367017
-0.0267168
-0.0180948
-0.0109942
-0.00553313
-0.00186626
-0.000253957
-0.000172379
-0.00114091
-0.00322127
-0.00618327
-0.00988747
-0.0142451
-0.0191695
-0.0245784
-0.0303982
-0.0365625
-0.0430122
-0.0496948
-0.0565641
-0.0635794
-0.0707053
-0.0779111
-0.0851699
-0.0924585
-0.0997564
-0.107046
-0.11431
-0.121535
-0.128708
-0.135814
-0.142841
-0.149776
-0.156605
-0.163314
-0.169887
-0.176307
-0.182554
-0.188608
-0.194443
-0.200035
-0.205353
-0.210365
-0.215034
-0.219321
-0.223182
-0.226571
-0.229437
-0.231725
-0.233378
-0.234337
-0.234539
-0.233923
-0.232426
-0.229989
-0.226557
-0.222081
-0.216522
-0.209854
-0.202068
-0.193172
-0.183199
-0.172208
-0.160286
-0.147551
-0.13415
-0.120263
-0.106096
-0.0918771
-0.077854
-0.064284
-0.0514265
-0.0395349
-0.0288484
-0.0195846
-0.0119275
-0.00601777
-0.00203627
-0.000279027
-0.00017062
-0.00113106
-0.00319586
-0.00613762
-0.00981842
-0.0141502
-0.0190464
-0.0244253
-0.0302127
-0.0363422
-0.0427545
-0.0493968
-0.0562228
-0.0631919
-0.0702689
-0.0774233
-0.0846287
-0.0918627
-0.0991057
-0.106341
-0.113553
-0.120729
-0.127857
-0.134925
-0.141922
-0.148838
-0.15566
-0.162375
-0.168971
-0.175433
-0.181742
-0.18788
-0.193825
-0.199554
-0.205037
-0.210245
-0.215143
-0.219691
-0.223849
-0.227569
-0.2308
-0.233486
-0.235569
-0.236987
-0.237672
-0.237558
-0.236576
-0.234657
-0.231738
-0.227759
-0.222667
-0.216424
-0.209005
-0.200405
-0.190642
-0.179763
-0.167844
-0.154996
-0.141362
-0.127124
-0.112492
-0.097708
-0.0830367
-0.068757
-0.055155
-0.0425129
-0.0311004
-0.0211659
-0.0129226
-0.00653678
-0.00221929
-0.000306285
-0.000168309
-0.00111781
-0.00316119
-0.00607454
-0.00972183
-0.0140158
-0.0188704
-0.0242038
-0.0299419
-0.0360182
-0.042373
-0.0489533
-0.0557127
-0.0626107
-0.0696122
-0.076687
-0.0838095
-0.0909576
-0.0981129
-0.105259
-0.112384
-0.119474
-0.126519
-0.133511
-0.140438
-0.147293
-0.154066
-0.160746
-0.167322
-0.173782
-0.180111
-0.186291
-0.192305
-0.19813
-0.20374
-0.209108
-0.2142
-0.21898
-0.223407
-0.227435
-0.231014
-0.234089
-0.236598
-0.238478
-0.23966
-0.24007
-0.239635
-0.238278
-0.235926
-0.232507
-0.227957
-0.222222
-0.215262
-0.207056
-0.197605
-0.186942
-0.175127
-0.162262
-0.148484
-0.133971
-0.118938
-0.103638
-0.0883507
-0.0733779
-0.059033
-0.0456295
-0.0334705
-0.0228389
-0.0139804
-0.0070911
-0.00241584
-0.000335862
-0.000165502
-0.00110153
-0.00311825
-0.00599586
-0.00960046
-0.0138457
-0.0186459
-0.0239195
-0.0295923
-0.0355974
-0.0418749
-0.0483716
-0.0550411
-0.0618427
-0.0687416
-0.075708
-0.0827167
-0.0897467
-0.0967802
-0.103803
-0.110802
-0.117767
-0.12469
-0.131563
-0.138378
-0.145129
-0.151808
-0.158407
-0.164918
-0.17133
-0.177632
-0.183809
-0.189845
-0.195721
-0.201414
-0.2069
-0.212147
-0.217121
-0.221784
-0.226092
-0.229996
-0.23344
-0.236365
-0.238705
-0.240388
-0.241337
-0.241475
-0.240716
-0.238979
-0.236181
-0.232245
-0.227101
-0.220693
-0.212983
-0.203953
-0.193616
-0.182018
-0.169245
-0.155424
-0.140728
-0.125373
-0.109619
-0.0937604
-0.078122
-0.063045
-0.0488761
-0.035955
-0.0246025
-0.0151014
-0.00768149
-0.00262641
-0.000367889
-0.000162275
-0.00108269
-0.0030683
-0.00590387
-0.00945779
-0.0136446
-0.018379
-0.0235795
-0.0291718
-0.0350885
-0.0412696
-0.0476616
-0.0542177
-0.0608975
-0.0676664
-0.0744948
-0.0813584
-0.0882367
-0.0951132
-0.101974
-0.10881
-0.11561
-0.122369
-0.12908
-0.135738
-0.142338
-0.148876
-0.155347
-0.161743
-0.168058
-0.174283
-0.180406
-0.186415
-0.192294
-0.198022
-0.203578
-0.208935
-0.214061
-0.218921
-0.223473
-0.22767
-0.231459
-0.23478
-0.237568
-0.239749
-0.241245
-0.241972
-0.241841
-0.240761
-0.238638
-0.235383
-0.230912
-0.225149
-0.218038
-0.209541
-0.199649
-0.18839
-0.17583
-0.162082
-0.147308
-0.131725
-0.115593
-0.0992232
-0.0829591
-0.067171
-0.0522409
-0.0385479
-0.0264547
-0.0162853
-0.00830845
-0.00285141
-0.000402495
-0.000158719
-0.00106185
-0.00301288
-0.0058014
-0.00929815
-0.0134183
-0.0180771
-0.0231927
-0.0286904
-0.0345028
-0.040569
-0.0468355
-0.0532554
-0.059788
-0.0663991
-0.0730596
-0.0797458
-0.0864382
-0.0931214
-0.0997832
-0.106414
-0.113008
-0.119558
-0.126062
-0.132517
-0.138919
-0.145267
-0.151558
-0.157789
-0.163955
-0.17005
-0.176067
-0.181996
-0.187824
-0.193535
-0.199111
-0.204528
-0.209758
-0.214769
-0.219523