/*--------------------------------*- C++ -*----------------------------------*\
  =========                 |
  \\      /  F ield         | OpenFOAM: The Open Source CFD Toolbox
   \\    /   O peration     | Website:  https://openfoam.org
    \\  /    A nd           | Version:  dev
     \\/     M anipulation  |
\*---------------------------------------------------------------------------*/
FoamFile
{
    format      ascii;
    class       volScalarField;
    location    "39.15";
    object      Uy;
}
// * * * * * * * * * * * * * * * * * * * * * * * * * * * * * * * * * * * * * //

dimensions      [0 1 -1 0 0 0 0];

internalField   nonuniform List<scalar> 
5184
(
-1.27103e-05
-2.0894e-05
-1.72538e-05
-8.2006e-06
2.66701e-06
1.36181e-05
2.38483e-05
3.3053e-05
4.11125e-05
4.80326e-05
5.38749e-05
5.87243e-05
6.26732e-05
6.58129e-05
6.82281e-05
6.99944e-05
7.11759e-05
7.18252e-05
7.19831e-05
7.16791e-05
7.09327e-05
6.97543e-05
6.81469e-05
6.61074e-05
6.36286e-05
6.07008e-05
5.73135e-05
5.3457e-05
4.91242e-05
4.43122e-05
3.90233e-05
3.3267e-05
2.70603e-05
2.04293e-05
1.34097e-05
6.04727e-06
-1.60189e-06
-9.47128e-06
-1.74844e-05
-2.55552e-05
-3.35894e-05
-4.14854e-05
-4.91359e-05
-5.64298e-05
-6.32547e-05
-6.94984e-05
-7.50523e-05
-7.98133e-05
-8.36868e-05
-8.6589e-05
-8.84495e-05
-8.92128e-05
-8.88409e-05
-8.73139e-05
-8.46316e-05
-8.08134e-05
-7.58984e-05
-6.99457e-05
-6.30328e-05
-5.52558e-05
-4.67288e-05
-3.75849e-05
-2.79791e-05
-1.80939e-05
-8.15474e-06
1.54362e-06
1.05769e-05
1.83081e-05
2.37248e-05
2.51349e-05
1.98525e-05
6.24368e-06
-4.58957e-05
-6.57332e-05
-4.05808e-05
7.62032e-06
6.56779e-05
0.000126005
0.000184321
0.000238381
0.000287042
0.000329863
0.000366803
0.000398052
0.000423922
0.00044478
0.000461002
0.000472949
0.000480941
0.000485256
0.000486115
0.000483692
0.000478107
0.000469436
0.000457719
0.000442965
0.00042516
0.000404283
0.000380308
0.000353219
0.000323016
0.000289726
0.000253409
0.000214169
0.000172154
0.000127569
8.06736e-05
3.17859e-05
-1.87145e-05
-7.03894e-05
-0.000122743
-0.000175229
-0.000227252
-0.00027818
-0.000327351
-0.000374087
-0.000417702
-0.000457522
-0.000492893
-0.000523201
-0.000547885
-0.000566449
-0.000578482
-0.000583664
-0.000581779
-0.000572723
-0.000556514
-0.000533289
-0.000503313
-0.000466975
-0.000424791
-0.000377401
-0.000325573
-0.000270214
-0.000212384
-0.000153335
-9.45801e-05
-3.79962e-05
1.39546e-05
5.79667e-05
8.94467e-05
0.000101897
8.65458e-05
3.64957e-05
-8.13367e-05
-9.50802e-05
-1.91739e-05
0.000105914
0.000254668
0.000410639
0.000563511
0.000707146
0.000838093
0.000954645
0.0010562
0.00114287
0.00121515
0.00127377
0.00131955
0.00135333
0.00137586
0.00138782
0.00138978
0.00138218
0.00136534
0.00133949
0.00130476
0.00126121
0.00120886
0.00114768
0.00107768
0.000998859
0.000911291
0.000815111
0.000710551
0.000597958
0.000477803
0.000350704
0.000217426
7.88919e-05
-6.38165e-05
-0.000209464
-0.000356666
-0.000503905
-0.000649545
-0.000791852
-0.000929024
-0.00105922
-0.00118058
-0.00129129
-0.0013896
-0.00147386
-0.00154256
-0.0015944
-0.00162828
-0.00164335
-0.00163905
-0.00161513
-0.00157165
-0.00150903
-0.001428
-0.00132966
-0.00121547
-0.00108723
-0.000947121
-0.000797705
-0.000641992
-0.000483515
-0.000326475
-0.000175961
-3.82913e-05
7.85145e-05
0.000164158
0.00020547
0.000186341
9.04173e-05
-9.77848e-05
-7.32086e-05
8.47413e-05
0.000318364
0.000590152
0.000874474
0.00115429
0.00141882
0.00166158
0.00187903
0.00206963
0.00223311
0.00237003
0.00248145
0.00256862
0.00263287
0.0026755
0.00269764
0.00270029
0.00268423
0.00265006
0.0025982
0.00252893
0.0024424
0.00233869
0.00221786
0.00207994
0.00192505
0.00175341
0.00156535
0.00136141
0.00114232
0.000909054
0.000662851
0.000405228
0.000137986
-0.000136785
-0.000416713
-0.000699163
-0.000981256
-0.0012599
-0.00153185
-0.00179372
-0.00204206
-0.00227343
-0.00248444
-0.00267185
-0.00283259
-0.0029639
-0.00306336
-0.00312893
-0.00315908
-0.00315279
-0.0031096
-0.00302966
-0.00291378
-0.00276336
-0.00258052
-0.00236802
-0.0021293
-0.00186853
-0.00159059
-0.00130122
-0.00100707
-0.000715968
-0.000437194
-0.000181891
3.63267e-05
0.000200738
0.000290947
0.000282657
0.000147327
-8.44559e-05
2.08358e-05
0.00029543
0.000668079
0.00109096
0.00153015
0.00196221
0.00237164
0.00274874
0.00308785
0.00338621
0.00364298
0.00385865
0.00403443
0.00417201
0.00427318
0.00433976
0.00437338
0.00437547
0.0043472
0.00428948
0.00420297
0.00408813
0.00394526
0.00377454
0.00357614
0.00335023
0.0030971
0.00281718
0.00251115
0.00217995
0.00182484
0.00144749
0.00104995
0.00063469
0.00020464
-0.00023684
-0.000685961
-0.00113853
-0.00159
-0.00203549
-0.00246988
-0.00288788
-0.00328411
-0.00365318
-0.00398982
-0.00428897
-0.00454588
-0.00475625
-0.00491633
-0.00502297
-0.0050738
-0.00506724
-0.00500262
-0.00488018
-0.0047012
-0.00446795
-0.00418375
-0.00385298
-0.00348111
-0.00307471
-0.00264153
-0.00219055
-0.0017322
-0.00127853
-0.000843583
-0.000443864
-9.8933e-05
0.000167867
0.000328799
0.000351122
0.000194202
-3.75704e-05
0.00019733
0.000626938
0.00117048
0.001772
0.00239062
0.00299726
0.00357213
0.00410238
0.00458023
0.0050016
0.00536501
0.00567069
0.00592002
0.00611497
0.00625781
0.00635081
0.00639612
0.0063956
0.00635082
0.00626302
0.00613312
0.00596179
0.00574951
0.00549662
0.00520346
0.0048704
0.00449797
0.00408693
0.00363837
0.0031538
0.00263515
0.00208492
0.00150614
0.000902483
0.000278188
-0.000361875
-0.00101225
-0.00166693
-0.0023194
-0.00296275
-0.00358968
-0.00419271
-0.00476421
-0.00529659
-0.0057824
-0.00621451
-0.00658625
-0.00689156
-0.00712513
-0.00728258
-0.00736053
-0.00735678
-0.00727039
-0.00710172
-0.00685258
-0.0065262
-0.00612731
-0.00566215
-0.0051385
-0.0045657
-0.00395474
-0.00331833
-0.00267106
-0.00202967
-0.00141335
-0.000844255
-0.000348066
4.52336e-05
0.000300695
0.0003775
0.0002246
4.40683e-05
0.000461285
0.00108718
0.00183499
0.00264281
0.00346439
0.00426609
0.00502445
0.00572385
0.00635459
0.00691137
0.00739201
0.00779653
0.00812635
0.00838375
0.00857139
0.00869201
0.0087482
0.00874228
0.00867619
0.00855152
0.00836946
0.00813092
0.0078366
0.00748703
0.00708277
0.00662445
0.00611292
0.00554936
0.00493539
0.00427315
0.00356543
0.00281568
0.0020281
0.00120769
0.000360213
-0.000507744
-0.00138885
-0.00227506
-0.00315768
-0.00402747
-0.00487478
-0.00568964
-0.00646195
-0.00718167
-0.00783893
-0.0084243
-0.00892896
-0.00934489
-0.00966507
-0.00988368
-0.00999626
-0.00999986
-0.00989321
-0.00967679
-0.00935296
-0.00892601
-0.00840218
-0.00778977
-0.00709907
-0.0063425
-0.00553455
-0.00469199
-0.00383391
-0.00298201
-0.0021609
-0.0013985
-0.000726694
-0.000181962
0.000193874
0.000352686
0.000235087
0.000160457
0.000814573
0.00167996
0.0026666
0.00370877
0.00475641
0.00577247
0.00673067
0.00761318
0.00840874
0.00911101
0.00971727
0.0102273
0.0106427
0.010966
0.0112001
0.0113484
0.0114138
0.011399
0.0113064
0.011138
0.0108951
0.0105789
0.0101904
0.00973042
0.00919966
0.0085991
0.00792999
0.00719401
0.0063934
0.00553105
0.00461068
0.00363685
0.00261505
0.00155177
0.000454475
-0.000668399
-0.00180745
-0.00295241
-0.0040922
-0.00521509
-0.0063088
-0.00736073
-0.00835806
-0.00928808
-0.0101383
-0.0108968
-0.0115523
-0.0120948
-0.0125153
-0.0128064
-0.0129623
-0.0129793
-0.0128558
-0.0125922
-0.0121915
-0.0116591
-0.0110027
-0.0102329
-0.00936266
-0.00840758
-0.00738596
-0.00631881
-0.00522996
-0.00414628
-0.00309792
-0.00211869
-0.00124656
-0.00052435
-2.74548e-07
0.000271108
0.000223956
0.000310958
0.0012571
0.00240623
0.00366719
0.00497221
0.00626892
0.00751806
0.0086914
0.00976961
0.0107403
0.0115965
0.012335
0.0129557
0.0134602
0.0138514
0.0141327
0.0143076
0.0143798
0.0143523
0.0142278
0.0140085
0.0136963
0.0132925
0.0127983
0.0122149
0.0115432
0.0107845
0.00994071
0.00901388
0.00800699
0.00692379
0.00576902
0.00454845
0.00326898
0.0019387
0.000566881
-0.000836007
-0.00225837
-0.00368755
-0.00510993
-0.00651111
-0.00787603
-0.00918922
-0.010435
-0.0115978
-0.0126623
-0.0136138
-0.0144386
-0.0151242
-0.0156595
-0.0160355
-0.016245
-0.0162833
-0.0161481
-0.01584
-0.0153624
-0.0147217
-0.0139274
-0.0129923
-0.011932
-0.0107657
-0.00951543
-0.0082067
-0.00686823
-0.00553219
-0.00423437
-0.00301448
-0.00191652
-0.000989396
-0.000287278
0.000129655
0.000190555
0.00049467
0.00178764
0.00326511
0.00483638
0.00643311
0.00800197
0.0095026
0.0109058
0.0121914
0.0133464
0.0143637
0.0152399
0.0159751
0.0165711
0.0170312
0.0173592
0.0175593
0.0176353
0.0175908
0.0174288
0.0171519
0.0167621
0.0162612
0.0156505
0.0149314
0.0141054
0.013174
0.0121396
0.011005
0.00977375
0.00845063
0.00704142
0.0055532
0.00399436
0.00237469
0.000705371
-0.001001
-0.00273051
-0.004468
-0.00619718
-0.00790082
-0.00956094
-0.0111591
-0.0126764
-0.0140944
-0.0153946
-0.0165596
-0.0175727
-0.018419
-0.0190852
-0.0195601
-0.019835
-0.019904
-0.0197643
-0.0194162
-0.0188636
-0.018114
-0.0171783
-0.0160717
-0.0148126
-0.0134236
-0.0119309
-0.0103644
-0.00875788
-0.00714897
-0.00557913
-0.00409398
-0.00274351
-0.00158249
-0.00067068
-7.32891e-05
0.000134803
0.00071056
0.00240428
0.00425453
0.00617221
0.00808967
0.00995379
0.0117242
0.0133715
0.0148756
0.0162236
0.0174082
0.0184266
0.0192792
0.0199682
0.0204976
0.0208715
0.0210946
0.0211711
0.0211052
0.0209002
0.0205589
0.0200838
0.0194768
0.0187395
0.0178736
0.0168809
0.0157635
0.014524
0.013166
0.0116939
0.0101134
0.00843134
0.00665622
0.00479795
0.00286808
0.000879798
-0.00115213
-0.00321137
-0.00528017
-0.00733945
-0.00936906
-0.0113479
-0.0132544
-0.0150666
-0.0167625
-0.0183206
-0.0197203
-0.020942
-0.021968
-0.0227823
-0.0233717
-0.0237257
-0.023837
-0.0237019
-0.0233204
-0.0226967
-0.0218391
-0.0207603
-0.0194775
-0.018012
-0.0163899
-0.0146416
-0.0128015
-0.0109085
-0.00900581
-0.00714062
-0.0053645
-0.00373339
-0.00230782
-0.00115293
-0.000338563
5.68681e-05
0.000957548
0.00310472
0.00537158
0.00767157
0.00993874
0.0121212
0.0141795
0.0160851
0.0178184
0.0193673
0.020725
0.0218896
0.0228619
0.023645
0.0242433
0.0246617
0.0249054
0.0249792
0.0248876
0.0246342
0.0242223
0.0236545
0.0229331
0.02206
0.0210372
0.0198666
0.0185509
0.0170933
0.0154979
0.01377
0.0119161
0.00994449
0.0078648
0.00568858
0.00342919
0.00110182
-0.0012765
-0.003687
-0.00610923
-0.00852128
-0.0108999
-0.013221
-0.0154594
-0.0175899
-0.0195872
-0.0214263
-0.0230832
-0.0245351
-0.0257613
-0.026743
-0.0274646
-0.0279134
-0.0280806
-0.0279612
-0.0275549
-0.0268658
-0.0259031
-0.0246809
-0.0232185
-0.0215401
-0.0196752
-0.0176583
-0.0155288
-0.0133305
-0.0111123
-0.00892736
-0.00683315
-0.00489164
-0.00316912
-0.00173603
-0.000666732
-4.30341e-05
0.00123455
0.00388642
0.00661285
0.00933056
0.0119762
0.0144999
0.0168641
0.0190419
0.0210149
0.0227724
0.0243088
0.025623
0.026717
0.0275948
0.0282615
0.028723
0.0289848
0.0290525
0.0289309
0.0286242
0.0281359
0.027469
0.0266258
0.0256086
0.0244196
0.0230613
0.0215365
0.0198491
0.0180037
0.0160066
0.0138651
0.0115886
0.00918817
0.00667697
0.0040701
0.0013848
-0.00135967
-0.00414202
-0.00693912
-0.00972611
-0.0124767
-0.0151633
-0.0177577
-0.0202308
-0.0225538
-0.0246981
-0.0266361
-0.0283416
-0.0297904
-0.0309609
-0.0318343
-0.0323959
-0.0326347
-0.0325445
-0.032124
-0.0313774
-0.0303141
-0.0289498
-0.0273055
-0.0254085
-0.0232917
-0.0209936
-0.0185584
-0.0160354
-0.013479
-0.0109485
-0.00850742
-0.00622396
-0.00417022
-0.00242204
-0.00105844
-0.000164769
0.00154045
0.00474667
0.00797452
0.0111446
0.0141969
0.0170845
0.0197725
0.0222361
0.0244593
0.0264329
0.0281531
0.0296204
0.0308379
0.0318109
0.0325455
0.0330484
0.0333261
0.0333846
0.0332293
0.0328648
0.0322949
0.0315228
0.0305514
0.0293829
0.0280199
0.0264651
0.0247219
0.0227944
0.0206881
0.0184098
0.015968
0.013373
0.0106373
0.00777548
0.00480454
0.00174364
-0.00138567
-0.00455966
-0.00775244
-0.0109362
-0.0140815
-0.0171575
-0.0201321
-0.0229729
-0.025647
-0.0281222
-0.030367
-0.0323513
-0.0340473
-0.0354299
-0.0364775
-0.0371722
-0.0375009
-0.0374556
-0.037034
-0.0362395
-0.0350822
-0.0335785
-0.0317515
-0.029631
-0.0272533
-0.0246613
-0.0219039
-0.0190358
-0.0161174
-0.0132139
-0.0103956
-0.00773665
-0.00531547
-0.00321349
-0.00151467
-0.000308375
0.00187417
0.00568262
0.00945247
0.0131087
0.0165953
0.0198691
0.0228984
0.0256614
0.0281449
0.030342
0.0322512
0.0338748
0.0352176
0.0362863
0.0370884
0.0376314
0.0379229
0.0379695
0.0377771
0.0373509
0.036695
0.0358129
0.0347076
0.0333817
0.031838
0.0300795
0.0281099
0.0259337
0.0235571
0.0209874
0.0182341
0.0153085
0.0122244
0.00899794
0.00564763
0.00219469
-0.00133718
-0.00492178
-0.00853053
-0.0121327
-0.0156955
-0.0191847
-0.0225647
-0.025799
-0.0288511
-0.0316843
-0.0342632
-0.0365536
-0.0385237
-0.0401446
-0.0413909
-0.0422418
-0.0426814
-0.0426994
-0.042292
-0.0414618
-0.0402188
-0.0385802
-0.0365707
-0.0342227
-0.0315759
-0.0286772
-0.0255805
-0.0223461
-0.0190404
-0.0157351
-0.012507
-0.00943705
-0.00661007
-0.00411357
-0.00203692
-0.000474117
0.00223456
0.00669131
0.0110423
0.0152174
0.0191652
0.0228467
0.0262345
0.0293103
0.0320642
0.0344922
0.0365956
0.0383787
0.0398487
0.0410138
0.041883
0.0424652
0.0427687
0.0428011
0.042569
0.0420779
0.0413324
0.0403363
0.0390927
0.0376047
0.0358749
0.0339068
0.0317043
0.0292724
0.0266176
0.0237479
0.0206736
0.0174071
0.0139632
0.0103593
0.00661576
0.00275551
-0.00119559
-0.00520897
-0.00925337
-0.0132951
-0.0172983
-0.021225
-0.025036
-0.0286909
-0.0321488
-0.035369
-0.0383114
-0.0409374
-0.0432109
-0.0450987
-0.0465714
-0.0476044
-0.0481786
-0.0482811
-0.047906
-0.0470546
-0.0457365
-0.0439693
-0.0417791
-0.0392005
-0.0362767
-0.0330586
-0.029605
-0.0259822
-0.0222626
-0.0185247
-0.0148524
-0.0113337
-0.00806035
-0.00512641
-0.00262734
-0.000662531
0.00262047
0.00776964
0.0127393
0.0174647
0.0218996
0.0260101
0.029773
0.0331747
0.0362088
0.0388751
0.0411777
0.043124
0.0447231
0.0459856
0.046922
0.0475426
0.0478569
0.0478734
0.0475995
0.0470412
0.0462035
0.0450904
0.0437054
0.0420515
0.0401318
0.0379497
0.0355094
0.0328163
0.0298772
0.0267007
0.0232977
0.0196815
0.0158678
0.0118755
0.00772624
0.00344472
-0.000941191
-0.00540062
-0.00989975
-0.014402
-0.0188682
-0.023257
-0.0275254
-0.0316287
-0.0355218
-0.0391594
-0.0424966
-0.0454902
-0.048099
-0.0502851
-0.0520146
-0.0532588
-0.0539946
-0.0542059
-0.0538841
-0.0530288
-0.0516486
-0.0497611
-0.0473936
-0.0445827
-0.0413746
-0.0378244
-0.0339962
-0.0299617
-0.0258003
-0.0215974
-0.0174444
-0.0134368
-0.00967396
-0.0062572
-0.00328879
-0.000874449
0.0030307
0.00891433
0.0145385
0.0198444
0.0247914
0.029351
0.0335054
0.0372455
0.0405697
0.0434815
0.0459887
0.0481016
0.0498322
0.0511932
0.0521971
0.0528559
0.0531805
0.0531802
0.0528632
0.0522362
0.0513045
0.0500727
0.0485441
0.0467221
0.0446099
0.0422109
0.0395297
0.0365716
0.0333438
0.0298554
0.0261178
0.0221448
0.0179533
0.0135631
0.0089971
0.00428173
-0.000553349
-0.00547512
-0.0104473
-0.0154304
-0.0203822
-0.0252579
-0.0300103
-0.0345909
-0.0389498
-0.0430368
-0.0468022
-0.0501975
-0.0531761
-0.055695
-0.0577151
-0.0592027
-0.0601304
-0.0604781
-0.0602339
-0.0593951
-0.0579686
-0.0559717
-0.0534322
-0.0503885
-0.0468898
-0.0429954
-0.0387742
-0.0343043
-0.0296717
-0.0249696
-0.0202971
-0.015758
-0.01146
-0.0075123
-0.00402496
-0.00111102
0.00346399
0.010122
0.0164347
0.0223497
0.0278326
0.0328608
0.0374223
0.0415133
0.0451371
0.0483016
0.0510185
0.0533018
0.0551663
0.0566274
0.0576998
0.0583972
0.0587318
0.0587144
0.0583539
0.0576576
0.0566314
0.05528
0.0536071
0.0516161
0.0493103
0.0466932
0.0437693
0.0405442
0.0370251
0.0332215
0.0291451
0.0248103
0.0202346
0.0154387
0.0104468
0.00528648
-1.07772e-05
-0.00541
-0.0108726
-0.0163563
-0.021816
-0.0272031
-0.0324668
-0.037554
-0.0424104
-0.0469805
-0.0512094
-0.0550428
-0.0584285
-0.0613176
-0.0636652
-0.065432
-0.0665855
-0.0671008
-0.0669621
-0.0661635
-0.0647097
-0.0626169
-0.0599131
-0.0566382
-0.0528438
-0.0485934
-0.0439611
-0.0390312
-0.0338969
-0.0286595
-0.0234265
-0.0183108
-0.013429
-0.00889929
-0.00484035
-0.00137371
0.00391899
0.0113889
0.0184223
0.0249736
0.0310149
0.0365303
0.0415138
0.0459677
0.0499003
0.0533246
0.0562566
0.0587141
0.0607153
0.0622784
0.0634205
0.0641573
0.0645026
0.0644685
0.0640648
0.0632995
0.0621792
0.0607086
0.0588919
0.0567324
0.0542334
0.0513984
0.0482319
0.0447395
0.0409284
0.0368082
0.0323907
0.0276908
0.0227265
0.0175191
0.0120937
0.00647909
0.000708197
-0.00518223
-0.0111514
-0.0171547
-0.0231437
-0.0290667
-0.0348688
-0.0404927
-0.045879
-0.0509673
-0.0556967
-0.0600069
-0.0638396
-0.0671393
-0.0698547
-0.0719402
-0.0733571
-0.0740753
-0.0740739
-0.073343
-0.0718845
-0.0697127
-0.066855
-0.0633524
-0.059259
-0.0546419
-0.0495805
-0.0441655
-0.0384979
-0.0326873
-0.0268507
-0.0211105
-0.0155932
-0.010427
-0.00574036
-0.00166432
0.00439432
0.0127113
0.0204955
0.0277085
0.0343295
0.0403496
0.0457694
0.0505974
0.0548479
0.058539
0.0616914
0.0643271
0.066468
0.0681353
0.0693488
0.0701263
0.0704836
0.0704339
0.0699881
0.0691552
0.0679421
0.066354
0.0643951
0.0620689
0.0593786
0.0563276
0.0529202
0.0491619
0.0450599
0.0406235
0.0358648
0.0307986
0.0254431
0.0198203
0.0139559
0.00787951
0.00162528
-0.00476847
-0.0112591
-0.0177995
-0.0243385
-0.0308212
-0.0371887
-0.0433794
-0.0493289
-0.0549713
-0.0602398
-0.0650677
-0.0693897
-0.0731434
-0.0762702
-0.0787176
-0.0804399
-0.0814003
-0.0815722
-0.0809409
-0.0795041
-0.0772738
-0.074276
-0.0705521
-0.0661583
-0.0611651
-0.0556572
-0.0497321
-0.0434986
-0.0370755
-0.0305897
-0.0241742
-0.0179664
-0.0121058
-0.00673125
-0.001985
0.00488847
0.0140851
0.022648
0.0305464
0.037767
0.0443081
0.0501777
0.0553907
0.0599677
0.0639323
0.0673105
0.0701285
0.0724123
0.0741864
0.0754734
0.0762936
0.0766645
0.076601
0.0761151
0.0752167
0.0739131
0.0722101
0.070112
0.0676222
0.0647439
0.0614803
0.0578354
0.0538145
0.0494244
0.0446744
0.0395761
0.0341444
0.0283976
0.0223577
0.0160507
0.0095071
0.00276184
-0.0041455
-0.0111706
-0.0182642
-0.0253727
-0.0324378
-0.0393971
-0.0461845
-0.0527306
-0.0589639
-0.0648113
-0.0701994
-0.0750555
-0.0793094
-0.0828948
-0.085751
-0.0878245
-0.089071
-0.0894571
-0.0889617
-0.0875778
-0.0853137
-0.0821934
-0.0782579
-0.0735648
-0.0681881
-0.0622174
-0.0557571
-0.0489245
-0.041848
-0.0346652
-0.0275209
-0.0205643
-0.013947
-0.00782019
-0.00233822
0.00539985
0.015506
0.0248732
0.0334788
0.0413174
0.0483949
0.0547268
0.0603351
0.0652467
0.0694915
0.0731006
0.0761051
0.0785351
0.0804188
0.0817818
0.0826469
0.0830338
0.0829589
0.0824356
0.0814746
0.0800839
0.0782697
0.0760364
0.0733874
0.0703258
0.0668544
0.0629771
0.0586985
0.0540252
0.0489658
0.0435318
0.0377376
0.0316013
0.0251447
0.0183941
0.0113802
0.00413842
-0.00329057
-0.0108611
-0.0185222
-0.0262179
-0.0338869
-0.0414632
-0.0488764
-0.0560523
-0.0629136
-0.0693806
-0.0753727
-0.0808097
-0.0856128
-0.0897072
-0.093023
-0.095498
-0.0970791
-0.0977248
-0.0974069
-0.096112
-0.0938437
-0.090623
-0.0864895
-0.0815016
-0.0757362
-0.069288
-0.0622682
-0.0548028
-0.0470307
-0.0391012
-0.0311713
-0.0234038
-0.0159636
-0.00901524
-0.00272683
0.00592681
0.0169694
0.0271643
0.036497
0.0449702
0.0525983
0.0594041
0.0654171
0.0706713
0.0752025
0.0790476
0.0822427
0.0848224
0.0868187
0.0882604
0.0891732
0.0895787
0.0894954
0.088938
0.0879181
0.0864445
0.0845236
0.0821602
0.0793576
0.0761186
0.0724459
0.0683426
0.063813
0.058863
0.0535007
0.0477369
0.0415853
0.0350637
0.0281934
0.0210004
0.0135155
0.00577431
-0.0021819
-0.0103065
-0.018547
-0.0268453
-0.0351377
-0.0433547
-0.0514218
-0.0592599
-0.0667858
-0.0739134
-0.0805546
-0.0866208
-0.0920244
-0.096681
-0.100511
-0.103442
-0.105411
-0.106367
-0.106274
-0.10511
-0.102872
-0.0995783
-0.095265
-0.0899908
-0.0838348
-0.0768964
-0.0692938
-0.0611622
-0.0526513
-0.043923
-0.0351481
-0.0265037
-0.0181697
-0.0103254
-0.00315397
0.00646756
0.0184707
0.0295139
0.0395915
0.0487147
0.0569059
0.0641963
0.070623
0.0762268
0.0810503
0.0851363
0.0885261
0.091259
0.0933709
0.0948944
0.0958577
0.0962851
0.0961968
0.095609
0.0945345
0.0929828
0.0909607
0.0884733
0.0855237
0.0821145
0.078248
0.0739268
0.0691545
0.0639362
0.0582792
0.0521935
0.045692
0.0387916
0.031513
0.0238816
0.0159277
0.00768695
-0.000799234
-0.0094836
-0.0183127
-0.0272266
-0.0361594
-0.0450385
-0.0537857
-0.062317
-0.0705435
-0.0783724
-0.0857079
-0.0924528
-0.0985101
-0.103785
-0.108187
-0.111633
-0.114049
-0.115372
-0.115555
-0.11457
-0.112404
-0.10907
-0.1046
-0.0990529
-0.0925083
-0.08507
-0.0768631
-0.0680322
-0.0587387
-0.0491579
-0.0394755
-0.0298844
-0.0205808
-0.0117604
-0.00362316
0.00702028
0.0200048
0.0319146
0.0427528
0.0525392
0.061305
0.0690896
0.0759379
0.081898
0.0870194
0.0913508
0.0949392
0.0978286
0.100059
0.101668
0.102684
0.103137
0.103048
0.102434
0.101309
0.0996848
0.0975678
0.0949631
0.0918741
0.088303
0.0842515
0.0797218
0.0747165
0.06924
0.0632985
0.0569009
0.0500591
0.0427888
0.0351099
0.0270467
0.0186288
0.00989142
0.00087563
-0.0083711
-0.0177947
-0.0273341
-0.0369213
-0.0464812
-0.0559321
-0.0651854
-0.0741468
-0.0827166
-0.0907915
-0.0982651
-0.105031
-0.110982
-0.116018
-0.120041
-0.122966
-0.124718
-0.125238
-0.124485
-0.122439
-0.119104
-0.114508
-0.108707
-0.10178
-0.0938354
-0.0850052
-0.0754432
-0.065323
-0.0548344
-0.0441792
-0.0335676
-0.0232137
-0.0133312
-0.00413826
0.00758302
0.0215666
0.0343584
0.0459706
0.056432
0.0657824
0.0740696
0.0813466
0.087669
0.0930931
0.0976742
0.101465
0.104514
0.106867
0.108562
0.109636
0.110117
0.11003
0.109395
0.108226
0.106535
0.104329
0.101615
0.0983946
0.0946706
0.0904442
0.0857165
0.0804895
0.0747663
0.0685522
0.0618546
0.0546844
0.0470556
0.0389869
0.0305015
0.0216277
0.0123998
0.00285821
-0.0069499
-0.0169703
-0.0271412
-0.0373933
-0.0476493
-0.0578243
-0.0678256
-0.0775536
-0.0869023
-0.0957604
-0.104013
-0.111541
-0.11823
-0.123962
-0.12863
-0.132132
-0.134381
-0.135303
-0.134844
-0.132973
-0.129684
-0.124998
-0.118967
-0.111671
-0.103218
-0.093749
-0.0834259
-0.0724354
-0.0609825
-0.0492865
-0.0375766
-0.0260863
-0.0150492
-0.00470348
0.0081538
0.0231508
0.0368373
0.0492348
0.0603809
0.0703244
0.0791214
0.0868332
0.0935231
0.0992544
0.104089
0.108085
0.111297
0.113774
0.11556
0.116694
0.117207
0.117127
0.116474
0.115265
0.113513
0.111227
0.10841
0.105068
0.101201
0.0968105
0.0918965
0.0864601
0.0805034
0.0740302
0.0670466
0.0595617
0.0515883
0.0431432
0.0342479
0.0249294
0.0152206
0.00516073
-0.00520387
-0.0158193
-0.0266238
-0.0375469
-0.0485101
-0.0594255
-0.0701971
-0.0807204
-0.0908831
-0.100566
-0.109645
-0.117992
-0.125478
-0.131974
-0.137356
-0.141508
-0.144326
-0.145721
-0.145625
-0.143992
-0.140804
-0.136074
-0.129846
-0.122198
-0.113243
-0.103122
-0.0920108
-0.0801072
-0.0676329
-0.054826
-0.0419359
-0.0292179
-0.016927
-0.00532334
0.00873058
0.0247519
0.039343
0.0525346
0.0643734
0.0749168
0.0842298
0.0923815
0.0994432
0.105485
0.110576
0.11478
0.118157
0.120761
0.122641
0.123837
0.124385
0.124315
0.12365
0.122407
0.120601
0.118239
0.11533
0.111874
0.107875
0.103331
0.0982436
0.0926114
0.0864354
0.0797182
0.0724642
0.0646807
0.0563787
0.0475731
0.0382834
0.0285348
0.0183583
0.00779148
-0.00312053
-0.0143248
-0.0257601
-0.0373558
-0.0490322
-0.0606999
-0.0722595
-0.0836023
-0.0946103
-0.105157
-0.11511
-0.124329
-0.132672
-0.139998
-0.146167
-0.151045
-0.154511
-0.156458
-0.156801
-0.155476
-0.152454
-0.147732
-0.141349
-0.133378
-0.123929
-0.113152
-0.101228
-0.0883702
-0.0748172
-0.060827
-0.0466714
-0.0326288
-0.0189779
-0.00600274
0.00931127
0.0263643
0.0418671
0.0558595
0.0683969
0.0795456
0.089379
0.0979747
0.105411
0.111767
0.117117
0.121531
0.125075
0.127808
0.129782
0.131044
0.13163
0.131573
0.130899
0.129627
0.127772
0.125344
0.122349
0.11879
0.114669
0.109985
0.104736
0.0989223
0.0925425
0.0855977
0.0780904
0.0700263
0.061414
0.0522664
0.0426007
0.0324398
0.0218124
0.0107542
-0.000691642
-0.0124738
-0.0245321
-0.0367965
-0.0491869
-0.0616129
-0.0739728
-0.0861543
-0.0980342
-0.109479
-0.120348
-0.13049
-0.139752
-0.147975
-0.155004
-0.160688
-0.164885
-0.167469
-0.168334
-0.167399
-0.164614
-0.159965
-0.153477
-0.145218
-0.135295
-0.12386
-0.111105
-0.0972554
-0.0825671
-0.0673199
-0.0518096
-0.0363401
-0.0212159
-0.00674689
0.00989381
0.0279826
0.0444012
0.0591985
0.0724385
0.0841962
0.0945535
0.103596
0.11141
0.118081
0.123691
0.128317
0.132029
0.134892
0.136963
0.13829
0.138917
0.138877
0.138198
0.136901
0.135003
0.132515
0.129442
0.125789
0.121557
0.116744
0.111348
0.105368
0.0988005
0.0916455
0.0839038
0.0755786
0.0666764
0.0572077
0.0471872
0.0366351
0.0255776
0.0140477
0.0020861
-0.0102579
-0.0229259
-0.0358493
-0.0489485
-0.0621326
-0.0752988
-0.0883318
-0.101104
-0.113477
-0.1253
-0.136413
-0.146649
-0.155836
-0.1638
-0.170372
-0.175388
-0.178699
-0.180178
-0.17972
-0.177256
-0.172754
-0.166223
-0.157721
-0.147352
-0.135269
-0.121669
-0.106793
-0.0909142
-0.0743355
-0.0573783
-0.0403743
-0.0236559
-0.00756136
0.0104761
0.0296013
0.0469371
0.062541
0.0764857
0.0888544
0.0997372
0.109228
0.117421
0.124408
0.130279
0.135116
0.138996
0.14199
0.144157
0.145552
0.14622
0.146199
0.145518
0.144201
0.142265
0.139722
0.13658
0.132842
0.128509
0.123579
0.118051
0.111919
0.105181
0.0978341
0.0898777
0.0813126
0.0721429
0.0623763
0.052025
0.041106
0.0296426
0.0176649
0.00521052
-0.00767405
-0.0209328
-0.0344992
-0.0482952
-0.0622305
-0.0762018
-0.0900921
-0.103771
-0.117094
-0.129903
-0.14203
-0.153294
-0.163508
-0.172481
-0.180023
-0.185948
-0.190083
-0.192273
-0.192391
-0.190342
-0.186072
-0.179571
-0.170884
-0.160108
-0.147393
-0.132943
-0.117011
-0.0998896
-0.0819046
-0.0634057
-0.0447543
-0.0263135
-0.00845203
0.0110562
0.0312149
0.0494665
0.0658767
0.080526
0.0935059
0.104915
0.114854
0.123425
0.130728
0.136859
0.141907
0.145955
0.149078
0.151341
0.152804
0.153513
0.153511
0.15283
0.151495
0.149526
0.146935
0.14373
0.139916
0.135492
0.130458
0.12481
0.118542
0.111651
0.104131
0.095981
0.0871984
0.0777851
0.0677461
0.0570904
0.0458319
0.0339906
0.021593
0.00867347
-0.00472502
-0.0185496
-0.0327367
-0.0472105
-0.0618824
-0.0766499
-0.0913954
-0.105986
-0.120274
-0.134095
-0.147271
-0.15961
-0.170912
-0.180965
-0.18956
-0.196486
-0.201544
-0.204552
-0.205352
-0.203821
-0.19988
-0.193495
-0.184694
-0.173561
-0.160242
-0.144946
-0.127936
-0.109523
-0.090058
-0.0699204
-0.0495039
-0.0292049
-0.0094251
0.011632
0.0328184
0.0519817
0.0691953
0.0845474
0.0981371
0.11007
0.120456
0.129404
0.137022
0.143411
0.148667
0.152881
0.156131
0.158489
0.160017
0.160767
0.160785
0.160104
0.158754
0.156754
0.154119
0.150858
0.146975
0.142471
0.137343
0.131588
0.1252
0.118173
0.110501
0.102178
0.0932012
0.0835697
0.0732854
0.0623541
0.0507863
0.0385983
0.0258129
0.0124604
-0.00142004
-0.0157796
-0.0305582
-0.0456836
-0.0610698
-0.076616
-0.0922055
-0.107705
-0.122963
-0.137812
-0.152065
-0.16552
-0.177963
-0.189164
-0.198892
-0.206912
-0.212997
-0.216932
-0.218529
-0.217631
-0.214127
-0.207959
-0.199127
-0.187702
-0.173821
-0.157693
-0.13959
-0.119842
-0.0988255
-0.0769511
-0.0546474
-0.0323468
-0.0104871
0.0122018
0.034407
0.0544753
0.0724873
0.0885384
0.102735
0.11519
0.12602
0.135342
0.14327
0.149913
0.155375
0.15975
0.163123
0.165572
0.167163
0.167952
0.167988
0.167308
0.165942
0.163914
0.161238
0.157926
0.153981
0.149405
0.144195
0.138347
0.131853
0.124707
0.116901
0.108428
0.0992814
0.0894582
0.0789573
0.0677812
0.0559368
0.0434366
0.0302991
0.0165503
0.00222492
-0.0126328
-0.0279673
-0.0437105
-0.0597802
-0.0760789
-0.092492
-0.108887
-0.125111
-0.140994
-0.156342
-0.170945
-0.184574
-0.196985
-0.207923
-0.217128
-0.224343
-0.22932
-0.231835
-0.231695
-0.228752
-0.222912
-0.214151
-0.202513
-0.188125
-0.171192
-0.151992
-0.130872
-0.108236
-0.0845262
-0.0602094
-0.0357567
-0.0116448
0.012764
0.0359761
0.0569406
0.0757442
0.0924884
0.107286
0.120258
0.131528
0.141219
0.149452
0.156345
0.162007
0.166538
0.17003
0.172565
0.174214
0.175038
0.175088
0.174406
0.173024
0.170968
0.168254
0.164894
0.160893
0.156253
0.150971
0.145041
0.138457
0.131209
0.123288
0.114687
0.105395
0.0954074
0.0847198
0.0733314
0.0612454
0.04847
0.0350196
0.0209154
0.00618693
-0.00912647
-0.0249746
-0.0412944
-0.0580088
-0.0750246
-0.0922308
-0.109497
-0.126672
-0.143583
-0.160034
-0.175806
-0.190658
-0.204331
-0.216549
-0.227027
-0.235476
-0.241612
-0.245173
-0.245924
-0.243675
-0.238293
-0.229717
-0.217964
-0.203141
-0.185443
-0.165154
-0.142635
-0.118316
-0.0926735
-0.0662145
-0.0394522
-0.0129053
0.013317
0.0375221
0.0593718
0.078958
0.096388
0.111781
0.125263
0.136966
0.147019
0.155552
0.162687
0.168541
0.17322
0.176823
0.179437
0.181138
0.181991
0.182051
0.181363
0.179963
0.177878
0.175126
0.171721
0.167668
0.16297
0.157624
0.151625
0.144963
0.13763
0.129614
0.120906
0.111494
0.10137
0.0905263
0.0789594
0.0666684
0.0536576
0.0399363
0.0255211
0.0104361
-0.00528521
-0.0215984
-0.0384465
-0.0557584
-0.0734466
-0.0914053
-0.109508
-0.127607
-0.145529
-0.163077
-0.180025
-0.196126
-0.211104
-0.224664
-0.236496
-0.246278
-0.253692
-0.258431
-0.260214
-0.258805
-0.254024
-0.245765
-0.234012
-0.218843
-0.20044
-0.179083
-0.155149
-0.12909
-0.10142
-0.0726872
-0.0434513
-0.014276
0.0138597
0.0390418
0.0617639
0.0821224
0.100229
0.116208
0.130193
0.14232
0.152727
0.16155
0.168918
0.174955
0.179773
0.183478
0.186162
0.187905
0.188779
0.188842
0.188143
0.18672
0.184603
0.181813
0.178363
0.174262
0.169511
0.164109
0.158049
0.151323
0.14392
0.135828
0.127034
0.117527
0.107294
0.0963261
0.0846154
0.0721577
0.0589527
0.0450054
0.0303268
0.0149356
-0.00114096
-0.0178649
-0.0351862
-0.0530406
-0.0713475
-0.0900078
-0.108901
-0.127884
-0.146787
-0.165412
-0.183532
-0.200892
-0.217205
-0.232158
-0.245416
-0.256627
-0.265433
-0.271484
-0.274447
-0.274034
-0.270011
-0.262221
-0.250601
-0.235196
-0.216163
-0.193779
-0.168425
-0.140579
-0.11079
-0.0796516
-0.0477722
-0.0157643
0.0143912
0.0405329
0.0641135
0.0852323
0.104005
0.12056
0.135037
0.147579
0.158329
0.16743
0.17502
0.181227
0.186173
0.189967
0.192709
0.194484
0.195369
0.195426
0.194708
0.193256
0.191102
0.18827
0.184775
0.180626
0.175827
0.170374
0.164263
0.157484
0.150026
0.141875
0.133018
0.123439
0.113126
0.102065
0.0902458
0.0776603
0.0643041
0.0501774
0.0352858
0.0196421
0.00326723
-0.013808
-0.031541
-0.0498754
-0.0687388
-0.08804