/*--------------------------------*- C++ -*----------------------------------*\
  =========                 |
  \\      /  F ield         | OpenFOAM: The Open Source CFD Toolbox
   \\    /   O peration     | Website:  https://openfoam.org
    \\  /    A nd           | Version:  dev
     \\/     M anipulation  |
\*---------------------------------------------------------------------------*/
FoamFile
{
    format      ascii;
    class       surfaceScalarField;
    location    "38.7";
    object      phi;
}
// * * * * * * * * * * * * * * * * * * * * * * * * * * * * * * * * * * * * * //

dimensions      [0 3 -1 0 0 0 0];

internalField   nonuniform List<scalar> 
10224
(
3.38361e-08
-3.48601e-08
8.79024e-08
-5.4062e-08
1.24476e-07
-3.65695e-08
1.25448e-07
-9.71036e-10
8.38208e-08
4.16279e-08
-1.67913e-09
8.55008e-08
-1.29225e-07
1.27546e-07
-2.95513e-07
1.66289e-07
-4.96482e-07
2.00969e-07
-7.2783e-07
2.31348e-07
-9.85285e-07
2.57456e-07
-1.26476e-06
2.7947e-07
-1.5624e-06
2.97644e-07
-1.87466e-06
3.12262e-07
-2.19827e-06
3.23608e-07
-2.53022e-06
3.31949e-07
-2.86774e-06
3.37523e-07
-3.20827e-06
3.40528e-07
-3.5494e-06
3.41128e-07
-3.88884e-06
3.39444e-07
-4.22441e-06
3.35562e-07
-4.55394e-06
3.29534e-07
-4.87533e-06
3.21386e-07
-5.18644e-06
3.11119e-07
-5.48517e-06
2.98722e-07
-5.76934e-06
2.84174e-07
-6.03679e-06
2.67453e-07
-6.28534e-06
2.48543e-07
-6.51277e-06
2.27438e-07
-6.71692e-06
2.04152e-07
-6.89565e-06
1.78724e-07
-7.04687e-06
1.51222e-07
-7.16862e-06
1.21748e-07
-7.25906e-06
9.04405e-08
-7.31654e-06
5.7481e-08
-7.33963e-06
2.3092e-08
-7.32717e-06
-1.24607e-08
-7.2783e-06
-4.88685e-08
-7.19252e-06
-8.57821e-08
-7.06971e-06
-1.22814e-07
-6.91016e-06
-1.59543e-07
-6.71464e-06
-1.9552e-07
-6.48437e-06
-2.30275e-07
-6.22104e-06
-2.63325e-07
-5.92686e-06
-2.94181e-07
-5.6045e-06
-3.22362e-07
-5.2571e-06
-3.47402e-07
-4.88823e-06
-3.68861e-07
-4.5019e-06
-3.86338e-07
-4.10242e-06
-3.99478e-07
-3.69443e-06
-4.07987e-07
-3.2828e-06
-4.11634e-07
-2.87253e-06
-4.10263e-07
-2.46873e-06
-4.038e-07
-2.07648e-06
-3.92253e-07
-1.70076e-06
-3.75719e-07
-1.34637e-06
-3.54385e-07
-1.01785e-06
-3.28523e-07
-7.19353e-07
-2.98496e-07
-4.54601e-07
-2.64753e-07
-2.26769e-07
-2.27831e-07
-3.84051e-08
-1.88364e-07
1.08686e-07
-1.4709e-07
2.13568e-07
-1.04881e-07
2.76354e-07
-6.27866e-08
2.98477e-07
-2.21246e-08
2.83119e-07
1.53571e-08
2.35879e-07
4.72399e-08
1.65821e-07
7.00573e-08
8.72461e-08
7.85757e-08
2.25431e-08
6.47075e-08
2.25484e-08
5.39443e-08
-8.88007e-08
1.12501e-07
-1.12612e-07
1.18332e-07
-4.23999e-08
3.90352e-08
7.83272e-08
-1.41802e-07
2.22466e-07
-4.29507e-07
3.73204e-07
-8.22316e-07
5.20354e-07
-1.31408e-06
6.58055e-07
-1.89624e-06
7.83129e-07
-2.55898e-06
8.94086e-07
-3.29202e-06
9.90493e-07
-4.08511e-06
1.07256e-06
-4.92832e-06
1.14085e-06
-5.81221e-06
1.19615e-06
-6.72789e-06
1.23929e-06
-7.66702e-06
1.27109e-06
-8.62181e-06
1.29231e-06
-9.58491e-06
1.30362e-06
-1.05493e-05
1.30557e-06
-1.15085e-05
1.29858e-06
-1.24559e-05
1.28296e-06
-1.33853e-05
1.25893e-06
-1.42905e-05
1.2266e-06
-1.51654e-05
1.18602e-06
-1.60038e-05
1.13718e-06
-1.67997e-05
1.08008e-06
-1.75469e-05
1.01467e-06
-1.82394e-05
9.40954e-07
-1.88709e-05
8.58984e-07
-1.94356e-05
7.68871e-07
-1.99277e-05
6.70818e-07
-2.03416e-05
5.65136e-07
-2.06721e-05
4.52259e-07
-2.09145e-05
3.32756e-07
-2.10643e-05
2.07342e-07
-2.11181e-05
7.68801e-08
-2.10729e-05
-5.76121e-08
-2.09268e-05
-1.9497e-07
-2.06787e-05
-3.33885e-07
-2.03286e-05
-4.7292e-07
-1.98777e-05
-6.10521e-07
-1.93281e-05
-7.45041e-07
-1.86836e-05
-8.74765e-07
-1.7949e-05
-9.97936e-07
-1.71304e-05
-1.11279e-06
-1.62352e-05
-1.21758e-06
-1.5272e-05
-1.31065e-06
-1.42504e-05
-1.3904e-06
-1.31813e-05
-1.45542e-06
-1.20764e-05
-1.50443e-06
-1.0948e-05
-1.53638e-06
-9.80915e-06
-1.55047e-06
-8.67325e-06
-1.54616e-06
-7.55386e-06
-1.52319e-06
-6.46448e-06
-1.48163e-06
-5.41835e-06
-1.42185e-06
-4.42819e-06
-1.34455e-06
-3.50594e-06
-1.25077e-06
-2.66254e-06
-1.14189e-06
-1.9077e-06
-1.0196e-06
-1.24959e-06
-8.85943e-07
-6.94608e-07
-7.43348e-07
-2.4706e-07
-5.9464e-07
9.12102e-08
-4.43152e-07
3.21284e-07
-2.92861e-07
4.47763e-07
-1.48604e-07
4.7965e-07
-1.65315e-08
4.3143e-07
9.54567e-08
3.24555e-07
1.76927e-07
1.89051e-07
2.14071e-07
6.43941e-08
1.89355e-07
8.69451e-08
3.73771e-08
-1.26175e-07
4.33908e-08
-1.18625e-07
-4.31906e-08
4.41831e-08
-2.5866e-07
2.93797e-07
-6.22642e-07
5.86447e-07
-1.14226e-06
8.92818e-07
-1.81577e-06
1.19387e-06
-2.63553e-06
1.47781e-06
-3.59016e-06
1.73776e-06
-4.66614e-06
1.97007e-06
-5.84889e-06
2.17324e-06
-7.12352e-06
2.34719e-06
-8.47532e-06
2.49265e-06
-9.89004e-06
2.61087e-06
-1.13541e-05
2.7033e-06
-1.28544e-05
2.77145e-06
-1.43789e-05
2.81674e-06
-1.59157e-05
2.84044e-06
-1.74537e-05
2.84363e-06
-1.89823e-05
2.82717e-06
-2.04911e-05
2.7917e-06
-2.19698e-05
2.73767e-06
-2.34086e-05
2.66536e-06
-2.47975e-05
2.57493e-06
-2.61267e-05
2.46642e-06
-2.73865e-05
2.33988e-06
-2.85672e-05
2.19532e-06
-2.96591e-05
2.03283e-06
-3.06527e-05
1.85261e-06
-3.15388e-05
1.65499e-06
-3.23085e-05
1.44049e-06
-3.29532e-05
1.20987e-06
-3.34651e-05
9.64132e-07
-3.38369e-05
7.04569e-07
-3.40623e-05
4.32764e-07
-3.4136e-05
1.50613e-07
-3.4054e-05
-1.3968e-07
-3.38133e-05
-4.35606e-07
-3.34129e-05
-7.34371e-07
-3.28529e-05
-1.03292e-06
-3.21354e-05
-1.32796e-06
-3.12644e-05
-1.61602e-06
-3.02457e-05
-1.89351e-06
-2.90869e-05
-2.15674e-06
-2.77977e-05
-2.40202e-06
-2.63895e-05
-2.62575e-06
-2.48757e-05
-2.82443e-06
-2.32713e-05
-2.9948e-06
-2.15929e-05
-3.13388e-06
-1.98582e-05
-3.23908e-06
-1.80864e-05
-3.30822e-06
-1.62972e-05
-3.33965e-06
-1.45111e-05
-3.33226e-06
-1.27487e-05
-3.28557e-06
-1.10306e-05
-3.19972e-06
-9.3769e-06
-3.07555e-06
-7.80688e-06
-2.91456e-06
-6.33867e-06
-2.71899e-06
-4.98879e-06
-2.49176e-06
-3.77186e-06
-2.23653e-06
-2.70011e-06
-1.95769e-06
-1.78301e-06
-1.66045e-06
-1.02679e-06
-1.35086e-06
-4.33919e-07
-1.03602e-06
-2.48309e-09
-7.24298e-07
2.74605e-07
-4.25694e-07
4.10417e-07
-1.52344e-07
4.25206e-07
8.06701e-08
3.47615e-07
2.54521e-07
2.15861e-07
3.45826e-07
7.86762e-08
3.26534e-07
1.65621e-07
1.93136e-09
-1.28105e-07
-7.89061e-08
-3.77851e-08
-2.97614e-07
2.62893e-07
-6.87935e-07
6.84118e-07
-1.2682e-06
1.16671e-06
-2.04467e-06
1.6693e-06
-3.01458e-06
2.16377e-06
-4.16866e-06
2.63189e-06
-5.49331e-06
3.06241e-06
-6.97219e-06
3.44895e-06
-8.58747e-06
3.78852e-06
-1.03207e-05
4.08038e-06
-1.21532e-05
4.32523e-06
-1.4067e-05
4.52466e-06
-1.60444e-05
4.68072e-06
-1.80686e-05
4.79559e-06
-2.01232e-05
4.87141e-06
-2.21929e-05
4.91012e-06
-2.42627e-05
4.9134e-06
-2.63181e-05
4.8826e-06
-2.83452e-05
4.81878e-06
-3.03302e-05
4.72269e-06
-3.22597e-05
4.59483e-06
-3.41203e-05
4.43553e-06
-3.58988e-05
4.24496e-06
-3.75822e-05
4.02326e-06
-3.91575e-05
3.77061e-06
-4.06119e-05
3.48727e-06
-4.1933e-05
3.1737e-06
-4.31086e-05
2.83058e-06
-4.41271e-05
2.45896e-06
-4.49774e-05
2.06022e-06
-4.56495e-05
1.63618e-06
-4.6134e-05
1.18914e-06
-4.64231e-05
7.21861e-07
-4.65102e-05
2.3763e-07
-4.63901e-05
-2.5977e-07
-4.60596e-05
-7.66059e-07
-4.55175e-05
-1.2765e-06
-4.47645e-05
-1.78592e-06
-4.38036e-05
-2.2888e-06
-4.26403e-05
-2.77932e-06
-4.12824e-05
-3.25146e-06
-3.974e-05
-3.69908e-06
-3.8026e-05
-4.11606e-06
-3.61554e-05
-4.49638e-06
-3.41455e-05
-4.83426e-06
-3.2016e-05
-5.1243e-06
-2.97883e-05
-5.36158e-06
-2.74856e-05
-5.5418e-06
-2.51325e-05
-5.66138e-06
-2.27545e-05
-5.7176e-06
-2.03781e-05
-5.70865e-06
-1.80299e-05
-5.63376e-06
-1.57365e-05
-5.4932e-06
-1.35236e-05
-5.28839e-06
-1.14162e-05
-5.02192e-06
-9.43769e-06
-4.69755e-06
-7.60922e-06
-4.32023e-06
-5.94959e-06
-3.89616e-06
-4.47449e-06
-3.4328e-06
-3.19603e-06
-2.93891e-06
-2.12218e-06
-2.42471e-06
-1.25612e-06
-1.90208e-06
-5.95611e-07
-1.38481e-06
-1.32198e-07
-8.89107e-07
1.49628e-07
-4.34172e-07
2.73343e-07
-4.30476e-08
2.71429e-07
2.56437e-07
1.86401e-07
4.30856e-07
7.22484e-08
4.40685e-07
2.37869e-07
-4.20424e-08
-8.60625e-08
-2.30029e-07
1.50203e-07
-6.06601e-07
6.39464e-07
-1.19836e-06
1.27588e-06
-2.01906e-06
1.9874e-06
-3.07187e-06
2.72211e-06
-4.35161e-06
3.44352e-06
-5.84686e-06
4.12714e-06
-7.54173e-06
4.75728e-06
-9.41743e-06
5.32465e-06
-1.14534e-05
5.82448e-06
-1.36282e-05
6.25517e-06
-1.59202e-05
6.61721e-06
-1.83079e-05
6.91242e-06
-2.07705e-05
7.14333e-06
-2.32877e-05
7.31277e-06
-2.58399e-05
7.42358e-06
-2.84081e-05
7.47838e-06
-3.09742e-05
7.47946e-06
-3.35203e-05
7.42872e-06
-3.60292e-05
7.32766e-06
-3.84839e-05
7.17737e-06
-4.08677e-05
6.97864e-06
-4.31642e-05
6.732e-06
-4.5357e-05
6.43784e-06
-4.74302e-05
6.09648e-06
-4.93679e-05
5.70831e-06
-5.11546e-05
5.2739e-06
-5.2775e-05
4.79408e-06
-5.42144e-05
4.27007e-06
-5.5459e-05
3.70356e-06
-5.64956e-05
3.0968e-06
-5.73121e-05
2.45266e-06
-5.78976e-05
1.77467e-06
-5.82429e-05
1.0671e-06
-5.83402e-05
3.34921e-07
-5.81838e-05
-4.16143e-07
-5.77702e-05
-1.17968e-06
-5.70981e-05
-1.94859e-06
-5.61688e-05
-2.71521e-06
-5.49862e-05
-3.47134e-06
-5.35572e-05
-4.20837e-06
-5.18912e-05
-4.91741e-06
-5.00009e-05
-5.58944e-06
-4.79015e-05
-6.21544e-06
-4.56113e-05
-6.78658e-06
-4.31512e-05
-7.29439e-06
-4.05445e-05
-7.73094e-06
-3.78171e-05
-8.08904e-06
-3.49965e-05
-8.36238e-06
-3.21121e-05
-8.54576e-06
-2.91946e-05
-8.63517e-06
-2.62752e-05
-8.62799e-06
-2.33859e-05
-8.52308e-06
-2.05582e-05
-8.32091e-06
-1.7823e-05
-8.02357e-06
-1.521e-05
-7.63491e-06
-1.27471e-05
-7.1605e-06
-1.04596e-05
-6.60774e-06
-8.36992e-06
-5.98581e-06
-6.49694e-06
-5.30578e-06
-4.85521e-06
-4.58063e-06
-3.45446e-06
-3.82546e-06
-2.29891e-06
-3.05763e-06
-1.3866e-06
-2.29712e-06
-7.08679e-07
-1.56703e-06
-2.48652e-07
-8.94199e-07
1.83417e-08
-3.10044e-07
1.26374e-07
1.48404e-07
1.19608e-07
4.37624e-07
5.36939e-08
5.06597e-07
2.91564e-07
-8.94424e-08
3.37977e-09
-3.95393e-07
4.56154e-07
-9.45253e-07
1.18932e-06
-1.75562e-06
2.08624e-06
-2.8333e-06
3.06508e-06
-4.17653e-06
4.06534e-06
-5.77647e-06
5.04346e-06
-7.61873e-06
5.9694e-06
-9.68483e-06
6.82338e-06
-1.19535e-05
7.59329e-06
-1.44016e-05
8.2726e-06
-1.70052e-05
8.85876e-06
-1.97399e-05
9.35197e-06
-2.25817e-05
9.75417e-06
-2.55067e-05
1.00683e-05
-2.84917e-05
1.02978e-05
-3.15142e-05
1.04461e-05
-3.45525e-05
1.05166e-05
-3.75851e-05
1.05121e-05
-4.05916e-05
1.04351e-05
-4.35515e-05
1.02876e-05
-4.6445e-05
1.00709e-05
-4.92527e-05
9.78629e-06
-5.19551e-05
9.43447e-06
-5.45334e-05
9.0161e-06
-5.69687e-05
8.53177e-06
-5.92426e-05
7.98219e-06
-6.1337e-05
7.36832e-06
-6.32344e-05
6.69151e-06
-6.4918e-05
5.95364e-06
-6.63717e-05
5.15724e-06
-6.75804e-05
4.30558e-06
-6.85306e-05
3.40281e-06
-6.92098e-05
2.45394e-06
-6.96077e-05
1.46499e-06
-6.97157e-05
4.42916e-07
-6.95275e-05
-6.04333e-07
-6.90393e-05
-1.66788e-06
-6.825e-05
-2.73795e-06
-6.71612e-05
-3.804e-06
-6.57777e-05
-4.85481e-06
-6.41075e-05
-5.8786e-06
-6.21617e-05
-6.86325e-06
-5.99546e-05
-7.79647e-06
-5.75041e-05
-8.66598e-06
-5.48309e-05
-9.45979e-06
-5.19589e-05
-1.01664e-05
-4.89148e-05
-1.0775e-05
-4.5728e-05
-1.12758e-05
-4.24301e-05
-1.16604e-05
-3.90543e-05
-1.19215e-05
-3.56357e-05
-1.20538e-05
-3.221e-05
-1.20537e-05
-2.88135e-05
-1.19196e-05
-2.54823e-05
-1.16521e-05
-2.22517e-05
-1.12542e-05
-1.91557e-05
-1.0731e-05
-1.6226e-05
-1.00902e-05
-1.3492e-05
-9.34179e-06
-1.09793e-05
-8.49844e-06
-8.7099e-06
-7.57521e-06
-6.70073e-06
-6.5898e-06
-4.96353e-06
-5.56267e-06
-3.50393e-06
-4.51722e-06
-2.3209e-06
-3.48015e-06
-1.40606e-06
-2.48187e-06
-7.4309e-07
-1.55717e-06
-3.0714e-07
-7.45994e-07
-6.42191e-08
-9.45194e-08
2.9449e-08
3.43956e-07
2.83434e-08
5.07701e-07
3.19907e-07
-1.37665e-07
1.41044e-07
-5.66418e-07
8.84908e-07
-1.29774e-06
1.92065e-06
-2.33673e-06
3.12523e-06
-3.68169e-06
4.41005e-06
-5.32456e-06
5.70822e-06
-7.25173e-06
6.97063e-06
-9.44508e-06
8.16275e-06
-1.18831e-05
9.26136e-06
-1.45417e-05
1.02519e-05
-1.73953e-05
1.11263e-05
-2.04176e-05
1.18811e-05
-2.35819e-05
1.25162e-05
-2.68614e-05
1.30337e-05
-3.02301e-05
1.3437e-05
-3.36622e-05
1.37299e-05
-3.71326e-05
1.39166e-05
-4.0617e-05
1.4001e-05
-4.40915e-05
1.39866e-05
-4.75329e-05
1.38765e-05
-5.09182e-05
1.36729e-05
-5.4225e-05
1.33778e-05
-5.74313e-05
1.29926e-05
-6.05152e-05
1.25184e-05
-6.34552e-05
1.19562e-05
-6.62303e-05
1.13068e-05
-6.88196e-05
1.05715e-05
-7.12028e-05
9.7516e-06
-7.33605e-05
8.84914e-06
-7.52736e-05
7.86678e-06
-7.69244e-05
6.80804e-06
-7.82962e-05
5.67741e-06
-7.93739e-05
4.48047e-06
-8.01439e-05
3.22396e-06
-8.05947e-05
1.91583e-06
-8.07171e-05
5.65284e-07
-8.05042e-05
-8.17245e-07
-7.99519e-05
-2.22014e-06
-7.90592e-05
-3.63068e-06
-7.78281e-05
-5.03514e-06
-7.62639e-05
-6.41895e-06
-7.43756e-05
-7.76689e-06
-7.21756e-05
-9.06327e-06
-6.96799e-05
-1.02922e-05
-6.6908e-05
-1.14378e-05
-6.38831e-05
-1.24847e-05
-6.06316e-05
-1.34179e-05
-5.71829e-05
-1.42236e-05
-5.35696e-05
-1.48892e-05
-4.98264e-05
-1.54035e-05
-4.59905e-05
-1.57574e-05
-4.21005e-05
-1.59439e-05
-3.8196e-05
-1.59582e-05
-3.43173e-05
-1.57983e-05
-3.05045e-05
-1.54649e-05
-2.67969e-05
-1.49617e-05
-2.32325e-05
-1.42954e-05
-1.98468e-05
-1.34758e-05
-1.66727e-05
-1.25159e-05
-1.37393e-05
-1.14318e-05
-1.10714e-05
-1.02431e-05
-8.68861e-06
-8.97257e-06
-6.60495e-06
-7.64632e-06
-4.82794e-06
-6.29424e-06
-3.35805e-06
-4.95004e-06
-2.18819e-06
-3.65174e-06
-1.30314e-06
-2.44222e-06
-6.79145e-07
-1.36999e-06
-2.8356e-07
-4.90105e-07
-7.45078e-08
1.34903e-07
-5.55646e-10
4.3375e-07
3.19351e-07
-1.85461e-07
3.26505e-07
-7.38213e-07
1.43766e-06
-1.65427e-06
2.83671e-06
-2.92666e-06
4.39762e-06
-4.54429e-06
6.02768e-06
-6.49185e-06
7.65577e-06
-8.7501e-06
9.22889e-06
-1.12965e-05
1.07092e-05
-1.4106e-05
1.20708e-05
-1.71515e-05
1.32974e-05
-2.0405e-05
1.43797e-05
-2.38375e-05
1.53136e-05
-2.74201e-05
1.60989e-05
-3.11241e-05
1.67377e-05
-3.4921e-05
1.72338e-05
-3.87828e-05
1.75918e-05
-4.26825e-05
1.78162e-05
-4.65932e-05
1.79117e-05
-5.04889e-05
1.78824e-05
-5.4344e-05
1.77316e-05
-5.81335e-05
1.74623e-05
-6.18326e-05
1.70768e-05
-6.54169e-05
1.65769e-05
-6.88625e-05
1.59639e-05
-7.21456e-05
1.52393e-05
-7.5243e-05
1.44042e-05
-7.81318e-05
1.34603e-05
-8.07899e-05
1.24097e-05
-8.31957e-05
1.1255e-05
-8.53287e-05
9.99975e-06
-8.71694e-05
8.64868e-06
-8.86996e-05
7.20761e-06
-8.99028e-05
5.68371e-06
-9.07644e-05
4.08561e-06
-9.1272e-05
2.42342e-06
-9.14155e-05
7.08751e-07
-9.11875e-05
-1.04525e-06
-9.05836e-05
-2.82401e-06
-8.96027e-05
-4.6116e-06
-8.8247e-05
-6.39089e-06
-8.65222e-05
-8.14371e-06
-8.4438e-05
-9.8511e-06
-8.20077e-05
-1.14935e-05
-7.92487e-05
-1.30513e-05
-7.6182e-05
-1.45046e-05
-7.28325e-05
-1.58342e-05
-6.92287e-05
-1.70217e-05
-6.54027e-05
-1.80497e-05
-6.13893e-05
-1.89025e-05
-5.72266e-05
-1.95663e-05
-5.29545e-05
-2.00295e-05
-4.86152e-05
-2.02832e-05
-4.42517e-05
-2.03216e-05
-3.99081e-05
-2.01419e-05
-3.56282e-05
-1.97448e-05
-3.14551e-05
-1.91349e-05
-2.74304e-05
-1.83201e-05
-2.35934e-05
-1.73127e-05
-1.99806e-05
-1.61287e-05
-1.66245e-05
-1.4788e-05
-1.35528e-05
-1.33148e-05
-1.07884e-05
-1.1737e-05
-8.34762e-06
-1.00871e-05
-6.24046e-06
-8.4014e-06
-4.46949e-06
-6.721e-06
-3.02955e-06
-5.09167e-06
-1.90732e-06
-3.56446e-06
-1.081e-06
-2.1963e-06
-5.20228e-07
-1.05088e-06
-1.86027e-07
-1.993e-07
-3.10465e-08
2.7877e-07
2.88304e-07
-2.3219e-07
5.58696e-07
-9.08015e-07
2.11349e-06
-2.00887e-06
3.93756e-06
-3.51568e-06
5.90443e-06
-5.40758e-06
7.91958e-06
-7.66141e-06
9.90961e-06
-1.02517e-05
1.18192e-05
-1.31511e-05
1.36085e-05
-1.63303e-05
1.52501e-05
-1.97592e-05
1.67263e-05
-2.34068e-05
1.80273e-05
-2.72418e-05
1.91487e-05
-3.12332e-05
2.00902e-05
-3.535e-05
2.08545e-05
-3.95619e-05
2.14457e-05
-4.38389e-05
2.18688e-05
-4.8152e-05
2.21293e-05
-5.24724e-05
2.22322e-05
-5.67722e-05
2.21821e-05
-6.10237e-05
2.19831e-05
-6.52e-05
2.16386e-05
-6.92742e-05
2.11511e-05
-7.32201e-05
2.05228e-05
-7.70117e-05
1.97555e-05
-8.06234e-05
1.8851e-05
-8.40301e-05
1.78109e-05
-8.7207e-05
1.66373e-05
-9.01303e-05
1.5333e-05
-9.27767e-05
1.39014e-05
-9.51241e-05
1.23471e-05
-9.71515e-05
1.06761e-05
-9.88395e-05
8.89556e-06
-0.00010017
7.01445e-06
-0.000101128
5.0434e-06
-0.000101699
2.99483e-06
-0.000101874
8.82933e-07
-0.000101643
-1.27627e-06
-0.000101002
-3.46507e-06
-9.9949e-05
-5.66413e-06
-9.84872e-05
-7.85271e-06
-9.66221e-05
-1.00088e-05
-9.43636e-05
-1.21095e-05
-9.17259e-05
-1.41313e-05
-8.8727e-05
-1.60501e-05
-8.53893e-05
-1.78423e-05
-8.17391e-05
-1.94844e-05
-7.78067e-05
-2.09541e-05
-7.36259e-05
-2.22305e-05
-6.92341e-05
-2.32943e-05
-6.46717e-05
-2.41286e-05
-5.99817e-05
-2.47195e-05
-5.52091e-05
-2.50559e-05
-5.04003e-05
-2.51303e-05
-4.56028e-05
-2.49394e-05
-4.0864e-05
-2.44837e-05
-3.62306e-05
-2.37682e-05
-3.17481e-05
-2.28026e-05
-2.74595e-05
-2.16013e-05
-2.34049e-05
-2.01833e-05
-1.96202e-05
-1.85727e-05
-1.61369e-05
-1.67981e-05
-1.29808e-05
-1.48932e-05
-1.01714e-05
-1.28965e-05
-7.72143e-06
-1.08513e-05
-5.63622e-06
-8.80621e-06
-3.91314e-06
-6.81475e-06
-2.54138e-06
-4.93622e-06
-1.50179e-06
-3.23589e-06
-7.66921e-07
-1.78575e-06
-3.0129e-07
-6.64932e-07
-6.20262e-08
3.95064e-08
2.26278e-07
-2.77573e-07
8.3627e-07
-1.07429e-06
2.91021e-06
-2.35787e-06
5.22114e-06
-4.09748e-06
7.64404e-06
-6.26238e-06
1.00845e-05
-8.82129e-06
1.24685e-05
-1.17422e-05
1.47401e-05
-1.49922e-05
1.68585e-05
-1.8538e-05
1.87958e-05
-2.23457e-05
2.0534e-05
-2.63815e-05
2.20631e-05
-3.06117e-05
2.33789e-05
-3.50029e-05
2.44814e-05
-3.95223e-05
2.53739e-05
-4.41376e-05
2.6061e-05
-4.88173e-05
2.65485e-05
-5.35303e-05
2.68423e-05
-5.82464e-05
2.69483e-05
-6.29359e-05
2.68716e-05
-6.75694e-05
2.66167e-05
-7.21183e-05
2.61874e-05
-7.6554e-05
2.55868e-05
-8.08485e-05
2.48173e-05
-8.49742e-05
2.38812e-05
-8.89038e-05
2.27806e-05
-9.26105e-05
2.15176e-05
-9.6068e-05
2.00948e-05
-9.92508e-05
1.85157e-05
-0.000102134
1.67847e-05
-0.000104694
1.49074e-05
-0.000106909
1.2891e-05
-0.000108758
1.07443e-05
-0.000110222
8.47811e-06
-0.000111283
6.10513e-06
-0.000111929
3.64018e-06
-0.000112146
1.10018e-06
-0.000111927
-1.49585e-06
-0.000111265
-4.12692e-06
-0.000110159
-6.77016e-06
-0.00010861
-9.40103e-06
-0.000106626
-1.19935e-05
-0.000104215
-1.45206e-05
-0.000101391
-1.69543e-05
-9.81751e-05
-1.92665e-05
-9.45885e-05
-2.14288e-05
-9.06591e-05
-2.34138e-05
-8.64185e-05
-2.51948e-05
-8.19022e-05
-2.67467e-05
-7.71496e-05
-2.80469e-05
-7.22033e-05
-2.9075e-05
-6.71087e-05
-2.9814e-05
-6.19139e-05
-3.02507e-05
-5.66682e-05
-3.03759e-05
-5.14226e-05
-3.01851e-05
-4.62279e-05
-2.96784e-05
-4.11346e-05
-2.88615e-05
-3.6192e-05
-2.77453e-05
-3.1447e-05
-2.63463e-05
-2.69434e-05
-2.46869e-05
-2.27213e-05
-2.27948e-05
-1.88156e-05
-2.07038e-05
-1.52558e-05
-1.8453e-05
-1.2065e-05
-1.60873e-05
-9.25924e-06
-1.36571e-05
-6.847e-06
-1.12185e-05
-4.82876e-06
-8.833e-06
-3.19677e-06
-6.5682e-06
-1.93502e-06
-4.49764e-06
-1.0194e-06
-2.70138e-06
-4.18185e-07
-1.26615e-06
-9.29399e-08
-2.85739e-07
1.33339e-07
-3.21497e-07
1.15777e-06
-1.23618e-06
3.82489e-06
-2.69904e-06
6.68399e-06
-4.66793e-06
9.61294e-06
-7.10239e-06
1.25189e-05
-9.96295e-06
1.53291e-05
-1.32108e-05
1.79879e-05
-1.68075e-05
2.04552e-05
-2.07151e-05
2.27034e-05
-2.48961e-05
2.47151e-05
-2.93137e-05
2.64807e-05
-3.39315e-05
2.79966e-05
-3.87139e-05
2.92639e-05
-4.36263e-05
3.02863e-05
-4.86346e-05
3.10693e-05
-5.37057e-05
3.16195e-05
-5.8807e-05
3.19437e-05
-6.39069e-05
3.20481e-05
-6.8974e-05
3.19387e-05
-7.39776e-05
3.16203e-05
-7.88876e-05
3.10973e-05
-8.36739e-05
3.03731e-05
-8.83071e-05
2.94506e-05
-9.27581e-05
2.83323e-05
-9.69982e-05
2.70206e-05
-0.000100999
2.55184e-05
-0.000104733
2.38287e-05
-0.000108173
2.19557e-05
-0.000111293
1.99048e-05
-0.000114068
1.76825e-05
-0.000116474
1.52976e-05
-0.00011849
1.27603e-05
-0.000120096
1.00833e-05
-0.000121272
7.28161e-06
-0.000122004
4.37241e-06
-0.00012228
1.37544e-06
-0.000122088
-1.68722e-06
-0.000121424
-4.79119e-06
-0.000120284
-7.90994e-06
-0.00011867
-1.1015e-05
-0.000116587
-1.40763e-05
-0.000114046
-1.70623e-05
-0.000111059
-1.99407e-05
-0.000107647
-2.26786e-05
-0.000103833
-2.52433e-05
-9.96441e-05
-2.76025e-05
-9.51138e-05
-2.9725e-05
-9.02788e-05
-3.15817e-05
-8.51801e-05
-3.31456e-05
-7.98621e-05
-3.43929e-05
-7.43729e-05
-3.53033e-05
-6.87629e-05
-3.58607e-05
-6.30848e-05
-3.60541e-05
-5.73925e-05
-3.58773e-05
-5.17407e-05
-3.53302e-05
-4.61837e-05
-3.44185e-05
-4.07746e-05
-3.31544e-05
-3.55645e-05
-3.15564e-05
-3.06015e-05
-2.96499e-05
-2.59297e-05
-2.74667e-05
-2.15883e-05
-2.50452e-05
-1.76109e-05
-2.24304e-05
-1.40245e-05
-1.96736e-05
-1.08491e-05
-1.68325e-05
-8.09675e-06
-1.39708e-05
-5.77157e-06
-1.11582e-05
-3.86934e-06
-8.47043e-06
-2.37755e-06
-5.98944e-06
-1.27567e-06
-3.80326e-06
-5.3578e-07
-2.00604e-06
-1.23584e-07
-6.97936e-07
9.75476e-09
-3.63919e-07
1.52169e-06
-1.39322e-06
4.85419e-06
-3.03096e-06
8.32174e-06
-5.22427e-06
1.18062e-05
-7.9232e-06
1.52179e-05
-1.10802e-05
1.84861e-05
-1.46496e-05
2.15573e-05
-1.85872e-05
2.43929e-05
-2.28506e-05
2.69668e-05
-2.73983e-05
2.92628e-05
-3.21903e-05
3.12727e-05
-3.71877e-05
3.2994e-05
-4.23528e-05
3.4429e-05
-4.76489e-05
3.55824e-05
-5.30405e-05
3.64609e-05
-5.84928e-05
3.70719e-05
-6.39721e-05
3.7423e-05
-6.94452e-05
3.75212e-05
-7.48796e-05
3.73731e-05
-8.02434e-05
3.69842e-05
-8.55052e-05
3.6359e-05
-9.06336e-05
3.55016e-05
-9.55981e-05
3.44151e-05
-0.000100368
3.31024e-05
-0.000104914
3.15664e-05
-0.000109206
2.98102e-05
-0.000113215
2.78377e-05
-0.000116913
2.56536e-05
-0.000120272
2.32642e-05
-0.000123267
2.06774e-05
-0.000125872
1.79028e-05
-0.000128065
1.49527e-05
-0.000129823
1.18416e-05
-0.000131128
8.58642e-06
-0.000131963
5.20709e-06
-0.000132313
1.72609e-06
-0.000132169
-1.83139e-06
-0.000131523
-5.43752e-06
-0.000130371
-9.06203e-06
-0.000128713
-1.26725e-05
-0.000126555
-1.62344e-05
-0.000123905
-1.97119e-05
-0.000120778
-2.3068e-05
-0.000117192
-2.62649e-05
-0.00011317
-2.92651e-05
-0.000108741
-3.20313e-05
-0.000103939
-3.45277e-05
-9.88e-05
-3.67203e-05
-9.33678e-05
-3.85779e-05
-8.76882e-05
-4.00724e-05
-8.18115e-05
-4.11801e-05
-7.57906e-05
-4.18816e-05
-6.96811e-05
-4.21635e-05
-6.35405e-05
-4.20179e-05
-5.74269e-05
-4.14437e-05
-5.13988e-05
-4.04467e-05
-4.55134e-05
-3.90398e-05
-3.98263e-05
-3.72435e-05
-3.43902e-05
-3.5086e-05
-2.92537e-05
-3.26031e-05
-2.44609e-05
-2.9838e-05
-2.00498e-05
-2.68415e-05
-1.6052e-05
-2.36715e-05
-1.24917e-05
-2.03928e-05
-9.38527e-06
-1.70772e-05
-6.74094e-06
-1.38025e-05
-4.55833e-06
-1.0653e-05
-2.82874e-06
-7.71903e-06
-1.53536e-06
-5.09664e-06
-6.53971e-07
-2.88742e-06
-1.53985e-07
-1.19792e-06
-1.44231e-07
-4.04826e-07
1.92651e-06
-1.54509e-06
5.99446e-06
-3.35271e-06
1.01294e-05
-5.76455e-06
1.42181e-05
-8.72159e-06
1.81749e-05
-1.21683e-05
2.19328e-05
-1.60523e-05
2.54413e-05
-2.03238e-05
2.86644e-05
-2.49355e-05
3.15785e-05
-2.98421e-05
3.41694e-05
-3.50004e-05
3.6431e-05
-4.03689e-05
3.83625e-05
-4.59077e-05
3.99678e-05
-5.15783e-05
4.1253e-05
-5.73437e-05
4.22262e-05
-6.31677e-05
4.28959e-05
-6.90153e-05
4.32706e-05
-7.48523e-05
4.33582e-05
-8.06451e-05
4.31659e-05
-8.63607e-05
4.26998e-05
-9.19666e-05
4.19649e-05
-9.74306e-05
4.09656e-05
-0.000102721
3.97054e-05
-0.000107806
3.81876e-05
-0.000112655
3.64154e-05
-0.000117237
3.43924e-05
-0.000121523
3.2123e-05
-0.000125482
2.96127e-05
-0.000129086
2.68685e-05
-0.000132308
2.38994e-05
-0.000135122
2.07165e-05
-0.000137503
1.73335e-05
-0.000139428
1.37668e-05
-0.000140877
1.00356e-05
-0.000141832
6.16214e-06
-0.000142278
2.17174e-06
-0.000142202
-1.90726e-06
-0.000141596
-6.04358e-06
-0.000140455
-1.02032e-05
-0.000138777
-1.43496e-05
-0.000136568
-1.84439e-05
-0.000133834
-2.24456e-05
-0.000130589
-2.63129e-05
-0.000126851
-3.00031e-05
-0.000122643
-3.34733e-05
-0.000117993
-3.66812e-05
-0.000112935
-3.95859e-05
-0.000107507
-4.21482e-05
-0.000101753
-4.43321e-05
-9.57201e-05
-4.6105e-05
-8.94612e-05
-4.7439e-05
-8.30315e-05
-4.83113e-05
-7.64897e-05
-4.87054e-05
-6.98963e-05
-4.86112e-05
-6.33137e-05
-4.80264e-05
-5.68042e-05
-4.69561e-05
-5.04299e-05
-4.54141e-05
-4.42511e-05
-4.34223e-05
-3.83254e-05
-4.10117e-05
-3.27068e-05
-3.82217e-05
-2.74442e-05
-3.51005e-05
-2.25811e-05
-3.17046e-05
-1.81539e-05
-2.80986e-05
-1.41919e-05
-2.43548e-05
-1.07162e-05
-2.05529e-05
-7.73946e-06
-1.67793e-05
-5.26556e-06
-1.31269e-05
-3.28983e-06
-9.69475e-06
-1.79928e-06
-6.58719e-06
-7.73225e-07
-3.91348e-06
-1.84321e-07
-1.78682e-06
-3.28552e-07
-4.44206e-07
2.37072e-06
-1.69159e-06
7.24184e-06
-3.66355e-06
1.21013e-05
-6.28728e-06
1.68418e-05
-9.49502e-06
2.13827e-05
-1.32236e-05
2.56614e-05
-1.7414e-05
2.96317e-05
-2.20109e-05
3.32613e-05
-2.69622e-05
3.65298e-05
-3.22188e-05
3.94261e-05
-3.77344e-05
4.19465e-05
-4.34647e-05
4.40929e-05
-4.93678e-05
4.58709e-05
-5.54035e-05
4.72887e-05
-6.15332e-05
4.83559e-05
-6.77196e-05
4.90822e-05
-7.39265e-05
4.94775e-05
-8.01187e-05
4.95504e-05
-8.62618e-05
4.9309e-05
-9.23218e-05
4.87599e-05
-9.82655e-05
4.79086e-05
-0.00010406
4.67599e-05
-0.000109672
4.53177e-05
-0.00011507
4.35855e-05
-0.000120222
4.1567e-05
-0.000125095
3.92661e-05
-0.00012966
3.66877e-05
-0.000133886
3.3838e-05
-0.000137742
3.07249e-05
-0.000141201
2.73582e-05
-0.000144235
2.37505e-05
-0.000146818
1.99168e-05
-0.000148926
1.58753e-05
-0.000150538
1.16473e-05
-0.000151634
7.25758e-06
-0.000152196
2.73411e-06
-0.000152212
-1.8917e-06
-0.00015167
-6.58513e-06
-0.000150565
-1.13084e-05
-0.000148893
-1.60208e-05
-0.000146658
-2.06792e-05
-0.000143866
-2.52383e-05
-0.000140527
-2.96512e-05
-0.00013666
-3.387e-05
-0.000132287
-3.78464e-05
-0.000127436
-4.15328e-05
-0.000122139
-4.48825e-05
-0.000116436
-4.7851e-05
-0.000110371
-5.03969e-05
-0.000103994
-5.24826e-05
-9.73573e-05
-5.40755e-05
-9.05199e-05
-5.51488e-05
-8.3543e-05
-5.56822e-05
-7.6491e-05
-5.56633e-05
-6.94299e-05
-5.50875e-05
-6.24269e-05
-5.39592e-05
-5.55487e-05
-5.22923e-05
-4.88609e-05
-5.01101e-05
-4.24268e-05
-4.74458e-05
-3.63059e-05
-4.43427e-05
-3.0553e-05
-4.08534e-05
-2.52172e-05
-3.70404e-05
-2.03408e-05
-3.29751e-05
-1.59583e-05
-2.87373e-05
-1.20963e-05
-2.44149e-05
-8.77226e-06
-2.01033e-05
-5.9948e-06
-1.59044e-05
-3.76347e-06
-1.19261e-05
-2.06911e-06
-8.28155e-06
-8.94414e-07
-5.08818e-06
-2.14868e-07
-2.46637e-06
-5.4342e-07
-4.82038e-07
2.85275e-06
-1.8325e-06
8.5923e-06
-3.96288e-06
1.42317e-05
-6.79118e-06
1.96701e-05
-1.02413e-05
2.48328e-05
-1.42428e-05
2.96629e-05
-1.87303e-05
3.41191e-05
-2.36428e-05
3.81739e-05
-2.89239e-05
4.18108e-05
-3.45206e-05
4.50228e-05
-4.03833e-05
4.78092e-05
-4.64655e-05
5.0175e-05
-5.27229e-05
5.21283e-05
-5.91138e-05
5.36796e-05
-6.55981e-05
5.48402e-05
-7.21374e-05
5.56216e-05
-7.86947e-05
5.60347e-05
-8.52338e-05
5.60896e-05
-9.17196e-05
5.57948e-05
-9.81175e-05
5.51577e-05
-0.000104393
5.41846e-05
-0.000110514
5.28803e-05
-0.000116445
5.12491e-05
-0.000122155
4.9295e-05
-0.00012761
4.70218e-05
-0.000132777
4.44339e-05
-0.000137626
4.15366e-05
-0.000142125
3.83366e-05
-0.000146242
3.48425e-05
-0.000149949
3.10652e-05
-0.000153217
2.70182e-05
-0.000156018
2.27182e-05
-0.000158328
1.81849e-05
-0.000160122
1.34416e-05
-0.00016138
8.51532e-06
-0.000162083
3.43674e-06
-0.000162215
-1.75975e-06
-0.000161764
-7.03609e-06
-0.000160721
-1.23508e-05
-0.000159083
-1.7659e-05
-0.000156849
-2.29131e-05
-0.000154024
-2.8063e-05
-0.000150619
-3.30567e-05
-0.000146648
-3.78409e-05
-0.000142133
-4.23616e-05
-0.0001371
-4.65653e-05
-0.000131583
-5.03995e-05
-0.000125621
-5.38137e-05
-0.000119257
-5.67605e-05
-0.000112543
-5.9197e-05
-0.000105533
-6.10852e-05
-9.82883e-05
-6.23934e-05
-9.08732e-05
-6.30973e-05
-8.33555e-05
-6.3181e-05
-7.58055e-05
-6.26375e-05
-6.8295e-05
-6.14697e-05
-6.08962e-05
-5.96911e-05
-5.36804e-05
-5.73259e-05
-4.67168e-05
-5.44094e-05
-4.00713e-05
-5.09882e-05
-3.38051e-05
-4.71196e-05
-2.79737e-05
-4.28718e-05
-2.26257e-05
-3.83231e-05
-1.78019e-05
-3.35611e-05
-1.35344e-05
-2.86824e-05
-9.84634e-06
-2.37914e-05
-6.75129e-06
-1.89995e-05
-4.25331e-06
-1.44241e-05
-2.34713e-06
-1.01877e-05
-1.01869e-06
-6.41662e-06
-2.45974e-07
-3.23908e-06
-7.89393e-07
-5.18285e-07
3.37104e-06
-1.96761e-06
1.00416e-05
-4.25011e-06
1.65142e-05
-7.27508e-06
2.26951e-05
-1.09586e-05
2.85163e-05
-1.52231e-05
3.39274e-05
-1.99971e-05
3.88931e-05
-2.52146e-05
4.33913e-05
-3.08145e-05
4.74107e-05
-3.67402e-05
5.09484e-05
-4.2939e-05
5.40081e-05
-4.9362e-05
5.6598e-05
-5.5963e-05
5.87293e-05
-6.26985e-05
6.04151e-05
-6.95273e-05
6.1669e-05
-7.64099e-05
6.25042e-05
-8.33085e-05
6.29332e-05
-9.01862e-05
6.29672e-05
-9.70072e-05
6.26158e-05
-0.000103737
6.18871e-05
-0.00011034
6.07876e-05
-0.000116782
5.93229e-05
-0.000123031
5.74975e-05
-0.000129051
5.53156e-05
-0.000134811
5.27813e-05
-0.000140276
4.98992e-05
-0.000145415
4.66751e-05
-0.000150194
4.3116e-05
-0.000154583
3.92314e-05
-0.00015855
3.50327e-05
-0.000162067
3.05346e-05
-0.000165104
2.57549e-05
-0.000167634
2.0715e-05
-0.000169632
1.54399e-05
-0.000171075
9.95874e-06
-0.000171943
4.30476e-06
-0.000172218
-1.48481e-06
-0.000171886
-7.36867e-06
-0.000170935
-1.33017e-05
-0.000169359
-1.92349e-05
-0.000167156
-2.51164e-05
-0.000164327
-3.08911e-05
-0.000160882
-3.65017e-05
-0.000156834
-4.18893e-05
-0.000152202
-4.69942e-05
-0.00014701
-5.17564e-05
-0.000141293
-5.61172e-05
-0.000135087
-6.00196e-05
-0.000128437
-6.341e-05
-0.000121395
-6.6239e-05
-0.000114018
-6.84628e-05
-0.000106367
-7.0044e-05
-9.85106e-05
-7.09537e-05
-9.052e-05
-7.11716e-05
-8.247e-05
-7.06875e-05
-7.44374e-05
-6.95023e-05
-6.65e-05
-6.76284e-05
-5.87355e-05
-6.50904e-05
-5.12196e-05
-6.19253e-05
-4.40252e-05
-5.81826e-05
-3.72206e-05
-5.39242e-05
-3.08684e-05
-4.9224e-05
-2.50242e-05
-4.41673e-05
-1.97356e-05
-3.88497e-05
-1.50412e-05
-3.33767e-05
-1.09701e-05
-2.78624e-05
-7.54137e-06
-2.24282e-05
-4.76375e-06
-1.72017e-05
-2.63604e-06
-1.23154e-05
-1.1474e-06
-7.90527e-06
-2.7803e-07
-4.10845e-06
-1.06742e-06
-5.52893e-07
3.92393e-06
-2.09666e-06
1.15854e-05
-4.52458e-06
1.89421e-05
-7.73776e-06
2.59083e-05
-1.16448e-05
3.24234e-05
-1.61616e-05
3.84442e-05
-2.12108e-05
4.39423e-05
-2.67213e-05
4.89018e-05
-3.26279e-05
5.33173e-05
-3.88704e-05
5.7191e-05
-4.53934e-05
6.05311e-05
-5.21453e-05
6.33499e-05
-5.90781e-05
6.56622e-05
-6.6147e-05
6.7484e-05
-7.33095e-05
6.88315e-05
-8.05252e-05
6.97199e-05
-8.77556e-05
7.01636e-05
-9.49632e-05
7.01749e-05
-0.000102112
6.97645e-05