/*--------------------------------*- C++ -*----------------------------------*\
  =========                 |
  \\      /  F ield         | OpenFOAM: The Open Source CFD Toolbox
   \\    /   O peration     | Website:  https://openfoam.org
    \\  /    A nd           | Version:  dev
     \\/     M anipulation  |
\*---------------------------------------------------------------------------*/
FoamFile
{
    format      ascii;
    class       volScalarField;
    location    "38.7";
    object      Ux;
}
// * * * * * * * * * * * * * * * * * * * * * * * * * * * * * * * * * * * * * //

dimensions      [0 1 -1 0 0 0 0];

internalField   nonuniform List<scalar> 
5184
(
1.23362e-05
4.51922e-05
8.03665e-05
9.60357e-05
8.22125e-05
3.65153e-05
-4.05093e-05
-0.000146843
-0.00027969
-0.000435996
-0.000612638
-0.000806581
-0.00101496
-0.0012351
-0.00146455
-0.00170105
-0.00194253
-0.00218706
-0.00243287
-0.00267828
-0.00292166
-0.00316148
-0.00339618
-0.00362426
-0.00384417
-0.00405439
-0.00425335
-0.00443949
-0.00461122
-0.00476696
-0.00490515
-0.00502427
-0.00512285
-0.00519953
-0.00525304
-0.00528225
-0.00528624
-0.00526426
-0.00521583
-0.00514071
-0.00503896
-0.00491096
-0.00475742
-0.00457938
-0.00437826
-0.00415581
-0.00391412
-0.00365563
-0.00338305
-0.0030994
-0.00280791
-0.00251202
-0.00221529
-0.00192137
-0.00163395
-0.00135666
-0.00109304
-0.000846464
-0.000620081
-0.000416741
-0.000238941
-8.87602e-05
3.22143e-05
0.000122968
0.000183169
0.000213321
0.000215012
0.000191294
0.000147199
9.08223e-05
3.66353e-05
6.22691e-06
2.08585e-05
6.56632e-05
9.47834e-05
7.28954e-05
-1.88424e-05
-0.000187249
-0.000432908
-0.000752603
-0.00114079
-0.00159068
-0.00209493
-0.00264609
-0.00323685
-0.00386021
-0.00450957
-0.00517873
-0.00586189
-0.0065536
-0.00724872
-0.00794237
-0.00862985
-0.00930661
-0.00996816
-0.0106101
-0.011228
-0.0118174
-0.0123741
-0.0128934
-0.0133711
-0.0138028
-0.0141842
-0.0145113
-0.0147802
-0.0149872
-0.0151291
-0.0152029
-0.0152065
-0.0151379
-0.014996
-0.0147806
-0.0144919
-0.0141312
-0.0137006
-0.0132031
-0.0126428
-0.0120244
-0.0113537
-0.0106374
-0.00988279
-0.00909803
-0.00829179
-0.00747327
-0.00665201
-0.00583773
-0.00504023
-0.00426917
-0.00353395
-0.00284348
-0.00220604
-0.00162911
-0.00111917
-0.000681528
-0.000320084
-3.71253e-05
0.000166982
0.000294161
0.000349164
0.000340265
0.000279962
0.000186112
8.63932e-05
1.96841e-05
1.76468e-05
4.13666e-05
1.96584e-05
-8.39356e-05
-0.000290208
-0.000607908
-0.0010383
-0.00157757
-0.00221855
-0.00295206
-0.0037678
-0.00465508
-0.00560316
-0.00660158
-0.00764029
-0.00870971
-0.00980077
-0.0109049
-0.0120138
-0.0131197
-0.0142149
-0.0152922
-0.0163443
-0.017364
-0.0183443
-0.0192781
-0.0201584
-0.0209782
-0.0217306
-0.022409
-0.0230066
-0.0235172
-0.023935
-0.0242543
-0.0244703
-0.0245788
-0.0245764
-0.0244606
-0.0242299
-0.0238839
-0.0234235
-0.0228508
-0.0221693
-0.0213838
-0.0205006
-0.0195274
-0.018473
-0.0173476
-0.0161627
-0.0149307
-0.0136649
-0.0123794
-0.0110887
-0.00980754
-0.00855096
-0.00733362
-0.00616976
-0.00507292
-0.00405565
-0.00312921
-0.00230336
-0.00158597
-0.000982797
-0.000497061
-0.000129072
0.000124239
0.000269972
0.000319982
0.000291408
0.000207484
0.000102488
2.49839e-05
8.84716e-06
-6.98646e-06
-0.000107549
-0.000322347
-0.000669631
-0.00115781
-0.00178763
-0.00255433
-0.00344935
-0.00446168
-0.00557882
-0.00678757
-0.00807452
-0.0094264
-0.0108303
-0.0122738
-0.013745
-0.0152325
-0.0167253
-0.018213
-0.0196851
-0.0211319
-0.0225436
-0.0239104
-0.0252228
-0.0264714
-0.0276468
-0.0287398
-0.0297412
-0.0306421
-0.031434
-0.0321087
-0.0326584
-0.0330764
-0.0333562
-0.0334926
-0.0334814
-0.0333196
-0.0330055
-0.032539
-0.0319212
-0.0311553
-0.0302461
-0.0291999
-0.0280251
-0.0267317
-0.0253315
-0.0238377
-0.0222651
-0.0206299
-0.0189493
-0.0172414
-0.0155252
-0.0138196
-0.0121439
-0.0105171
-0.00895752
-0.00748261
-0.00610851
-0.00484971
-0.00371871
-0.00272563
-0.00187778
-0.00117931
-0.000630669
-0.000228158
3.67029e-05
0.000177818
0.000214921
0.000174187
9.30689e-05
2.40359e-05
-2.12041e-06
-6.72827e-05
-0.000264114
-0.000609816
-0.00111689
-0.00179155
-0.00263281
-0.00363428
-0.00478585
-0.00607479
-0.00748675
-0.00900648
-0.0106184
-0.0123069
-0.0140567
-0.015853
-0.0176814
-0.0195281
-0.0213797
-0.0232232
-0.0250461
-0.026836
-0.0285808
-0.0302686
-0.0318877
-0.0334264
-0.0348731
-0.0362166
-0.0374458
-0.0385499
-0.0395186
-0.0403421
-0.0410113
-0.0415178
-0.0418544
-0.0420149
-0.0419944
-0.0417896
-0.0413988
-0.0408218
-0.0400606
-0.0391189
-0.0380028
-0.03672
-0.0352807
-0.0336969
-0.0319828
-0.0301544
-0.0282294
-0.026227
-0.0241678
-0.0220736
-0.0199667
-0.0178699
-0.0158062
-0.0137981
-0.0118676
-0.0100355
-0.00832107
-0.00674159
-0.00531204
-0.00404455
-0.00294798
-0.00202749
-0.00128399
-0.000713742
-0.000307732
-5.11882e-05
7.67762e-05
0.000103676
6.7544e-05
1.96738e-05
-1.36939e-05
-0.000132843
-0.000435875
-0.000924767
-0.00160415
-0.00247659
-0.00353826
-0.00478044
-0.00619104
-0.00775554
-0.00945781
-0.0112808
-0.0132069
-0.0152188
-0.017299
-0.0194307
-0.0215974
-0.0237832
-0.0259725
-0.0281502
-0.0303017
-0.0324125
-0.0344684
-0.0364555
-0.0383599
-0.0401681
-0.0418667
-0.0434425
-0.0448826
-0.0461747
-0.0473069
-0.048268
-0.0490475
-0.0496361
-0.0500256
-0.0502091
-0.0501811
-0.049938
-0.049478
-0.0488013
-0.0479102
-0.0468091
-0.045505
-0.0440071
-0.042327
-0.0404784
-0.0384776
-0.0363428
-0.0340942
-0.0317539
-0.0293452
-0.0268929
-0.0244225
-0.0219601
-0.0195317
-0.0171633
-0.0148798
-0.012705
-0.0106612
-0.00876808
-0.00704304
-0.00550014
-0.00414987
-0.00299857
-0.00204804
-0.00129498
-0.000730619
-0.000340223
-0.000102823
9.22305e-06
3.25294e-05
1.36283e-05
-2.51882e-05
-0.00020004
-0.000614175
-0.00125312
-0.0021124
-0.00318987
-0.00447795
-0.00596495
-0.00763634
-0.00947557
-0.0114647
-0.0135848
-0.0158168
-0.0181413
-0.0205393
-0.0229921
-0.0254815
-0.0279896
-0.030499
-0.0329929
-0.0354545
-0.0378677
-0.0402163
-0.0424847
-0.0446571
-0.0467184
-0.0486532
-0.0504469
-0.0520851
-0.0535538
-0.05484
-0.0559309
-0.0568153
-0.0574827
-0.0579241
-0.0581319
-0.0581003
-0.0578253
-0.057305
-0.0565397
-0.0555321
-0.0542873
-0.052813
-0.0511193
-0.0492191
-0.0471279
-0.0448633
-0.0424457
-0.0398974
-0.0372426
-0.0345074
-0.031719
-0.0289058
-0.0260966
-0.0233206
-0.0206063
-0.0179818
-0.0154736
-0.0131065
-0.010903
-0.00888248
-0.00706118
-0.00545131
-0.00406072
-0.00289239
-0.00194405
-0.00120774
-0.000669515
-0.000309154
-9.98122e-05
-7.69005e-06
6.86663e-06
-3.63453e-05
-0.000266986
-0.00079389
-0.00158592
-0.00262892
-0.00391534
-0.00543319
-0.0071672
-0.00910002
-0.0112128
-0.0134856
-0.0158977
-0.0184284
-0.0210567
-0.0237621
-0.0265242
-0.0293232
-0.0321396
-0.0349546
-0.0377495
-0.040506
-0.0432063
-0.0458327
-0.0483677
-0.0507943
-0.0530954
-0.0552545
-0.0572553
-0.0590821
-0.0607197
-0.0621535
-0.0633701
-0.064357
-0.0651027
-0.0655977
-0.0658336
-0.0658042
-0.0655052
-0.0649346
-0.0640927
-0.0629823
-0.061609
-0.0599811
-0.0581095
-0.056008
-0.0536934
-0.0511848
-0.0485041
-0.0456754
-0.042725
-0.0396811
-0.0365734
-0.0334326
-0.0302902
-0.0271779
-0.0241272
-0.0211687
-0.0183317
-0.0156436
-0.0131293
-0.0108107
-0.0087062
-0.00682991
-0.0051915
-0.00379557
-0.00264127
-0.00172201
-0.00102522
-0.000532069
-0.000217187
-5.04452e-05
-7.99566e-08
-4.70686e-05
-0.000332698
-0.000972019
-0.00191757
-0.00314533
-0.00464195
-0.0063906
-0.00837199
-0.0105656
-0.0129501
-0.0155032
-0.0182026
-0.0210257
-0.0239502
-0.0269539
-0.0300152
-0.0331129
-0.036226
-0.0393343
-0.0424177
-0.0454565
-0.0484315
-0.0513234
-0.0541136
-0.0567833
-0.0593144
-0.0616889
-0.0638892
-0.0658984
-0.0677
-0.0692786
-0.0706195
-0.0717092
-0.0725357
-0.0730883
-0.0733584
-0.0733391
-0.0730257
-0.0724159
-0.07151
-0.0703109
-0.0688243
-0.0670587
-0.0650259
-0.0627404
-0.0602197
-0.0574842
-0.054557
-0.0514639
-0.048233
-0.0448942
-0.0414794
-0.0380217
-0.0345549
-0.0311134
-0.0277311
-0.0244415
-0.0212764
-0.018266
-0.0154378
-0.0128162
-0.0104218
-0.0082713
-0.00637628
-0.00474335
-0.00337354
-0.00226206
-0.0013982
-0.000764993
-0.000338996
-9.41759e-05
-6.94095e-06
-5.73463e-05
-0.000396695
-0.00114683
-0.00224453
-0.00365604
-0.00536204
-0.00734058
-0.0095681
-0.0120206
-0.014674
-0.0175038
-0.0204856
-0.0235953
-0.0268089
-0.0301032
-0.033455
-0.0368419
-0.0402418
-0.0436331
-0.0469946
-0.0503054
-0.0535449
-0.0566929
-0.0597291
-0.0626339
-0.0653877
-0.0679715
-0.0703665
-0.0725546
-0.0745184
-0.0762414
-0.0777079
-0.0789036
-0.0798155
-0.0804324
-0.0807447
-0.0807452
-0.0804285
-0.0797921
-0.0788358
-0.0775625
-0.0759778
-0.0740905
-0.0719126
-0.069459
-0.0667479
-0.0638007
-0.0606415
-0.0572973
-0.0537978
-0.0501747
-0.0464618
-0.0426942
-0.0389082
-0.0351406
-0.031428
-0.0278064
-0.0243107
-0.0209736
-0.0178256
-0.0148938
-0.0122014
-0.00976768
-0.00760669
-0.00572737
-0.00413301
-0.00282104
-0.00178298
-0.00100405
-0.000463023
-0.000138064
-1.36003e-05
-6.7196e-05
-0.000458748
-0.0013173
-0.00256458
-0.00415734
-0.00607027
-0.00827621
-0.0107471
-0.0134555
-0.0163741
-0.0194762
-0.0227354
-0.0261258
-0.0296221
-0.0331997
-0.0368342
-0.040502
-0.0441801
-0.0478458
-0.0514768
-0.0550511
-0.0585471
-0.0619434
-0.065219
-0.0683529
-0.0713246
-0.074114
-0.0767013
-0.0790675
-0.0811941
-0.0830636
-0.0846595
-0.0859665
-0.086971
-0.0876606
-0.0880253
-0.0880569
-0.0877497
-0.0871003
-0.0861083
-0.0847761
-0.0831092
-0.0811161
-0.0788088
-0.0762026
-0.073316
-0.0701709
-0.0667925
-0.0632086
-0.0594503
-0.0555509
-0.0515459
-0.0474726
-0.0433696
-0.0392759
-0.0352311
-0.0312739
-0.0274421
-0.0237715
-0.0202954
-0.0170441
-0.0140438
-0.0113166
-0.00887947
-0.00674397
-0.00491603
-0.00339566
-0.00217688
-0.00124739
-0.000588254
-0.000181784
-2.00315e-05
-7.66419e-05
-0.000518755
-0.00148286
-0.00287629
-0.00464667
-0.00676282
-0.00919235
-0.0119027
-0.0148627
-0.018042
-0.0214114
-0.0249425
-0.0286077
-0.0323802
-0.0362341
-0.0401441
-0.0440855
-0.0480343
-0.0519668
-0.0558599
-0.0596907
-0.0634368
-0.0670758
-0.0705857
-0.0739448
-0.0771316
-0.080125
-0.0829045
-0.0854499
-0.0877421
-0.0897624
-0.0914936
-0.0929195
-0.0940254
-0.0947984
-0.0952273
-0.0953032
-0.0950196
-0.0943725
-0.0933606
-0.0919857
-0.0902528
-0.0881702
-0.0857496
-0.083006
-0.0799583
-0.0766286
-0.0730425
-0.0692291
-0.0652202
-0.0610506
-0.0567577
-0.0523807
-0.0479602
-0.0435383
-0.0391568
-0.0348578
-0.030682
-0.0266685
-0.022854
-0.0192721
-0.0159524
-0.0129201
-0.0101955
-0.00779324
-0.00572224
-0.00398534
-0.00257938
-0.00149464
-0.000714534
-0.000225335
-2.62611e-05
-8.57053e-05
-0.000576664
-0.0016431
-0.00317866
-0.00512222
-0.00743688
-0.0100851
-0.0130298
-0.0162361
-0.0196707
-0.0233017
-0.0270987
-0.0310324
-0.0350746
-0.0391981
-0.0433767
-0.0475848
-0.0517973
-0.0559901
-0.060139
-0.0642206
-0.0682115
-0.0720887
-0.0758296
-0.0794115
-0.0828122
-0.0860098
-0.088983
-0.0917108
-0.094173
-0.0963505
-0.0982247
-0.0997788
-0.100997
-0.101866
-0.102372
-0.102507
-0.102263
-0.101634
-0.10062
-0.0992193
-0.0974379
-0.0952827
-0.0927651
-0.0898998
-0.0867052
-0.0832038
-0.0794215
-0.0753878
-0.0711356
-0.066701
-0.0621229
-0.0574424
-0.0527027
-0.0479482
-0.0432238
-0.0385747
-0.0340449
-0.0296773
-0.025512
-0.0215865
-0.017934
-0.0145835
-0.0115589
-0.00887826
-0.00655383
-0.00459164
-0.00299153
-0.00174651
-0.000842308
-0.000268939
-3.23476e-05
-9.44012e-05
-0.000632437
-0.00179776
-0.00347096
-0.00558257
-0.00809019
-0.0109513
-0.0141244
-0.0175708
-0.0212543
-0.0251404
-0.0291967
-0.0333922
-0.0376973
-0.0420837
-0.0465241
-0.0509921
-0.055462
-0.0599089
-0.0643081
-0.0686354
-0.072867
-0.0769793
-0.0809488
-0.0847523
-0.0883671
-0.0917704
-0.0949403
-0.097855
-0.100493
-0.102836
-0.104862
-0.106555
-0.107898
-0.108876
-0.109476
-0.109686
-0.109498
-0.108906
-0.107907
-0.106499
-0.104688
-0.102478
-0.0998806
-0.0969096
-0.0935832
-0.0899234
-0.0859562
-0.0817114
-0.0772229
-0.0725278
-0.0676665
-0.062682
-0.0576199
-0.0525272
-0.0474521
-0.042443
-0.0375476
-0.0328127
-0.0282826
-0.0239987
-0.0199985
-0.0163151
-0.0129764
-0.0100044
-0.00741501
-0.00521773
-0.00341562
-0.00200453
-0.000972455
-0.000312967
-3.83691e-05
-0.000102737
-0.000686031
-0.00194657
-0.00375255
-0.00602653
-0.00872087
-0.0117882
-0.0151828
-0.0188624
-0.0227876
-0.0269217
-0.03123
-0.03568
-0.0402408
-0.0448829
-0.0495782
-0.0542996
-0.0590207
-0.063716
-0.0683603
-0.072929
-0.0773977
-0.0817423
-0.085939
-0.089964
-0.0937939
-0.0974056
-0.100776
-0.103883
-0.106705
-0.109221
-0.111411
-0.113255
-0.114737
-0.115839
-0.116548
-0.116851
-0.116738
-0.116201
-0.115237
-0.113842
-0.11202
-0.109775
-0.107116
-0.104056
-0.100614
-0.0968097
-0.0926695
-0.0882235
-0.0835059
-0.0785549
-0.0734121
-0.0681228
-0.0627346
-0.0572974
-0.0518627
-0.0464824
-0.0412085
-0.0360918
-0.0311811
-0.0265223
-0.0221578
-0.0181252
-0.0144567
-0.0111788
-0.00831149
-0.00586798
-0.00385482
-0.00227079
-0.00110615
-0.00035789
-4.44158e-05
-0.000110714
-0.000737383
-0.00208929
-0.00402282
-0.00645299
-0.00932718
-0.0125934
-0.0162018
-0.0201066
-0.0242657
-0.0286397
-0.0331921
-0.0378888
-0.0426976
-0.0475881
-0.0525311
-0.0574991
-0.0624651
-0.067403
-0.0722875
-0.0770933
-0.0817959
-0.0863708
-0.0907936
-0.0950404
-0.0990873
-0.10291
-0.106487
-0.109793
-0.112807
-0.115506
-0.11787
-0.119879
-0.121513
-0.122756
-0.123592
-0.124006
-0.123988
-0.123527
-0.122618
-0.121258
-0.119445
-0.117185
-0.114485
-0.111355
-0.107814
-0.10388
-0.0995804
-0.0949439
-0.0900052
-0.0848035
-0.0793816
-0.0737866
-0.0680686
-0.0622803
-0.0564766
-0.0507135
-0.045047
-0.0395327
-0.0342243
-0.0291728
-0.0244257
-0.0200257
-0.0160101
-0.0124101
-0.00925012
-0.00654767
-0.00431294
-0.0025478
-0.0012448
-0.000404252
-5.05853e-05
-0.000118325
-0.000786413
-0.00222562
-0.00428115
-0.00686086
-0.00990742
-0.0133645
-0.0171783
-0.0212997
-0.0256838
-0.030289
-0.035077
-0.0400118
-0.0450604
-0.0501911
-0.0553744
-0.0605818
-0.0657861
-0.0709609
-0.0760803
-0.0811192
-0.0860525
-0.0908555
-0.0955038
-0.0999729
-0.104239
-0.108277
-0.112064
-0.115576
-0.11879
-0.121683
-0.124234
-0.126421
-0.128224
-0.129625
-0.130605
-0.131151
-0.131247
-0.130884
-0.130053
-0.128749
-0.126969
-0.124716
-0.121995
-0.118816
-0.115194
-0.111148
-0.106703
-0.101888
-0.0967376
-0.0912916
-0.085594
-0.0796934
-0.0736423
-0.0674966
-0.0613146
-0.0551564
-0.0490827
-0.0431542
-0.0374298
-0.0319664
-0.0268168
-0.0220296
-0.0176477
-0.0137076
-0.0102386
-0.00726274
-0.00479428
-0.00283838
-0.00138995
-0.00045264
-5.69799e-05
-0.000125558
-0.000833014
-0.00235524
-0.00452685
-0.00724899
-0.0104599
-0.0140991
-0.0181092
-0.0224378
-0.0270375
-0.0318643
-0.0368783
-0.0420421
-0.0473214
-0.0526839
-0.0580992
-0.0635385
-0.0689741
-0.0743794
-0.0797285
-0.0849958
-0.0901563
-0.0951853
-0.100058
-0.10475
-0.109236
-0.113493
-0.117496
-0.121221
-0.124644
-0.127742
-0.130491
-0.13287
-0.134858
-0.136433
-0.137578
-0.138275
-0.138509
-0.138266
-0.137536
-0.136311
-0.134588
-0.132365
-0.129646
-0.126439
-0.122757
-0.118618
-0.114045
-0.109066
-0.103715
-0.0980331
-0.0920646
-0.08586
-0.0794739
-0.0729652
-0.066396
-0.0598307
-0.0533351
-0.0469751
-0.0408158
-0.0349199
-0.0293467
-0.024151
-0.0193818
-0.0150816
-0.0112852
-0.00801962
-0.00530349
-0.00314556
-0.00154323
-0.000503676
-6.37045e-05
-0.000132394
-0.000877061
-0.00247778
-0.00475921
-0.0076162
-0.0109829
-0.0147949
-0.0189913
-0.023517
-0.0283219
-0.0333601
-0.0385899
-0.0439726
-0.049473
-0.0550579
-0.0606963
-0.0663592
-0.0720185
-0.0776474
-0.08322
-0.0887108
-0.0940946
-0.0993467
-0.104442
-0.109357
-0.114066
-0.118544
-0.122768
-0.126712
-0.130353
-0.133665
-0.136625
-0.139211
-0.141398
-0.143167
-0.144495
-0.145364
-0.145756
-0.145657
-0.145052
-0.143932
-0.14229
-0.140123
-0.137432
-0.134221
-0.130502
-0.126291
-0.121608
-0.116481
-0.110944
-0.105037
-0.0988048
-0.0922996
-0.0855782
-0.0787025
-0.0717383
-0.0647547
-0.0578226
-0.0510139
-0.0444
-0.0380502
-0.032031
-0.0264039
-0.0212248
-0.0165427
-0.0123986
-0.00882501
-0.00584541
-0.00347249
-0.00170638
-0.000558002
-7.0866e-05
-0.000138812
-0.00091841
-0.00259283
-0.00497744
-0.00796122
-0.0114745
-0.0154493
-0.0198216
-0.0245334
-0.0295324
-0.0347708
-0.0402053
-0.0457962
-0.051507
-0.0573041
-0.063156
-0.0690333
-0.0749078
-0.0807527
-0.0865421
-0.0922504
-0.0978527
-0.103324
-0.108641
-0.113777
-0.118709
-0.123411
-0.12786
-0.132029
-0.135894
-0.139431
-0.142614
-0.145419
-0.147823
-0.149801
-0.151332
-0.152394
-0.152967
-0.153035
-0.152581
-0.151592
-0.150058
-0.147973
-0.145336
-0.142148
-0.138417
-0.134157
-0.129387
-0.124132
-0.118426
-0.112306
-0.105821
-0.0990209
-0.0919663
-0.0847216
-0.0773564
-0.0699444
-0.0625622
-0.0552878
-0.0481995
-0.0413741
-0.0348853
-0.0288026
-0.0231894
-0.0181018
-0.0135877
-0.00968584
-0.00642507
-0.00382244
-0.00188116
-0.000616272
-7.85719e-05
-0.000144785
-0.000956901
-0.00269995
-0.0051807
-0.00828275
-0.0119329
-0.0160599
-0.0205968
-0.025483
-0.0306642
-0.0360908
-0.0417181
-0.0475053
-0.0534152
-0.0594133
-0.0654681
-0.0715497
-0.07763
-0.0836822
-0.0896804
-0.0955994
-0.101414
-0.107101
-0.112634
-0.117991
-0.123145
-0.128073
-0.132748
-0.137148
-0.141244
-0.145014
-0.14843
-0.151467
-0.154101
-0.156306
-0.158058
-0.159334
-0.160111
-0.16037
-0.160092
-0.15926
-0.157863
-0.155889
-0.153334
-0.150197
-0.146483
-0.142201
-0.137368
-0.132008
-0.126152
-0.119838
-0.113112
-0.106027
-0.0986445
-0.0910315
-0.0832616
-0.0754131
-0.0675685
-0.0598124
-0.0522304
-0.0449071
-0.0379248
-0.0313611
-0.025288
-0.0197697
-0.0148615
-0.0106091
-0.00704753
-0.00419872
-0.00206937
-0.000679151
-8.69307e-05
-0.000150287
-0.000992365
-0.0027987
-0.00536816
-0.00857943
-0.0123561
-0.0166241
-0.0213135
-0.0263618
-0.0317125
-0.0373145
-0.0431218
-0.0490926
-0.055189
-0.0613761
-0.067622
-0.0738968
-0.0801723
-0.0864218
-0.0926198
-0.0987413
-0.104762
-0.110657
-0.116403
-0.121976
-0.12735
-0.132503
-0.137407
-0.142039
-0.146373
-0.150381
-0.15404
-0.15732
-0.160198
-0.162645
-0.164636
-0.166145
-0.167149
-0.167623
-0.167547
-0.1669
-0.165667
-0.163834
-0.161393
-0.158337
-0.154669
-0.150395
-0.145528
-0.14009
-0.134108
-0.12762
-0.120671
-0.113315
-0.105613
-0.0976363
-0.0894609
-0.0811706
-0.0728533
-0.0646009
-0.0565067
-0.0486638
-0.0411636
-0.0340929
-0.027533
-0.021557
-0.0162288
-0.0116018
-0.00771791
-0.00460465
-0.0022728
-0.000747307
-9.60511e-05
-0.000155286
-0.00102463
-0.00288859
-0.00553893
-0.00884992
-0.0127423
-0.0171393
-0.0219687
-0.0271658
-0.0326724
-0.0384361
-0.0444096
-0.0505504
-0.0568198
-0.0631827
-0.0696069
-0.0760624
-0.0825212
-0.0889569
-0.0953442
-0.101658
-0.107876
-0.113972
-0.119924
-0.125707
-0.131299
-0.136673
-0.141806
-0.146672
-0.151244
-0.155498
-0.159405
-0.162939
-0.166071
-0.168775
-0.171021
-0.172783
-0.174033
-0.174746
-0.174897
-0.174464
-0.173425
-0.171764
-0.169467
-0.166526
-0.162938
-0.158704
-0.153835
-0.148349
-0.14227
-0.135634
-0.128484
-0.120874
-0.112867
-0.104534
-0.0959565
-0.087222
-0.0784248
-0.0696637
-0.0610403
-0.052657
-0.0446147
-0.0370106
-0.0299359
-0.0234741
-0.0176983
-0.0126708
-0.00844126
-0.00504356
-0.00249326
-0.00082141
-0.000106043
-0.000159754
-0.00105351
-0.00296916
-0.00569216
-0.00909289
-0.0130896
-0.0176031
-0.0225591
-0.0278911
-0.0335393
-0.03945
-0.0455751
-0.0518711
-0.0582991
-0.0648234
-0.0714117
-0.0780342
-0.0846631
-0.0912722
-0.0978366
-0.104332
-0.110735
-0.117023
-0.123172
-0.12916
-0.134961
-0.140553
-0.145911
-0.151009
-0.155822
-0.160323
-0.164484
-0.168277
-0.171674
-0.174646
-0.177162
-0.179193
-0.18071
-0.181684
-0.182088
-0.181894
-0.181079
-0.179621
-0.177503
-0.174712
-0.171239
-0.167082
-0.162247
-0.156747
-0.150604
-0.143849
-0.136526
-0.128685
-0.120391
-0.111716
-0.102744
-0.0935677
-0.0842868
-0.0750075
-0.0658403
-0.056897
-0.0482893
-0.0401253
-0.0325077
-0.0255308
-0.0192785
-0.0138229
-0.00922257
-0.00551876
-0.00273257
-0.000902135
-0.000117017
-0.000163661
-0.00107885
-0.00303997
-0.00582704
-0.00930706
-0.0133961
-0.0180131
-0.0230817
-0.028534
-0.0343086
-0.040351
-0.0466119
-0.0530475
-0.0596183
-0.0662884
-0.0730255
-0.0797998
-0.0865839
-0.093352
-0.10008
-0.106743
-0.11332
-0.119788
-0.126123
-0.132304
-0.138308
-0.14411
-0.149687
-0.155014
-0.160064
-0.164812
-0.169228
-0.173285
-0.176953
-0.180202
-0.183
-0.185315
-0.187117
-0.188373
-0.189052
-0.189125
-0.188563
-0.187342
-0.185437
-0.182831
-0.179511
-0.17547
-0.170708
-0.165233
-0.159064
-0.152227
-0.144762
-0.13672
-0.128163
-0.119166
-0.109813
-0.100202
-0.0904378
-0.0806349
-0.0709121
-0.0613918
-0.0521967
-0.0434472
-0.0352581
-0.0277362
-0.0209773
-0.0150646
-0.0100667
-0.00603348
-0.00299251
-0.000990153
-0.000129085
-0.00016698
-0.00110049
-0.00310061
-0.0059428
-0.00949127
-0.0136603
-0.018367
-0.0235337
-0.0290908
-0.0349761
-0.0411338
-0.0475141
-0.0540725
-0.0607692
-0.0675682
-0.0744373
-0.0813469
-0.0882698
-0.0951807
-0.102056
-0.108872
-0.115608
-0.122241
-0.128749
-0.135112
-0.141306
-0.147308
-0.153096
-0.158643
-0.163926
-0.168916
-0.173587
-0.177909
-0.181851
-0.185383
-0.188471
-0.191083
-0.193184
-0.194741
-0.195718
-0.196083
-0.195803
-0.194849
-0.193193
-0.190811
-0.187684
-0.1838
-0.179154
-0.173748
-0.167594
-0.160717
-0.15315
-0.144942
-0.136153
-0.126858
-0.117144
-0.107111
-0.0968706
-0.0865432
-0.0762573
-0.0661458
-0.0563436
-0.046984
-0.0381955
-0.0300985
-0.0228021
-0.016402
-0.0109784
-0.0065909
-0.00327485
-0.00108613
-0.00014236
-0.000169687
-0.00111829
-0.00315072
-0.00603879
-0.00964449
-0.0138807
-0.0186631
-0.0239126
-0.0295586
-0.0355379
-0.0417938
-0.048276
-0.0549394
-0.0617441
-0.068654
-0.0756369
-0.0826635
-0.089707
-0.0967427
-0.103747
-0.110699
-0.117576
-0.124358
-0.131024
-0.137552
-0.143922
-0.150111
-0.156097
-0.161855
-0.167361
-0.172587
-0.177506
-0.18209
-0.186306
-0.190123
-0.193508
-0.196424
-0.198837
-0.200709
-0.202004
-0.202685
-0.202715
-0.202059
-0.200686
-0.198566
-0.195674
-0.191992
-0.187508
-0.182217
-0.176127
-0.169256
-0.161632
-0.1533
-0.144318
-0.134758
-0.12471
-0.114276
-0.103571
-0.0927242
-0.0818724
-0.0711597
-0.0607337
-0.0507417
-0.0413269
-0.0326248
-0.0247595
-0.0178409
-0.0119621
-0.0071941
-0.00358132
-0.00119075
-0.000156957
-0.000171761
-0.00113214
-0.00319001
-0.00611449
-0.00976591
-0.0140561
-0.0188996
-0.0242164
-0.0299348
-0.0359907
-0.042327
-0.0488927
-0.0556424
-0.062536
-0.0695373
-0.0766144
-0.0837382
-0.0908825
-0.0980231
-0.105137
-0.112204
-0.119204
-0.126115
-0.132919
-0.139595
-0.146123
-0.152482
-0.158651
-0.164605
-0.17032
-0.175771
-0.18093
-0.185768
-0.190253
-0.194354
-0.198035
-0.201261
-0.203994
-0.206195
-0.207824
-0.20884
-0.209205
-0.208878
-0.207822
-0.206002
-0.203388
-0.199954
-0.19568
-0.190557
-0.184583
-0.17777
-0.17014
-0.161734
-0.152604
-0.142822
-0.132474
-0.121666
-0.110518
-0.0991631
-0.0877486
-0.0764297
-0.0653671
-0.0547232
-0.0446571
-0.035321
-0.0268555
-0.0193865
-0.013022
-0.00784604
-0.00391363
-0.00130466
-0.000172994
-0.000173187
-0.00114196
-0.00321828
-0.00616951
-0.00985495
-0.0141856
-0.0190754
-0.0244434
-0.0302171
-0.036332
-0.0427301
-0.0493601
-0.0561764
-0.0631386
-0.0702108
-0.077361
-0.0845607
-0.0917841
-0.0990077
-0.10621
-0.11337
-0.120469
-0.127488
-0.134408
-0.14121
-0.147876
-0.154385
-0.160716
-0.166847
-0.172755
-0.178415
-0.183799
-0.18888
-0.193626
-0.198003
-0.201979
-0.205514
-0.208571
-0.211108
-0.213083
-0.214453
-0.215175
-0.215204
-0.214498
-0.213017
-0.210723
-0.207583
-0.203572
-0.19867
-0.192869
-0.186172
-0.178596
-0.170171
-0.160948
-0.150992
-0.140389
-0.129244
-0.11768
-0.105838
-0.0938709
-0.0819469
-0.0702401
-0.0589285
-0.0481888
-0.0381912
-0.0290949
-0.0210435
-0.014162
-0.00854952
-0.00427342
-0.00142852
-0.000190589
-0.000173957
-0.00114771
-0.00323542
-0.0062037
-0.00991132
-0.014269
-0.0191899
-0.0245928
-0.0304045
-0.0365599
-0.0430007
-0.0496751
-0.0565374
-0.0635471
-0.0706682
-0.0778692
-0.0851218
-0.0924009
-0.0996836
-0.106949
-0.114178
-0.121352
-0.128453
-0.135465
-0.142369
-0.149147
-0.155781
-0.162252
-0.168538
-0.174618
-0.180466
-0.186058
-0.191364
-0.196356
-0.200999
-0.20526
-0.2091
-0.212479
-0.215356
-0.217686
-0.219424
-0.220521
-0.22093
-0.220605
-0.219498
-0.217566
-0.214768
-0.211072
-0.206449
-0.200882
-0.194364
-0.186905
-0.178527
-0.169271
-0.1592
-0.148395
-0.13696
-0.125019
-0.112717
-0.100217
-0.0876967
-0.0753441
-0.0633542
-0.0519221
-0.0412379
-0.0314811
-0.0228157
-0.0153856
-0.00930716
-0.00466228
-0.00156299
-0.000209865
-0.000174072
-0.00114939
-0.00324148
-0.00621711
-0.00993512
-0.0143061
-0.0192432
-0.0246644
-0.0304965
-0.0366738
-0.0431376
-0.0498359
-0.0567228
-0.0637577
-0.0709048
-0.0781327
-0.0854138
-0.0927234
-0.100039
-0.107342
-0.114613
-0.121834
-0.128991
-0.136066
-0.143043
-0.149906
-0.156638
-0.163221
-0.169635
-0.17586
-0.181872
-0.187647
-0.193159
-0.198377
-0.203269
-0.207801
-0.211936
-0.215632
-0.218847
-0.221535
-0.223647
-0.225134
-0.225945
-0.226026
-0.225327
-0.223797
-0.221389
-0.218061
-0.213775
-0.208505
-0.202236
-0.194963
-0.186703
-0.177486
-0.167368
-0.156424
-0.144755
-0.132486
-0.119763
-0.106758
-0.0936581
-0.0806656
-0.0679926
-0.0558539
-0.0444613
-0.0340165
-0.0247061
-0.0166957
-0.0101213
-0.00508171
-0.00170869
-0.000230945
-0.000173539
-0.00114708
-0.00323664
-0.00621007
-0.00992683
-0.0142977
-0.0192358
-0.024659
-0.0304938
-0.036674
-0.0431409
-0.049842
-0.0567314
-0.0637684
-0.0709174
-0.0781473
-0.0854309
-0.0927442
-0.100066
-0.107377
-0.11466
-0.1219
-0.129081
-0.136188
-0.143207
-0.150124
-0.156922
-0.163586
-0.170097
-0.176436
-0.182583
-0.188514
-0.194204
-0.199623
-0.204742
-0.209527
-0.21394
-0.21794
-0.221486
-0.224528
-0.227019
-0.228905
-0.230132
-0.230643
-0.230382
-0.229292
-0.227319
-0.224411
-0.220522
-0.215616
-0.209665
-0.202655
-0.19459
-0.185491
-0.175402
-0.164393
-0.152558
-0.14002
-0.126927
-0.113456
-0.0998029
-0.0861851
-0.0728315
-0.0599779
-0.0478591
-0.0367015
-0.0267167
-0.0180948
-0.0109942
-0.0055331
-0.00186625
-0.000253955
-0.000172378
-0.0011409
-0.00322125
-0.00618323
-0.00988741
-0.014245
-0.0191693
-0.0245783
-0.030398
-0.0365623
-0.043012
-0.0496946
-0.0565638
-0.063579
-0.0707049
-0.0779107
-0.0851695
-0.092458
-0.0997559
-0.107045
-0.11431
-0.121535
-0.128707
-0.135813
-0.14284
-0.149775
-0.156604
-0.163313
-0.169887
-0.176306
-0.182554
-0.188607
-0.194443
-0.200034
-0.205352
-0.210364
-0.215033
-0.21932
-0.223182
-0.226571
-0.229436
-0.231724
-0.233378
-0.234336
-0.234539
-0.233922
-0.232425
-0.229989
-0.226556
-0.22208
-0.216521
-0.209854
-0.202067
-0.193172
-0.183199
-0.172208
-0.160286
-0.14755
-0.13415
-0.120263
-0.106095
-0.0918767
-0.0778537
-0.0642837
-0.0514263
-0.0395348
-0.0288483
-0.0195845
-0.0119274
-0.00601774
-0.00203626
-0.000279025
-0.000170619
-0.00113105
-0.00319584
-0.00613759
-0.00981837
-0.0141501
-0.0190463
-0.0244251
-0.0302125
-0.036342
-0.0427543
-0.0493966
-0.0562225
-0.0631916
-0.0702686
-0.0774229
-0.0846284
-0.0918623
-0.0991052
-0.10634
-0.113552
-0.120728
-0.127856
-0.134924
-0.141922
-0.148837
-0.155659
-0.162375
-0.168971
-0.175432
-0.181741
-0.187879
-0.193825
-0.199553
-0.205037
-0.210244
-0.215142
-0.219691
-0.223849
-0.227568
-0.230799
-0.233486
-0.235569
-0.236986
-0.237671
-0.237557
-0.236575
-0.234657
-0.231738
-0.227758
-0.222667
-0.216424
-0.209004
-0.200404
-0.190642
-0.179763
-0.167844
-0.154995
-0.141362
-0.127123
-0.112491
-0.0977077
-0.0830364
-0.0687568
-0.0551548
-0.0425127
-0.0311002
-0.0211658
-0.0129225
-0.00653675
-0.00221928
-0.000306283
-0.000168308
-0.0011178
-0.00316117
-0.00607452
-0.00972179
-0.0140157
-0.0188703
-0.0242037
-0.0299418
-0.0360181
-0.0423728
-0.0489531
-0.0557125
-0.0626105
-0.0696119
-0.0766867
-0.0838091
-0.0909573
-0.0981125
-0.105259
-0.112383
-0.119473
-0.126519
-0.13351
-0.140438
-0.147293
-0.154065
-0.160746
-0.167322
-0.173782
-0.18011
-0.186291
-0.192305
-0.198129
-0.20374
-0.209107
-0.214199
-0.218979
-0.223406
-0.227435
-0.231014
-0.234088
-0.236598
-0.238478
-0.239659
-0.24007
-0.239634
-0.238278
-0.235926
-0.232507
-0.227957
-0.222222
-0.215262
-0.207055
-0.197605
-0.186941
-0.175127
-0.162262
-0.148484
-0.13397
-0.118938
-0.103638
-0.0883504
-0.0733777
-0.0590328
-0.0456293
-0.0334704
-0.0228388
-0.0139803
-0.00709108
-0.00241583
-0.000335861
-0.000165502
-0.00110153
-0.00311824
-0.00599584
-0.00960043
-0.0138456
-0.0186458
-0.0239194
-0.0295922
-0.0355973
-0.0418747
-0.0483715
-0.0550409
-0.0618425
-0.0687413
-0.0757077
-0.0827164
-0.0897464
-0.0967799
-0.103802
-0.110801
-0.117767
-0.12469
-0.131563
-0.138378
-0.145129
-0.151808
-0.158407
-0.164918
-0.17133
-0.177631
-0.183808
-0.189844
-0.195721
-0.201414
-0.206899
-0.212146
-0.217121
-0.221784
-0.226092
-0.229996
-0.23344
-0.236365
-0.238705
-0.240387
-0.241337
-0.241474
-0.240716
-0.238979
-0.236181
-0.232244
-0.227101
-0.220693
-0.212982
-0.203952
-0.193615
-0.182018
-0.169245
-0.155424
-0.140728
-0.125373
-0.109618
-0.0937602
-0.0781218
-0.0630448
-0.0488759
-0.0359549
-0.0246025
-0.0151013
-0.00768146
-0.0026264
-0.000367888
-0.000162275
-0.00108269
-0.0030683
-0.00590386
-0.00945777
-0.0136445
-0.018379
-0.0235795
-0.0291717
-0.0350884
-0.0412695
-0.0476615
-0.0542176
-0.0608974
-0.0676662
-0.0744946
-0.0813582
-0.0882365
-0.095113
-0.101974
-0.108809
-0.11561
-0.122368
-0.129079
-0.135737
-0.142338
-0.148876
-0.155347
-0.161743
-0.168058
-0.174283
-0.180406
-0.186415
-0.192293
-0.198022
-0.203578
-0.208935
-0.214061
-0.218921
-0.223473
-0.22767
-0.231459
-0.23478
-0.237568
-0.239749
-0.241245
-0.241972
-0.241841
-0.24076
-0.238638
-0.235383
-0.230911
-0.225149
-0.218038
-0.20954
-0.199649
-0.18839
-0.175829
-0.162081
-0.147308
-0.131724
-0.115593
-0.099223
-0.0829589
-0.0671709
-0.0522407
-0.0385478
-0.0264546
-0.0162853
-0.00830842
-0.0028514
-0.000402494
-0.000158719
-0.00106185
-0.00301288
-0.0058014
-0.00929814
-0.0134183
-0.0180771
-0.0231926
-0.0286904
-0.0345027
-0.040569
-0.0468355
-0.0532553
-0.0597879
-0.066399
-0.0730595
-0.0797457
-0.0864381
-0.0931213
-0.099783
-0.106414
-0.113008
-0.119558
-0.126062
-0.132516
-0.138919
-0.145267
-0.151558
-0.157789
-0.163955
-0.17005
-0.176067
-0.181996
-0.187824
-0.193535
-0.199111