/*--------------------------------*- C++ -*----------------------------------*\
  =========                 |
  \\      /  F ield         | OpenFOAM: The Open Source CFD Toolbox
   \\    /   O peration     | Website:  https://openfoam.org
    \\  /    A nd           | Version:  dev
     \\/     M anipulation  |
\*---------------------------------------------------------------------------*/
FoamFile
{
    format      ascii;
    class       volScalarField;
    location    "38.7";
    object      Uy;
}
// * * * * * * * * * * * * * * * * * * * * * * * * * * * * * * * * * * * * * //

dimensions      [0 1 -1 0 0 0 0];

internalField   nonuniform List<scalar> 
5184
(
-1.27038e-05
-2.08892e-05
-1.72509e-05
-8.19917e-06
2.6678e-06
1.36185e-05
2.38484e-05
3.30528e-05
4.11122e-05
4.80323e-05
5.38745e-05
5.87238e-05
6.26725e-05
6.58121e-05
6.82273e-05
6.99935e-05
7.1175e-05
7.18242e-05
7.19821e-05
7.16781e-05
7.09318e-05
6.97535e-05
6.81461e-05
6.61066e-05
6.36278e-05
6.07001e-05
5.73127e-05
5.34563e-05
4.91235e-05
4.43116e-05
3.90228e-05
3.32665e-05
2.706e-05
2.04291e-05
1.34097e-05
6.04734e-06
-1.60169e-06
-9.47096e-06
-1.74839e-05
-2.55547e-05
-3.35888e-05
-4.14847e-05
-4.91351e-05
-5.6429e-05
-6.32538e-05
-6.94975e-05
-7.50513e-05
-7.98123e-05
-8.36858e-05
-8.6588e-05
-8.84484e-05
-8.92118e-05
-8.884e-05
-8.73131e-05
-8.46307e-05
-8.08124e-05
-7.58975e-05
-6.9945e-05
-6.30323e-05
-5.52555e-05
-4.67286e-05
-3.75847e-05
-2.7979e-05
-1.8094e-05
-8.15515e-06
1.54309e-06
1.05764e-05
1.83077e-05
2.37246e-05
2.51352e-05
1.98534e-05
6.24439e-06
-4.58851e-05
-6.57229e-05
-4.05738e-05
7.62445e-06
6.56799e-05
0.000126005
0.00018432
0.000238379
0.00028704
0.00032986
0.000366799
0.000398048
0.000423917
0.000444775
0.000460997
0.000472943
0.000480935
0.00048525
0.00048611
0.000483687
0.000478101
0.000469431
0.000457714
0.00044296
0.000425155
0.000404278
0.000380304
0.000353215
0.000323012
0.000289723
0.000253407
0.000214167
0.000172153
0.000127569
8.06736e-05
3.17866e-05
-1.87132e-05
-7.03874e-05
-0.000122741
-0.000175226
-0.000227248
-0.000278176
-0.000327346
-0.000374082
-0.000417696
-0.000457516
-0.000492887
-0.000523195
-0.000547878
-0.000566443
-0.000578476
-0.000583657
-0.000581772
-0.000572717
-0.000556508
-0.000533284
-0.000503308
-0.000466971
-0.000424788
-0.000377399
-0.000325572
-0.000270213
-0.000212383
-0.000153336
-9.45813e-05
-3.7998e-05
1.39523e-05
5.79639e-05
8.94438e-05
0.000101895
8.65454e-05
3.64963e-05
-8.13287e-05
-9.50697e-05
-1.91659e-05
0.000105919
0.00025467
0.000410638
0.000563507
0.00070714
0.000838086
0.000954635
0.00105619
0.00114286
0.00121513
0.00127375
0.00131954
0.00135331
0.00137584
0.00138781
0.00138976
0.00138216
0.00136532
0.00133948
0.00130475
0.0012612
0.00120884
0.00114767
0.00107767
0.000998849
0.000911281
0.000815103
0.000710545
0.000597953
0.0004778
0.000350702
0.000217426
7.88938e-05
-6.38129e-05
-0.000209458
-0.000356659
-0.000503896
-0.000649535
-0.00079184
-0.000929011
-0.0010592
-0.00118056
-0.00129128
-0.00138958
-0.00147384
-0.00154255
-0.00159438
-0.00162826
-0.00164333
-0.00163903
-0.00161511
-0.00157164
-0.00150901
-0.00142798
-0.00132965
-0.00121546
-0.00108723
-0.000947117
-0.000797702
-0.000641991
-0.000483516
-0.000326477
-0.000175964
-3.82957e-05
7.85091e-05
0.000164151
0.000205464
0.000186336
9.04156e-05
-9.77786e-05
-7.31995e-05
8.47488e-05
0.000318368
0.000590152
0.000874469
0.00115428
0.00141881
0.00166156
0.00187901
0.00206961
0.00223308
0.00237001
0.00248142
0.00256859
0.00263284
0.00267547
0.00269761
0.00270026
0.0026842
0.00265003
0.00259817
0.0025289
0.00244237
0.00233867
0.00221783
0.00207992
0.00192504
0.00175339
0.00156534
0.0013614
0.00114231
0.000909048
0.000662848
0.000405228
0.00013799
-0.000136778
-0.000416703
-0.00069915
-0.00098124
-0.00125989
-0.00153183
-0.00179369
-0.00204203
-0.0022734
-0.00248441
-0.00267181
-0.00283256
-0.00296387
-0.00306332
-0.00312889
-0.00315905
-0.00315275
-0.00310957
-0.00302964
-0.00291375
-0.00276334
-0.0025805
-0.002368
-0.00212929
-0.00186852
-0.00159059
-0.00130121
-0.00100707
-0.00071597
-0.000437198
-0.000181897
3.63193e-05
0.00020073
0.000290939
0.00028265
0.000147324
-8.44508e-05
2.08433e-05
0.000295436
0.000668079
0.00109096
0.00153014
0.00196219
0.00237162
0.00274871
0.00308782
0.00338617
0.00364295
0.0038586
0.00403439
0.00417196
0.00427314
0.00433971
0.00437333
0.00437542
0.00434715
0.00428943
0.00420293
0.00408809
0.00394522
0.0037745
0.0035761
0.0033502
0.00309707
0.00281716
0.00251113
0.00217993
0.00182483
0.00144748
0.00104994
0.000634691
0.000204646
-0.000236829
-0.000685945
-0.00113851
-0.00158997
-0.00203546
-0.00246985
-0.00288784
-0.00328407
-0.00365314
-0.00398977
-0.00428891
-0.00454582
-0.0047562
-0.00491627
-0.00502292
-0.00507375
-0.00506719
-0.00500257
-0.00488014
-0.00470116
-0.00446792
-0.00418372
-0.00385295
-0.00348109
-0.0030747
-0.00264151
-0.00219054
-0.0017322
-0.00127853
-0.000843588
-0.000443872
-9.89431e-05
0.000167856
0.000328788
0.000351113
0.000194198
-3.75666e-05
0.000197335
0.000626939
0.00117048
0.00177199
0.0023906
0.00299723
0.0035721
0.00410234
0.00458018
0.00500155
0.00536495
0.00567063
0.00591995
0.0061149
0.00625774
0.00635074
0.00639605
0.00639553
0.00635076
0.00626295
0.00613305
0.00596172
0.00574945
0.00549657
0.00520341
0.00487035
0.00449792
0.00408689
0.00363834
0.00315377
0.00263513
0.0020849
0.00150614
0.000902484
0.000278196
-0.000361859
-0.00101223
-0.0016669
-0.00231937
-0.0029627
-0.00358963
-0.00419265
-0.00476415
-0.00529652
-0.00578233
-0.00621444
-0.00658618
-0.00689148
-0.00712505
-0.0072825
-0.00736045
-0.00735671
-0.00727031
-0.00710165
-0.00685252
-0.00652615
-0.00612726
-0.00566211
-0.00513847
-0.00456567
-0.00395472
-0.00331831
-0.00267105
-0.00202966
-0.00141336
-0.000844263
-0.000348078
4.52205e-05
0.000300682
0.000377489
0.000224594
4.40705e-05
0.000461287
0.00108718
0.00183497
0.00264279
0.00346436
0.00426605
0.0050244
0.00572379
0.00635453
0.0069113
0.00739193
0.00779644
0.00812627
0.00838366
0.0085713
0.00869191
0.00874811
0.00874218
0.0086761
0.00855142
0.00836937
0.00813084
0.00783652
0.00748696
0.0070827
0.00662439
0.00611286
0.00554931
0.00493534
0.00427312
0.0035654
0.00281566
0.00202809
0.00120769
0.000360225
-0.000507722
-0.00138882
-0.00227502
-0.00315762
-0.00402741
-0.00487471
-0.00568956
-0.00646187
-0.00718157
-0.00783883
-0.0084242
-0.00892886
-0.00934479
-0.00966497
-0.00988358
-0.00999615
-0.00999976
-0.00989311
-0.0096767
-0.00935288
-0.00892593
-0.00840211
-0.00778971
-0.00709902
-0.00634245
-0.00553452
-0.00469196
-0.00383389
-0.002982
-0.0021609
-0.00139851
-0.000726706
-0.000181977
0.00019386
0.000352673
0.00023508
0.000160457
0.00081457
0.00167995
0.00266658
0.00370874
0.00475637
0.00577242
0.0067306
0.0076131
0.00840865
0.00911091
0.00971716
0.0102272
0.0106426
0.0109659
0.0112
0.0113483
0.0114137
0.0113989
0.0113063
0.0111378
0.010895
0.0105788
0.0101903
0.00973032
0.00919956
0.00859901
0.00792992
0.00719395
0.00639334
0.005531
0.00461064
0.00363682
0.00261504
0.00155178
0.00045449
-0.00066837
-0.00180741
-0.00295235
-0.00409213
-0.00521501
-0.00630872
-0.00736063
-0.00835796
-0.00928796
-0.0101382
-0.0108967
-0.0115522
-0.0120947
-0.0125152
-0.0128062
-0.0129622
-0.0129792
-0.0128557
-0.0125921
-0.0121914
-0.011659
-0.0110026
-0.0102328
-0.00936259
-0.00840752
-0.00738592
-0.00631877
-0.00522994
-0.00414627
-0.00309792
-0.0021187
-0.00124657
-0.000524364
-2.90238e-07
0.000271094
0.000223948
0.000310957
0.0012571
0.00240621
0.00366716
0.00497216
0.00626886
0.00751798
0.00869131
0.00976951
0.0107402
0.0115963
0.0123349
0.0129556
0.0134601
0.0138512
0.0141325
0.0143075
0.0143796
0.0143521
0.0142276
0.0140084
0.0136961
0.0132924
0.0127982
0.0122147
0.011543
0.0107844
0.00994061
0.00901379
0.00800691
0.00692374
0.00576898
0.00454842
0.00326897
0.0019387
0.000566902
-0.00083597
-0.00225832
-0.00368748
-0.00510985
-0.00651101
-0.00787592
-0.0091891
-0.0104349
-0.0115976
-0.0126621
-0.0136136
-0.0144384
-0.015124
-0.0156594
-0.0160354
-0.0162449
-0.0162831
-0.016148
-0.0158398
-0.0153622
-0.0147216
-0.0139273
-0.0129922
-0.0119319
-0.0107656
-0.00951537
-0.00820665
-0.0068682
-0.00553217
-0.00423437
-0.00301448
-0.00191653
-0.00098941
-0.000287294
0.00012964
0.000190547
0.000494667
0.00178763
0.00326509
0.00483634
0.00643305
0.00800189
0.0095025
0.0109057
0.0121912
0.0133463
0.0143635
0.0152397
0.0159749
0.0165709
0.017031
0.0173591
0.0175591
0.0176351
0.0175906
0.0174286
0.0171517
0.0167619
0.016261
0.0156503
0.0149313
0.0141052
0.0131739
0.0121395
0.0110049
0.00977367
0.00845056
0.00704137
0.00555317
0.00399435
0.00237469
0.000705397
-0.00100096
-0.00273045
-0.00446792
-0.00619708
-0.0079007
-0.00956081
-0.0111589
-0.0126763
-0.0140942
-0.0153944
-0.0165594
-0.0175725
-0.0184188
-0.019085
-0.0195598
-0.0198348
-0.0199038
-0.0197641
-0.019416
-0.0188635
-0.0181138
-0.0171782
-0.0160715
-0.0148125
-0.0134235
-0.0119308
-0.0103643
-0.00875784
-0.00714894
-0.00557911
-0.00409397
-0.00274351
-0.0015825
-0.000670696
-7.3304e-05
0.000134795
0.000710555
0.00240426
0.00425449
0.00617215
0.00808959
0.00995368
0.0117241
0.0133714
0.0148755
0.0162234
0.017408
0.0184264
0.019279
0.019968
0.0204973
0.0208712
0.0210943
0.0211709
0.021105
0.0209
0.0205587
0.0200836
0.0194766
0.0187393
0.0178734
0.0168807
0.0157633
0.0145239
0.0131659
0.0116938
0.0101133
0.00843128
0.00665618
0.00479793
0.00286809
0.00087983
-0.00115207
-0.00321129
-0.00528007
-0.00733933
-0.00936891
-0.0113478
-0.0132542
-0.0150664
-0.0167623
-0.0183204
-0.01972
-0.0209418
-0.0219677
-0.0227821
-0.0233715
-0.0237255
-0.0238368
-0.0237017
-0.0233202
-0.0226965
-0.0218389
-0.0207602
-0.0194773
-0.0180119
-0.0163898
-0.0146415
-0.0128014
-0.0109085
-0.00900577
-0.00714059
-0.00536449
-0.00373339
-0.00230783
-0.00115294
-0.000338578
5.68593e-05
0.00095754
0.00310469
0.00537153
0.00767149
0.00993864
0.0121211
0.0141794
0.0160849
0.0178182
0.019367
0.0207248
0.0218894
0.0228617
0.0236448
0.024243
0.0246615
0.0249051
0.024979
0.0248873
0.0246339
0.024222
0.0236543
0.0229329
0.0220598
0.021037
0.0198664
0.0185508
0.0170932
0.0154978
0.0137699
0.0119161
0.00994443
0.00786476
0.00568857
0.0034292
0.00110186
-0.00127644
-0.00368691
-0.00610911
-0.00852114
-0.0108998
-0.0132208
-0.0154592
-0.0175897
-0.0195869
-0.021426
-0.0230829
-0.0245349
-0.025761
-0.0267428
-0.0274643
-0.0279131
-0.0280803
-0.0279609
-0.0275546
-0.0268656
-0.0259029
-0.0246807
-0.0232183
-0.0215399
-0.0196751
-0.0176582
-0.0155287
-0.0133305
-0.0111123
-0.00892733
-0.00683313
-0.00489164
-0.00316913
-0.00173604
-0.000666746
-4.30426e-05
0.00123453
0.00388638
0.00661278
0.00933046
0.011976
0.0144997
0.0168639
0.0190416
0.0210147
0.0227721
0.0243085
0.0256227
0.0267167
0.0275945
0.0282612
0.0287227
0.0289845
0.0290522
0.0289306
0.0286239
0.0281356
0.0274687
0.0266255
0.0256083
0.0244194
0.023061
0.0215363
0.0198489
0.0180036
0.0160064
0.013865
0.0115885
0.00918813
0.00667695
0.00407012
0.00138485
-0.00135959
-0.00414191
-0.00693898
-0.00972595
-0.0124765
-0.0151631
-0.0177574
-0.0202305
-0.0225535
-0.0246978
-0.0266358
-0.0283413
-0.0297901
-0.0309605
-0.031834
-0.0323956
-0.0326344
-0.0325442
-0.0321237
-0.0313771
-0.0303139
-0.0289495
-0.0273053
-0.0254083
-0.0232915
-0.0209934
-0.0185582
-0.0160353
-0.0134789
-0.0109484
-0.00850739
-0.00622394
-0.00417022
-0.00242205
-0.00105845
-0.000164777
0.00154044
0.00474662
0.00797444
0.0111445
0.0141967
0.0170843
0.0197723
0.0222359
0.024459
0.0264326
0.0281528
0.02962
0.0308375
0.0318105
0.0325452
0.0330481
0.0333258
0.0333843
0.033229
0.0328644
0.0322946
0.0315225
0.030551
0.0293826
0.0280196
0.0264648
0.0247216
0.0227942
0.020688
0.0184097
0.0159679
0.0133729
0.0106372
0.00777547
0.00480456
0.0017437
-0.00138558
-0.00455953
-0.00775229
-0.010936
-0.0140813
-0.0171572
-0.0201318
-0.0229726
-0.0256467
-0.0281219
-0.0303666
-0.0323509
-0.0340469
-0.0354296
-0.0364771
-0.0371718
-0.0375005
-0.0374553
-0.0370336
-0.0362392
-0.0350819
-0.0335782
-0.0317512
-0.0296307
-0.0272531
-0.0246611
-0.0219037
-0.0190357
-0.0161173
-0.0132139
-0.0103955
-0.00773663
-0.00531546
-0.00321349
-0.00151468
-0.000308382
0.00187415
0.00568256
0.00945236
0.0131086
0.0165951
0.0198689
0.0228981
0.0256611
0.0281446
0.0303417
0.0322509
0.0338744
0.0352172
0.0362859
0.037088
0.037631
0.0379225
0.037969
0.0377767
0.0373505
0.0366946
0.0358125
0.0347072
0.0333814
0.0318377
0.0300792
0.0281096
0.0259335
0.0235569
0.0209872
0.0182339
0.0153084
0.0122244
0.00899792
0.00564766
0.00219475
-0.00133708
-0.00492164
-0.00853035
-0.0121325
-0.0156952
-0.0191844
-0.0225644
-0.0257987
-0.0288507
-0.0316839
-0.0342628
-0.0365532
-0.0385233
-0.0401442
-0.0413905
-0.0422414
-0.042681
-0.042699
-0.0422916
-0.0414614
-0.0402184
-0.0385798
-0.0365704
-0.0342224
-0.0315756
-0.028677
-0.0255803
-0.0223459
-0.0190402
-0.015735
-0.0125069
-0.00943701
-0.00661005
-0.00411356
-0.00203693
-0.000474122
0.00223453
0.00669124
0.0110421
0.0152172
0.0191649
0.0228465
0.0262342
0.02931
0.0320638
0.0344918
0.0365951
0.0383783
0.0398483
0.0410134
0.0418826
0.0424647
0.0427682
0.0428006
0.0425685
0.0420774
0.0413319
0.0403359
0.0390923
0.0376043
0.0358746
0.0339065
0.031704
0.0292721
0.0266173
0.0237477
0.0206735
0.017407
0.0139631
0.0103593
0.00661578
0.00275558
-0.00119548
-0.00520881
-0.00925318
-0.0132949
-0.017298
-0.0212247
-0.0250357
-0.0286906
-0.0321484
-0.0353686
-0.0383109
-0.040937
-0.0432105
-0.0450982
-0.0465709
-0.0476039
-0.0481781
-0.0482807
-0.0479055
-0.0470542
-0.0457361
-0.0439689
-0.0417787
-0.0392002
-0.0362764
-0.0330583
-0.0296048
-0.025982
-0.0222624
-0.0185246
-0.0148524
-0.0113337
-0.00806033
-0.0051264
-0.00262734
-0.000662535
0.00262044
0.00776955
0.0127391
0.0174645
0.0218994
0.0260098
0.0297727
0.0331743
0.0362084
0.0388747
0.0411773
0.0431235
0.0447226
0.0459851
0.0469214
0.047542
0.0478564
0.0478729
0.047599
0.0470407
0.046203
0.04509
0.043705
0.0420511
0.0401314
0.0379493
0.0355091
0.032816
0.0298769
0.0267005
0.0232976
0.0196814
0.0158678
0.0118755
0.00772627
0.0034448
-0.000941068
-0.00540045
-0.00989954
-0.0144017
-0.0188679
-0.0232567
-0.027525
-0.0316283
-0.0355214
-0.0391589
-0.0424961
-0.0454897
-0.0480984
-0.0502845
-0.0520141
-0.0532583
-0.0539941
-0.0542054
-0.0538836
-0.0530283
-0.0516482
-0.0497607
-0.0473932
-0.0445824
-0.0413742
-0.0378242
-0.0339959
-0.0299615
-0.0258001
-0.0215973
-0.0174443
-0.0134368
-0.00967392
-0.00625718
-0.00328879
-0.000874452
0.00303067
0.00891423
0.0145383
0.0198442
0.0247911
0.0293506
0.033505
0.0372451
0.0405692
0.043481
0.0459882
0.048101
0.0498316
0.0511926
0.0521965
0.0528554
0.0531799
0.0531796
0.0528626
0.0522356
0.051304
0.0500722
0.0485436
0.0467217
0.0446095
0.0422106
0.0395293
0.0365713
0.0333435
0.0298552
0.0261176
0.0221447
0.0179532
0.013563
0.00899713
0.00428182
-0.000553215
-0.00547493
-0.010447
-0.0154301
-0.0203819
-0.0252575
-0.0300099
-0.0345904
-0.0389493
-0.0430363
-0.0468017
-0.0501969
-0.0531755
-0.0556944
-0.0577145
-0.0592021
-0.0601298
-0.0604775
-0.0602333
-0.0593945
-0.0579681
-0.0559712
-0.0534317
-0.0503881
-0.0468895
-0.0429951
-0.0387739
-0.034304
-0.0296715
-0.0249694
-0.020297
-0.015758
-0.0114599
-0.00751227
-0.00402495
-0.00111102
0.00346395
0.0101218
0.0164345
0.0223495
0.0278323
0.0328604
0.0374218
0.0415129
0.0451366
0.0483011
0.051018
0.0533012
0.0551657
0.0566268
0.0576991
0.0583965
0.0587312
0.0587138
0.0583533
0.057657
0.0566308
0.0552794
0.0536066
0.0516156
0.0493098
0.0466928
0.0437689
0.0405438
0.0370248
0.0332213
0.0291449
0.0248102
0.0202345
0.0154387
0.0104468
0.00528657
-1.06322e-05
-0.0054098
-0.0108723
-0.016356
-0.0218156
-0.0272027
-0.0324663
-0.0375535
-0.0424098
-0.04698
-0.0512088
-0.0550422
-0.0584279
-0.0613169
-0.0636645
-0.0654314
-0.0665848
-0.0671002
-0.0669615
-0.0661629
-0.0647092
-0.0626164
-0.0599126
-0.0566377
-0.0528434
-0.0485931
-0.0439608
-0.0390309
-0.0338967
-0.0286593
-0.0234264
-0.0183107
-0.0134289
-0.00889925
-0.00484034
-0.0013737
0.00391895
0.0113888
0.0184221
0.0249733
0.0310146
0.0365299
0.0415133
0.0459671
0.0498997
0.053324
0.056256
0.0587134
0.0607146
0.0622777
0.0634198
0.0641566
0.0645019
0.0644678
0.0640641
0.0632989
0.0621785
0.060708
0.0588913
0.0567319
0.0542329
0.051398
0.0482315
0.0447391
0.0409281
0.0368079
0.0323905
0.0276907
0.0227264
0.0175191
0.0120937
0.00647919
0.000708351
-0.00518201
-0.0111511
-0.0171543
-0.0231433
-0.0290662
-0.0348683
-0.0404922
-0.0458785
-0.0509667
-0.0556961
-0.0600063
-0.063839
-0.0671386
-0.069854
-0.0719395
-0.0733565
-0.0740746
-0.0740733
-0.0733424
-0.0718839
-0.0697121
-0.0668545
-0.0633519
-0.0592585
-0.0546415
-0.0495801
-0.0441652
-0.0384977
-0.0326871
-0.0268505
-0.0211104
-0.0155931
-0.010427
-0.00574034
-0.00166431
0.00439427
0.0127111
0.0204952
0.0277082
0.0343291
0.0403491
0.0457688
0.0505968
0.0548472
0.0585383
0.0616907
0.0643264
0.0664672
0.0681345
0.069348
0.0701256
0.0704829
0.0704331
0.0699874
0.0691545
0.0679414
0.0663533
0.0643945
0.0620683
0.059378
0.0563271
0.0529198
0.0491615
0.0450595
0.0406232
0.0358645
0.0307984
0.0254431
0.0198203
0.0139559
0.00787961
0.00162545
-0.00476825
-0.0112588
-0.0177991
-0.0243381
-0.0308207
-0.0371882
-0.0433788
-0.0493283
-0.0549707
-0.0602391
-0.065067
-0.069389
-0.0731426
-0.0762695
-0.0787168
-0.0804391
-0.0813995
-0.0815715
-0.0809402
-0.0795035
-0.0772731
-0.0742754
-0.0705516
-0.0661578
-0.0611646
-0.0556568
-0.0497317
-0.0434983
-0.0370752
-0.0305895
-0.024174
-0.0179663
-0.0121057
-0.00673122
-0.00198499
0.00488841
0.0140849
0.0226477
0.030546
0.0377665
0.0443076
0.0501771
0.0553901
0.059967
0.0639316
0.0673097
0.0701277
0.0724115
0.0741856
0.0754726
0.0762928
0.0766637
0.0766002
0.0761144
0.0752159
0.0739124
0.0722094
0.0701113
0.0676216
0.0647433
0.0614798
0.057835
0.0538141
0.0494241
0.0446741
0.0395759
0.0341443
0.0283975
0.0223576
0.0160507
0.00950721
0.00276201
-0.00414527
-0.0111703
-0.0182639
-0.0253723
-0.0324374
-0.0393966
-0.0461839
-0.05273
-0.0589633
-0.0648106
-0.0701986
-0.0750547
-0.0793086
-0.0828941
-0.0857502
-0.0878237
-0.0890702
-0.0894563
-0.0889609
-0.0875771
-0.085313
-0.0821928
-0.0782573
-0.0735643
-0.0681876
-0.062217
-0.0557568
-0.0489242
-0.0418477
-0.034665
-0.0275207
-0.0205642
-0.0139469
-0.00782015
-0.00233821
0.00539979
0.0155058
0.0248729
0.0334785
0.0413169
0.0483944
0.0547261
0.0603344
0.065246
0.0694907
0.0730998
0.0761043
0.0785343
0.0804179
0.0817809
0.0826461
0.083033
0.0829581
0.0824348
0.0814738
0.0800832
0.078269
0.0760357
0.0733868
0.0703252
0.0668539
0.0629766
0.0586981
0.0540248
0.0489655
0.0435316
0.0377375
0.0316012
0.0251447
0.0183942
0.0113803
0.0041386
-0.00329032
-0.0108608
-0.0185219
-0.0262175
-0.0338864
-0.0414626
-0.0488758
-0.0560517
-0.0629129
-0.0693799
-0.075372
-0.0808089
-0.085612
-0.0897063
-0.0930221
-0.0954971
-0.0970783
-0.097724
-0.0974061
-0.0961112
-0.0938429
-0.0906223
-0.0864888
-0.081501
-0.0757357
-0.0692875
-0.0622678
-0.0548025
-0.0470304
-0.0391009
-0.0311711
-0.0234036
-0.0159635
-0.00901519
-0.00272681
0.00592673
0.0169692
0.0271639
0.0364966
0.0449697
0.0525976
0.0594034
0.0654164
0.0706705
0.0752016
0.0790467
0.0822418
0.0848215
0.0868178
0.0882595
0.0891722
0.0895778
0.0894945
0.0889371
0.0879172
0.0864437
0.0845228
0.0821595
0.0793569
0.076118
0.0724453
0.0683421
0.0638125
0.0588626
0.0535004
0.0477366
0.0415852
0.0350636
0.0281934
0.0210005
0.0135156
0.00577449
-0.00218165
-0.0103061
-0.0185466
-0.0268449
-0.0351372
-0.0433541
-0.0514212
-0.0592592
-0.0667851
-0.0739127
-0.0805538
-0.0866199
-0.0920236
-0.0966801
-0.10051
-0.103441
-0.10541
-0.106367
-0.106273
-0.105109
-0.102871
-0.0995775
-0.0952643
-0.0899901
-0.0838342
-0.0768959
-0.0692934
-0.0611618
-0.052651
-0.0439227
-0.0351479
-0.0265036
-0.0181696
-0.0103253
-0.00315395
0.00646749
0.0184705
0.0295136
0.0395911
0.0487141
0.0569052
0.0641955
0.0706222
0.0762259
0.0810494
0.0851354
0.0885252
0.091258
0.09337
0.0948934
0.0958567
0.0962841
0.0961958
0.0956081
0.0945336
0.0929819
0.0909599
0.0884725
0.085523
0.0821138
0.0782474
0.0739262
0.069154
0.0639358
0.0582789
0.0521932
0.0456918
0.0387915
0.0315129
0.0238816
0.0159278
0.00768714
-0.000798973
-0.00948326
-0.0183123
-0.0272262
-0.0361589
-0.0450379
-0.0537851
-0.0623163
-0.0705427
-0.0783716
-0.085707
-0.0924519
-0.0985092
-0.103784
-0.108186
-0.111632
-0.114048
-0.115371
-0.115554
-0.114569
-0.112403
-0.109069
-0.1046
-0.0990522
-0.0925076
-0.0850694
-0.0768625
-0.0680317
-0.0587383
-0.0491576
-0.0394752
-0.0298842
-0.0205807
-0.0117604
-0.00362314
0.00702019
0.0200046
0.0319142
0.0427523
0.0525386
0.0613043
0.0690888
0.075937
0.0818971
0.0870184
0.0913498
0.0949382
0.0978276
0.100058
0.101666
0.102683
0.103136
0.103047
0.102433
0.101308
0.099684
0.0975669
0.0949623
0.0918733
0.0883023
0.0842509
0.0797212
0.074716
0.0692396
0.0632981
0.0569006
0.0500589
0.0427887
0.0351098
0.0270467
0.0186289
0.00989161
0.0008759
-0.00837075
-0.0177942
-0.0273336
-0.0369207
-0.0464806
-0.0559314
-0.0651847
-0.074146
-0.0827158
-0.0907906
-0.0982642
-0.10503
-0.110981
-0.116017
-0.12004
-0.122965
-0.124717
-0.125237
-0.124484
-0.122439
-0.119103
-0.114508
-0.108706
-0.101779
-0.0938348
-0.0850046
-0.0754427
-0.0653226
-0.0548341
-0.0441789
-0.0335674
-0.0232135
-0.0133311
-0.00413824
0.00758293
0.0215664
0.034358
0.0459701
0.0564314
0.0657817
0.0740688
0.0813457
0.087668
0.0930921
0.0976731
0.101464
0.104513
0.106865
0.108561
0.109635
0.110116
0.110029
0.109394
0.108225
0.106534
0.104328
0.101614
0.0983938
0.0946699
0.0904435
0.0857159
0.080489
0.0747659
0.0685518
0.0618544
0.0546841
0.0470555
0.0389869
0.0305015
0.0216278
0.0124
0.00285849
-0.00694954
-0.0169698
-0.0271407
-0.0373927
-0.0476487
-0.0578236
-0.0678248
-0.0775528
-0.0869015
-0.0957595
-0.104012
-0.11154
-0.118229
-0.123961
-0.128629
-0.132131
-0.13438
-0.135302
-0.134843
-0.132972
-0.129683
-0.124997
-0.118966
-0.11167
-0.103218
-0.0937484
-0.0834253
-0.0724349
-0.0609821
-0.0492862
-0.0375764
-0.0260862
-0.0150491
-0.00470345
0.00815371
0.0231505
0.0368369
0.0492342
0.0603803
0.0703236
0.0791206
0.0868323
0.0935221
0.0992533
0.104088
0.108084
0.111295
0.113773
0.115559
0.116693
0.117206
0.117125
0.116473
0.115264
0.113512
0.111226
0.108409
0.105067
0.1012
0.0968098
0.0918959
0.0864596
0.0805029
0.0740298
0.0670463
0.0595615
0.0515882
0.0431431
0.0342479
0.0249296
0.0152208
0.00516101
-0.00520351
-0.0158189
-0.0266232
-0.0375464
-0.0485094
-0.0594248
-0.0701964
-0.0807196
-0.0908822
-0.100565
-0.109644
-0.117991
-0.125477
-0.131973
-0.137355
-0.141507
-0.144325
-0.14572
-0.145624
-0.143991
-0.140803
-0.136073
-0.129845
-0.122198
-0.113242
-0.103122
-0.0920102
-0.0801067
-0.0676325
-0.0548256
-0.0419357
-0.0292178
-0.0169269
-0.00532331
0.00873048
0.0247516
0.0393425
0.0525341
0.0643727
0.074916
0.0842289
0.0923805
0.0994421
0.105484
0.110575
0.114779
0.118156
0.12076
0.122639
0.123836
0.124384
0.124314
0.123649
0.122406
0.1206
0.118238
0.115329
0.111873
0.107874
0.103331
0.098243
0.0926108
0.086435
0.0797178
0.0724638
0.0646805
0.0563786
0.047573
0.0382834
0.0285349
0.0183585
0.00779177
-0.00312016
-0.0143244
-0.0257595
-0.0373552
-0.0490316
-0.0606991
-0.0722587
-0.0836014
-0.0946094
-0.105156
-0.115109
-0.124328
-0.132671
-0.139997
-0.146166
-0.151044
-0.15451
-0.156457
-0.1568
-0.155475
-0.152452
-0.147731
-0.141348
-0.133377
-0.123928
-0.113151
-0.101227
-0.0883696
-0.0748167
-0.0608266
-0.0466711
-0.0326286
-0.0189778
-0.0060027
0.00931117
0.026364
0.0418666
0.0558589
0.0683961
0.0795447
0.0893781
0.0979737
0.10541
0.111766
0.117115
0.12153
0.125074
0.127807
0.129781
0.131042
0.131629
0.131572
0.130898
0.129626
0.127771
0.125343
0.122348
0.118789
0.114668
0.109984
0.104735
0.0989217
0.092542
0.0855973
0.0780901
0.0700261
0.0614139
0.0522663
0.0426007
0.0324399
0.0218126
0.0107545
-0.000691268
-0.0124734
-0.0245315
-0.0367959
-0.0491863
-0.0616121
-0.073972
-0.0861534
-0.0980332
-0.109478
-0.120347
-0.130489
-0.13975
-0.147974
-0.155003
-0.160687
-0.164884
-0.167468
-0.168333
-0.167398
-0.164613
-0.159964
-0.153476
-0.145217
-0.135294
-0.12386
-0.111104
-0.0972548
-0.0825666
-0.0673195
-0.0518093
-0.0363399
-0.0212158
-0.00674685
0.0098937
0.0279823
0.0444007
0.0591979
0.0724378
0.0841953
0.0945525
0.103595
0.111409
0.11808
0.12369
0.128315
0.132027
0.134891
0.136961
0.138289
0.138916
0.138875
0.138196
0.1369
0.135002
0.132514
0.129441
0.125788
0.121556
0.116743
0.111348
0.105367
0.0988
0.0916451
0.0839034
0.0755783
0.0666763
0.0572076
0.0471872
0.0366352
0.0255778
0.014048
0.00208648
-0.0102575
-0.0229254
-0.0358486
-0.0489478
-0.0621319
-0.0752979
-0.0883309
-0.101103
-0.113476
-0.125299
-0.136412
-0.146648
-0.155835
-0.163799
-0.170371
-0.175386
-0.178698
-0.180176
-0.179719
-0.177255
-0.172753
-0.166222
-0.15772
-0.147351
-0.135268
-0.121669
-0.106792
-0.0909137
-0.074335
-0.057378
-0.040374
-0.0236558
-0.00756132
0.010476
0.029601
0.0469366
0.0625404
0.0764849
0.0888535
0.0997362
0.109227
0.117419
0.124407
0.130277
0.135115
0.138995
0.141988
0.144156
0.145551
0.146219
0.146197
0.145516
0.144199
0.142264
0.139721
0.136579
0.132841
0.128508
0.123579
0.11805
0.111918
0.10518
0.0978337
0.0898773
0.0813123
0.0721427
0.0623763
0.052025
0.0411061
0.0296428
0.0176652
0.0052109
-0.00767359
-0.0209323
-0.0344986
-0.0482945
-0.0622297
-0.0762009
-0.0900912
-0.10377
-0.117093
-0.129902
-0.142029
-0.153293
-0.163507
-0.17248
-0.180022
-0.185947
-0.190081
-0.192272
-0.19239
-0.190341
-0.18607
-0.17957
-0.170883
-0.160107
-0.147392
-0.132942
-0.11701
-0.099889
-0.0819042
-0.0634053
-0.044754
-0.0263133
-0.00845198
0.011056
0.0312146
0.049466
0.065876
0.0805252
0.093505
0.104914
0.114852
0.123424
0.130727
0.136857
0.141905
0.145953
0.149076
0.15134
0.152802
0.153512
0.15351
0.152829
0.151494
0.149525
0.146934
0.143729
0.139915
0.135491
0.130457
0.124809
0.118541
0.11165
0.104131
0.0959807
0.0871982
0.077785
0.0677461
0.0570904
0.045832
0.0339908
0.0215933
0.00867385
-0.00472455
-0.0185491
-0.032736
-0.0472098
-0.0618817
-0.076649
-0.0913944
-0.105985
-0.120273
-0.134094
-0.14727
-0.159609
-0.17091
-0.180964
-0.189559
-0.196485
-0.201543
-0.204551
-0.205351
-0.20382
-0.199878
-0.193494
-0.184693
-0.173559
-0.160241
-0.144946
-0.127935
-0.109522
-0.0900575
-0.06992
-0.0495036
-0.0292047
-0.00942505
0.0116319
0.0328181
0.0519811
0.0691946
0.0845465
0.0981361
0.110069
0.120455
0.129403
0.13702
0.143409
0.148666
0.152879
0.156129
0.158487
0.160015
0.160766
0.160783
0.160103
0.158753
0.156753
0.154118
0.150857
0.146974
0.14247
0.137343
0.131588
0.1252
0.118173
0.1105
0.102177
0.093201
0.0835696
0.0732853
0.0623541
0.0507864
0.0385985
0.0258132
0.0124608
-0.00141956
-0.015779
-0.0305576
-0.0456829
-0.061069
-0.0766151
-0.0922046
-0.107704
-0.122962
-0.137811
-0.152064
-0.165519
-0.177961
-0.189163
-0.198891
-0.206911
-0.212995
-0.216931
-0.218527
-0.21763
-0.214126
-0.207958
-0.199126
-0.187701
-0.17382
-0.157692
-0.139589
-0.119841
-0.098825
-0.0769507
-0.0546471
-0.0323467
-0.010487
0.0122017
0.0344066
0.0544747
0.0724866
0.0885375
0.102734
0.115188
0.126018
0.13534
0.143268
0.149912
0.155373
0.159748
0.163122
0.165571
0.167162
0.167951
0.167987
0.167306
0.165941
0.163913
0.161237
0.157925
0.15398
0.149404
0.144194
0.138346
0.131853
0.124707
0.116901
0.108427
0.0992812
0.0894581
0.0789572
0.0677812
0.0559369
0.0434368
0.0302994
0.0165507
0.0022254
-0.0126322
-0.0279667
-0.0437098
-0.0597795
-0.0760781
-0.0924911
-0.108886
-0.12511
-0.140993
-0.156341
-0.170944
-0.184573
-0.196984
-0.207922
-0.217127
-0.224342
-0.229319
-0.231834
-0.231694
-0.22875
-0.222911
-0.214149
-0.202512
-0.188124
-0.171191
-0.151991
-0.130871
-0.108235
-0.0845257
-0.0602091
-0.0357565
-0.0116447
0.0127639
0.0359758
0.0569401
0.0757435
0.0924875
0.107285
0.120257
0.131526
0.141217
0.149451
0.156344
0.162005
0.166536
0.170028
0.172563
0.174212
0.175036
0.175087
0.174405
0.173023
0.170967
0.168253
0.164893
0.160892
0.156252
0.15097
0.14504
0.138456
0.131208
0.123288
0.114686
0.105395
0.0954073
0.0847198
0.0733314
0.0612455
0.0484703
0.0350199
0.0209158
0.00618741
-0.00912591
-0.0249739
-0.0412937
-0.058008
-0.0750237
-0.0922299
-0.109496
-0.126671
-0.143582
-0.160033
-0.175804
-0.190657
-0.20433
-0.216548
-0.227026
-0.235474
-0.241611
-0.245172
-0.245923
-0.243674
-0.238292
-0.229716
-0.217963
-0.20314
-0.185442
-0.165153
-0.142634
-0.118315
-0.092673
-0.0662141
-0.039452
-0.0129053
0.0133169
0.0375218
0.0593712
0.0789573
0.0963871
0.11178
0.125262
0.136964
0.147018
0.15555
0.162686
0.168539
0.173219
0.176822
0.179436
0.181136
0.181989
0.18205
0.181362
0.179962
0.177877
0.175125
0.17172
0.167667
0.162969
0.157624
0.151624
0.144962
0.137629
0.129614
0.120905
0.111494
0.10137
0.0905263
0.0789594
0.0666686
0.0536578
0.0399367
0.0255215
0.0104365
-0.00528465
-0.0215977
-0.0384458
-0.0557577
-0.0734458
-0.0914044
-0.109507
-0.127606
-0.145528
-0.163075
-0.180024
-0.196125
-0.211103
-0.224663
-0.236495
-0.246277
-0.253691
-0.258429
-0.260213
-0.258804
-0.254023
-0.245764
-0.234011
-0.218842
-0.200439
-0.179082
-0.155148
-0.129089
-0.101419
-0.0726868
-0.0434511
-0.0142759
0.0138596
0.0390415
0.0617634
0.0821217
0.100228
0.116207
0.130192
0.142319
0.152726
0.161549
0.168917
0.174953
0.179772
0.183477
0.18616
0.187904
0.188778
0.188841
0.188142
0.186719
0.184602
0.181812
0.178362
0.174261
0.16951
0.164108
0.158048
0.151322
0.143919
0.135827
0.127034
0.117527
0.107294
0.0963261
0.0846155
0.0721578
0.0589529
0.0450057
0.0303272
0.014936
-0.0011404
-0.0178643
-0.0351855
-0.0530398
-0.0713467
-0.0900069
-0.1089
-0.127883
-0.146786
-0.165411
-0.183531
-0.200891
-0.217204
-0.232157
-0.245415
-0.256626
-0.265432
-0.271482
-0.274446
-0.274033
-0.27001
-0.26222
-0.2506
-0.235195
-0.216162
-0.193778
-0.168424
-0.140578
-0.110789
-0.0796513
-0.0477719
-0.0157643
0.0143911
0.0405325
0.0641129
0.0852315
0.104004
0.120559
0.135036
0.147578
0.158328
0.167429
0.175018
0.181225
0.186171
0.189965
0.192707
0.194483
0.195368
0.195425
0.194707
0.193255
0.191101
0.188269
0.184774
0.180625
0.175826
0.170374
0.164263
0.157484
0.150026
0.141875
0.133017
0.123439
0.113126
0.102065
0.0902458
0.0776605
0.0643044
0.0501777
0.0352862
0.0196426
0.00326779
-0.0138074
-0.0315403
-0.0498747
-0.068738
-0.0880391
-0.107666