/*--------------------------------*- C++ -*----------------------------------*\
  =========                 |
  \\      /  F ield         | OpenFOAM: The Open Source CFD Toolbox
   \\    /   O peration     | Website:  https://openfoam.org
    \\  /    A nd           | Version:  dev
     \\/     M anipulation  |
\*---------------------------------------------------------------------------*/
FoamFile
{
    format      ascii;
    class       volScalarField;
    location    "3.15";
    object      p;
}
// * * * * * * * * * * * * * * * * * * * * * * * * * * * * * * * * * * * * * //

dimensions      [0 2 -2 0 0 0 0];

internalField   nonuniform List<scalar> 
400
(
-2.49777e-08
-0.00046569
-0.000919
-0.00119337
-0.00120028
-0.000906755
-0.000309471
0.000579646
0.00173459
0.00310848
0.00462522
0.00617406
0.00761485
0.00879375
0.00957352
0.00987181
0.00969833
0.00917595
0.00851891
0.00805293
0.000451195
-2.93451e-05
-0.00037213
-0.000526994
-0.000469477
-0.000177225
0.000355853
0.0011236
0.00210751
0.00327063
0.00455069
0.00585914
0.00707891
0.00808432
0.0087638
0.00905173
0.00895779
0.00857823
0.0080662
0.00759754
0.000921653
0.000274208
-8.94767e-05
-0.00021511
-0.000143196
0.000132202
0.000614528
0.00130146
0.0021831
0.00323404
0.00440476
0.00561706
0.00676346
0.00772147
0.00837669
0.00865536
0.00855625
0.00816031
0.00757573
0.00690212
0.00121923
0.000352536
-9.3121e-05
-0.000240108
-0.000186448
5.80562e-05
0.000493689
0.00112249
0.00194482
0.00294814
0.00409474
0.00531583
0.00650075
0.0075148
0.00822052
0.00851596
0.00837707
0.00787421
0.00709585
0.00612477
0.00118859
0.00010424
-0.000437989
-0.000626517
-0.000609347
-0.000408718
-2.51725e-05
0.000550048
0.00133028
0.00231884
0.00349195
0.00479493
0.00610756
0.00727471
0.00812017
0.00849334
0.00832976
0.00768414
0.00663766
0.0052827
0.000703284
-0.000586325
-0.0012287
-0.00147168
-0.00150748
-0.00136778
-0.00105134
-0.000539823
0.000196819
0.00118449
0.0024252
0.00386333
0.00539405
0.00683271
0.0079469
0.00850995
0.00838672
0.00759693
0.00621285
0.00435659
-0.000344273
-0.00182602
-0.00256977
-0.00287966
-0.00298915
-0.00293791
-0.00272134
-0.00230897
-0.0016495
-0.000687798
0.000611213
0.00222786
0.00406571
0.00591993
0.00748915
0.00843387
0.0084973
0.0076188
0.00583426
0.00330636
-0.0020516
-0.00371316
-0.00455971
-0.00495163
-0.00516357
-0.0052443
-0.00518627
-0.00494591
-0.00444632
-0.0035929
-0.00229834
-0.000522544
0.00168086
0.00410877
0.00638753
0.00802148
0.00855286
0.00775061
0.00553777
0.00210841
-0.00450764
-0.00633798
-0.00728923
-0.00778051
-0.00813141
-0.00840426
-0.00859235
-0.00864109
-0.00844621
-0.00786361
-0.00673023
-0.0049076
-0.00235345
0.00078414
0.00408402
0.00685921
0.00834344
0.00797903
0.00541008
0.000801848
-0.00778988
-0.00978024
-0.0108344
-0.0114369
-0.0119618
-0.0124941
-0.013036
-0.0135287
-0.0138438
-0.0137816
-0.0130806
-0.0114564
-0.00869877
-0.00480677
-0.000173229
0.00432909
0.00751288
0.00825985
0.00562386
-0.0004383
-0.0119624
-0.0141084
-0.0152489
-0.0159501
-0.0166599
-0.0175013
-0.0184981
-0.0195989
-0.0206603
-0.0214292
-0.0215318
-0.0204969
-0.0178549
-0.0133384
-0.00716742
-0.000307194
0.00557802
0.00852453
0.00649369
-0.0011672
-0.0170827
-0.0193864
-0.0205593
-0.0212869
-0.02213
-0.0232714
-0.0247713
-0.0266001
-0.0286132
-0.0305143
-0.0318168
-0.0318372
-0.0297804
-0.0249852
-0.0173051
-0.0075852
0.00212673
0.00878317
0.00858294
-0.000427125
-0.0232321
-0.0256969
-0.0267663
-0.0273331
-0.0281425
-0.0294648
-0.0314092
-0.0339771
-0.0370338
-0.0402525
-0.0430459
-0.0445178
-0.0435128
-0.0389232
-0.030028
-0.0172494
-0.0027127
0.0094247
0.0129307
0.00366031
-0.0305981
-0.0331929
-0.0338539
-0.0338774
-0.0343148
-0.035548
-0.0377328
-0.0408977
-0.044914
-0.0494261
-0.0537556
-0.0568116
-0.0570851
-0.0530986
-0.0433744
-0.0276435
-0.00763797
0.0117238
0.0214692
0.0144505
-0.0396728
-0.042192
-0.0417951
-0.040595
-0.0401137
-0.0408324
-0.0429195
-0.046398
-0.0511172
-0.056671
-0.0622798
-0.0667019
-0.0682284
-0.06464
-0.0541545
-0.0355794
-0.00978442
0.0183171
0.0374794
0.0371462
-0.0517087
-0.0533358
-0.0505225
-0.0470112
-0.0448744
-0.0445603
-0.0461558
-0.0496081
-0.054682
-0.0608753
-0.0672683
-0.0724262
-0.0743697
-0.0706409
-0.0588764
-0.0370333
-0.00500675
0.033331
0.0656927
0.0784788
-0.0698079
-0.0678457
-0.0599186
-0.0525451
-0.0479107
-0.0460684
-0.0468488
-0.0500061
-0.0551299
-0.0615357
-0.0681196
-0.0732319
-0.0746327
-0.0695527
-0.0550552
-0.0285963
0.0110017
0.0619354
0.112289
0.14775
-0.102336
-0.0875707
-0.0696775
-0.0565045
-0.0485333
-0.0448285
-0.0446962
-0.0475028
-0.0525364
-0.058865
-0.0651635
-0.0695542
-0.0695334
-0.0619395
-0.0433097
-0.0101835
0.0400833
0.107405
0.185313
0.265654
-0.175236
-0.112098
-0.074328
-0.0540751
-0.0432014
-0.0383844
-0.0381222
-0.0412193
-0.0465788
-0.0530438
-0.0591449
-0.0628838
-0.061623
-0.0517229
-0.0293963
0.0102947
0.0729298
0.164351
0.291627
0.46659
-0.342956
-0.133458
-0.0551894
-0.0331154
-0.0246502
-0.0220506
-0.0240346
-0.0291804
-0.036158
-0.04378
-0.0506365
-0.0548081
-0.053782
-0.0445131
-0.0220445
0.0192947
0.0887802
0.204731
0.402282
0.733143
)
;

boundaryField
{
    movingWall
    {
        type            zeroGradient;
    }
    fixedWalls
    {
        type            zeroGradient;
    }
    frontAndBack
    {
        type            empty;
    }
}


// ************************************************************************* //
