/*--------------------------------*- C++ -*----------------------------------*\
  =========                 |
  \\      /  F ield         | OpenFOAM: The Open Source CFD Toolbox
   \\    /   O peration     | Website:  https://openfoam.org
    \\  /    A nd           | Version:  dev
     \\/     M anipulation  |
\*---------------------------------------------------------------------------*/
FoamFile
{
    format      ascii;
    class       surfaceScalarField;
    location    "3.15";
    object      phi;
}
// * * * * * * * * * * * * * * * * * * * * * * * * * * * * * * * * * * * * * //

dimensions      [0 3 -1 0 0 0 0];

internalField   nonuniform List<scalar> 
760
(
4.72415e-07
-4.72343e-07
-3.14585e-06
3.61827e-06
-1.06154e-05
7.46951e-06
-2.04717e-05
9.85633e-06
-3.1408e-05
1.09362e-05
-4.23959e-05
1.09879e-05
-5.2597e-05
1.02011e-05
-6.12549e-05
8.65783e-06
-6.76255e-05
6.3707e-06
-7.09815e-05
3.35597e-06
-7.06903e-05
-2.91095e-07
-6.63764e-05
-4.31391e-06
-5.81004e-05
-8.27608e-06
-4.65324e-05
-1.15679e-05
-3.30167e-05
-1.35157e-05
-1.94689e-05
-1.35477e-05
-8.06393e-06
-1.1405e-05
-7.3116e-07
-7.33278e-06
1.58025e-06
-2.31143e-06
1.58022e-06
-3.68484e-06
3.21253e-06
-1.62278e-05
1.61611e-05
-3.60708e-05
2.73126e-05
-6.06459e-05
3.44313e-05
-8.73824e-05
3.76728e-05
-0.000113995
3.76008e-05
-0.000138468
3.46741e-05
-0.000158951
2.9141e-05
-0.000173696
2.11158e-05
-0.000181103
1.07624e-05
-0.000179913
-1.48119e-06
-0.000169452
-1.47743e-05
-0.000150043
-2.7685e-05
-0.000123238
-3.83728e-05
-9.19231e-05
-4.48308e-05
-6.00766e-05
-4.53942e-05
-3.21217e-05
-3.93599e-05
-1.19201e-05
-2.75344e-05
-1.63735e-06
-1.25943e-05
-5.71471e-08
-8.30102e-06
1.15135e-05
-2.97907e-05
3.76508e-05
-6.08754e-05
5.83971e-05
-9.78926e-05
7.14485e-05
-0.000137416
7.71958e-05
-0.000176375
7.65598e-05
-0.000212004
7.03034e-05
-0.000241734
5.88717e-05
-0.000263144
4.2525e-05
-0.000274034
2.16527e-05
-0.000272667
-2.84823e-06
-0.000258112
-2.93293e-05
-0.000230713
-5.50843e-05
-0.000192452
-7.66339e-05
-0.000147116
-9.01664e-05
-0.000100053
-9.24574e-05
-5.73743e-05
-8.20384e-05
-2.46589e-05
-6.02498e-05
-5.42884e-06
-3.18244e-05
-5.48598e-06
-1.23657e-05
2.38792e-05
-4.22051e-05
6.74902e-05
-8.36998e-05
9.98919e-05
-0.000131951
0.000119699
-0.000182782
0.000128027
-0.000232591
0.000126369
-0.000278152
0.000115864
-0.00031644
9.71596e-05
-0.000344548
7.06332e-05
-0.000359757
3.68614e-05
-0.0003598
-2.80445e-06
-0.00034322
-4.59095e-05
-0.000310018
-8.82867e-05
-0.000262141
-0.00012451
-0.000203873
-0.000148435
-0.000141739
-0.000154591
-8.36975e-05
-0.00014008
-3.75496e-05
-0.000106398
-8.97495e-06
-6.0399e-05
-1.44609e-05
-1.59388e-05
3.98179e-05
-5.34578e-05
0.000105009
-0.000104645
0.000151079
-0.000163371
0.000178426
-0.000224796
0.000189452
-0.000284951
0.000186524
-0.000340356
0.000171269
-0.000387714
0.000144518
-0.000423739
0.000106659
-0.00044516
5.82819e-05
-0.00044902
1.05568e-06
-0.000432936
-6.19938e-05
-0.000396086
-0.000125137
-0.000339832
-0.000180764
-0.000268542
-0.000219725
-0.000189861
-0.000233272
-0.00011404
-0.000215901
-5.20211e-05
-0.000168416
-1.26339e-05
-9.97863e-05
-2.70948e-05
-1.91634e-05
5.89813e-05
-6.37791e-05
0.000149625
-0.00012405
0.00021135
-0.000192717
0.000247093
-0.000264389
0.000261124
-0.000334887
0.000257022
-0.000400657
0.000237039
-0.000458286
0.000202147
-0.000504196
0.000152568
-0.000534542
8.86286e-05
-0.000545313
1.18264e-05
-0.000533027
-7.42803e-05
-0.000495288
-0.000162876
-0.000432202
-0.00024385
-0.000347613
-0.000304313
-0.000250061
-0.000330824
-0.000152562
-0.000313401
-7.04303e-05
-0.000250548
-1.71908e-05
-0.000153026
-4.42856e-05
-2.21287e-05
8.11101e-05
-7.33313e-05
0.000200827
-0.000142106
0.000280125
-0.000220191
0.000325178
-0.000301778
0.000342711
-0.000382648
0.000337892
-0.000459359
0.000313749
-0.000528557
0.000271346
-0.00058649
0.0002105
-0.000628734
0.000130873
-0.000650223
3.33155e-05
-0.000645776
-7.87272e-05
-0.000610955
-0.000197698
-0.000543719
-0.000311085
-0.000446439
-0.000401594
-0.000327861
-0.000449402
-0.000203891
-0.000437371
-9.56148e-05
-0.000358824
-2.35933e-05
-0.000225047
-6.78789e-05
-2.4862e-05
0.000105972
-8.21365e-05
0.000258102
-0.000158728
0.000356716
-0.000245473
0.000411923
-0.00033628
0.000433517
-0.000427064
0.000428677
-0.000514702
0.000401387
-0.000596126
0.000352769
-0.000667617
0.000281992
-0.000724343
0.000187599
-0.000760205
6.91775e-05
-0.000768198
-7.07337e-05
-0.000741337
-0.000224559
-0.000674532
-0.000377889
-0.00056734
-0.000508786
-0.000427275
-0.000589468
-0.000272409
-0.000592237
-0.000130691
-0.000500541
-3.29512e-05
-0.000322787
-0.00010083
-2.73527e-05
0.000133325
-9.01114e-05
0.000320861
-0.000173586
0.000440191
-0.000267738
0.000506075
-0.000366296
0.000532076
-0.000465482
0.000527862
-0.000562712
0.000498617
-0.000655477
0.000445535
-0.000740425
0.00036694
-0.000812684
0.000259858
-0.000865479
0.000121972
-0.000890218
-4.59951e-05
-0.000877274
-0.000237503
-0.000817802
-0.000437362
-0.000706979
-0.000619609
-0.000548752
-0.000747695
-0.000361141
-0.000779847
-0.000178816
-0.000682866
-4.6611e-05
-0.000454993
-0.000147441
-2.96187e-05
0.000162943
-9.72138e-05
0.000388456
-0.000186302
0.00052928
-0.000285882
0.000605654
-0.000389561
0.000635755
-0.000494016
0.000632318
-0.000597433
0.000602034
-0.000698173
0.000546275
-0.000793695
0.000462462
-0.000879692
0.000345855
-0.000949463
0.000191743
-0.000993591
-1.86661e-06
-0.0010004
-0.000230691
-0.000957174
-0.000480592
-0.00085336
-0.000723423
-0.000686335
-0.00091472
-0.000469901
-0.000996281
-0.000242643
-0.000910124
-6.62587e-05
-0.000631377
-0.0002137
-3.1827e-05
0.000194771
-0.000103711
0.00046034
-0.000196822
0.000622391
-0.000298961
0.000707793
-0.000403655
0.000740449
-0.000508194
0.000736857
-0.00061175
0.00070559
-0.000713883
0.000648408
-0.000813376
0.000561955
-0.000907271
0.000439751
-0.000990029
0.000274501
-0.00105284
6.09472e-05
-0.00108327
-0.000200262
-0.00106572
-0.000498148
-0.000983472
-0.000805666
-0.000824477
-0.00107372
-0.000592452
-0.00122831
-0.000323055
-0.00117952
-9.39488e-05
-0.000860483
-0.000307649
-3.44949e-05
0.000229265
-0.000110592
0.000536436
-0.00020594
0.000717739
-0.000306801
0.000808654
-0.000406752
0.0008404
-0.000503939
0.000834044
-0.000598769
0.000800421
-0.000692314
0.000741952
-0.000785176
0.000654817
-0.000876565
0.00053114
-0.000963371
0.000361307
-0.0010391
0.00013668
-0.00109274
-0.000146623
-0.00110802
-0.000482867
-0.00106335
-0.000850336
-0.000935872
-0.0012012
-0.000713128
-0.00145105
-0.000416763
-0.00147589
-0.000131824
-0.00114542
-0.000439473
-3.88275e-05
0.000268093
-0.000120136
0.000617745
-0.000215897
0.000813499
-0.00031057
0.000903327
-0.000398274
0.000928104
-0.000478515
0.000914285
-0.000553293
0.000875199
-0.000625478
0.000814137
-0.000697866
0.000727204
-0.000772456
0.00060573
-0.000849625
0.000438475
-0.000926924
0.000213979
-0.000996991
-7.65568e-05
-0.00104656
-0.000433297
-0.00105237
-0.000844527
-0.000982448
-0.00127112
-0.000804462
-0.00162904
-0.00051287
-0.00176748
-0.000181065
-0.00147723
-0.000620538
-4.72989e-05
0.000315392
-0.000136639
0.000707085
-0.000230779
0.00090764
-0.000312791
0.00098534
-0.000378703
0.000994015
-0.000430412
0.000965993
-0.000472081
0.000916868
-0.000508654
0.00085071
-0.000545269
0.000763819
-0.000586906
0.000647368
-0.000637872
0.000489441
-0.000700965
0.000277073
-0.000773884
-3.63789e-06
-0.000850913
-0.000356267
-0.000911649
-0.000783792
-0.000920847
-0.00126192
-0.000827879
-0.001722
-0.000589474
-0.00200588
-0.000239447
-0.00182725
-0.000859985
-6.46422e-05
0.000380034
-0.000167043
0.000809486
-0.00025586
0.000996457
-0.000315424
0.0010449
-0.000346773
0.00102536
-0.000356023
0.000975244
-0.000350351
0.000911196
-0.000337007
0.000837366
-0.000323308
0.00075012
-0.000316841
0.000640901
-0.000325432
0.000498032
-0.000356325
0.000307966
-0.000416587
5.66246e-05
-0.000504899
-0.000267956
-0.000613064
-0.000675627
-0.000710826
-0.00116416
-0.000738142
-0.00169469
-0.000611866
-0.00213216
-0.000297132
-0.00214199
-0.00115712
-9.91905e-05
0.000479225
-0.000220051
0.000930346
-0.000292844
0.00106925
-0.000311994
0.00106405
-0.000289545
0.00100291
-0.000238486
0.000924184
-0.000169908
0.000842618
-9.3351e-05
0.000760809
-1.7762e-05
0.000674531
4.76612e-05
0.000575477
9.28957e-05
0.000452797
0.000106726
0.000294136
7.73415e-05
8.60088e-05
-4.58595e-06
-0.000186028
-0.000142187
-0.000538026
-0.000321546
-0.0009848
-0.000489426
-0.00152681
-0.000533026
-0.00208856
-0.000331814
-0.0023432
-0.00148893
-0.000162952
0.000642177
-0.000296247
0.00106364
-0.000320003
0.00109301
-0.000261882
0.00100593
-0.00015433
0.000895363
-1.93574e-05
0.000789212
0.000128409
0.000694852
0.00027841
0.000610808
0.000421727
0.000531214
0.000549266
0.000447938
0.000650511
0.000351552
0.000712892
0.000231755
0.000721384
7.7516e-05
0.000659499
-0.000124143
0.000511258
-0.000389785
0.000270619
-0.000744161
-3.31894e-05
-0.001223
-0.000294413
-0.00182734
-0.000306922
-0.00233069
-0.00179585
-0.000261722
0.000903899
-0.000336345
0.00113826
-0.000221002
0.000977662
-1.75463e-05
0.000802478
0.000216997
0.00066082
0.000457291
0.000548918
0.000691164
0.000460979
0.000911592
0.000390381
0.0011131
0.000329701
0.00128951
0.000271529
0.0014324
0.000208663
0.00153011
0.000134051
0.00156695
4.06733e-05
0.00152395
-8.11393e-05
0.00137634
-0.000242176
0.00109756
-0.000465386
0.000675978
-0.000801414
0.000182855
-0.00133421
-0.000140203
-0.00200763
-0.00193606
-0.000257848
0.00116175
-2.707e-06
0.000883123
0.000419712
0.000555243
0.000824844
0.000397346
0.00118655
0.000299119
0.00150595
0.000229514
0.00178678
0.000180147
0.00203273
0.000144432
0.00224594
0.000116488
0.00242577
9.1703e-05
0.00256804
6.63928e-05
0.00266451
3.75776e-05
0.00270095
4.23215e-06
0.0026629
-4.30863e-05
0.00252193
-0.00010121
0.00224107
-0.000184527
0.00176825
-0.000328587
0.00107401
-0.000639979
0.000311735
-0.00124535
-0.00162432
0.00116175
0.00204487
0.00260011
0.00299746
0.00329658
0.00352609
0.00370624
0.00385067
0.00396716
0.00405886
0.00412526
0.00416283
0.00416706
0.00412398
0.00402277
0.00383824
0.00350965
0.00286967
0.00162432
)
;

boundaryField
{
    movingWall
    {
        type            calculated;
        value           uniform 0;
    }
    fixedWalls
    {
        type            calculated;
        value           uniform 0;
    }
    frontAndBack
    {
        type            empty;
    }
}


// ************************************************************************* //
