/*--------------------------------*- C++ -*----------------------------------*\
  =========                 |
  \\      /  F ield         | OpenFOAM: The Open Source CFD Toolbox
   \\    /   O peration     | Website:  https://openfoam.org
    \\  /    A nd           | Version:  dev
     \\/     M anipulation  |
\*---------------------------------------------------------------------------*/
FoamFile
{
    format      ascii;
    class       volVectorField;
    location    "3.15";
    object      U;
}
// * * * * * * * * * * * * * * * * * * * * * * * * * * * * * * * * * * * * * //

dimensions      [0 1 -1 0 0 0 0];

internalField   nonuniform List<vector> 
400
(
(0.000149999 -0.00015104 0)
(-8.52386e-05 0.000151895 0)
(-0.00125054 0.000465549 0)
(-0.00303912 0.000657053 0)
(-0.00516583 0.000743742 0)
(-0.00739883 0.00075478 0)
(-0.00955341 0.000708396 0)
(-0.0114723 0.000611111 0)
(-0.0130063 0.000461816 0)
(-0.0140062 0.000258451 0)
(-0.0143316 5.12469e-06 0)
(-0.0138753 -0.000282692 0)
(-0.0125993 -0.000571474 0)
(-0.0105729 -0.000813903 0)
(-0.00799894 -0.000955594 0)
(-0.00521192 -0.000948909 0)
(-0.00263538 -0.000770358 0)
(-0.000693012 -0.000437453 0)
(0.000284807 -3.23876e-05 0)
(0.000249737 0.000235222 0)
(-0.00015587 7.70252e-05 0)
(-0.00159065 0.00154912 0)
(-0.00493123 0.00290503 0)
(-0.00951222 0.00377058 0)
(-0.0147599 0.00417026 0)
(-0.0201967 0.00418638 0)
(-0.0253974 0.00388129 0)
(-0.0299782 0.00328503 0)
(-0.0335792 0.00240642 0)
(-0.0358606 0.0012574 0)
(-0.0365257 -0.000119196 0)
(-0.0353671 -0.00162667 0)
(-0.0323361 -0.0031005 0)
(-0.0276121 -0.00432006 0)
(-0.0216422 -0.00504341 0)
(-0.0151323 -0.0050685 0)
(-0.00895693 -0.0043088 0)
(-0.00398489 -0.00286147 0)
(-0.000887997 -0.00106986 0)
(6.23997e-05 0.000320332 0)
(-0.000522285 0.00129652 0)
(-0.00323479 0.00497155 0)
(-0.00865334 0.00803334 0)
(-0.0156718 0.00999073 0)
(-0.023489 0.0108769 0)
(-0.0314793 0.010831 0)
(-0.0390688 0.00997121 0)
(-0.0457263 0.00836521 0)
(-0.0509515 0.00604959 0)
(-0.0542751 0.00307791 0)
(-0.05529 -0.000422593 0)
(-0.0537104 -0.00420377 0)
(-0.0494587 -0.00787196 0)
(-0.0427555 -0.0109133 0)
(-0.0341791 -0.012772 0)
(-0.0246659 -0.0129871 0)
(-0.0154045 -0.0113634 0)
(-0.00761114 -0.00812251 0)
(-0.00231353 -0.00399654 0)
(-0.00020083 -0.00038172 0)
(-0.000834926 0.00338442 0)
(-0.00472128 0.0101509 0)
(-0.0120856 0.0153591 0)
(-0.0213339 0.0186034 0)
(-0.0314404 0.0200072 0)
(-0.0416726 0.019798 0)
(-0.0513649 0.018161 0)
(-0.0598958 0.0152054 0)
(-0.066672 0.0109981 0)
(-0.0711235 0.00563986 0)
(-0.0727363 -0.000644461 0)
(-0.0711154 -0.00743111 0)
(-0.0660895 -0.0140506 0)
(-0.0578327 -0.0196249 0)
(-0.0469605 -0.0231877 0)
(-0.0345732 -0.0239101 0)
(-0.0221653 -0.0213964 0)
(-0.0113674 -0.0159554 0)
(-0.00370284 -0.00874037 0)
(-0.000417524 -0.00182302 0)
(-0.00110012 0.00622922 0)
(-0.00604768 0.0169162 0)
(-0.0152201 0.024662 0)
(-0.0265469 0.0293361 0)
(-0.038788 0.0312624 0)
(-0.0511301 0.0308105 0)
(-0.0628555 0.0282515 0)
(-0.0732947 0.0237341 0)
(-0.0817924 0.0173421 0)
(-0.0876882 0.00920256 0)
(-0.0903414 -0.000383317 0)
(-0.0891924 -0.0108172 0)
(-0.083886 -0.0211491 0)
(-0.0744394 -0.0300772 0)
(-0.0614004 -0.0361083 0)
(-0.0459762 -0.0378797 0)
(-0.0300012 -0.0346195 0)
(-0.0156639 -0.0266084 0)
(-0.00520092 -0.0154266 0)
(-0.000609291 -0.00395147 0)
(-0.00133421 0.00975081 0)
(-0.00725175 0.0251531 0)
(-0.0181083 0.035834 0)
(-0.0313935 0.0420982 0)
(-0.045674 0.0445851 0)
(-0.0600821 0.0438719 0)
(-0.0738836 0.0403399 0)
(-0.0863971 0.034172 0)
(-0.0969327 0.0254398 0)
(-0.104746 0.0142516 0)
(-0.109036 0.000931337 0)
(-0.109024 -0.0138028 0)
(-0.104073 -0.0287266 0)
(-0.0938988 -0.0420649 0)
(-0.0788419 -0.0516531 0)
(-0.0601194 -0.0553497 0)
(-0.0399167 -0.0517111 0)
(-0.0211516 -0.0407627 0)
(-0.0070951 -0.024496 0)
(-0.00083676 -0.00686629 0)
(-0.00154719 0.0138898 0)
(-0.00836033 0.0347574 0)
(-0.0207863 0.0487669 0)
(-0.0359126 0.0568015 0)
(-0.0521395 0.0599319 0)
(-0.0685745 0.0590142 0)
(-0.0845033 0.0545689 0)
(-0.0992711 0.046803 0)
(-0.112185 0.0357334 0)
(-0.122432 0.0213803 0)
(-0.129049 0.00400222 0)
(-0.13098 -0.0156593 0)
(-0.127204 -0.0361538 0)
(-0.116992 -0.0552138 0)
(-0.100287 -0.0698529 0)
(-0.0781308 -0.0768316 0)
(-0.0529758 -0.0735839 0)
(-0.028602 -0.059458 0)
(-0.00974348 -0.0367368 0)
(-0.00117432 -0.0108359 0)
(-0.00174276 0.0185984 0)
(-0.00938153 0.0456296 0)
(-0.0232528 0.0633395 0)
(-0.0400695 0.0733277 0)
(-0.0580898 0.0772152 0)
(-0.0764266 0.0762159 0)
(-0.0944255 0.0710219 0)
(-0.111502 0.0618539 0)
(-0.127005 0.0486237 0)
(-0.140094 0.0311749 0)
(-0.149667 0.00958204 0)
(-0.154381 -0.0155138 0)
(-0.152772 -0.0425603 0)
(-0.143532 -0.0688415 0)
(-0.125976 -0.0904413 0)
(-0.100678 -0.102675 0)
(-0.0700892 -0.101236 0)
(-0.0388262 -0.0840646 0)
(-0.0135692 -0.0533361 0)
(-0.00171507 -0.0163345 0)
(-0.00192144 0.0238294 0)
(-0.0103117 0.0576614 0)
(-0.0254765 0.0793952 0)
(-0.0437611 0.0914864 0)
(-0.0632958 0.0962359 0)
(-0.0832269 0.0953038 0)
(-0.102999 0.0895949 0)
(-0.122149 0.0793397 0)
(-0.140129 0.0642967 0)
(-0.15614 0.0440427 0)
(-0.169017 0.0183358 0)
(-0.177198 -0.0124524 0)
(-0.178796 -0.0468513 0)
(-0.171853 -0.0818455 0)
(-0.154844 -0.112606 0)
(-0.127476 -0.132728 0)
(-0.0916819 -0.135438 0)
(-0.052555 -0.116125 0)
(-0.0190729 -0.0758859 0)
(-0.00258936 -0.0240834 0)
(-0.00208763 0.0295334 0)
(-0.0111573 0.0707269 0)
(-0.0274313 0.0967164 0)
(-0.0468588 0.110964 0)
(-0.0674414 0.1166 0)
(-0.0883815 0.115837 0)
(-0.109261 0.109844 0)
(-0.129791 0.098873 0)
(-0.1496 0.0824989 0)
(-0.168037 0.0599597 0)
(-0.184012 0.0305755 0)
(-0.1959 -0.00573434 0)
(-0.201536 -0.0478291 0)
(-0.198382 -0.09267 0)
(-0.18395 -0.134743 0)
(-0.156664 -0.165885 0)
(-0.117183 -0.176197 0)
(-0.0701952 -0.156977 0)
(-0.0268347 -0.106305 0)
(-0.00399622 -0.035112 0)
(-0.00226247 0.0356743 0)
(-0.0119753 0.0846975 0)
(-0.0291616 0.115015 0)
(-0.0492902 0.13128 0)
(-0.0702184 0.137646 0)
(-0.0912291 0.136999 0)
(-0.11208 0.130846 0)
(-0.132708 0.119488 0)
(-0.153 0.102319 0)
(-0.172578 0.0782122 0)
(-0.190617 0.0459697 0)
(-0.205682 0.00490123 0)
(-0.215618 -0.044454 0)
(-0.217555 -0.0994376 0)
(-0.208136 -0.154354 0)
(-0.184227 -0.199653 0)
(-0.144355 -0.222048 0)
(-0.0913726 -0.207073 0)
(-0.0374462 -0.146592 0)
(-0.00624275 -0.0508399 0)
(-0.0025065 0.0422766 0)
(-0.0129372 0.099493 0)
(-0.0308779 0.133945 0)
(-0.051151 0.151769 0)
(-0.0714568 0.158395 0)
(-0.0912073 0.157538 0)
(-0.110386 0.151118 0)
(-0.129209 0.139538 0)
(-0.147896 0.122056 0)
(-0.166471 0.097213 0)
(-0.184574 0.0632945 0)
(-0.201263 0.0189143 0)
(-0.214786 -0.0362245 0)
(-0.222404 -0.100309 0)
(-0.220284 -0.168234 0)
(-0.203793 -0.229967 0)
(-0.168678 -0.269335 0)
(-0.11424 -0.264965 0)
(-0.051264 -0.19824 0)
(-0.00976755 -0.0731459 0)
(-0.00296097 0.0495256 0)
(-0.0144281 0.11518 0)
(-0.0330772 0.153144 0)
(-0.0528205 0.171565 0)
(-0.0712409 0.177531 0)
(-0.0880019 0.175752 0)
(-0.103403 0.168633 0)
(-0.117996 0.156731 0)
(-0.132394 0.13925 0)
(-0.147111 0.114494 0)
(-0.162421 0.0803315 0)
(-0.178141 0.0347168 0)
(-0.193312 -0.0236076 0)
(-0.20594 -0.094091 0)
(-0.212426 -0.173099 0)
(-0.207208 -0.25152 0)
(-0.183208 -0.311874 0)
(-0.134761 -0.326166 0)
(-0.0678506 -0.26112 0)
(-0.0150811 -0.104299 0)
(-0.00392504 0.0579595 0)
(-0.0171977 0.132119 0)
(-0.0366631 0.172242 0)
(-0.0549996 0.189567 0)
(-0.069882 0.193381 0)
(-0.0815035 0.189535 0)
(-0.090643 0.180936 0)
(-0.0982661 0.168324 0)
(-0.105411 0.150924 0)
(-0.11311 0.126948 0)
(-0.122322 0.0940239 0)
(-0.13376 0.0496389 0)
(-0.147529 -0.0083335 0)
(-0.162964 -0.0809961 0)
(-0.177574 -0.16669 0)
(-0.186015 -0.258904 0)
(-0.179292 -0.341513 0)
(-0.146386 -0.382454 0)
(-0.0850537 -0.331801 0)
(-0.0224881 -0.146487 0)
(-0.00599502 0.0688219 0)
(-0.0225688 0.151117 0)
(-0.0429615 0.190774 0)
(-0.0584465 0.204274 0)
(-0.0674281 0.20381 0)
(-0.071178 0.196388 0)
(-0.0712159 0.1853 0)
(-0.0690143 0.171411 0)
(-0.066034 0.153996 0)
(-0.0637618 0.131295 0)
(-0.0637347 0.100899 0)
(-0.0674836 0.0600793 0)
(-0.0764299 0.00612578 0)
(-0.0913062 -0.0633231 0)
(-0.111404 -0.149018 0)
(-0.133295 -0.248385 0)
(-0.148013 -0.349881 0)
(-0.14043 -0.422468 0)
(-0.0979443 -0.40204 0)
(-0.0313891 -0.200841 0)
(-0.010263 0.0847258 0)
(-0.0325775 0.173438 0)
(-0.0531849 0.207734 0)
(-0.0626827 0.213321 0)
(-0.0618417 0.205901 0)
(-0.0539247 0.193288 0)
(-0.0415005 0.178798 0)
(-0.0266037 0.163198 0)
(-0.0110404 0.14574 0)
(0.00341062 0.124741 0)
(0.0148392 0.0979201 0)
(0.0211543 0.0626219 0)
(0.0200806 0.0159903 0)
(0.00946439 -0.0448554 0)
(-0.0122878 -0.122796 0)
(-0.0446902 -0.219432 0)
(-0.0815657 -0.330711 0)
(-0.106896 -0.433631 0)
(-0.0982188 -0.458611 0)
(-0.0390363 -0.266614 0)
(-0.0183474 0.111046 0)
(-0.0491905 0.199844 0)
(-0.0654156 0.219765 0)
(-0.0612489 0.211857 0)
(-0.0434779 0.194821 0)
(-0.0183619 0.176041 0)
(0.0104711 0.158046 0)
(0.040645 0.141057 0)
(0.0703036 0.124107 0)
(0.0977149 0.105566 0)
(0.120978 0.0833946 0)
(0.137845 0.055291 0)
(0.145594 0.018716 0)
(0.141126 -0.0292086 0)
(0.121084 -0.0920668 0)
(0.0826582 -0.174574 0)
(0.0267171 -0.281182 0)
(-0.0349497 -0.403897 0)
(-0.0746061 -0.483698 0)
(-0.0389482 -0.339126 0)
(-0.0307292 0.158132 0)
(-0.0683315 0.225338 0)
(-0.0615363 0.214039 0)
(-0.0265781 0.187523 0)
(0.0190217 0.161116 0)
(0.0673448 0.138106 0)
(0.115181 0.118905 0)
(0.160849 0.102711 0)
(0.203218 0.0881706 0)
(0.241211 0.0737185 0)
(0.273437 0.0576852 0)
(0.297972 0.0383261 0)
(0.312102 0.0137824 0)
(0.312513 -0.0181558 0)
(0.294896 -0.0603642 0)
(0.253971 -0.118272 0)
(0.185096 -0.202333 0)
(0.0892475 -0.323701 0)
(-0.0113972 -0.452856 0)
(-0.0172236 -0.396 0)
(-0.0278338 0.228687 0)
(-0.0410452 0.225057 0)
(0.0379081 0.165793 0)
(0.125078 0.126112 0)
(0.202794 0.0987745 0)
(0.270887 0.0785871 0)
(0.330751 0.0635848 0)
(0.383285 0.0522244 0)
(0.429095 0.0430314 0)
(0.468377 0.0347139 0)
(0.500694 0.0261375 0)
(0.524883 0.0162639 0)
(0.538653 0.00407649 0)
(0.53936 -0.0112065 0)
(0.522711 -0.0314147 0)
(0.482573 -0.0598828 0)
(0.41021 -0.105897 0)
(0.292706 -0.193184 0)
(0.129687 -0.332647 0)
(0.0658484 -0.369809 0)
(0.261411 0.138461 0)
(0.324907 0.119017 0)
(0.457255 0.0778342 0)
(0.561952 0.051966 0)
(0.633169 0.036078 0)
(0.684821 0.0256115 0)
(0.724908 0.0185907 0)
(0.756928 0.0138325 0)
(0.782754 0.0104437 0)
(0.803413 0.00776045 0)
(0.819179 0.00528563 0)
(0.829671 0.00264183 0)
(0.833942 -0.000544745 0)
(0.830406 -0.00419657 0)
(0.816346 -0.00898659 0)
(0.788128 -0.0157894 0)
(0.738059 -0.0270276 0)
(0.648469 -0.0516537 0)
(0.474169 -0.111454 0)
(0.340747 -0.156305 0)
)
;

boundaryField
{
    movingWall
    {
        type            fixedValue;
        value           uniform (1 0 0);
    }
    fixedWalls
    {
        type            noSlip;
    }
    frontAndBack
    {
        type            empty;
    }
}


// ************************************************************************* //
