/*--------------------------------*- C++ -*----------------------------------*\
  =========                 |
  \\      /  F ield         | OpenFOAM: The Open Source CFD Toolbox
   \\    /   O peration     | Website:  https://openfoam.org
    \\  /    A nd           | Version:  dev
     \\/     M anipulation  |
\*---------------------------------------------------------------------------*/
FoamFile
{
    format      ascii;
    class       volScalarField;
    location    "3.15";
    object      Ux;
}
// * * * * * * * * * * * * * * * * * * * * * * * * * * * * * * * * * * * * * //

dimensions      [0 1 -1 0 0 0 0];

internalField   nonuniform List<scalar> 
400
(
0.000149999
-8.52386e-05
-0.00125054
-0.00303912
-0.00516583
-0.00739883
-0.00955341
-0.0114723
-0.0130063
-0.0140062
-0.0143316
-0.0138753
-0.0125993
-0.0105729
-0.00799894
-0.00521192
-0.00263538
-0.000693012
0.000284807
0.000249737
-0.00015587
-0.00159065
-0.00493123
-0.00951222
-0.0147599
-0.0201967
-0.0253974
-0.0299782
-0.0335792
-0.0358606
-0.0365257
-0.0353671
-0.0323361
-0.0276121
-0.0216422
-0.0151323
-0.00895693
-0.00398489
-0.000887997
6.23997e-05
-0.000522285
-0.00323479
-0.00865334
-0.0156718
-0.023489
-0.0314793
-0.0390688
-0.0457263
-0.0509515
-0.0542751
-0.05529
-0.0537104
-0.0494587
-0.0427555
-0.0341791
-0.0246659
-0.0154045
-0.00761114
-0.00231353
-0.00020083
-0.000834926
-0.00472128
-0.0120856
-0.0213339
-0.0314404
-0.0416726
-0.0513649
-0.0598958
-0.066672
-0.0711235
-0.0727363
-0.0711154
-0.0660895
-0.0578327
-0.0469605
-0.0345732
-0.0221653
-0.0113674
-0.00370284
-0.000417524
-0.00110012
-0.00604768
-0.0152201
-0.0265469
-0.038788
-0.0511301
-0.0628555
-0.0732947
-0.0817924
-0.0876882
-0.0903414
-0.0891924
-0.083886
-0.0744394
-0.0614004
-0.0459762
-0.0300012
-0.0156639
-0.00520092
-0.000609291
-0.00133421
-0.00725175
-0.0181083
-0.0313935
-0.045674
-0.0600821
-0.0738836
-0.0863971
-0.0969327
-0.104746
-0.109036
-0.109024
-0.104073
-0.0938988
-0.0788419
-0.0601194
-0.0399167
-0.0211516
-0.0070951
-0.00083676
-0.00154719
-0.00836033
-0.0207863
-0.0359126
-0.0521395
-0.0685745
-0.0845033
-0.0992711
-0.112185
-0.122432
-0.129049
-0.13098
-0.127204
-0.116992
-0.100287
-0.0781308
-0.0529758
-0.028602
-0.00974348
-0.00117432
-0.00174276
-0.00938153
-0.0232528
-0.0400695
-0.0580898
-0.0764266
-0.0944255
-0.111502
-0.127005
-0.140094
-0.149667
-0.154381
-0.152772
-0.143532
-0.125976
-0.100678
-0.0700892
-0.0388262
-0.0135692
-0.00171507
-0.00192144
-0.0103117
-0.0254765
-0.0437611
-0.0632958
-0.0832269
-0.102999
-0.122149
-0.140129
-0.15614
-0.169017
-0.177198
-0.178796
-0.171853
-0.154844
-0.127476
-0.0916819
-0.052555
-0.0190729
-0.00258936
-0.00208763
-0.0111573
-0.0274313
-0.0468588
-0.0674414
-0.0883815
-0.109261
-0.129791
-0.1496
-0.168037
-0.184012
-0.1959
-0.201536
-0.198382
-0.18395
-0.156664
-0.117183
-0.0701952
-0.0268347
-0.00399622
-0.00226247
-0.0119753
-0.0291616
-0.0492902
-0.0702184
-0.0912291
-0.11208
-0.132708
-0.153
-0.172578
-0.190617
-0.205682
-0.215618
-0.217555
-0.208136
-0.184227
-0.144355
-0.0913726
-0.0374462
-0.00624275
-0.0025065
-0.0129372
-0.0308779
-0.051151
-0.0714568
-0.0912073
-0.110386
-0.129209
-0.147896
-0.166471
-0.184574
-0.201263
-0.214786
-0.222404
-0.220284
-0.203793
-0.168678
-0.11424
-0.051264
-0.00976755
-0.00296097
-0.0144281
-0.0330772
-0.0528205
-0.0712409
-0.0880019
-0.103403
-0.117996
-0.132394
-0.147111
-0.162421
-0.178141
-0.193312
-0.20594
-0.212426
-0.207208
-0.183208
-0.134761
-0.0678506
-0.0150811
-0.00392504
-0.0171977
-0.0366631
-0.0549996
-0.069882
-0.0815035
-0.090643
-0.0982661
-0.105411
-0.11311
-0.122322
-0.13376
-0.147529
-0.162964
-0.177574
-0.186015
-0.179292
-0.146386
-0.0850537
-0.0224881
-0.00599502
-0.0225688
-0.0429615
-0.0584465
-0.0674281
-0.071178
-0.0712159
-0.0690143
-0.066034
-0.0637618
-0.0637347
-0.0674836
-0.0764299
-0.0913062
-0.111404
-0.133295
-0.148013
-0.14043
-0.0979443
-0.0313891
-0.010263
-0.0325775
-0.0531849
-0.0626827
-0.0618417
-0.0539247
-0.0415005
-0.0266037
-0.0110404
0.00341062
0.0148392
0.0211543
0.0200806
0.00946439
-0.0122878
-0.0446902
-0.0815657
-0.106896
-0.0982188
-0.0390363
-0.0183474
-0.0491905
-0.0654156
-0.0612489
-0.0434779
-0.0183619
0.0104711
0.040645
0.0703036
0.0977149
0.120978
0.137845
0.145594
0.141126
0.121084
0.0826582
0.0267171
-0.0349497
-0.0746061
-0.0389482
-0.0307292
-0.0683315
-0.0615363
-0.0265781
0.0190217
0.0673448
0.115181
0.160849
0.203218
0.241211
0.273437
0.297972
0.312102
0.312513
0.294896
0.253971
0.185096
0.0892475
-0.0113972
-0.0172236
-0.0278338
-0.0410452
0.0379081
0.125078
0.202794
0.270887
0.330751
0.383285
0.429095
0.468377
0.500694
0.524883
0.538653
0.53936
0.522711
0.482573
0.41021
0.292706
0.129687
0.0658484
0.261411
0.324907
0.457255
0.561952
0.633169
0.684821
0.724908
0.756928
0.782754
0.803413
0.819179
0.829671
0.833942
0.830406
0.816346
0.788128
0.738059
0.648469
0.474169
0.340747
)
;

boundaryField
{
    movingWall
    {
        type            calculated;
        value           uniform 1;
    }
    fixedWalls
    {
        type            calculated;
        value           uniform 0;
    }
    frontAndBack
    {
        type            empty;
    }
}


// ************************************************************************* //
