/*--------------------------------*- C++ -*----------------------------------*\
  =========                 |
  \\      /  F ield         | OpenFOAM: The Open Source CFD Toolbox
   \\    /   O peration     | Website:  https://openfoam.org
    \\  /    A nd           | Version:  dev
     \\/     M anipulation  |
\*---------------------------------------------------------------------------*/
FoamFile
{
    format      ascii;
    class       volScalarField;
    location    "3.15";
    object      Uy;
}
// * * * * * * * * * * * * * * * * * * * * * * * * * * * * * * * * * * * * * //

dimensions      [0 1 -1 0 0 0 0];

internalField   nonuniform List<scalar> 
400
(
-0.00015104
0.000151895
0.000465549
0.000657053
0.000743742
0.00075478
0.000708396
0.000611111
0.000461816
0.000258451
5.12469e-06
-0.000282692
-0.000571474
-0.000813903
-0.000955594
-0.000948909
-0.000770358
-0.000437453
-3.23876e-05
0.000235222
7.70252e-05
0.00154912
0.00290503
0.00377058
0.00417026
0.00418638
0.00388129
0.00328503
0.00240642
0.0012574
-0.000119196
-0.00162667
-0.0031005
-0.00432006
-0.00504341
-0.0050685
-0.0043088
-0.00286147
-0.00106986
0.000320332
0.00129652
0.00497155
0.00803334
0.00999073
0.0108769
0.010831
0.00997121
0.00836521
0.00604959
0.00307791
-0.000422593
-0.00420377
-0.00787196
-0.0109133
-0.012772
-0.0129871
-0.0113634
-0.00812251
-0.00399654
-0.00038172
0.00338442
0.0101509
0.0153591
0.0186034
0.0200072
0.019798
0.018161
0.0152054
0.0109981
0.00563986
-0.000644461
-0.00743111
-0.0140506
-0.0196249
-0.0231877
-0.0239101
-0.0213964
-0.0159554
-0.00874037
-0.00182302
0.00622922
0.0169162
0.024662
0.0293361
0.0312624
0.0308105
0.0282515
0.0237341
0.0173421
0.00920256
-0.000383317
-0.0108172
-0.0211491
-0.0300772
-0.0361083
-0.0378797
-0.0346195
-0.0266084
-0.0154266
-0.00395147
0.00975081
0.0251531
0.035834
0.0420982
0.0445851
0.0438719
0.0403399
0.034172
0.0254398
0.0142516
0.000931337
-0.0138028
-0.0287266
-0.0420649
-0.0516531
-0.0553497
-0.0517111
-0.0407627
-0.024496
-0.00686629
0.0138898
0.0347574
0.0487669
0.0568015
0.0599319
0.0590142
0.0545689
0.046803
0.0357334
0.0213803
0.00400222
-0.0156593
-0.0361538
-0.0552138
-0.0698529
-0.0768316
-0.0735839
-0.059458
-0.0367368
-0.0108359
0.0185984
0.0456296
0.0633395
0.0733277
0.0772152
0.0762159
0.0710219
0.0618539
0.0486237
0.0311749
0.00958204
-0.0155138
-0.0425603
-0.0688415
-0.0904413
-0.102675
-0.101236
-0.0840646
-0.0533361
-0.0163345
0.0238294
0.0576614
0.0793952
0.0914864
0.0962359
0.0953038
0.0895949
0.0793397
0.0642967
0.0440427
0.0183358
-0.0124524
-0.0468513
-0.0818455
-0.112606
-0.132728
-0.135438
-0.116125
-0.0758859
-0.0240834
0.0295334
0.0707269
0.0967164
0.110964
0.1166
0.115837
0.109844
0.098873
0.0824989
0.0599597
0.0305755
-0.00573434
-0.0478291
-0.09267
-0.134743
-0.165885
-0.176197
-0.156977
-0.106305
-0.035112
0.0356743
0.0846975
0.115015
0.13128
0.137646
0.136999
0.130846
0.119488
0.102319
0.0782122
0.0459697
0.00490123
-0.044454
-0.0994376
-0.154354
-0.199653
-0.222048
-0.207073
-0.146592
-0.0508399
0.0422766
0.099493
0.133945
0.151769
0.158395
0.157538
0.151118
0.139538
0.122056
0.097213
0.0632945
0.0189143
-0.0362245
-0.100309
-0.168234
-0.229967
-0.269335
-0.264965
-0.19824
-0.0731459
0.0495256
0.11518
0.153144
0.171565
0.177531
0.175752
0.168633
0.156731
0.13925
0.114494
0.0803315
0.0347168
-0.0236076
-0.094091
-0.173099
-0.25152
-0.311874
-0.326166
-0.26112
-0.104299
0.0579595
0.132119
0.172242
0.189567
0.193381
0.189535
0.180936
0.168324
0.150924
0.126948
0.0940239
0.0496389
-0.0083335
-0.0809961
-0.16669
-0.258904
-0.341513
-0.382454
-0.331801
-0.146487
0.0688219
0.151117
0.190774
0.204274
0.20381
0.196388
0.1853
0.171411
0.153996
0.131295
0.100899
0.0600793
0.00612578
-0.0633231
-0.149018
-0.248385
-0.349881
-0.422468
-0.40204
-0.200841
0.0847258
0.173438
0.207734
0.213321
0.205901
0.193288
0.178798
0.163198
0.14574
0.124741
0.0979201
0.0626219
0.0159903
-0.0448554
-0.122796
-0.219432
-0.330711
-0.433631
-0.458611
-0.266614
0.111046
0.199844
0.219765
0.211857
0.194821
0.176041
0.158046
0.141057
0.124107
0.105566
0.0833946
0.055291
0.018716
-0.0292086
-0.0920668
-0.174574
-0.281182
-0.403897
-0.483698
-0.339126
0.158132
0.225338
0.214039
0.187523
0.161116
0.138106
0.118905
0.102711
0.0881706
0.0737185
0.0576852
0.0383261
0.0137824
-0.0181558
-0.0603642
-0.118272
-0.202333
-0.323701
-0.452856
-0.396
0.228687
0.225057
0.165793
0.126112
0.0987745
0.0785871
0.0635848
0.0522244
0.0430314
0.0347139
0.0261375
0.0162639
0.00407649
-0.0112065
-0.0314147
-0.0598828
-0.105897
-0.193184
-0.332647
-0.369809
0.138461
0.119017
0.0778342
0.051966
0.036078
0.0256115
0.0185907
0.0138325
0.0104437
0.00776045
0.00528563
0.00264183
-0.000544745
-0.00419657
-0.00898659
-0.0157894
-0.0270276
-0.0516537
-0.111454
-0.156305
)
;

boundaryField
{
    movingWall
    {
        type            calculated;
        value           uniform 0;
    }
    fixedWalls
    {
        type            calculated;
        value           uniform 0;
    }
    frontAndBack
    {
        type            empty;
    }
}


// ************************************************************************* //
