/*--------------------------------*- C++ -*----------------------------------*\
  =========                 |
  \\      /  F ield         | OpenFOAM: The Open Source CFD Toolbox
   \\    /   O peration     | Website:  https://openfoam.org
    \\  /    A nd           | Version:  dev
     \\/     M anipulation  |
\*---------------------------------------------------------------------------*/
FoamFile
{
    format      ascii;
    class       volScalarField;
    location    "20.25";
    object      p;
}
// * * * * * * * * * * * * * * * * * * * * * * * * * * * * * * * * * * * * * //

dimensions      [0 2 -2 0 0 0 0];

internalField   nonuniform List<scalar> 
5184
(
-3.33251e-07
-1.31644e-05
-9.92358e-05
-0.000251999
-0.0004512
-0.000679596
-0.000922948
-0.00116934
-0.00140962
-0.00163665
-0.00184502
-0.00203071
-0.00219079
-0.00232316
-0.00242634
-0.00249935
-0.0025415
-0.00255237
-0.00253166
-0.00247923
-0.00239499
-0.00227891
-0.00213106
-0.00195157
-0.00174068
-0.00149878
-0.0012264
-0.000924292
-0.000593456
-0.000235159
0.000149013
0.000557136
0.000986918
0.00143569
0.00190039
0.00237758
0.00286344
0.00335381
0.00384423
0.00432996
0.00480605
0.00526745
0.00570903
0.00612572
0.00651257
0.00686487
0.00717827
0.00744883
0.0076732
0.00784864
0.00797313
0.00804548
0.00806534
0.00803326
0.00795074
0.00782023
0.0076451
0.00742968
0.00717916
0.00689959
0.00659782
0.00628147
0.00595882
0.00563882
0.00533103
0.00504551
0.00479276
0.00458339
0.00442738
0.00433315
0.00430621
0.00433344
1.19595e-05
-7.10637e-07
-7.52987e-05
-0.00020295
-0.000368035
-0.000558076
-0.000762155
-0.000970692
-0.00117577
-0.001371
-0.00155135
-0.0017129
-0.00185269
-0.0019685
-0.00205869
-0.00212205
-0.00215774
-0.00216515
-0.00214386
-0.00209358
-0.00201414
-0.00190545
-0.00176752
-0.00160046
-0.0014045
-0.00118
-0.000927497
-0.00064772
-0.000341627
-1.04371e-05
0.000344344
0.000720898
0.00111708
0.00153039
0.00195801
0.00239673
0.00284307
0.00329319
0.00374301
0.00418821
0.00462429
0.00504666
0.00545069
0.00583178
0.0061855
0.00650762
0.00679425
0.00704189
0.00724758
0.00740893
0.00752422
0.00759245
0.00761344
0.00758779
0.00751698
0.00740333
0.00725003
0.00706107
0.00684126
0.00659613
0.00633192
0.00605552
0.00577434
0.0054963
0.00522971
0.00498312
0.00476521
0.00458435
0.00444782
0.00436157
0.00433301
0.00436056
9.83294e-05
7.36179e-05
-1.66564e-06
-0.000119095
-0.000266642
-0.000434672
-0.000614488
-0.00079827
-0.000979323
-0.00115209
-0.00131208
-0.00145569
-0.00158011
-0.0016832
-0.0017633
-0.00181916
-0.00184988
-0.00185475
-0.00183329
-0.00178514
-0.00171005
-0.00160788
-0.0014786
-0.00132228
-0.00113911
-0.000929403
-0.000693663
-0.000432566
-0.000147011
0.000161859
0.000492633
0.000843606
0.00121277
0.0015978
0.00199604
0.00240454
0.00282001
0.00323892
0.00365746
0.00407161
0.00447722
0.00487002
0.00524571
0.00560007
0.00592899
0.00622857
0.00649524
0.00672579
0.00691753
0.00706828
0.00717651
0.00724138
0.00726276
0.00724129
0.00717843
0.00707639
0.00693819
0.00676759
0.00656908
0.0063478
0.00610951
0.00586051
0.00560754
0.00535772
0.00511841
0.00489706
0.00470114
0.00453771
0.00441279
0.00433162
0.00430381
0.00433439
0.000253201
0.000201826
0.000114096
-4.73243e-06
-0.000146999
-0.000304933
-0.000471418
-0.000640092
-0.00080542
-0.000962716
-0.00110811
-0.00123847
-0.00135129
-0.00144462
-0.00151693
-0.00156703
-0.00159403
-0.00159723
-0.00157611
-0.00153029
-0.00145947
-0.00136348
-0.00124222
-0.00109572
-0.000924112
-0.000727656
-0.000506781
-0.000262091
5.60011e-06
0.000295244
0.000605539
0.000934905
0.00128147
0.00164307
0.00201722
0.00240115
0.00279178
0.00318577
0.00357956
0.00396935
0.00435123
0.00472116
0.0050751
0.00540905
0.00571913
0.00600166
0.00625326
0.00647093
0.0066521
0.00679477
0.00689749
0.00695949
0.00698069
0.00696173
0.00690403
0.0068097
0.00668163
0.00652338
0.0063392
0.00613392
0.00591291
0.00568202
0.00544744
0.00521566
0.00499333
0.00478712
0.00460363
0.00444914
0.00432908
0.00424849
0.00421744
0.00424261
0.000457715
0.000369179
0.000260687
0.000133134
-1.10396e-05
-0.000165675
-0.000325007
-0.000484038
-0.000638363
-0.000784183
-0.000918321
-0.00103817
-0.00114161
-0.00122697
-0.00129291
-0.00133839
-0.00136259
-0.00136484
-0.00134464
-0.00130158
-0.00123537
-0.00114576
-0.00103263
-0.000895923
-0.000735716
-0.000552198
-0.000345706
-0.000116752
0.000133953
0.000405477
0.000696641
0.001006
0.00133184
0.00167213
0.00202457
0.00238656
0.0027552
0.00312735
0.00349961
0.0038684
0.00422998
0.00458052
0.00491614
0.00523301
0.00552743
0.00579585
0.00603505
0.00624212
0.00641461
0.00655058
0.00664865
0.00670809
0.00672881
0.00671145
0.00665735
0.00656856
0.00644782
0.00629854
0.00612473
0.00593098
0.00572231
0.00550418
0.00528232
0.00506268
0.00485132
0.00465426
0.00447739
0.00432634
0.00420607
0.00412134
0.00408093
0.00409068
0.000695726
0.000563813
0.000428788
0.000286919
0.000135189
-2.16329e-05
-0.000178944
-0.000333006
-0.000480484
-0.000618457
-0.000744452
-0.000856424
-0.000952701
-0.00103194
-0.00109305
-0.00113517
-0.00115759
-0.00115973
-0.00114112
-0.00110136
-0.00104013
-0.000957172
-0.000852292
-0.00072538
-0.000576425
-0.000405528
-0.000212927
9.76752e-07
0.000235592
0.000490115
0.000763504
0.00105446
0.00136141
0.0016825
0.00201558
0.0023582
0.00270764
0.00306092
0.00341479
0.00376584
0.00411046
0.00444495
0.00476558
0.00506862
0.00535046
0.00560767
0.00583707
0.00603583
0.00620154
0.00633228
0.00642668
0.00648401
0.00650415
0.0064877
0.00643593
0.00635081
0.00623496
0.00609164
0.00592468
0.00573842
0.00553763
0.00532743
0.00511317
0.00490035
0.00469453
0.00450119
0.00432565
0.00417296
0.00404768
0.00395422
0.00389903
0.00388588
0.000953455
0.000774861
0.000609502
0.000449156
0.000285454
0.000122001
-3.75837e-05
-0.0001907
-0.000335015
-0.000468444
-0.000589216
-0.000695859
-0.000787166
-0.000862159
-0.000920037
-0.000960138
-0.000981909
-0.000984874
-0.000968617
-0.000932766
-0.000876988
-0.00080099
-0.00070453
-0.000587425
-0.000449574
-0.000290978
-0.000111762
8.77975e-05
0.000307242
0.000545908
0.0008029
0.00107707
0.00136701
0.001671
0.00198705
0.00231288
0.0026459
0.00298326
0.00332186
0.00365839
0.00398935
0.00431114
0.00462008
0.00491253
0.00518492
0.00543383
0.00565611
0.00584892
0.00600985
0.00613695
0.00622883
0.00628468
0.00630436
0.00628839
0.00623796
0.00615495
0.00604187
0.00590185
0.00573856
0.00555616
0.00535918
0.00515248
0.00494111
0.0047302
0.00452492
0.00433031
0.00415122
0.00399221
0.00385753
0.0037512
0.00367691
0.00363584
0.00121879
0.000992187
0.000794238
0.000612564
0.000433688
0.000260252
9.50433e-05
-6.0367e-05
-0.000204572
-0.000336275
-0.00045438
-0.000557987
-0.00064636
-0.000718899
-0.000775106
-0.00081455
-0.000836846
-0.000841635
-0.000828572
-0.000797317
-0.000747535
-0.000678903
-0.00059112
-0.000483927
-0.000357128
-0.00021061
-4.43748e-05
0.000141437
0.00034651
0.000570333
0.000812165
0.00107102
0.00134563
0.00163445
0.00193563
0.00224702
0.00256618
0.00289036
0.00321658
0.0035416
0.003862
0.00417422
0.00447463
0.00475958
0.00502549
0.00526894
0.00548672
0.00567596
0.00583417
0.00595933
0.00604997
0.00610522
0.00612482
0.00610922
0.00605951
0.00597746
0.00586548
0.00572659
0.00556432
0.00538266
0.005186
0.00497896
0.00476636
0.00455307
0.00434393
0.00414366
0.00395672
0.00378727
0.00363934
0.00351664
0.0034199
0.0033477
0.00148148
0.00120665
0.000974945
0.000770115
0.000573849
0.000387982
0.000214599
5.43399e-05
-9.22386e-05
-0.000224578
-0.000342228
-0.000444838
-0.000532137
-0.000603908
-0.000659958
-0.000700094
-0.000724108
-0.000731768
-0.000722804
-0.000696913
-0.000653759
-0.000592985
-0.000514232
-0.000417157
-0.000301458
-0.000166905
-1.33619e-05
0.000159175
0.000350546
0.000560397
0.000788153
0.00103299
0.0012938
0.00156918
0.00185745
0.00215657
0.00246423
0.00277777
0.0030943
0.00341063
0.00372339
0.00402902
0.00432389
0.00460432
0.00486667
0.00510746
0.00532338
0.00551147
0.00566911
0.00579419
0.00588509
0.00594082
0.00596103
0.00594601
0.00589677
0.00581495
0.00570286
0.0055634
0.00539999
0.00521651
0.00501719
0.00480652
0.00458913
0.00436971
0.00415286
0.00394305
0.00374448
0.00356101
0.0033965
0.0032545
0.0031328
0.00302748
0.00173255
0.00140999
0.00114414
0.000915093
0.000699975
0.000499948
0.000316488
0.000149395
-1.55904e-06
-0.000136505
-0.000255598
-0.000359017
-0.000446939
-0.000519519
-0.000576867
-0.000619025
-0.000645966
-0.000657581
-0.000653678
-0.000633988
-0.000598174
-0.000545842
-0.000476566
-0.000389915
-0.000285475
-0.000162884
-2.18645e-05
0.000137744
0.000315946
0.000512556
0.00072717
0.000959127
0.00120749
0.00147102
0.00174815
0.00203699
0.00233532
0.0026406
0.00294996
0.00326028
0.00356817
0.00387009
0.00416234
0.00444117
0.00470287
0.00494381
0.00516057
0.00535003
0.00550942
0.00563645
0.00572935
0.00578695
0.00580875
0.00579491
0.00574626
0.00566435
0.00555137
0.00541009
0.00524386
0.00505645
0.00485199
0.00463487
0.00440962
0.00418078
0.00395283
0.00373008
0.00351655
0.00331589
0.00313195
0.00296818
0.00281962
0.00267994
0.00196408
0.00159474
0.00129486
0.0010411
0.000806257
0.000590906
0.000395998
0.00022056
6.36392e-05
-7.55361e-05
-0.000197694
-0.000303513
-0.000393595
-0.000468455
-0.000528492
-0.000573979
-0.000605059
-0.000621744
-0.000623915
-0.000611332
-0.00058365
-0.000540435
-0.000481186
-0.000405375
-0.000312468
-0.000201964
-7.34316e-05
7.34549e-05
0.000238873
0.000422817
0.000625059
0.000845115
0.00108221
0.00133527
0.00160287
0.00188325
0.00217427
0.00247347
0.00277805
0.00308489
0.0033906
0.00369159
0.00398408
0.00426423
0.00452819
0.00477216
0.00499257
0.00518607
0.00534971
0.00548097
0.00557788
0.00563906
0.00566379
0.00565207
0.00560457
0.00552267
0.00540844
0.00526456
0.00509427
0.00490128
0.00468965
0.00446372
0.00422795
0.00398683
0.00374481
0.0035061
0.00327464
0.00305401
0.00284813
0.0026605
0.00248353
0.00230869
0.00216894
0.00175403
0.0014206
0.00114206
0.000887055
0.000655665
0.000448362
0.000263459
9.93271e-05
-4.54062e-05
-0.000172005
-0.000281619
-0.000375254
-0.000453763
-0.000517819
-0.000567913
-0.000604347
-0.000627245
-0.000636552
-0.000632051
-0.000613378
-0.000580049
-0.000531486
-0.00046705
-0.000386079
-0.000287926
-0.000171992
-3.77783e-05
0.000115078
0.000286756
0.000477218
0.000686162
0.000912993
0.00115679
0.00141627
0.0016898
0.00197535
0.00227053
0.00257256
0.00287834
0.00318445
0.00348723
0.00378281
0.00406721
0.00433639
0.00458638
0.00481337
0.00501378
0.0051844
0.00532244
0.00542568
0.00549247
0.00552187
0.00551363
0.00546823
0.00538688
0.00527152
0.00512469
0.00494956
0.00474978
0.00452938
0.00429267
0.00404414
0.00378829
0.00352955
0.00327221
0.00302019
0.00277708
0.00254701
0.00233364
0.00212694
0.00191626
0.00234059
0.00188148
0.00151525
0.00121215
0.000936908
0.000689112
0.000468807
0.000273635
0.000101332
-5.00385e-05
-0.000182246
-0.000296883
-0.000395336
-0.000478771
-0.000548121
-0.000604074
-0.000647083
-0.000677366
-0.000694922
-0.000699545
-0.000690846
-0.000668279
-0.000631175
-0.00057878
-0.000510293
-0.000424906
-0.000321848
-0.000200432
-6.01016e-05
9.95222e-05
0.000278597
0.000477017
0.000694368
0.000929898
0.00118248
0.00145061
0.00173235
0.00202537
0.00232696
0.00263398
0.002943
0.00325025
0.00355174
0.00384333
0.00412079
0.00437991
0.0046166
0.004827
0.00500759
0.00515528
0.00526751
0.00534235
0.00537855
0.00537558
0.0053337
0.00525392
0.00513798
0.00498832
0.00480802
0.00460068
0.00437033
0.0041213
0.00385813
0.00358541
0.00330766
0.00302928
0.0027543
0.00248643
0.0022301
0.00198926
0.00175155
0.00150431
0.00247297
0.00197115
0.00157303
0.00124585
0.000950538
0.000686239
0.000452591
0.000246598
6.53953e-05
-9.34894e-05
-0.000232301
-0.000353049
-0.000457474
-0.000547038
-0.000622909
-0.000685959
-0.00073677
-0.000775644
-0.000802619
-0.000817486
-0.000819818
-0.000808998
-0.000784257
-0.000744712
-0.000689413
-0.00061738
-0.000527657
-0.000419359
-0.000291722
-0.000144156
2.3707e-05
0.000211965
0.000420402
0.000648445
0.00089513
0.00115908
0.00143848
0.00173106
0.00203414
0.0023446
0.00265893
0.00297328
0.00328353
0.00358532
0.0038742
0.00414569
0.00439541
0.00461914
0.004813
0.00497355
0.00509784
0.00518358
0.00522917
0.00523375
0.0051973
0.00512057
0.00500511
0.00485322
0.00466788
0.00445266
0.00421159
0.00394907
0.00366975
0.00337834
0.00307956
0.00277798
0.00247785
0.00218307
0.00189851
0.00162851
0.00135845
0.00107375
0.00256036
0.00201742
0.00158848
0.00123787
0.00092285
0.000642159
0.000395032
0.000177865
-1.27845e-05
-0.000179897
-0.000326169
-0.000454001
-0.000565468
-0.000662302
-0.00074589
-0.000817266
-0.000877124
-0.000925834
-0.000963458
-0.000989772
-0.0010043
-0.00100633
-0.000994999
-0.000969271
-0.000928037
-0.000870135
-0.000794411
-0.000699767
-0.000585219
-0.000449951
-0.000293371
-0.000115159
8.46771e-05
0.000305761
0.000547306
0.000808081
0.00108639
0.00138005
0.00168642
0.00200237
0.00232435
0.00264839
0.00297021
0.00328527
0.00358884
0.00387613
0.00414241
0.00438309
0.00459387
0.00477087
0.00491071
0.00501067
0.00506873
0.00508365
0.00505506
0.00498341
0.00487002
0.00471701
0.00452725
0.00430428
0.00405216
0.00377538
0.00347872
0.00316712
0.00284553
0.0025188
0.00219147
0.00186775
0.00155303
0.00125213
0.000948259
0.000624905
0.00259736
0.00201498
0.0015564
0.00118313
0.000848932
0.000552118
0.000291537
6.29948e-05
-0.000137506
-0.000313432
-0.000467912
-0.000603716
-0.000723227
-0.000828433
-0.000920913
-0.00100185
-0.00107202
-0.00113187
-0.00118144
-0.0012205
-0.00124849
-0.00126463
-0.0012679
-0.00125713
-0.00123103
-0.00118824
-0.0011274
-0.00104719
-0.00094638
-0.000823914
-0.00067896
-0.000510958
-0.000319687
-0.000105309
0.000131584
0.000389929
0.000668164
0.000964213
0.00127547
0.00159882
0.00193066
0.00226693
0.00260317
0.00293461
0.00325624
0.00356294
0.00384958
0.00411113
0.00434283
0.00454029
0.00469965
0.00481766
0.00489182
0.00492043
0.00490271
0.00483875
0.00472958
0.00457712
0.00438409
0.00415399
0.00389092
0.0035995
0.00328468
0.00295167
0.00260573
0.00225208
0.00189562
0.00154098
0.00119414
0.000860536
0.000521174
0.00015762
0.00257883
0.00195879
0.00147184
0.0010768
0.000724063
0.000411518
0.00013763
-0.000102373
-0.000313022
-0.000498257
-0.000661612
-0.000806211
-0.000934727
-0.00104938
-0.00115192
-0.00124366
-0.00132547
-0.0013978
-0.00146071
-0.00151391
-0.00155677
-0.0015884
-0.00160764
-0.00161315
-0.00160347
-0.00157701
-0.0015322
-0.00146745
-0.00138131
-0.00127244
-0.00113976
-0.00098244
-0.000800012
-0.000592398
-0.000359973
-0.000103605
0.000175302
0.000474789
0.000792327
0.00112482
0.00146862
0.00181956
0.00217303
0.00252401
0.0028672
0.0031971
0.00350813
0.00379481
0.00405182
0.00427422
0.00445756
0.00459801
0.00469249
0.00473878
0.00473557
0.00468255
0.00458039
0.00443073
0.00423616
0.00400008
0.00372665
0.00342062
0.00308719
0.00273185
0.00236026
0.00197807
0.00159064
0.0012031
0.00082214
0.000453884
7.71101e-05
-0.000328591
0.00249989
0.00184404
0.00133009
0.000914264
0.000543722
0.000215931
-7.10271e-05
-0.000322489
-0.000543508
-0.000738475
-0.00091132
-0.0010655
-0.00120395
-0.00132911
-0.0014429
-0.00154673
-0.00164152
-0.00172776
-0.00180549
-0.00187434
-0.00193361
-0.00198228
-0.00201904
-0.00204237
-0.00205061
-0.00204195
-0.00201456
-0.00196662
-0.00189637
-0.00180223
-0.0016828
-0.00153698
-0.00136402
-0.00116358
-0.000935776
-0.000681264
-0.000401255
-9.75598e-05
0.000227391
0.000570544
0.00092823
0.0012962
0.00166967
0.00204338
0.00241172
0.00276877
0.0031085
0.00342488
0.00371201
0.00396431
0.00417664
0.00434452
0.0044642
0.0045328
0.00454846
0.00451032
0.00441864
0.00427473
0.00408096
0.00384065
0.00355798
0.00323784
0.00288571
0.00250743
0.00210911
0.00169692
0.00127678
0.000854367
0.000437195
3.21755e-05
-0.000384217
-0.000834452
0.00235588
0.00166619
0.0011267
0.000691139
0.000303601
-3.88766e-05
-0.000338602
-0.000601461
-0.000833016
-0.0010381
-0.00122101
-0.00138552
-0.00153484
-0.00167158
-0.00179782
-0.00191505
-0.00202426
-0.00212591
-0.00222003
-0.00230617
-0.00238354
-0.00245097
-0.00250699
-0.0025499
-0.00257781
-0.00258868
-0.00258042
-0.00255092
-0.00249815
-0.00242019
-0.00231536
-0.00218224
-0.00201977
-0.00182729
-0.00160466
-0.00135226
-0.00107108
-0.000762741
-0.000429545
-7.44693e-05
0.000298824
0.000686014
0.00108217
0.00148179
0.00187892
0.00226725
0.00264022
0.00299122
0.00331369
0.00360133
0.00384827
0.00404921
0.00419966
0.00429598
0.00433561
0.00431708
0.00424012
0.00410564
0.00391572
0.00367356
0.00338334
0.00305012
0.00267963
0.00227815
0.00185229
0.0014088
0.000954245
0.000494977
3.94089e-05
-0.00040467
-0.000863197
-0.00136081
0.0021424
0.00142094
0.000857445
0.000403283
-3.78677e-07
-0.000356929
-0.000669068
-0.000943221
-0.00118544
-0.00140099
-0.00159453
-0.00177013
-0.00193124
-0.00208066
-0.00222058
-0.00235259
-0.00247769
-0.00259636
-0.00270855
-0.00281377
-0.00291107
-0.00299916
-0.0030764
-0.00314088
-0.00319047
-0.00322289
-0.00323576
-0.00322669
-0.00319332
-0.00313341
-0.00304493
-0.00292612
-0.00277557
-0.00259229
-0.00237581
-0.0021262
-0.00184419
-0.00153116
-0.00118925
-0.000821306
-0.000430955
-2.2555e-05
0.000398826
0.000827469
0.00125709
0.00168093
0.00209191
0.00248276
0.00284622
0.00317517
0.0034629
0.00370324
0.00389077
0.00402102
0.00409057
0.00409723
0.00404009
0.00391955
0.00373733
0.00349644
0.00320103
0.00285629
0.00246828
0.00204371
0.00158977
0.00111387
0.000623297
0.000125163
-0.000371101
-0.000856731
-0.00136023
-0.00190856
0.0018553
0.00110426
0.000518387
4.68118e-05
-0.000372047
-0.000742013
-0.00106618
-0.00135149
-0.0016045
-0.00183085
-0.00203558
-0.00222303
-0.00239687
-0.00256009
-0.00271497
-0.00286318
-0.00300574
-0.00314311
-0.00327519
-0.00340138
-0.00352063
-0.00363148
-0.0037321
-0.00382037
-0.00389393
-0.00395021
-0.00398656
-0.00400025
-0.00398859
-0.00394899
-0.00387904
-0.00377661
-0.00363988
-0.00346751
-0.00325863
-0.00301298
-0.00273094
-0.00241364
-0.00206296
-0.00168159
-0.00127306
-0.000841736
-0.00039278
6.78828e-05
0.000533643
0.000997308
0.00145123
0.00188746
0.00229795
0.0026747
0.00301005
0.00329681
0.00352856
0.00369979
0.00380614
0.00384451
0.00381322
0.00371206
0.00354227
0.00330659
0.00300909
0.00265508
0.00225092
0.00180382
0.00132157
0.000812358
0.000284256
-0.000254761
-0.000794129
-0.00132401
-0.00187565
-0.0024785
0.00149071
0.000712399
0.000105862
-0.000381876
-0.000814963
-0.00119765
-0.00153343
-0.00182976
-0.00209365
-0.00233115
-0.00254762
-0.00274769
-0.00293524
-0.0031134
-0.00328457
-0.00345047
-0.00361213
-0.00376999
-0.00392387
-0.00407309
-0.00421646
-0.00435234
-0.00447873
-0.00459328
-0.00469336
-0.00477614
-0.00483864
-0.0048778
-0.00489057
-0.00487397
-0.00482519
-0.00474167
-0.00462119
-0.00446194
-0.00426265
-0.00402265
-0.00374193
-0.00342127
-0.00306225
-0.00266735
-0.00223994
-0.00178433
-0.00130574
-0.000810253
-0.000304794
0.000203009
0.000704931
0.00119231
0.00165624
0.00208777
0.00247817
0.00281913
0.00310305
0.00332325
0.00347425
0.00355188
0.00355353
0.00347821
0.00332657
0.00310097
0.00280532
0.00244503
0.00202674
0.00155816
0.00104778
0.000504595
-6.2417e-05
-0.000644326
-0.00122931
-0.00180633
-0.00240962
-0.00307129
0.00104507
0.000241929
-0.000383482
-0.000886081
-0.00133239
-0.00172708
-0.00207404
-0.00238123
-0.0026561
-0.00290509
-0.00313388
-0.00334736
-0.0035496
-0.00374389
-0.00393273
-0.00411786
-0.00430034
-0.00448056
-0.00465829
-0.00483272
-0.00500254
-0.00516593
-0.00532069
-0.00546424
-0.00559368
-0.00570589
-0.00579756
-0.00586528
-0.0059056
-0.00591514
-0.00589065
-0.0058291
-0.00572779
-0.00558445
-0.00539732
-0.00516523
-0.00488776
-0.00456523
-0.00419889
-0.00379089
-0.00334439
-0.00286358
-0.00235365
-0.00182083
-0.00127231
-0.000716135
-0.00016111
0.000383357
0.00090746
0.00140121
0.0018547
0.00225836
0.00260326
0.00288139
0.00308593
0.00321148
0.00325429
0.00321241
0.00308575
0.00287615
0.00258728
0.00222454
0.00179486
0.00130646
0.000768563
0.000191062
-0.000416073
-0.00104285
-0.00167604
-0.00230329
-0.00296206
-0.00368736
0.000515168
-0.000310251
-0.000952667
-0.00146877
-0.00192725
-0.00233321
-0.0026909
-0.00300879
-0.00329474
-0.00355557
-0.00379727
-0.00402496
-0.00424291
-0.00445455
-0.00466246
-0.00486843
-0.00507352
-0.00527807
-0.00548178
-0.00568374
-0.00588248
-0.00607603
-0.00626197
-0.00643748
-0.00659939
-0.00674428
-0.00686848
-0.00696822
-0.00703964
-0.00707891
-0.0070823
-0.00704629
-0.00696767
-0.0068436
-0.00667179
-0.00645053
-0.00617886
-0.00585663
-0.0054846
-0.00506455
-0.00459934
-0.00409293
-0.00355046
-0.0029782
-0.00238355
-0.00177495
-0.00116177
-0.000554191
3.70503e-05
0.000600847
0.00112601
0.00160159
0.00201715
0.00236315
0.00263123
0.00281453
0.00290796
0.00290838
0.00281478
0.00262828
0.00235219
0.00199183
0.00155434
0.00104848
0.000484219
-0.000127565
-0.000775813
-0.00144935
-0.0021334
-0.00281416
-0.00353256
-0.00432677
-0.000101853
-0.000946878
-0.00160435
-0.00213257
-0.00260215
-0.0030186
-0.00338658
-0.00371499
-0.00401213
-0.00428515
-0.00454033
-0.00478305
-0.00501775
-0.00524798
-0.0054764
-0.00570486
-0.00593439
-0.00616531
-0.00639723
-0.00662913
-0.00685942
-0.00708593
-0.00730605
-0.0075167
-0.00771445
-0.00789554
-0.00805597
-0.00819157
-0.00829803
-0.00837107
-0.00840644
-0.00840008
-0.0083482
-0.00824739
-0.00809471
-0.00788785
-0.00762525
-0.00730615
-0.00693079
-0.00650045
-0.00601758
-0.00548584
-0.0049102
-0.00429689
-0.00365347
-0.00298871
-0.00231252
-0.00163583
-0.000970352
-0.000328374
0.000277551
0.00083492
0.00133165
0.00175645
0.00209921
0.00235136
0.00250618
0.00255912
0.00250799
0.00235302
0.00209695
0.0017449
0.00130418
0.000784018
0.000195197
-0.000450373
-0.00114043
-0.0018625
-0.00260009
-0.00333777
-0.00412027
-0.00498917
-0.00080844
-0.00167029
-0.00234082
-0.00287971
-0.00335929
-0.00378546
-0.00416325
-0.00450201
-0.00481043
-0.00509599
-0.00536525
-0.0056238
-0.00587628
-0.00612635
-0.00637675
-0.00662936
-0.00688521
-0.00714457
-0.007407
-0.00767136
-0.00793591
-0.00819833
-0.00845578
-0.00870495
-0.00894212
-0.00916321
-0.00936387
-0.00953949
-0.00968534
-0.00979662
-0.00986854
-0.00989647
-0.00987598
-0.00980299
-0.00967392
-0.00948574
-0.00923618
-0.00892383
-0.00854826
-0.00811016
-0.00761146
-0.00705541
-0.00644667
-0.00579136
-0.00509709
-0.00437288
-0.00362914
-0.00287752
-0.00213072
-0.00140224
-0.000706106
-5.64797e-05
0.000532716
0.00104824
0.00147796
0.00181131
0.00203969
0.00215684
0.00215908
0.00204551
0.00181809
0.00148157
0.00104331
0.000512964
-9.78607e-05
-0.000776153
-0.00150835
-0.00228054
-0.00307432
-0.00387246
-0.00472382
-0.00567365
-0.00160661
-0.00248242
-0.00316393
-0.00371203
-0.00420047
-0.00463557
-0.0050227
-0.00537163
-0.0056914
-0.00598983
-0.00627374
-0.00654894
-0.00682022
-0.00709136
-0.00736519
-0.0076436
-0.00792765
-0.00821757
-0.00851282
-0.0088122
-0.0091138
-0.00941516
-0.00971322
-0.0100044
-0.0102848
-0.0105499
-0.0107951
-0.0110152
-0.0112051
-0.0113595
-0.011473
-0.0115404
-0.0115564
-0.0115165
-0.0114162
-0.0112516
-0.0110199
-0.0107187
-0.0103468
-0.00990436
-0.00939251
-0.00881399
-0.00817307
-0.00747559
-0.0067291
-0.00594278
-0.00512744
-0.00429542
-0.00346037
-0.00263705
-0.001841
-0.00108819
-0.000394546
0.000224517
0.000754596
0.00118283
0.0014984
0.00169297
0.00176108
0.00170038
0.00151177
0.00119943
0.000770594
0.000235294
-0.000394079
-0.00110335
-0.00187755
-0.00270117
-0.00355372
-0.00441594
-0.0053412
-0.00637867
-0.00249791
-0.00338474
-0.00407512
-0.00463092
-0.0051271
-0.00557031
-0.00596629
-0.00632517
-0.00665636
-0.00696797
-0.00726707
-0.00755967
-0.00785072
-0.00814413
-0.00844279
-0.00874865
-0.00906275
-0.00938529
-0.00971569
-0.0100526
-0.0103941
-0.0107375
-0.0110795
-0.0114164
-0.0117439
-0.0120572
-0.0123513
-0.0126207
-0.0128597
-0.0130624
-0.013223
-0.0133353
-0.0133937
-0.0133926
-0.0133267
-0.0131915
-0.0129831
-0.0126982
-0.012335
-0.0118924
-0.011371
-0.0107728
-0.0101015
-0.00936264
-0.00856341
-0.00771309
-0.00682279
-0.00590543
-0.00497557
-0.00404923
-0.00314353
-0.00227631
-0.00146567
-0.00072943
-8.4536e-05
0.000453531
0.000871366
0.0011582
0.00130637
0.00131173
0.00117379
0.000895863
0.000484883
-4.88878e-05
-0.000692303
-0.00142999
-0.00224547
-0.0031215
-0.00403524
-0.00496523
-0.00596964
-0.00710191
-0.0034834
-0.00437827
-0.00507537
-0.00563737
-0.00614013
-0.00659063
-0.00699494
-0.00736354
-0.00770617
-0.00803121
-0.00834598
-0.00865668
-0.00896842
-0.00928521
-0.00961003
-0.00994487
-0.0102908
-0.010648
-0.0110158
-0.0113928
-0.011777
-0.0121654
-0.0125548
-0.0129411
-0.0133196
-0.0136855
-0.0140331
-0.0143567
-0.01465
-0.0149066
-0.0151199
-0.0152833
-0.0153901
-0.0154341
-0.0154091
-0.0153096
-0.0151307
-0.0148682
-0.0145192
-0.0140818
-0.0135554
-0.0129414
-0.0122427
-0.0114641
-0.0106127
-0.00969744
-0.00872968
-0.00772278
-0.00669215
-0.00565501
-0.00463006
-0.0036371
-0.00269656
-0.00182884
-0.00105373
-0.000389674
0.000146954
0.000542514
0.000786724
0.000873157
0.000799575
0.000568072
0.000185003
-0.00033931
-0.000991046
-0.00175362
-0.00260896
-0.00353791
-0.00451505
-0.00551645
-0.0066055
-0.00784016
-0.00456364
-0.00546353
-0.00616522
-0.0067319
-0.00724006
-0.00769701
-0.0081091
-0.00848716
-0.00884119
-0.00917985
-0.00951068
-0.00984007
-0.0101733
-0.0105145
-0.0108666
-0.0112319
-0.0116113
-0.012005
-0.0124123
-0.0128319
-0.0132614
-0.013698
-0.014138
-0.0145772
-0.0150109
-0.0154336
-0.0158395
-0.0162223
-0.0165752
-0.0168914
-0.0171635
-0.0173842
-0.0175461
-0.017642
-0.0176648
-0.0176079
-0.0174655
-0.0172322
-0.016904
-0.0164778
-0.0159521
-0.0153272
-0.014605
-0.0137897
-0.0128877
-0.0119077
-0.0108611
-0.00976142
-0.00862489
-0.0074698
-0.00631643
-0.00518657
-0.00410307
-0.00308913
-0.00216764
-0.00136034
-0.000687019
-0.000164646
0.00019337
0.000377838
0.000384265
0.000213116
-0.000130177
-0.000635473
-0.00128841
-0.00207122
-0.00296413
-0.00394595
-0.0049884
-0.00606479
-0.0072441
-0.00858916
-0.00573865
-0.00664057
-0.0073447
-0.00791456
-0.00842697
-0.0088895
-0.0093088
-0.00969597
-0.0100613
-0.0104137
-0.0107608
-0.0111094
-0.0114647
-0.0118311
-0.0122117
-0.0126085
-0.0130229
-0.0134548
-0.0139036
-0.0143679
-0.0148453
-0.0153328
-0.0158267
-0.0163224
-0.0168151
-0.0172989
-0.0177677
-0.0182147
-0.0186328
-0.0190144
-0.0193515
-0.019636
-0.0198598
-0.0200147
-0.0200926
-0.0200859
-0.0199875
-0.0197909
-0.0194908
-0.019083
-0.0185646
-0.0179347
-0.0171943
-0.0163464
-0.0153968
-0.0143536
-0.0132278
-0.0120334
-0.0107869
-0.00950764
-0.00821739
-0.00693992
-0.00570055
-0.00452546
-0.00344087
-0.00247219
-0.00164303
-0.000974207
-0.000482814
-0.000181381
-7.7221e-05
-0.000172011
-0.000461675
-0.00093658
-0.00158202
-0.00237909
-0.0033063
-0.00434023
-0.00544947
-0.00660426
-0.00787959
-0.00934341
-0.00700791
-0.00790892
-0.00861342
-0.00918497
-0.00970046
-0.0101677
-0.0105936
-0.0109894
-0.0113658
-0.0117319
-0.0120955
-0.0124634
-0.0128413
-0.0132335
-0.0136433
-0.0140728
-0.0145232
-0.0149948
-0.0154869
-0.0159978
-0.0165254
-0.0170664
-0.0176171
-0.0181727
-0.0187279
-0.019277
-0.0198132
-0.0203294
-0.020818
-0.0212707
-0.0216791
-0.0220341
-0.0223268
-0.0225481
-0.0226888
-0.0227401
-0.0226938
-0.022542
-0.0222782
-0.0218966
-0.0213931
-0.0207653
-0.020013
-0.019138
-0.018145
-0.0170415
-0.0158379
-0.0145481
-0.0131889
-0.0117805
-0.0103459
-0.00891089
-0.00750325
-0.0061522
-0.00488755
-0.0037387
-0.00273351
-0.00189718
-0.00125111
-0.0008118
-0.000590043
-0.000590273
-0.000810306
-0.00124143
-0.00186888
-0.00267275
-0.0036298
-0.00471423
-0.0058912
-0.00712758
-0.00850473
-0.010096
-0.00837038
-0.00926765
-0.00997048
-0.0105423
-0.0110597
-0.0115307
-0.0119625
-0.0123666
-0.0127537
-0.0131332
-0.0135131
-0.0139006
-0.0143012
-0.0147195
-0.0151589
-0.0156217
-0.0161091
-0.0166214
-0.017158
-0.0177174
-0.018297
-0.0188939
-0.0195039
-0.0201223
-0.0207436
-0.0213617
-0.0219696
-0.0225598
-0.023124
-0.0236536
-0.0241393
-0.0245714
-0.02494
-0.0252351
-0.0254464
-0.0255639
-0.0255781
-0.0254798
-0.0252609
-0.0249142
-0.024434
-0.0238165
-0.0230598
-0.0221644
-0.0211338
-0.0199743
-0.0186958
-0.0173115
-0.0158385
-0.0142974
-0.0127124
-0.0111111
-0.00952356
-0.00798226
-0.00652071
-0.00517256
-0.00397039
-0.00294431
-0.00212065
-0.00152063
-0.00115925
-0.00104443
-0.00117653
-0.00154831
-0.0021453
-0.0029468
-0.00392785
-0.00506016
-0.00630517
-0.00762597
-0.00911073
-0.0108385
-0.00982448
-0.0107153
-0.0114146
-0.0119852
-0.0125035
-0.0129774
-0.0134143
-0.013826
-0.0142233
-0.0146157
-0.0150117
-0.0154183
-0.0158415
-0.0162859
-0.0167551
-0.0172514
-0.0177763
-0.01833
-0.0189121
-0.0195209
-0.0201542
-0.0208086
-0.0214802
-0.022164
-0.0228544
-0.023545
-0.0242285
-0.0248969
-0.0255417
-0.0261534
-0.0267223
-0.0272379
-0.0276894
-0.0280656
-0.0283553
-0.0285473
-0.0286307
-0.0285948
-0.0284299
-0.0281274
-0.0276797
-0.0270814
-0.0263289
-0.0254211
-0.02436
-0.0231505
-0.0218015
-0.0203255
-0.0187393
-0.0170637
-0.0153239
-0.0135489
-0.0117713
-0.0100264
-0.0083516
-0.00678512
-0.00536458
-0.00412557
-0.00310002
-0.00231465
-0.00178951
-0.00153683
-0.0015603
-0.0018548
-0.00240667
-0.00319473
-0.0041924
-0.00536879
-0.00668132
-0.00808893
-0.00968701
-0.0115605
-0.0113681
-0.0122501
-0.012944
-0.0135122
-0.0140302
-0.014506
-0.0149472
-0.0153657
-0.0157724
-0.0161772
-0.0165885
-0.0170138
-0.0174589
-0.017929
-0.0184275
-0.0189572
-0.0195194
-0.0201147
-0.0207426
-0.0214016
-0.0220894
-0.0228028
-0.0235376
-0.0242889
-0.0250508
-0.0258167
-0.0265791
-0.0273297
-0.0280594
-0.0287583
-0.0294158
-0.0300209
-0.0305617
-0.0310263
-0.0314021
-0.0316768
-0.0318379
-0.0318734
-0.031772
-0.0315232
-0.0311179
-0.0305485
-0.0298097
-0.0288987
-0.0278154
-0.0265635
-0.0251502
-0.023587
-0.0218902
-0.0200804
-0.0181833
-0.0162292
-0.0142527
-0.0122922
-0.0103889
-0.00858554
-0.00692527
-0.00544961
-0.0041968
-0.00319985
-0.00248478
-0.00206911
-0.00196077
-0.00215757
-0.00264731
-0.00340875
-0.00441387
-0.00562918
-0.00700775
-0.008504
-0.0102209
-0.0122496
-0.0129987
-0.0138696
-0.0145566
-0.0151212
-0.0156378
-0.0161146
-0.0165591
-0.0169834
-0.0173987
-0.0178148
-0.0182404
-0.0186832
-0.0191494
-0.019644
-0.020171
-0.0207332
-0.0213322
-0.0219686
-0.0226421