/*--------------------------------*- C++ -*----------------------------------*\
  =========                 |
  \\      /  F ield         | OpenFOAM: The Open Source CFD Toolbox
   \\    /   O peration     | Website:  https://openfoam.org
    \\  /    A nd           | Version:  dev
     \\/     M anipulation  |
\*---------------------------------------------------------------------------*/
FoamFile
{
    format      ascii;
    class       surfaceScalarField;
    location    "20.25";
    object      phi;
}
// * * * * * * * * * * * * * * * * * * * * * * * * * * * * * * * * * * * * * //

dimensions      [0 3 -1 0 0 0 0];

internalField   nonuniform List<scalar> 
10224
(
3.44165e-08
-3.41955e-08
8.8056e-08
-5.365e-08
1.24385e-07
-3.63328e-08
1.2521e-07
-8.23192e-10
8.35146e-08
4.16945e-08
-1.9868e-09
8.54989e-08
-1.29476e-07
1.27489e-07
-2.9565e-07
1.66177e-07
-4.96457e-07
2.00809e-07
-7.27599e-07
2.31143e-07
-9.84812e-07
2.57212e-07
-1.26401e-06
2.79192e-07
-1.56135e-06
2.97339e-07
-1.87328e-06
3.11933e-07
-2.19654e-06
3.23259e-07
-2.52812e-06
3.31585e-07
-2.86527e-06
3.37146e-07
-3.20541e-06
3.40142e-07
-3.54615e-06
3.40735e-07
-3.88519e-06
3.39048e-07
-4.22036e-06
3.35164e-07
-4.5495e-06
3.29138e-07
-4.8705e-06
3.20994e-07
-5.18123e-06
3.10736e-07
-5.47958e-06
2.98351e-07
-5.7634e-06
2.83818e-07
-6.03052e-06
2.67116e-07
-6.27875e-06
2.48227e-07
-6.5059e-06
2.27148e-07
-6.70979e-06
2.03892e-07
-6.88829e-06
1.78497e-07
-7.03932e-06
1.51031e-07
-7.16092e-06
1.21596e-07
-7.25125e-06
9.03323e-08
-7.30867e-06
5.74184e-08
-7.33174e-06
2.3077e-08
-7.31932e-06
-1.24266e-08
-7.27053e-06
-4.87843e-08
-7.18489e-06
-8.56472e-08
-7.06226e-06
-1.22629e-07
-6.90295e-06
-1.59308e-07
-6.70771e-06
-1.95238e-07
-6.47776e-06
-2.29949e-07
-6.21481e-06
-2.62957e-07
-5.92103e-06
-2.93776e-07
-5.59911e-06
-3.21925e-07
-5.25217e-06
-3.46938e-07
-4.88379e-06
-3.68377e-07
-4.49795e-06
-3.85839e-07
-4.09898e-06
-3.98973e-07
-3.6915e-06
-4.07482e-07
-3.28036e-06
-4.11136e-07
-2.87058e-06
-4.09779e-07
-2.46724e-06
-4.03338e-07
-2.07542e-06
-3.91819e-07
-1.7001e-06
-3.75321e-07
-1.34608e-06
-3.54027e-07
-1.01787e-06
-3.2821e-07
-7.19638e-07
-2.98232e-07
-4.55098e-07
-2.6454e-07
-2.27426e-07
-2.27673e-07
-3.91655e-08
-1.88261e-07
1.07876e-07
-1.47042e-07
2.12759e-07
-1.04883e-07
2.75596e-07
-6.28354e-08
2.97813e-07
-2.22161e-08
2.82582e-07
1.52314e-08
2.35489e-07
4.70914e-08
1.65583e-07
6.99029e-08
8.71434e-08
7.84387e-08
2.25282e-08
6.46181e-08
2.25323e-08
5.41603e-08
-8.83677e-08
1.12544e-07
-1.12039e-07
1.18148e-07
-4.19345e-08
3.87049e-08
7.86213e-08
-1.42162e-07
2.2256e-07
-4.29757e-07
3.73093e-07
-8.2231e-07
5.20045e-07
-1.31369e-06
6.57557e-07
-1.89533e-06
7.82455e-07
-2.55744e-06
8.93253e-07
-3.28975e-06
9.89519e-07
-4.08202e-06
1.07146e-06
-4.92433e-06
1.13965e-06
-5.80726e-06
1.19486e-06
-6.72192e-06
1.23792e-06
-7.66e-06
1.26966e-06
-8.61369e-06
1.29084e-06
-9.57567e-06
1.30212e-06
-1.0539e-05
1.30404e-06
-1.1497e-05
1.29704e-06
-1.24432e-05
1.28142e-06
-1.33715e-05
1.2574e-06
-1.42756e-05
1.2251e-06
-1.51494e-05
1.18455e-06
-1.59868e-05
1.13577e-06
-1.67817e-05
1.07872e-06
-1.7528e-05
1.01339e-06
-1.82195e-05
9.39765e-07
-1.88503e-05
8.57899e-07
-1.94143e-05
7.67902e-07
-1.99058e-05
6.69978e-07
-2.03192e-05
5.64439e-07
-2.06493e-05
4.51715e-07
-2.08914e-05
3.32377e-07
-2.10411e-05
2.07136e-07
-2.10949e-05
7.68557e-08
-2.10498e-05
-5.74505e-08
-2.0904e-05
-1.94619e-07
-2.06563e-05
-3.33345e-07
-2.03067e-05
-4.72192e-07
-1.98564e-05
-6.0961e-07
-1.93077e-05
-7.43955e-07
-1.86642e-05
-8.73514e-07
-1.79306e-05
-9.96533e-07
-1.71131e-05
-1.11125e-06
-1.62191e-05
-1.21593e-06
-1.52572e-05
-1.30889e-06
-1.4237e-05
-1.38857e-06
-1.31693e-05
-1.45353e-06
-1.20657e-05
-1.50252e-06
-1.09387e-05
-1.53447e-06
-9.80129e-06
-1.54859e-06
-8.66674e-06
-1.54433e-06
-7.54864e-06
-1.52144e-06
-6.46048e-06
-1.47998e-06
-5.41549e-06
-1.42032e-06
-4.42634e-06
-1.34317e-06
-3.505e-06
-1.24956e-06
-2.66238e-06
-1.14085e-06
-1.90818e-06
-1.01874e-06
-1.25057e-06
-8.85285e-07
-6.95945e-07
-7.42886e-07
-2.48612e-07
-5.94373e-07
8.95776e-08
-4.43072e-07
3.19692e-07
-2.92951e-07
4.46325e-07
-1.48849e-07
4.7845e-07
-1.68944e-08
4.30525e-07
9.50155e-08
3.23964e-07
1.76459e-07
1.8875e-07
2.13646e-07
6.43086e-08
1.89055e-07
8.68433e-08
3.74062e-08
-1.25778e-07
4.33417e-08
-1.17974e-07
-4.33417e-08
4.47482e-08
-2.58823e-07
2.94101e-07
-6.22663e-07
5.864e-07
-1.14195e-06
8.92382e-07
-1.81494e-06
1.19304e-06
-2.63397e-06
1.4766e-06
-3.5877e-06
1.73618e-06
-4.6626e-06
1.96816e-06
-5.84412e-06
2.17104e-06
-7.11739e-06
2.34472e-06
-8.4677e-06
2.48997e-06
-9.88084e-06
2.608e-06
-1.13432e-05
2.70027e-06
-1.28418e-05
2.76829e-06
-1.43645e-05
2.81349e-06
-1.58995e-05
2.83712e-06
-1.74357e-05
2.84027e-06
-1.89625e-05
2.82379e-06
-2.04694e-05
2.78833e-06
-2.19463e-05
2.73433e-06
-2.33833e-05
2.66208e-06
-2.47705e-05
2.57174e-06
-2.6098e-05
2.46335e-06
-2.73563e-05
2.33695e-06
-2.85354e-05
2.19256e-06
-2.9626e-05
2.03028e-06
-3.06183e-05
1.85029e-06
-3.15034e-05
1.65292e-06
-3.22721e-05
1.43871e-06
-3.29161e-05
1.20841e-06
-3.34274e-05
9.63007e-07
-3.37988e-05
7.03803e-07
-3.4024e-05
4.32375e-07
-3.40978e-05
1.50614e-07
-3.4016e-05
-1.39277e-07
-3.37758e-05
-4.34798e-07
-3.3376e-05
-7.33156e-07
-3.28169e-05
-1.0313e-06
-3.21005e-05
-1.32595e-06
-3.12308e-05
-1.61364e-06
-3.02136e-05
-1.89078e-06
-2.90564e-05
-2.15368e-06
-2.7769e-05
-2.39868e-06
-2.63628e-05
-2.62216e-06
-2.4851e-05
-2.82063e-06
-2.32488e-05
-2.99084e-06
-2.15725e-05
-3.12982e-06
-1.984e-05
-3.23496e-06
-1.80704e-05
-3.3041e-06
-1.62834e-05
-3.33558e-06
-1.44995e-05
-3.3283e-06
-1.27391e-05
-3.28177e-06
-1.1023e-05
-3.19613e-06
-9.37108e-06
-3.07222e-06
-7.80271e-06
-2.91154e-06
-6.33597e-06
-2.7163e-06
-4.98737e-06
-2.48944e-06
-3.77151e-06
-2.2346e-06
-2.70062e-06
-1.95617e-06
-1.78417e-06
-1.65934e-06
-1.02839e-06
-1.35016e-06
-4.35752e-07
-1.03571e-06
-4.35978e-09
-7.24344e-07
2.72839e-07
-4.2605e-07
4.08897e-07
-1.52954e-07
4.24025e-07
7.98887e-08
3.46819e-07
2.53673e-07
2.15438e-07
3.45035e-07
7.85427e-08
3.25946e-07
1.65387e-07
1.92036e-09
-1.27695e-07
-7.89296e-08
-3.71226e-08
-2.97587e-07
2.63404e-07
-6.87714e-07
6.84228e-07
-1.26758e-06
1.16627e-06
-2.04344e-06
1.66824e-06
-3.01248e-06
2.16208e-06
-4.16545e-06
2.62957e-06
-5.48876e-06
3.05949e-06
-6.96609e-06
3.44549e-06
-8.57962e-06
3.78457e-06
-1.03109e-05
4.07599e-06
-1.21414e-05
4.32047e-06
-1.4053e-05
4.51959e-06
-1.60281e-05
4.67538e-06
-1.80498e-05
4.79004e-06
-2.01021e-05
4.86571e-06
-2.21692e-05
4.90431e-06
-2.42365e-05
4.90752e-06
-2.62894e-05
4.87671e-06
-2.8314e-05
4.81291e-06
-3.02966e-05
4.7169e-06
-3.22237e-05
4.58916e-06
-3.40819e-05
4.43002e-06
-3.58583e-05
4.23966e-06
-3.75395e-05
4.01823e-06
-3.91129e-05
3.76589e-06
-4.05655e-05
3.48291e-06
-4.1885e-05
3.16975e-06
-4.30591e-05
2.82709e-06
-4.40764e-05
2.45597e-06
-4.49258e-05
2.05778e-06
-4.55971e-05
1.63433e-06
-4.60812e-05
1.1879e-06
-4.63701e-05
7.21275e-07
-4.64572e-05
2.37714e-07
-4.63375e-05
-2.58999e-07
-4.60077e-05
-7.64594e-07
-4.54665e-05
-1.27434e-06
-4.47147e-05
-1.78308e-06
-4.37554e-05
-2.2853e-06
-4.25938e-05
-2.77519e-06
-4.12379e-05
-3.24674e-06
-3.96977e-05
-3.69382e-06
-3.79861e-05
-4.11031e-06
-3.6118e-05
-4.4902e-06
-3.41109e-05
-4.82774e-06
-3.19843e-05
-5.11751e-06
-2.97595e-05
-5.3546e-06
-2.74597e-05
-5.53472e-06
-2.51095e-05
-5.6543e-06
-2.27345e-05
-5.71061e-06
-2.03609e-05
-5.70184e-06
-1.80155e-05
-5.62721e-06
-1.57246e-05
-5.487e-06
-1.35142e-05
-5.28263e-06
-1.14091e-05
-5.01665e-06
-9.43257e-06
-4.69284e-06
-7.60588e-06
-4.31614e-06
-5.94776e-06
-3.89272e-06
-4.4739e-06
-3.43003e-06
-3.19642e-06
-2.93682e-06
-2.12327e-06
-2.42331e-06
-1.25766e-06
-1.90132e-06
-5.97358e-07
-1.38465e-06
-1.33938e-07
-8.89469e-07
1.4807e-07
-4.34962e-07
2.72095e-07
-4.41394e-08
2.70563e-07
2.55204e-07
1.85929e-07
4.29674e-07
7.20955e-08
4.39776e-07
2.37483e-07
-4.20397e-08
-8.5656e-08
-2.29937e-07
1.50774e-07
-6.06269e-07
6.39736e-07
-1.19758e-06
1.27554e-06
-2.01758e-06
1.98627e-06
-3.06941e-06
2.72008e-06
-4.3479e-06
3.44056e-06
-5.8416e-06
4.12327e-06
-7.53466e-06
4.75255e-06
-9.40829e-06
5.31912e-06
-1.1442e-05
5.81823e-06
-1.36143e-05
6.24829e-06
-1.59036e-05
6.60979e-06
-1.82885e-05
6.90454e-06
-2.07482e-05
7.13506e-06
-2.32624e-05
7.30421e-06
-2.58115e-05
7.41479e-06
-2.83766e-05
7.46943e-06
-3.09395e-05
7.47044e-06
-3.34825e-05
7.41969e-06
-3.59883e-05
7.31868e-06
-3.84399e-05
7.16852e-06
-4.08207e-05
6.97e-06
-4.31143e-05
6.72363e-06
-4.53045e-05
6.42981e-06
-4.73751e-05
6.08887e-06
-4.93104e-05
5.7012e-06
-5.10949e-05
5.26735e-06
-5.27133e-05
4.78817e-06
-5.41511e-05
4.26487e-06
-5.53942e-05
3.69914e-06
-5.64297e-05
3.09321e-06
-5.72453e-05
2.44996e-06
-5.78303e-05
1.77292e-06
-5.81754e-05
1.06632e-06
-5.82728e-05
3.35163e-07
-5.81169e-05
-4.14867e-07
-5.77042e-05
-1.17736e-06
-5.70333e-05
-1.94524e-06
-5.61055e-05
-2.71084e-06
-5.49248e-05
-3.46598e-06
-5.3498e-05
-4.20207e-06
-5.18345e-05
-4.91023e-06
-4.99469e-05
-5.58144e-06
-4.78504e-05
-6.20672e-06
-4.55634e-05
-6.77723e-06
-4.31067e-05
-7.28451e-06
-4.05035e-05
-7.72066e-06
-3.77796e-05
-8.07848e-06
-3.49627e-05
-8.35168e-06
-3.20819e-05
-8.53505e-06
-2.91679e-05
-8.62458e-06
-2.62521e-05
-8.61765e-06
-2.33662e-05
-8.51314e-06
-2.05417e-05
-8.31147e-06
-1.78096e-05
-8.01476e-06
-1.51994e-05
-7.62683e-06
-1.2739e-05
-7.15325e-06
-1.04538e-05
-6.60138e-06
-8.36607e-06
-5.98041e-06
-6.49473e-06
-5.30136e-06
-4.85433e-06
-4.57722e-06
-3.45459e-06
-3.82304e-06
-2.29975e-06
-3.05616e-06
-1.38786e-06
-2.29654e-06
-7.101e-07
-1.56723e-06
-2.5002e-07
-8.95043e-07
1.71947e-08
-3.11355e-07
1.25552e-07
1.46845e-07
1.19147e-07
4.36082e-07
5.35425e-08
5.0538e-07
2.91026e-07
-8.93971e-08
3.73802e-09
-3.95123e-07
4.565e-07
-9.4452e-07
1.18914e-06
-1.75414e-06
2.08517e-06
-2.83077e-06
3.0629e-06
-4.17263e-06
4.06194e-06
-5.77087e-06
5.03881e-06
-7.61111e-06
5.96351e-06
-9.67489e-06
6.81633e-06
-1.19409e-05
7.58517e-06
-1.43862e-05
8.26351e-06
-1.69867e-05
8.84882e-06
-1.97182e-05
9.34129e-06
-2.25566e-05
9.74286e-06
-2.5478e-05
1.00565e-05
-2.84594e-05
1.02856e-05
-3.14782e-05
1.04336e-05
-3.45127e-05
1.05039e-05
-3.75416e-05
1.04994e-05
-4.05443e-05
1.04224e-05
-4.35005e-05
1.02749e-05
-4.63905e-05
1.00585e-05
-4.91946e-05
9.77414e-06
-5.18937e-05
9.42273e-06
-5.44688e-05
9.00487e-06
-5.69011e-05
8.52116e-06
-5.91722e-05
7.97229e-06
-6.1264e-05
7.35924e-06
-6.31592e-05
6.68334e-06
-6.48408e-05
5.94648e-06
-6.62929e-05
5.15117e-06
-6.75004e-05
4.3007e-06
-6.84496e-05
3.39918e-06
-6.91283e-05
2.45164e-06
-6.9526e-05
1.46406e-06
-6.96343e-05
4.43401e-07
-6.94467e-05
-6.0241e-07
-6.89596e-05
-1.66451e-06
-6.81717e-05
-2.73315e-06
-6.70847e-05
-3.79779e-06
-6.57035e-05
-4.84723e-06
-6.40358e-05
-5.86972e-06
-6.20929e-05
-6.85316e-06
-5.98891e-05
-7.78526e-06
-5.7442e-05
-8.65378e-06
-5.47725e-05
-9.44672e-06
-5.19044e-05
-1.01526e-05
-4.88645e-05
-1.07606e-05
-4.56818e-05
-1.12611e-05
-4.23881e-05
-1.16454e-05
-3.90166e-05
-1.19065e-05
-3.56022e-05
-1.2039e-05
-3.21807e-05
-1.20392e-05
-2.87882e-05
-1.19056e-05
-2.54608e-05
-1.16388e-05
-2.22338e-05
-1.12418e-05
-1.91411e-05
-1.07195e-05
-1.62145e-05
-1.00798e-05
-1.34832e-05
-9.33268e-06
-1.0973e-05
-8.49062e-06
-8.70566e-06
-7.56873e-06
-6.6982e-06
-6.58468e-06
-4.96234e-06
-5.5589e-06
-3.50375e-06
-4.51476e-06
-2.32139e-06
-3.47889e-06
-1.40693e-06
-2.48169e-06
-7.44085e-07
-1.55789e-06
-3.08055e-07
-7.47385e-07
-6.49116e-08
-9.62998e-08
2.9045e-08
3.42125e-07
2.82074e-08
5.06219e-07
3.19234e-07
-1.37561e-07
1.41299e-07
-5.65927e-07
8.84868e-07
-1.29653e-06
1.91975e-06
-2.33445e-06
3.12309e-06
-3.67798e-06
4.40643e-06
-5.31905e-06
5.70301e-06
-7.24404e-06
6.9638e-06
-9.43487e-06
8.15434e-06
-1.187e-05
9.25145e-06
-1.45255e-05
1.02406e-05
-1.73757e-05
1.11137e-05
-2.03943e-05
1.18675e-05
-2.35547e-05
1.25017e-05
-2.68303e-05
1.30184e-05
-3.01948e-05
1.3421e-05
-3.36226e-05
1.37134e-05
-3.70888e-05
1.38998e-05
-4.05688e-05
1.3984e-05
-4.4039e-05
1.39695e-05
-4.7476e-05
1.38594e-05
-5.08571e-05
1.3656e-05
-5.41598e-05
1.33612e-05
-5.73621e-05
1.29764e-05
-6.04421e-05
1.25028e-05
-6.33786e-05
1.19413e-05
-6.61502e-05
1.12928e-05
-6.87364e-05
1.05585e-05
-7.11168e-05
9.73967e-06
-7.32719e-05
8.83844e-06
-7.51829e-05
7.85744e-06
-7.68319e-05
6.80017e-06
-7.82023e-05
5.67112e-06
-7.9279e-05
4.47585e-06
-8.00484e-05
3.22109e-06
-8.04992e-05
1.91478e-06
-8.06219e-05
5.66103e-07
-8.04097e-05
-8.14534e-07
-7.98587e-05
-2.21553e-06
-7.89677e-05
-3.62419e-06
-7.77387e-05
-5.0268e-06
-7.61771e-05
-6.40884e-06
-7.42917e-05
-7.75508e-06
-7.2095e-05
-9.04987e-06
-6.96029e-05
-1.02773e-05
-6.6835e-05
-1.14217e-05
-6.38143e-05
-1.24674e-05
-6.05672e-05
-1.33997e-05
-5.71232e-05
-1.42047e-05
-5.35146e-05
-1.48697e-05
-4.97763e-05
-1.53837e-05
-4.59452e-05
-1.57376e-05
-4.20599e-05
-1.59242e-05
-3.81601e-05
-1.5939e-05
-3.4286e-05
-1.57797e-05
-3.04776e-05
-1.54472e-05
-2.67742e-05
-1.49451e-05
-2.32137e-05
-1.42801e-05
-1.98316e-05
-1.34619e-05
-1.66607e-05
-1.25035e-05
-1.37302e-05
-1.14211e-05
-1.10648e-05
-1.02342e-05
-8.68411e-06
-8.96535e-06
-6.60216e-06
-7.64084e-06
-4.82648e-06
-6.29044e-06
-3.35756e-06
-4.94781e-06
-2.18834e-06
-3.65092e-06
-1.30362e-06
-2.4426e-06
-6.79727e-07
-1.37128e-06
-2.84059e-07
-4.91967e-07
-7.48211e-08
1.32886e-07
-6.66873e-10
4.32066e-07
3.18568e-07
-1.85288e-07
3.26589e-07
-7.37472e-07
1.43706e-06
-1.65255e-06
2.83482e-06
-2.92352e-06
4.39406e-06
-4.5393e-06
6.02222e-06
-6.48459e-06
7.6483e-06
-8.74018e-06
9.21939e-06
-1.12835e-05
1.06977e-05
-1.40896e-05
1.20575e-05
-1.71314e-05
1.32824e-05
-2.03809e-05
1.43632e-05
-2.38092e-05
1.52958e-05
-2.73874e-05
1.60799e-05
-3.10867e-05
1.67177e-05
-3.48788e-05
1.72131e-05
-3.87358e-05
1.75705e-05
-4.26306e-05
1.77945e-05
-4.65364e-05
1.78898e-05
-5.04272e-05
1.78604e-05
-5.42775e-05
1.77097e-05
-5.80622e-05
1.74407e-05
-6.17567e-05
1.70556e-05
-6.53366e-05
1.65563e-05
-6.87779e-05
1.59441e-05
-7.2057e-05
1.52204e-05
-7.51506e-05
1.43865e-05
-7.8036e-05
1.34439e-05
-8.0691e-05
1.23946e-05
-8.30941e-05
1.12415e-05
-8.52247e-05
9.98805e-06
-8.70634e-05
8.63887e-06
-8.85921e-05
7.19982e-06
-8.97943e-05
5.67806e-06
-9.06554e-05
4.08219e-06
-9.11629e-05
2.4223e-06
-9.13068e-05
7.09997e-07
-9.10797e-05
-1.04161e-06
-9.04773e-05
-2.81798e-06
-8.94983e-05
-4.6032e-06
-8.81449e-05
-6.38017e-06
-8.6423e-05
-8.13075e-06
-8.43421e-05
-9.83601e-06
-8.19155e-05
-1.14764e-05
-7.91605e-05
-1.30323e-05
-7.60981e-05
-1.4484e-05
-7.27533e-05
-1.58122e-05
-6.91545e-05
-1.69985e-05
-6.53335e-05
-1.80256e-05
-6.13255e-05
-1.88778e-05
-5.71681e-05
-1.95412e-05
-5.29014e-05
-2.00043e-05
-4.85674e-05
-2.02583e-05
-4.42092e-05
-2.02971e-05
-3.98707e-05
-2.01182e-05
-3.55957e-05
-1.97222e-05
-3.14273e-05
-1.91136e-05
-2.7407e-05
-1.83004e-05
-2.35742e-05
-1.72947e-05
-1.99651e-05
-1.61126e-05
-1.66123e-05
-1.4774e-05
-1.35436e-05
-1.33028e-05
-1.07817e-05
-1.17273e-05
-8.34301e-06
-1.00795e-05
-6.23753e-06
-8.39592e-06
-4.46785e-06
-6.71749e-06
-3.02883e-06
-5.08994e-06
-1.90718e-06
-3.56425e-06
-1.08118e-06
-2.19729e-06
-5.20489e-07
-1.05265e-06
-1.86227e-07
-2.01377e-07
-3.11265e-08
2.76966e-07
2.87442e-07
-2.31943e-07
5.58535e-07
-9.07011e-07
2.11212e-06
-2.00659e-06
3.9344e-06
-3.51162e-06
5.89909e-06
-5.40124e-06
7.91184e-06
-7.65233e-06
9.89938e-06
-1.02395e-05
1.18065e-05
-1.31352e-05
1.35934e-05
-1.63105e-05
1.52328e-05
-1.97351e-05
1.6707e-05
-2.33781e-05
1.80062e-05
-2.72083e-05
1.9126e-05
-3.11946e-05
2.00662e-05
-3.53062e-05
2.08293e-05
-3.95128e-05
2.14196e-05
-4.37844e-05
2.18421e-05
-4.8092e-05
2.21021e-05
-5.2407e-05
2.22048e-05
-5.67013e-05
2.21547e-05
-6.09475e-05
2.19559e-05
-6.51185e-05
2.16117e-05
-6.91877e-05
2.11248e-05
-7.31287e-05
2.04973e-05
-7.69157e-05
1.97311e-05
-8.0523e-05
1.88277e-05
-8.39256e-05
1.7789e-05
-8.70988e-05
1.66171e-05
-9.00188e-05
1.53146e-05
-9.26622e-05
1.3885e-05
-9.50071e-05
1.23329e-05
-9.70325e-05
1.06642e-05
-9.87189e-05
8.8862e-06
-0.000100049
7.00773e-06
-0.000101006
5.03943e-06
-0.000101577
2.99369e-06
-0.000101752
8.84695e-07
-0.000101522
-1.27158e-06
-0.000100882
-3.45745e-06
-9.9832e-05
-5.65362e-06
-9.83728e-05
-7.83937e-06
-9.65108e-05
-9.99275e-06
-9.42559e-05
-1.20909e-05
-9.16222e-05
-1.41102e-05
-8.86278e-05
-1.60268e-05
-8.52948e-05
-1.78169e-05
-8.16497e-05
-1.94573e-05
-7.77226e-05
-2.09256e-05
-7.35474e-05
-2.22008e-05
-6.91614e-05
-2.32638e-05
-6.46048e-05
-2.40977e-05
-5.99207e-05
-2.46884e-05
-5.51539e-05
-2.5025e-05
-5.03509e-05
-2.51001e-05
-4.55591e-05
-2.49101e-05
-4.08257e-05
-2.44556e-05
-3.61976e-05
-2.37417e-05
-3.172e-05
-2.2778e-05
-2.7436e-05
-2.15787e-05
-2.33856e-05
-2.0163e-05
-1.96048e-05
-1.85548e-05
-1.61249e-05
-1.67828e-05
-1.29717e-05
-1.48805e-05
-1.01648e-05
-1.28864e-05
-7.71689e-06
-1.08438e-05
-5.63331e-06
-8.80107e-06
-3.91146e-06
-6.81179e-06
-2.54056e-06
-4.93515e-06
-1.50151e-06
-3.23634e-06
-7.66911e-07
-1.78725e-06
-3.01363e-07
-6.66926e-07
-6.20707e-08
3.76733e-08
2.25371e-07
-2.77251e-07
8.35786e-07
-1.07301e-06
2.90788e-06
-2.35502e-06
5.2164e-06
-4.09247e-06
7.63654e-06
-6.25465e-06
1.0074e-05
-8.81033e-06
1.24551e-05
-1.17275e-05
1.47237e-05
-1.49734e-05
1.68393e-05
-1.85146e-05
1.8774e-05
-2.23175e-05
2.05099e-05
-2.63481e-05
2.20368e-05
-3.05729e-05
2.33508e-05
-3.49585e-05
2.44518e-05
-3.94721e-05
2.53429e-05
-4.40815e-05
2.6029e-05
-4.87552e-05
2.65158e-05
-5.34623e-05
2.68092e-05
-5.81724e-05
2.69149e-05
-6.2856e-05
2.68382e-05
-6.74837e-05
2.65836e-05
-7.20269e-05
2.61549e-05
-7.64571e-05
2.5555e-05
-8.07463e-05
2.47866e-05
-8.4867e-05
2.38518e-05
-8.87919e-05
2.27526e-05
-9.24943e-05
2.14914e-05
-9.59478e-05
2.00706e-05
-9.9127e-05
1.84938e-05
-0.000102007
1.67652e-05
-0.000104565
1.48906e-05
-0.000106778
1.2877e-05
-0.000108625
1.07333e-05
-0.000110087
8.47029e-06
-0.000111148
6.10061e-06
-0.000111794
3.63907e-06
-0.000112012
1.10254e-06
-0.000111793
-1.48999e-06
-0.000111133
-4.11756e-06
-0.000110029
-6.75735e-06
-0.000108484
-9.38484e-06
-0.000106503
-1.19741e-05
-0.000104095
-1.44981e-05
-0.000101277
-1.69289e-05
-9.8065e-05
-1.92384e-05
-9.44835e-05
-2.13984e-05
-9.05596e-05
-2.33813e-05
-8.63247e-05
-2.51605e-05
-8.18145e-05
-2.67111e-05
-7.7068e-05
-2.80103e-05
-7.2128e-05
-2.90378e-05
-6.70398e-05
-2.97766e-05
-6.18512e-05
-3.02136e-05
-5.66119e-05
-3.03394e-05
-5.13724e-05
-3.01496e-05
-4.61837e-05
-2.96443e-05
-4.10962e-05
-2.88292e-05
-3.6159e-05
-2.77151e-05
-3.14191e-05
-2.63186e-05
-2.69202e-05
-2.46619e-05
-2.27024e-05
-2.27727e-05
-1.88005e-05
-2.06846e-05
-1.52441e-05
-1.84369e-05
-1.20563e-05
-1.60743e-05
-9.25297e-06
-1.36471e-05
-6.84273e-06
-1.12113e-05
-4.82604e-06
-8.82848e-06
-3.19521e-06
-6.56599e-06
-1.93424e-06
-4.4973e-06
-1.0191e-06
-2.7024e-06
-4.1812e-07
-1.2679e-06
-9.29469e-08
-2.875e-07
1.32424e-07
-3.21098e-07
1.15688e-06
-1.23463e-06
3.82141e-06
-2.69561e-06
6.67738e-06
-4.66196e-06
9.60289e-06
-7.09326e-06
1.25053e-05
-9.9501e-06
1.53119e-05
-1.31937e-05
1.79673e-05
-1.67857e-05
2.04313e-05
-2.06882e-05
2.26765e-05
-2.48638e-05
2.46855e-05
-2.92756e-05
2.64486e-05
-3.38874e-05
2.79625e-05
-3.86637e-05
2.92281e-05
-4.35697e-05
3.0249e-05
-4.85716e-05
3.10309e-05
-5.36362e-05
3.15804e-05
-5.8731e-05
3.1904e-05
-6.38244e-05
3.20083e-05
-6.88851e-05
3.1899e-05
-7.38825e-05
3.1581e-05
-7.87864e-05
3.10587e-05
-8.35668e-05
3.03355e-05
-8.81944e-05
2.94142e-05
-9.26401e-05
2.82975e-05
-9.68751e-05
2.69877e-05
-0.000100871
2.54875e-05
-0.000104601
2.38003e-05
-0.000108037
2.193e-05
-0.000111154
1.98819e-05
-0.000113926
1.76629e-05
-0.000116331
1.52813e-05
-0.000118345
1.27476e-05
-0.000119949
1.00744e-05
-0.000121125
7.27656e-06
-0.000121857
4.37137e-06
-0.000122133
1.37847e-06
-0.000121943
-1.68009e-06
-0.000121281
-4.77996e-06
-0.000120143
-7.89468e-06
-0.000118532
-1.09958e-05
-0.000116453
-1.40533e-05
-0.000113915
-1.70357e-05
-0.000110934
-1.99107e-05
-0.000107527
-2.26455e-05
-0.000103718
-2.52074e-05
-9.95347e-05
-2.75641e-05
-9.50105e-05
-2.96847e-05
-9.01819e-05
-3.15397e-05
-8.50897e-05
-3.31025e-05
-7.97784e-05
-3.4349e-05
-7.4296e-05
-3.52591e-05
-6.86928e-05
-3.58168e-05
-6.30214e-05
-3.60108e-05
-5.73358e-05
-3.58352e-05
-5.16905e-05
-3.52897e-05
-4.61397e-05
-3.438e-05
-4.07365e-05
-3.31183e-05
-3.5532e-05
-3.15231e-05
-3.05742e-05
-2.96196e-05
-2.59072e-05
-2.74397e-05
-2.15701e-05
-2.50217e-05
-1.75966e-05
-2.24104e-05
-1.40136e-05
-1.96573e-05
-1.0841e-05
-1.68197e-05
-8.09104e-06
-1.39613e-05
-5.76777e-06
-1.11518e-05
-3.86699e-06
-8.46676e-06
-2.37625e-06
-5.98805e-06
-1.27506e-06
-3.80358e-06
-5.35574e-07
-2.00739e-06
-1.23553e-07
-6.9952e-07
8.86993e-09
-3.63445e-07
1.52033e-06
-1.39139e-06
4.84935e-06
-3.02696e-06
8.31295e-06
-5.21735e-06
1.17933e-05
-7.91268e-06
1.52007e-05
-1.10655e-05
1.84647e-05
-1.46301e-05
2.15319e-05
-1.85625e-05
2.43638e-05
-2.28202e-05
2.69343e-05
-2.73619e-05
2.92272e-05
-3.21476e-05
3.12343e-05
-3.71385e-05
3.29534e-05
-4.22968e-05
3.43864e-05
-4.75861e-05
3.55382e-05
-5.29707e-05
3.64155e-05
-5.8416e-05
3.70257e-05
-6.38883e-05
3.73763e-05
-6.93545e-05
3.74745e-05
-7.47821e-05
3.73266e-05
-8.01393e-05
3.69382e-05
-8.53945e-05
3.63139e-05
-9.05168e-05
3.54577e-05
-9.54753e-05
3.43728e-05
-0.00010024
3.30619e-05
-0.00010478
3.15282e-05
-0.000109067
2.97745e-05
-0.000113072
2.78048e-05
-0.000116766
2.56239e-05
-0.000120122
2.3238e-05
-0.000123114
2.06548e-05
-0.000125717
1.78842e-05
-0.000127907
1.49383e-05
-0.000129665
1.18315e-05
-0.000130969
8.58084e-06
-0.000131804
5.20614e-06
-0.000132155
1.72984e-06
-0.000132012
-1.82291e-06
-0.000131368
-5.42432e-06
-0.000130218
-9.04418e-06
-0.000128564
-1.26501e-05
-0.00012641
-1.62076e-05
-0.000123764
-1.9681e-05
-0.000120642
-2.30332e-05
-0.000117061
-2.62265e-05
-0.000113045
-2.92235e-05
-0.000108622
-3.19869e-05
-0.000103826
-3.44809e-05
-9.8694e-05
-3.66716e-05
-9.32687e-05
-3.85278e-05
-8.75963e-05
-4.00214e-05
-8.17267e-05
-4.11287e-05
-7.5713e-05
-4.18305e-05
-6.96107e-05
-4.2113e-05
-6.34772e-05
-4.19687e-05
-5.73706e-05
-4.13963e-05
-5.13491e-05
-4.04015e-05
-4.54702e-05
-3.89973e-05
-3.97892e-05
-3.72041e-05
-3.43588e-05
-3.50501e-05
-2.92276e-05
-3.25709e-05
-2.44396e-05
-2.98097e-05
-2.00328e-05
-2.68172e-05
-1.60388e-05
-2.36513e-05
-1.24817e-05
-2.03767e-05
-9.3781e-06
-1.70649e-05
-6.73601e-06
-1.37938e-05
-4.55517e-06
-1.06476e-05
-2.8269e-06
-7.71632e-06
-1.53444e-06
-5.09605e-06
-6.53619e-07
-2.88821e-06
-1.53916e-07
-1.19922e-06
-1.45047e-07
-4.04278e-07
1.9246e-06
-1.54299e-06
5.98807e-06
-3.34814e-06
1.01181e-05
-5.75669e-06
1.42018e-05
-8.7097e-06
1.81537e-05
-1.21517e-05
2.19067e-05
-1.60305e-05
2.54106e-05
-2.02962e-05
2.86295e-05
-2.49017e-05
3.15397e-05
-2.98018e-05
3.41273e-05
-3.49532e-05
3.63858e-05
-4.03146e-05
3.83148e-05
-4.58462e-05
3.99179e-05
-5.15094e-05
4.12015e-05
-5.72673e-05
4.21734e-05
-6.30839e-05
4.28423e-05
-6.89241e-05
4.32165e-05
-7.47537e-05
4.33041e-05
-8.05393e-05
4.31122e-05
-8.62479e-05
4.26468e-05
-9.1847e-05
4.1913e-05
-9.73044e-05
4.09152e-05
-0.000102589
3.96569e-05
-0.000107668
3.81413e-05
-0.000112511
3.63717e-05
-0.000117088
3.43516e-05
-0.000121369
3.20855e-05
-0.000125324
2.95789e-05
-0.000128925
2.68387e-05
-0.000132144
2.38738e-05
-0.000134955
2.06955e-05
-0.000137334
1.73173e-05
-0.000139258
1.37556e-05
-0.000140707
1.00295e-05
-0.000141662
6.1613e-06
-0.000142108
2.17626e-06
-0.000142034
-1.89736e-06
-0.00014143
-6.02832e-06
-0.000140291
-1.01827e-05
-0.000138618
-1.43239e-05
-0.000136412
-1.84132e-05
-0.000133683
-2.24103e-05
-0.000130443
-2.62731e-05
-0.00012671
-2.99592e-05
-0.000122508
-3.34258e-05
-0.000117864
-3.66305e-05
-0.000112813
-3.95324e-05
-0.000107392
-4.20925e-05
-0.000101645
-4.42747e-05
-9.56199e-05
-4.60465e-05
-8.93686e-05
-4.738e-05
-8.29465e-05
-4.82525e-05
-7.64123e-05
-4.86473e-05
-6.98265e-05
-4.85545e-05
-6.32513e-05
-4.79716e-05
-5.6749e-05
-4.69038e-05
-5.03816e-05
-4.53647e-05
-4.42093e-05
-4.33764e-05
-3.82898e-05
-4.09696e-05
-3.26769e-05
-3.81837e-05
-2.74197e-05
-3.5067e-05
-2.25613e-05
-3.16756e-05
-1.81384e-05
-2.80742e-05
-1.41801e-05
-2.4335e-05
-1.07076e-05
-2.05375e-05
-7.73339e-06
-1.6768e-05
-5.26158e-06
-1.31194e-05
-3.28745e-06
-9.69044e-06
-1.79805e-06
-6.58545e-06
-7.72727e-07
-3.91353e-06
-1.84214e-07
-1.78774e-06
-3.2926e-07
-4.43586e-07
2.36819e-06
-1.68923e-06
7.2337e-06
-3.65844e-06
1.20873e-05
-6.27851e-06
1.68219e-05
-9.4818e-06
2.1357e-05
-1.32052e-05
2.56302e-05
-1.73899e-05
2.95953e-05
-2.19805e-05
3.32201e-05
-2.69251e-05
3.64843e-05
-3.21747e-05
3.93768e-05
-3.76828e-05
4.1894e-05
-4.34056e-05
4.40376e-05
-4.9301e-05
4.58133e-05
-5.53288e-05
4.72294e-05
-6.14506e-05
4.82952e-05
-6.76291e-05
4.90207e-05
-7.38281e-05
4.94156e-05
-8.00126e-05
4.94886e-05
-8.61481e-05
4.92477e-05
-9.22008e-05
4.86994e-05
-9.81374e-05
4.78496e-05
-0.000103925
4.67026e-05
-0.000109531
4.52626e-05
-0.000114922
4.35331e-05
-0.000120068
4.15176e-05
-0.000124937
3.92201e-05
-0.000129497
3.66455e-05
-0.000133718
3.38e-05
-0.000137571
3.06914e-05
-0.000141026
2.73296e-05
-0.000144058
2.3727e-05
-0.000146639
1.98987e-05
-0.000148747
1.58628e-05
-0.000150358
1.16407e-05
-0.000151453
7.25687e-06
-0.000152016
2.73941e-06
-0.000152033
-1.88034e-06
-0.000151494
-6.56776e-06
-0.000150392
-1.12851e-05
-0.000148724
-1.59917e-05
-0.000146492
-2.06446e-05
-0.000143704
-2.51983e-05
-0.000140371
-2.96062e-05
-0.00013651
-3.38204e-05
-0.000132143
-3.77928e-05
-0.000127298
-4.14755e-05
-0.000122008
-4.4822e-05
-0.000116313
-4.7788e-05
-0.000110256
-5.03319e-05
-0.000103886
-5.24164e-05
-9.72571e-05
-5.40086e-05
-9.04276e-05
-5.50819e-05
-8.34587e-05
-5.56161e-05
-7.64147e-05
-5.55986e-05
-6.93614e-05
-5.50248e-05
-6.2366e-05
-5.38992e-05
-5.54952e-05
-5.22355e-05
-4.88145e-05
-5.0057e-05
-4.2387e-05
-4.7397e-05
-3.62723e-05
-4.42984e-05
-3.05252e-05
-4.08141e-05
-2.51946e-05
-3.70062e-05
-2.03229e-05
-3.2946e-05
-1.59446e-05
-2.87133e-05
-1.20861e-05
-2.43959e-05
-8.76504e-06
-2.00891e-05
-5.98999e-06
-1.58945e-05
-3.76055e-06
-1.19199e-05
-2.06756e-06
-8.27844e-06
-8.93769e-07
-5.08732e-06
-2.14723e-07
-2.46678e-06
-5.43982e-07
-4.81349e-07
2.84954e-06
-1.82989e-06
8.58225e-06
-3.95725e-06
1.42147e-05
-6.78155e-06
1.96462e-05
-1.02269e-05
2.48023e-05
-1.42228e-05
2.96261e-05
-1.8704e-05
3.40765e-05
-2.36098e-05
3.81259e-05
-2.88837e-05
4.17582e-05
-3.44728e-05
4.4966e-05
-4.03277e-05
4.77489e-05
-4.64018e-05
5.01117e-05
-5.26511e-05
5.20626e-05
-5.90337e-05
5.36119e-05
-6.55096e-05
5.47712e-05
-7.20407e-05
5.55518e-05
-7.85897e-05
5.59646e-05
-8.51207e-05
5.60196e-05
-9.15986e-05
5.57255e-05
-9.79888e-05
5.50896e-05
-0.000104257
5.41181e-05
-0.000110371
5.28159e-05
-0.000116295
5.11873e-05
-0.000121998
4.92362e-05
-0.000127447
4.69665e-05
-0.00013261
4.43825e-05
-0.000137454
4.14895e-05
-0.000141948
3.82942e-05
-0.000146062
3.48052e-05
-0.000149765
3.10334e-05
-0.000153031
2.69922e-05
-0.00015583
2.26982e-05
-0.000158139
1.81712e-05
-0.000159932
1.34344e-05
-0.00016119
8.51472e-06
-0.000161894
3.44284e-06
-0.000162027
-1.74693e-06
-0.000161578
-7.01658e-06
-0.000160539
-1.23247e-05
-0.000158904
-1.76264e-05
-0.000156674
-2.28744e-05
-0.000153854
-2.80184e-05
-0.000150454
-3.30065e-05
-0.000146489
-3.77856e-05
-0.00014198
-4.23017e-05
-0.000136954
-4.65013e-05
-0.000131444
-5.03319e-05
-0.000125489
-5.37432e-05
-0.000119133
-5.66878e-05
-0.000112427
-5.91228e-05
-0.000105425
-6.10101e-05
-9.81889e-05
-6.23182e-05
-9.07821e-05
-6.30229e-05
-8.32728e-05
-6.3108e-05
-7.5731e-05
-6.25666e-05
-6.82285e-05
-6.14016e-05
-6.08376e-05
-5.96265e-05
-5.36293e-05
-5.72653e-05
-4.66728e-05
-5.43535e-05
-4.0034e-05
-5.09372e-05
-3.3774e-05
-4.7074e-05
-2.79483e-05
-4.28319e-05
-2.26055e-05
-3.82888e-05
-1.77862e-05
-3.35326e-05
-1.35227e-05
-2.86595e-05
-9.83796e-06
-2.37738e-05
-6.74566e-06
-1.89868e-05
-4.24983e-06
-1.44157e-05
-2.34525e-06
-1.0183e-05
-1.0179e-06
-6.41468e-06
-2.4579e-07
-3.23889e-06
-7.89772e-07
-5.17531e-07
3.36707e-06
-1.96477e-06
1.00295e-05
-4.24399e-06
1.64939e-05
-7.26464e-06
2.26669e-05
-1.09429e-05
2.84806e-05
-1.52015e-05
3.38846e-05
-1.99689e-05
3.88438e-05
-2.51791e-05
4.33362e-05
-3.07714e-05
4.73504e-05
-3.6689e-05
5.08837e-05
-4.28797e-05
5.39395e-05
-4.92942e-05
5.65261e-05
-5.58865e-05
5.86549e-05
-6.26134e-05
6.03388e-05
-6.94335e-05
6.15913e-05
-7.63074e-05
6.24258e-05
-8.31974e-05
6.28546e-05
-9.00667e-05
6.28889e-05
-9.68796e-05
6.25384e-05
-0.000103601
6.1811e-05
-0.000110196
6.07135e-05
-0.000116632
5.92512e-05
-0.000122873
5.74288e-05
-0.000128887
5.52503e-05
-0.000134641
5.27199e-05
-0.0001401
4.98422e-05
-0.000145234
4.66229e-05
-0.000150009
4.30692e-05
-0.000154394
3.91902e-05
-0.000158358
3.49976e-05
-0.000161872
3.0506e-05
-0.000164907
2.5733e-05
-0.000167436
2.07e-05
-0.000169433
1.54321e-05
-0.000170877
9.95824e-06
-0.000171746
4.31164e-06
-0.000172022
-1.47052e-06
-0.000171692
-7.34702e-06
-0.000170744
-1.32727e-05
-0.000169171
-1.91989e-05
-0.000166972
-2.50736e-05
-0.000164149
-3.08417e-05
-0.000160709
-3.64462e-05
-0.000156666
-4.18282e-05
-0.00015204
-4.69278e-05
-0.000146856
-5.16855e-05
-0.000141146
-5.60423e-05
-0.000134947
-5.99415e-05
-0.000128306
-6.33293e-05
-0.000121272
-6.61565e-05
-0.000113903
-6.83792e-05
-0.000106261
-6.99603e-05
-9.8413e-05
-7.08706e-05
-9.04311e-05
-7.10899e-05
-8.23896e-05
-7.0608e-05
-7.43655e-05
-6.94258e-05
-6.64363e-05
-6.75556e-05
-5.86798e-05
-6.50219e-05
-5.11715e-05
-6.18617e-05
-4.39842e-05
-5.81245e-05
-3.71863e-05
-5.3872e-05
-3.08402e-05
-4.91779e-05
-2.50016e-05
-4.41275e-05
-1.9718e-05
-3.88162e-05
-1.50279e-05
-3.33495e-05
-1.09606e-05
-2.78411e-05
-7.5349e-06
-2.24125e-05
-4.75972e-06
-1.71909e-05
-2.63386e-06
-1.23089e-05
-1.14646e-06
-7.90207e-06
-2.77808e-07
-4.10754e-06
-1.06758e-06
-5.5208e-07
3.91915e-06
-2.0936e-06
1.1571e-05
-4.51801e-06
1.89183e-05
-7.72658e-06
2.58754e-05
-1.16281e-05
3.23821e-05
-1.61385e-05
3.83951e-05
-2.11807e-05
4.3886e-05
-2.66836e-05
4.88392e-05
-3.25821e-05
5.3249e-05
-3.88163e-05
5.71178e-05
-4.53305e-05
6.04537e-05
-5.20736e-05
6.32692e-05
-5.89975e-05
6.55788e-05
-6.60573e-05
6.73986e-05
-7.32108e-05
6.87447e-05
-8.04175e-05
6.96325e-05
-8.7639e-05
7.00761e-05
-9.4838e-05
7.00879e-05
-0.000101978
6.96787e-05