/*--------------------------------*- C++ -*----------------------------------*\
  =========                 |
  \\      /  F ield         | OpenFOAM: The Open Source CFD Toolbox
   \\    /   O peration     | Website:  https://openfoam.org
    \\  /    A nd           | Version:  dev
     \\/     M anipulation  |
\*---------------------------------------------------------------------------*/
FoamFile
{
    format      ascii;
    class       volScalarField;
    location    "20.25";
    object      Ux;
}
// * * * * * * * * * * * * * * * * * * * * * * * * * * * * * * * * * * * * * //

dimensions      [0 1 -1 0 0 0 0];

internalField   nonuniform List<scalar> 
5184
(
1.25633e-05
4.54918e-05
8.04002e-05
9.59055e-05
8.2005e-05
3.62812e-05
-4.07228e-05
-0.000146991
-0.000279738
-0.000435911
-0.000612391
-0.000806147
-0.00101431
-0.00123423
-0.00146343
-0.00169968
-0.00194088
-0.00218514
-0.00243067
-0.00267579
-0.00291889
-0.00315842
-0.00339284
-0.00362064
-0.00384028
-0.00405024
-0.00424895
-0.00443485
-0.00460636
-0.00476191
-0.00489992
-0.00501889
-0.00511736
-0.00519394
-0.00524738
-0.00527657
-0.00528056
-0.00525863
-0.00521028
-0.00513527
-0.00503368
-0.00490586
-0.00475254
-0.00457475
-0.00437391
-0.00415176
-0.0039104
-0.00365225
-0.00338003
-0.00309674
-0.00280562
-0.00251009
-0.00221371
-0.00192014
-0.00163304
-0.00135605
-0.0010927
-0.000846372
-0.000620199
-0.000417031
-0.000239366
-8.92793e-05
3.16399e-05
0.000122377
0.000182598
0.000212803
0.000214575
0.000190958
0.000146974
9.07044e-05
3.66005e-05
6.22563e-06
2.09682e-05
6.57953e-05
9.4733e-05
7.26915e-05
-1.91139e-05
-0.000187492
-0.00043302
-0.000752481
-0.00114034
-0.00158982
-0.00209358
-0.00264418
-0.00323432
-0.00385701
-0.00450565
-0.00517406
-0.00585644
-0.00654735
-0.00724166
-0.00793449
-0.00862115
-0.00929709
-0.00995784
-0.010599
-0.0112161
-0.0118048
-0.0123607
-0.0128794
-0.0133565
-0.0137877
-0.0141686
-0.0144953
-0.0147639
-0.0149706
-0.0151124
-0.0151862
-0.0151898
-0.0151213
-0.0149797
-0.0147646
-0.0144763
-0.0141161
-0.0136862
-0.0131894
-0.0126299
-0.0120123
-0.0113426
-0.0106272
-0.0098736
-0.00908985
-0.00828463
-0.00746712
-0.00664684
-0.00583352
-0.00503693
-0.00426672
-0.00353227
-0.0028425
-0.00220567
-0.00162925
-0.00111973
-0.000682387
-0.000321147
-3.8294e-05
0.000165801
0.000293053
0.000348201
0.0003395
0.000279423
0.000185801
8.62705e-05
1.9662e-05
1.76713e-05
4.13741e-05
1.95787e-05
-8.40718e-05
-0.000290305
-0.000607839
-0.00103792
-0.00157674
-0.00221714
-0.00294993
-0.00376484
-0.00465118
-0.00559823
-0.00659555
-0.00763308
-0.00870128
-0.00979107
-0.0108939
-0.0120014
-0.013106
-0.0142
-0.0152759
-0.0163267
-0.0173452
-0.0183242
-0.0192569
-0.020136
-0.0209548
-0.0217063
-0.0223838
-0.0229807
-0.0234908
-0.023908
-0.024227
-0.0244428
-0.0245512
-0.0245489
-0.0244334
-0.0242031
-0.0238576
-0.0233979
-0.0228261
-0.0221456
-0.0213613
-0.0204793
-0.0195074
-0.0184544
-0.0173306
-0.0161473
-0.0149168
-0.0136527
-0.0123687
-0.0110795
-0.00979993
-0.0085448
-0.00732881
-0.0061662
-0.00507048
-0.0040542
-0.00312862
-0.00230346
-0.00158661
-0.000983828
-0.000498331
-0.000130444
0.000122896
0.000268768
0.000318997
0.000290693
0.000207055
0.000102307
2.4947e-05
8.84404e-06
-7.00408e-06
-0.000107567
-0.000322289
-0.000669369
-0.00115718
-0.00178647
-0.00255246
-0.0034466
-0.00445788
-0.00557383
-0.00678126
-0.00806676
-0.0094171
-0.0108194
-0.0122612
-0.0137307
-0.0152164
-0.0167074
-0.0181932
-0.0196636
-0.0211086
-0.0225185
-0.0238836
-0.0251944
-0.0264414
-0.0276154
-0.028707
-0.0297071
-0.030607
-0.0313979
-0.0320718
-0.032621
-0.0330384
-0.033318
-0.0334544
-0.0334434
-0.033282
-0.0329684
-0.0325026
-0.0318859
-0.0311212
-0.0302132
-0.0291686
-0.0279955
-0.0267039
-0.0253056
-0.0238137
-0.0222432
-0.0206102
-0.0189317
-0.017226
-0.0155118
-0.0138082
-0.0121345
-0.0105095
-0.00895161
-0.00747824
-0.0061055
-0.00484789
-0.00371789
-0.0027256
-0.00187836
-0.0011803
-0.000631892
-0.000229449
3.54886e-05
0.00017679
0.000214153
0.000173712
9.28636e-05
2.39927e-05
-2.12754e-06
-6.72707e-05
-0.000263994
-0.000609457
-0.00111612
-0.00179019
-0.00263063
-0.0036311
-0.00478146
-0.006069
-0.00747939
-0.0089974
-0.0106074
-0.012294
-0.0140417
-0.0158359
-0.0176621
-0.0195065
-0.0213558
-0.0231971
-0.0250177
-0.0268054
-0.028548
-0.0302338
-0.0318508
-0.0333876
-0.0348325
-0.0361744
-0.0374021
-0.0385049
-0.0394724
-0.040295
-0.0409634
-0.0414694
-0.0418058
-0.0419662
-0.041946
-0.0417418
-0.0413516
-0.0407756
-0.0400156
-0.0390755
-0.037961
-0.0366801
-0.0352428
-0.0336613
-0.0319496
-0.0301236
-0.0282011
-0.0262013
-0.0241448
-0.0220532
-0.0199488
-0.0178545
-0.0157932
-0.0137874
-0.011859
-0.0100288
-0.00831612
-0.00673816
-0.00530991
-0.00404349
-0.00294777
-0.00202789
-0.0012848
-0.000714749
-0.000308771
-5.21182e-05
7.60545e-05
0.000103217
6.73407e-05
1.96302e-05
-1.36938e-05
-0.000132768
-0.000435561
-0.000924024
-0.00160277
-0.00247434
-0.0035349
-0.00477573
-0.00618477
-0.0077475
-0.00944781
-0.0112686
-0.0131925
-0.0152019
-0.0172797
-0.0194088
-0.0215728
-0.0237559
-0.0259425
-0.0281175
-0.0302663
-0.0323745
-0.0344278
-0.0364124
-0.0383145
-0.0401205
-0.041817
-0.0433908
-0.0448293
-0.0461198
-0.0472507
-0.0482107
-0.0489895
-0.0495776
-0.0499668
-0.0501502
-0.0501226
-0.0498801
-0.0494211
-0.0487455
-0.0478558
-0.0467565
-0.0454544
-0.0439587
-0.042281
-0.040435
-0.0384369
-0.036305
-0.0340595
-0.0317222
-0.0293166
-0.0268673
-0.0243999
-0.0219404
-0.0195149
-0.0171491
-0.0148681
-0.0126957
-0.010654
-0.00876273
-0.00703931
-0.00549777
-0.00414859
-0.00299814
-0.0020482
-0.00129552
-0.000731333
-0.000340942
-0.000103421
8.82575e-06
3.23472e-05
1.35882e-05
-2.51754e-05
-0.000199881
-0.000613627
-0.00125193
-0.00211031
-0.00318661
-0.00447327
-0.00595856
-0.00762802
-0.00946509
-0.0114518
-0.0135694
-0.0157986
-0.0181203
-0.0205154
-0.0229652
-0.0254515
-0.0279564
-0.0304627
-0.0329535
-0.035412
-0.0378222
-0.0401679
-0.0424335
-0.0446032
-0.0466619
-0.0485944
-0.0503859
-0.0520222
-0.0534892
-0.0547739
-0.0558638
-0.0567473
-0.0574141
-0.0578552
-0.0580631
-0.0580319
-0.0577576
-0.0572384
-0.0564745
-0.0554686
-0.0542258
-0.0527537
-0.0510625
-0.0491651
-0.0470768
-0.0448154
-0.042401
-0.039856
-0.0372047
-0.034473
-0.0316881
-0.0288783
-0.0260725
-0.0232997
-0.0205885
-0.0179669
-0.0154614
-0.0130968
-0.0108955
-0.0088769
-0.00705725
-0.00544876
-0.00405925
-0.00289175
-0.00194398
-0.00120802
-0.000669937
-0.000309569
-0.000100114
-7.83742e-06
6.83223e-06
-3.63163e-05
-0.000266731
-0.000793081
-0.00158425
-0.00262607
-0.003911
-0.00542708
-0.00715902
-0.00908952
-0.0111997
-0.0134697
-0.0158789
-0.0184064
-0.0210315
-0.0237334
-0.0264921
-0.0292876
-0.0321005
-0.0349119
-0.0377033
-0.0404564
-0.0431533
-0.0457764
-0.0483083
-0.0507319
-0.0530302
-0.0551867
-0.0571851
-0.0590098
-0.0606455
-0.0620779
-0.0632932
-0.0642791
-0.0650243
-0.0655191
-0.0657551
-0.0657262
-0.0654281
-0.0648586
-0.0640183
-0.0629098
-0.0615387
-0.0599132
-0.0580444
-0.0559461
-0.0536347
-0.0511296
-0.0484525
-0.0456275
-0.0426809
-0.0396409
-0.036537
-0.0334001
-0.0302614
-0.0271528
-0.0241055
-0.0211503
-0.0183164
-0.0156311
-0.0131194
-0.0108031
-0.00870053
-0.00682591
-0.00518886
-0.003794
-0.00264048
-0.00172176
-0.00102528
-0.000532259
-0.000217371
-5.05488e-05
-1.07e-07
-4.70225e-05
-0.00033234
-0.000970933
-0.00191538
-0.00314167
-0.00463648
-0.00638299
-0.00836194
-0.0105528
-0.0129343
-0.0154842
-0.0181802
-0.0209998
-0.0239205
-0.0269205
-0.0299779
-0.0330717
-0.0361809
-0.0392852
-0.0423647
-0.0453998
-0.048371
-0.0512594
-0.0540461
-0.0567126
-0.0592406
-0.0616123
-0.06381
-0.0658169
-0.0676166
-0.0691935
-0.0705331
-0.0716218
-0.0724477
-0.0730002
-0.0732705
-0.0732517
-0.0729393
-0.0723308
-0.0714266
-0.0702296
-0.0687453
-0.0669826
-0.0649528
-0.0626706
-0.0601534
-0.0574217
-0.0544985
-0.0514095
-0.0481827
-0.0448481
-0.0414376
-0.0379841
-0.0345214
-0.0310839
-0.0277055
-0.0244195
-0.0212579
-0.0182507
-0.0154253
-0.0128063
-0.0104143
-0.00826572
-0.00637235
-0.00474074
-0.00337195
-0.00226122
-0.00139786
-0.000764928
-0.000339046
-9.42302e-05
-6.95978e-06
-5.72828e-05
-0.000396231
-0.00114545
-0.0022418
-0.00365155
-0.0053554
-0.00733144
-0.00955612
-0.0120055
-0.0146555
-0.0174816
-0.0204596
-0.0235653
-0.0267749
-0.0300649
-0.0334125
-0.036795
-0.0401906
-0.0435777
-0.046935
-0.0502416
-0.0534771
-0.0566211
-0.0596537
-0.0625549
-0.0653055
-0.0678863
-0.0702785
-0.0724643
-0.074426
-0.0761472
-0.0776123
-0.078807
-0.0797184
-0.0803351
-0.0806476
-0.0806487
-0.0803331
-0.0796981
-0.0787437
-0.0774726
-0.0758905
-0.0740062
-0.0718315
-0.0693815
-0.0666742
-0.063731
-0.0605761
-0.0572363
-0.0537413
-0.0501228
-0.0464144
-0.0426514
-0.0388699
-0.0351066
-0.0313982
-0.0277807
-0.0242888
-0.0209553
-0.0178105
-0.0148816
-0.0121919
-0.00976043
-0.00760137
-0.00572365
-0.00413057
-0.00281957
-0.00178219
-0.00100371
-0.000462928
-0.000138066
-1.36107e-05
-6.71152e-05
-0.000458178
-0.00131564
-0.00256132
-0.00415201
-0.00606245
-0.00826552
-0.0107332
-0.013438
-0.0163529
-0.0194509
-0.0227059
-0.0260919
-0.0295837
-0.0331566
-0.0367864
-0.0404496
-0.0441231
-0.0477841
-0.0514105
-0.0549804
-0.0584721
-0.0618642
-0.0651358
-0.068266
-0.0712343
-0.0740205
-0.076605
-0.0789686
-0.081093
-0.0829607
-0.0845551
-0.0858612
-0.086865
-0.0875545
-0.0879194
-0.0879517
-0.0876456
-0.0869978
-0.0860078
-0.084678
-0.0830138
-0.0810238
-0.07872
-0.0761176
-0.073235
-0.0700943
-0.0667203
-0.0631411
-0.0593876
-0.0554931
-0.051493
-0.0474246
-0.0433264
-0.0392375
-0.0351972
-0.0312444
-0.0274167
-0.02375
-0.0202776
-0.0170295
-0.0140323
-0.0113076
-0.00887271
-0.00673909
-0.00491269
-0.00339352
-0.00217564
-0.00124677
-0.000588009
-0.000181732
-2.00336e-05
-7.65439e-05
-0.000518079
-0.0014809
-0.00287248
-0.00464051
-0.00675384
-0.00918013
-0.0118869
-0.0148429
-0.018018
-0.021383
-0.0249094
-0.0285698
-0.0323375
-0.0361864
-0.0400913
-0.0440277
-0.0479715
-0.051899
-0.0557873
-0.0596134
-0.0633548
-0.0669894
-0.0704952
-0.0738503
-0.0770334
-0.0800235
-0.0828
-0.0853428
-0.0876327
-0.0896511
-0.0913809
-0.0928057
-0.093911
-0.0946838
-0.095113
-0.0951897
-0.0949073
-0.0942618
-0.0932519
-0.0918796
-0.0901496
-0.0880703
-0.0856533
-0.0829137
-0.0798702
-0.076545
-0.0729637
-0.0691552
-0.0651513
-0.060987
-0.0566993
-0.0523274
-0.0479122
-0.0434952
-0.0391187
-0.0348245
-0.0306532
-0.0266439
-0.0228334
-0.0192551
-0.0159387
-0.0129093
-0.0101873
-0.00778717
-0.00571797
-0.00398251
-0.00257766
-0.00149372
-0.000714134
-0.000225229
-2.6255e-05
-8.55903e-05
-0.000575883
-0.00164087
-0.00317433
-0.00511523
-0.00742674
-0.0100714
-0.0130121
-0.0162141
-0.019644
-0.0232702
-0.0270622
-0.0309907
-0.0350276
-0.0391458
-0.0433191
-0.0475217
-0.051729
-0.0559164
-0.0600602
-0.0641368
-0.0681229
-0.0719956
-0.075732
-0.0793098
-0.0827067
-0.0859008
-0.0888709
-0.0915959
-0.0940558
-0.0962313
-0.098104
-0.099657
-0.100875
-0.101743
-0.10225
-0.102386
-0.102143
-0.101516
-0.100503
-0.0991056
-0.0973271
-0.0951754
-0.0926616
-0.0898004
-0.0866103
-0.0831136
-0.0793362
-0.0753076
-0.0710608
-0.0666316
-0.0620589
-0.057384
-0.0526498
-0.0479006
-0.0431815
-0.0385374
-0.0340125
-0.0296495
-0.0254886
-0.021567
-0.0179181
-0.0145709
-0.0115491
-0.00887097
-0.00654862
-0.00458811
-0.00298933
-0.00174529
-0.000841753
-0.000268779
-3.23335e-05
-9.42698e-05
-0.000631555
-0.00179525
-0.00346612
-0.00557479
-0.00807894
-0.0109361
-0.0141049
-0.0175466
-0.0212251
-0.0251061
-0.0291569
-0.0333469
-0.0376463
-0.042027
-0.0464617
-0.0509241
-0.0553884
-0.0598298
-0.0642236
-0.0685457
-0.0727722
-0.0768797
-0.0808446
-0.0846439
-0.0882547
-0.0916544
-0.094821
-0.0977329
-0.100369
-0.102709
-0.104734
-0.106426
-0.107769
-0.108746
-0.109346
-0.109557
-0.109371
-0.10878
-0.107783
-0.106378
-0.10457
-0.102364
-0.0997701
-0.0968035
-0.0934816
-0.0898267
-0.0858646
-0.0816252
-0.0771422
-0.0724527
-0.0675971
-0.0626185
-0.0575621
-0.0524751
-0.0474056
-0.0424018
-0.0375117
-0.0327817
-0.0282563
-0.0239767
-0.0199804
-0.0163007
-0.0129651
-0.00999588
-0.00740884
-0.00521349
-0.00341293
-0.002003
-0.000971743
-0.000312752
-3.83469e-05
-0.00010259
-0.000685052
-0.0019438
-0.00374722
-0.00601799
-0.00870856
-0.0117716
-0.0151615
-0.0188361
-0.022756
-0.0268845
-0.0311871
-0.0356312
-0.0401861
-0.0448222
-0.0495116
-0.054227
-0.0589422
-0.0636317
-0.0682704
-0.0728336
-0.0772971
-0.0816367
-0.0858287
-0.0898493
-0.0936751
-0.0972831
-0.10065
-0.103755
-0.106574
-0.109088
-0.111276
-0.113119
-0.1146
-0.115702
-0.116411
-0.116715
-0.116603
-0.116069
-0.115106
-0.113715
-0.111895
-0.109654
-0.106999
-0.103944
-0.100506
-0.0967068
-0.0925719
-0.0881314
-0.0834195
-0.0784743
-0.0733376
-0.0680542
-0.062672
-0.0572408
-0.051812
-0.0464375
-0.0411691
-0.0360576
-0.0311519
-0.0264978
-0.0221376
-0.0181089
-0.0144439
-0.0111691
-0.00830436
-0.00586304
-0.00385164
-0.00226896
-0.00110529
-0.000357621
-4.43855e-05
-0.000110553
-0.000736314
-0.00208627
-0.00401704
-0.00644375
-0.00931388
-0.0125755
-0.0161789
-0.0200784
-0.0242318
-0.0285999
-0.0331463
-0.0378369
-0.0426394
-0.0475236
-0.0524604
-0.0574222
-0.0623821
-0.067314
-0.0721926
-0.0769929
-0.0816901
-0.0862598
-0.0906778
-0.0949201
-0.0989628
-0.102782
-0.106355
-0.109658
-0.112669
-0.115367
-0.117729
-0.119737
-0.121371
-0.122613
-0.123449
-0.123864
-0.123847
-0.123388
-0.122482
-0.121124
-0.119315
-0.117058
-0.114362
-0.111237
-0.1077
-0.103772
-0.0994771
-0.0948462
-0.0899134
-0.0847177
-0.079302
-0.0737132
-0.0680014
-0.0622194
-0.0564219
-0.0506647
-0.0450041
-0.0394954
-0.0341923
-0.0291458
-0.0244033
-0.0200075
-0.0159957
-0.0123991
-0.00924203
-0.00654202
-0.00430927
-0.00254567
-0.00124378
-0.000403929
-5.05472e-05
-0.00011815
-0.00078526
-0.00222238
-0.00427494
-0.00685097
-0.00989322
-0.0133454
-0.017154
-0.0212698
-0.0256479
-0.030247
-0.0350285
-0.039957
-0.044999
-0.0501233
-0.0553001
-0.0605011
-0.0656991
-0.0708677
-0.0759811
-0.0810142
-0.085942
-0.0907397
-0.0953831
-0.0998476
-0.104109
-0.108143
-0.111927
-0.115436
-0.118647
-0.121539
-0.124088
-0.126273
-0.128076
-0.129476
-0.130457
-0.131003
-0.131101
-0.13074
-0.129911
-0.128609
-0.126833
-0.124583
-0.121866
-0.118692
-0.115074
-0.111034
-0.106594
-0.101785
-0.0966406
-0.0912008
-0.0855095
-0.0796153
-0.0735707
-0.0674315
-0.0612559
-0.0551039
-0.0490364
-0.0431137
-0.037395
-0.0319369
-0.0267923
-0.0220097
-0.0176319
-0.0136954
-0.0102296
-0.00725639
-0.00479013
-0.00283595
-0.00138877
-0.000452264
-5.69342e-05
-0.00012537
-0.000831785
-0.0023518
-0.00452027
-0.00723852
-0.0104449
-0.014079
-0.0180835
-0.0224063
-0.0269997
-0.0318202
-0.0368275
-0.0419847
-0.0472573
-0.0526131
-0.0580217
-0.0634544
-0.0688835
-0.0742825
-0.0796254
-0.0848869
-0.0900418
-0.0950654
-0.099933
-0.10462
-0.109103
-0.113355
-0.117355
-0.121077
-0.124497
-0.127593
-0.13034
-0.132718
-0.134705
-0.13628
-0.137425
-0.138123
-0.138358
-0.138116
-0.137389
-0.136167
-0.134447
-0.132227
-0.129513
-0.12631
-0.122633
-0.118499
-0.113931
-0.108958
-0.103613
-0.0979376
-0.0919756
-0.0857775
-0.079398
-0.072896
-0.0663335
-0.0597747
-0.0532855
-0.0469317
-0.0407783
-0.034888
-0.02932
-0.0241292
-0.0193645
-0.0150682
-0.0112752
-0.00801257
-0.00529886
-0.00314283
-0.00154191
-0.000503247
-6.36513e-05
-0.000132195
-0.000875766
-0.00247416
-0.0047523
-0.00760521
-0.0109671
-0.0147738
-0.0189645
-0.0234841
-0.0282826
-0.0333142
-0.0385371
-0.043913
-0.0494065
-0.0549845
-0.0606161
-0.0662722
-0.0719249
-0.0775475
-0.0831138
-0.0885986
-0.0939767
-0.0992234
-0.104314
-0.109224
-0.113928
-0.118403
-0.122623
-0.126564
-0.130202
-0.133512
-0.136471
-0.139055
-0.141242
-0.14301
-0.144338
-0.145208
-0.145602
-0.145504
-0.144901
-0.143784
-0.142145
-0.139982
-0.137294
-0.134088
-0.130374
-0.126167
-0.12149
-0.116369
-0.110838
-0.104937
-0.0987116
-0.092213
-0.0854984
-0.0786295
-0.0716722
-0.0646953
-0.0577698
-0.0509676
-0.0443598
-0.038016
-0.0320023
-0.0263803
-0.021206
-0.0165281
-0.0123877
-0.00881727
-0.00584031
-0.00346947
-0.0017049
-0.00055752
-7.08052e-05
-0.000138604
-0.000917059
-0.00258906
-0.00497025
-0.00794981
-0.0114582
-0.0154275
-0.0197939
-0.0244994
-0.0294918
-0.0347234
-0.0401509
-0.0457348
-0.0514386
-0.0572286
-0.0630736
-0.068944
-0.0748119
-0.0806503
-0.0864334
-0.0921357
-0.0977323
-0.103198
-0.10851
-0.113641
-0.118569
-0.123267
-0.127712
-0.131878
-0.135741
-0.139276
-0.142457
-0.145261
-0.147663
-0.149641
-0.151172
-0.152235
-0.15281
-0.152879
-0.152427
-0.15144
-0.14991
-0.147829
-0.145195
-0.142011
-0.138285
-0.13403
-0.129265
-0.124016
-0.118316
-0.112203
-0.105724
-0.0989306
-0.0918829
-0.0846451
-0.0772869
-0.0698818
-0.0625064
-0.0552387
-0.0481568
-0.0413376
-0.0348546
-0.0287773
-0.0231691
-0.018086
-0.0135759
-0.00967742
-0.00641949
-0.00381913
-0.00187953
-0.000615738
-7.85034e-05
-0.00014457
-0.000955507
-0.00269606
-0.0051733
-0.008271
-0.0119161
-0.0160375
-0.0205683
-0.0254481
-0.0306226
-0.0360423
-0.0416625
-0.0474426
-0.0533452
-0.0593363
-0.0653841
-0.0714588
-0.0775324
-0.083578
-0.0895699
-0.0954829
-0.101292
-0.106973
-0.112502
-0.117853
-0.123003
-0.127927
-0.132599
-0.136995
-0.14109
-0.144857
-0.148271
-0.151307
-0.15394
-0.156144
-0.157897
-0.159173
-0.159952
-0.160212
-0.159936
-0.159107
-0.157712
-0.155742
-0.153191
-0.150058
-0.146348
-0.142071
-0.137243
-0.131889
-0.126039
-0.119731
-0.113012
-0.105934
-0.0985579
-0.0909519
-0.0831889
-0.0753476
-0.0675099
-0.0597607
-0.0521853
-0.0448684
-0.0378922
-0.0313342
-0.0252663
-0.0197527
-0.0148488
-0.0106
-0.00704149
-0.00419511
-0.00206759
-0.000678564
-8.68544e-05
-0.000150066
-0.000990939
-0.00279472
-0.00536059
-0.00856744
-0.012339
-0.0166012
-0.0212846
-0.0263263
-0.0316701
-0.0372651
-0.0430653
-0.0490289
-0.0551181
-0.0612981
-0.067537
-0.0738048
-0.0800736
-0.0863166
-0.0925083
-0.0986238
-0.104639
-0.110528
-0.116269
-0.121837
-0.127208
-0.132356
-0.137257
-0.141886
-0.146217
-0.150224
-0.15388
-0.15716
-0.160036
-0.162483
-0.164474
-0.165984
-0.166989
-0.167464
-0.16739
-0.166746
-0.165515
-0.163686
-0.161247
-0.158196
-0.154532
-0.150263
-0.145401
-0.139968
-0.133993
-0.127511
-0.120568
-0.113219
-0.105524
-0.0975538
-0.0893856
-0.0811023
-0.0727922
-0.0645467
-0.0564593
-0.0486231
-0.0411291
-0.0340644
-0.0275099
-0.0215389
-0.0162152
-0.0115921
-0.0077114
-0.00460076
-0.00227087
-0.000746668
-9.59672e-05
-0.000155062
-0.00102318
-0.00288456
-0.00553127
-0.0088378
-0.012725
-0.0171162
-0.0219395
-0.02713
-0.0326297
-0.0383863
-0.0443527
-0.0504862
-0.0567485
-0.0631043
-0.0695214
-0.0759701
-0.0824222
-0.0888514
-0.0952325
-0.101541
-0.107752
-0.113843
-0.11979
-0.125569
-0.131156
-0.136527
-0.141656
-0.146519
-0.151089
-0.155341
-0.159246
-0.162779
-0.165911
-0.168613
-0.17086
-0.172622
-0.173874
-0.174588
-0.174741
-0.174309
-0.173273
-0.171615
-0.169321
-0.166384
-0.1628
-0.158571
-0.153707
-0.148226
-0.142153
-0.135523
-0.128379
-0.120775
-0.112775
-0.104449
-0.0958787
-0.0871514
-0.0783614
-0.0696074
-0.0609909
-0.0526144
-0.0445785
-0.0369805
-0.0299116
-0.0234549
-0.0176839
-0.0126605
-0.00843431
-0.00503939
-0.00249119
-0.00082072
-0.000105951
-0.000159529
-0.00105206
-0.00296512
-0.00568448
-0.00908073
-0.0130722
-0.01758
-0.0225298
-0.0278552
-0.0334966
-0.0394003
-0.0455182
-0.0518071
-0.0582279
-0.0647451
-0.0713265
-0.0779422
-0.0845645
-0.0911672
-0.0977255
-0.104215
-0.110613
-0.116896
-0.12304
-0.129023
-0.13482
-0.140409
-0.145763
-0.150859
-0.155669
-0.160168
-0.164327
-0.168119
-0.171515
-0.174486
-0.177002
-0.179034
-0.180552
-0.181527
-0.181932
-0.181741
-0.180928
-0.179473
-0.177358
-0.17457
-0.171101
-0.166949
-0.162118
-0.156623
-0.150485
-0.143737
-0.136419
-0.128585
-0.120297
-0.111629
-0.102664
-0.0934952
-0.0842214
-0.0749493
-0.0657891
-0.0568527
-0.0482516
-0.0400939
-0.0324822
-0.0255106
-0.0192633
-0.0138119
-0.00921518
-0.00551431
-0.00273035
-0.000901392
-0.000116917
-0.000163437
-0.00107741
-0.00303595
-0.0058194
-0.00929498
-0.0133789
-0.0179901
-0.0230526
-0.0284983
-0.0342662
-0.0403016
-0.0465555
-0.0529841
-0.0595477
-0.0662109
-0.0729411
-0.0797088
-0.0864864
-0.0932483
-0.0999699
-0.106628
-0.113199
-0.119662
-0.125993
-0.132169
-0.138169
-0.143968
-0.149542
-0.154866
-0.159914
-0.164659
-0.169074
-0.17313
-0.176798
-0.180046
-0.182844
-0.18516
-0.186962
-0.188219
-0.1889
-0.188975
-0.188415
-0.187196
-0.185294
-0.182691
-0.179375
-0.175338
-0.17058
-0.16511
-0.158946
-0.152115
-0.144656
-0.13662
-0.128069
-0.119078
-0.109732
-0.100128
-0.0903709
-0.0805751
-0.0708594
-0.061346
-0.0521576
-0.0434145
-0.0352314
-0.0277151
-0.0209613
-0.015053
-0.0100589
-0.00602876
-0.00299015
-0.000989358
-0.000128977
-0.000166759
-0.00109907
-0.00309666
-0.00593528
-0.00947937
-0.0136434
-0.0183444
-0.0235051
-0.0290558
-0.0349343
-0.0410852
-0.0474586
-0.0540101
-0.0606999
-0.0674921
-0.0743545
-0.0812576
-0.0881742
-0.0950791
-0.101948
-0.108759
-0.11549
-0.122118
-0.128622
-0.13498
-0.14117
-0.14717
-0.152954
-0.158499
-0.16378
-0.168768
-0.173438
-0.177758
-0.1817
-0.185231
-0.18832
-0.190932
-0.193034
-0.194591
-0.19557
-0.195937
-0.195659
-0.194707
-0.193053
-0.190674
-0.187551
-0.183671
-0.179028
-0.173626
-0.167478
-0.160605
-0.153044
-0.144841
-0.136058
-0.12677
-0.117062
-0.107036
-0.0968027
-0.0864823
-0.0762033
-0.0660988
-0.0563033
-0.0469502
-0.0381679
-0.0300765
-0.0227853
-0.0163899
-0.0109702
-0.00658592
-0.00327235
-0.00108529
-0.000142244
-0.000169471
-0.00111691
-0.00314687
-0.00603147
-0.00963289
-0.0138641
-0.018641
-0.0238847
-0.0295244
-0.0354972
-0.0417465
-0.0482219
-0.0548786
-0.0616766
-0.0685799
-0.0755563
-0.0825766
-0.0896141
-0.096644
-0.103643
-0.110589
-0.117462
-0.124239
-0.1309
-0.137425
-0.143791
-0.149978
-0.15596
-0.161716
-0.16722
-0.172444
-0.177363
-0.181945
-0.186161
-0.189978
-0.193362
-0.196279
-0.198692
-0.200566
-0.201862
-0.202544
-0.202575
-0.201922
-0.200551
-0.198433
-0.195545
-0.191866
-0.187385
-0.182099
-0.176013
-0.169146
-0.161527
-0.1532
-0.144224
-0.13467
-0.124629
-0.114201
-0.103503
-0.0926625
-0.0818175
-0.0711117
-0.0606924
-0.0507069
-0.0412984
-0.0326021
-0.0247421
-0.0178282
-0.0119535
-0.00718888
-0.00357869
-0.00118985
-0.000156833
-0.000171553
-0.00113081
-0.00318629
-0.00610742
-0.00975472
-0.0140401
-0.0188783
-0.0241894
-0.0299017
-0.0359514
-0.0422813
-0.0488405
-0.0555837
-0.0624708
-0.0694658
-0.0765367
-0.0836545
-0.090793
-0.097928
-0.105037
-0.112099
-0.119094
-0.126001
-0.132801
-0.139473
-0.145998
-0.152355
-0.15852
-0.164472
-0.170186
-0.175635
-0.180793
-0.18563
-0.190115
-0.194215
-0.197897
-0.201123
-0.203857
-0.206058
-0.207688
-0.208706
-0.209072
-0.208747
-0.207693
-0.205876
-0.203264
-0.199833
-0.195562
-0.190442
-0.184472
-0.177663
-0.170038
-0.161636
-0.152512
-0.142735
-0.132393
-0.121591
-0.110449
-0.0991011
-0.0876933
-0.0763811
-0.0653252
-0.0546877
-0.0446279
-0.0352976
-0.0268376
-0.0193734
-0.0130131
-0.00784059
-0.00391087
-0.00130371
-0.000172861
-0.00017299
-0.00114069
-0.00321473
-0.00616278
-0.00984428
-0.0141704
-0.0190551
-0.0244176
-0.0301856
-0.0362944
-0.0426864
-0.0493102
-0.0561204
-0.0630764
-0.0701426
-0.0772869
-0.0844809
-0.0916988
-0.0989171
-0.106114
-0.11327
-0.120365
-0.127379
-0.134296
-0.141095
-0.147758
-0.154264
-0.160593
-0.166722
-0.172629
-0.178287
-0.183671
-0.18875
-0.193496
-0.197874
-0.201849
-0.205385
-0.208442
-0.21098
-0.212956
-0.214328
-0.215051
-0.215081
-0.214377
-0.212898
-0.210606
-0.207468
-0.20346
-0.198561
-0.192763
-0.18607
-0.178497
-0.170077
-0.160858
-0.150907
-0.140309
-0.12917
-0.117612
-0.105776
-0.0938156
-0.0818981
-0.0701978
-0.0588926
-0.0481591
-0.0381674
-0.0290764
-0.02103
-0.0141528
-0.00854386
-0.00427054
-0.00142753
-0.000190448
-0.000173773
-0.00114651
-0.00323209
-0.00619737
-0.00990129
-0.0142546
-0.0191708
-0.0245685
-0.0303748
-0.0365245
-0.0429595
-0.0496281
-0.0564845
-0.0634883
-0.0706038
-0.0777992
-0.0850465
-0.0923204
-0.0995983
-0.106859
-0.114084
-0.121254
-0.128352
-0.13536
-0.142261
-0.149037
-0.155669
-0.162137
-0.168422
-0.1745
-0.180347
-0.185938
-0.191244
-0.196236
-0.200879
-0.20514
-0.208981
-0.212361
-0.215238
-0.217569
-0.219308
-0.220406
-0.220817
-0.220493
-0.219387
-0.217457
-0.214662
-0.210967
-0.206346
-0.200782
-0.194267
-0.186811
-0.178437
-0.169185
-0.159119
-0.148318
-0.136888
-0.124953
-0.112657
-0.100163
-0.0876481
-0.0753018
-0.0633181
-0.051892
-0.0412137
-0.0314624
-0.0228018
-0.0153761
-0.00930131
-0.0046593
-0.00156196
-0.000209716
-0.000173902
-0.00114829
-0.00323841
-0.00621124
-0.00992581
-0.0142928
-0.0192254
-0.0246419
-0.0304688
-0.0366408
-0.0430992
-0.0497921
-0.0566735
-0.0637029
-0.0708447
-0.0780676
-0.0853437
-0.0926485
-0.0999601
-0.107258
-0.114525
-0.121744
-0.128897
-0.135969
-0.142943
-0.149804
-0.156534
-0.163116
-0.169528
-0.175752
-0.181764
-0.187538
-0.19305
-0.198268
-0.20316
-0.207693
-0.211828
-0.215525
-0.21874
-0.221429
-0.223542
-0.22503
-0.225842
-0.225925
-0.225227
-0.223698
-0.221292
-0.217965
-0.213681
-0.208413
-0.202146
-0.194876
-0.186618
-0.177405
-0.16729
-0.15635
-0.144686
-0.132421
-0.119704
-0.106705
-0.0936102
-0.0806237
-0.0679566
-0.0558238
-0.0444369
-0.0339975
-0.024692
-0.016686
-0.0101153
-0.00507863
-0.00170762
-0.000230789
-0.000173385
-0.00114608
-0.00323385
-0.00620474
-0.00991835
-0.0142856
-0.0192196
-0.0246384
-0.0304684
-0.0366438
-0.0431057
-0.0498018
-0.0566861
-0.0637181
-0.0708623
-0.0780875
-0.0853666
-0.0926756
-0.0999933
-0.107301
-0.114581
-0.121817
-0.128995
-0.1361
-0.143117
-0.150032
-0.156828
-0.163491
-0.170001
-0.17634
-0.182486
-0.188417
-0.194106
-0.199526
-0.204646
-0.209431
-0.213844
-0.217846
-0.221392
-0.224435
-0.226927
-0.228814
-0.230041
-0.230554
-0.230293
-0.229205
-0.227232
-0.224325
-0.220438
-0.215533
-0.209583
-0.202575
-0.194512
-0.185415
-0.17533
-0.164324
-0.152492
-0.139958
-0.12687
-0.113404
-0.0997563
-0.0861439
-0.072796
-0.059948
-0.0478347
-0.0366825
-0.0267025
-0.0180849
-0.0109881
-0.00552994
-0.00186514
-0.000253792
-0.000172243
-0.00114002
-0.00321877
-0.0061785
-0.00987986
-0.0142342
-0.0191548
-0.0245598
-0.0303753
-0.0365352
-0.0429804
-0.0496584
-0.056523
-0.0635338
-0.0706553
-0.0778569
-0.0851116
-0.0923964
-0.0996907
-0.106977
-0.114238
-0.121461
-0.12863
-0.135734
-0.14276
-0.149693
-0.156521
-0.16323
-0.169802
-0.176222
-0.182469
-0.188522
-0.194358
-0.199951
-0.205269
-0.210281
-0.214951
-0.219239
-0.223101
-0.226491
-0.229358
-0.231646
-0.2333
-0.23426
-0.234463
-0.233847
-0.23235
-0.229914
-0.226482
-0.222007
-0.216449
-0.209783
-0.201997
-0.193103
-0.183132
-0.172144
-0.160225
-0.147493
-0.134096
-0.120213
-0.106051
-0.0918369
-0.0778191
-0.0642544
-0.0514022
-0.0395158
-0.0288341
-0.0195746
-0.0119212
-0.00601453
-0.00203512
-0.000278856
-0.000170505
-0.00113029
-0.00319371
-0.0061335
-0.00981183
-0.0141407
-0.0190337
-0.024409
-0.0301926
-0.0363183
-0.0427265
-0.0493648
-0.0561867
-0.0631518
-0.0702249
-0.0773756
-0.0845775
-0.0918081
-0.099048
-0.10628
-0.11349
-0.120664
-0.127789
-0.134856
-0.141852
-0.148767
-0.155588
-0.162303
-0.168899
-0.17536
-0.18167
-0.187808
-0.193754
-0.199483
-0.204968
-0.210176
-0.215075
-0.219625
-0.223783
-0.227504
-0.230735
-0.233422
-0.235506
-0.236924
-0.237609
-0.237495
-0.236513
-0.234595
-0.231676
-0.227696
-0.222605
-0.216362
-0.208943
-0.200344
-0.190583
-0.179705
-0.167788
-0.154942
-0.141312
-0.127077
-0.112449
-0.0976696
-0.083003
-0.0687283
-0.0551312
-0.042494
-0.0310862
-0.021156
-0.0129163
-0.0065335
-0.00221812
-0.000306108
-0.000168215
-0.00111718
-0.00315941
-0.00607112
-0.00971634
-0.0140078
-0.0188597
-0.0241901
-0.029925
-0.0359979
-0.0423492
-0.048926
-0.055682
-0.0625765
-0.0695747
-0.0766463
-0.0837658
-0.0909111
-0.0980639
-0.105208
-0.11233
-0.119419
-0.126463
-0.133453
-0.14038
-0.147234
-0.154007
-0.160687
-0.167263
-0.173723
-0.180053
-0.186234
-0.192249
-0.198074
-0.203686
-0.209054
-0.214147
-0.218929
-0.223357
-0.227386
-0.230966
-0.234041
-0.236551
-0.238431
-0.239612
-0.240022
-0.239587
-0.23823
-0.235877
-0.232457
-0.227907
-0.222171
-0.215211
-0.207004
-0.197554
-0.186891
-0.175078
-0.162214
-0.148438
-0.133928
-0.118898
-0.103602
-0.0883187
-0.0733504
-0.0590101
-0.0456111
-0.0334566
-0.0228291
-0.0139741
-0.00708782
-0.00241467
-0.000335681
-0.000165432
-0.00110105
-0.00311688
-0.00599319
-0.00959614
-0.0138394
-0.0186374
-0.0239085
-0.0295786
-0.035581
-0.0418556
-0.0483494
-0.055016
-0.0618148
-0.0687109
-0.0756747
-0.082681
-0.0897087
-0.0967403
-0.103761
-0.110759
-0.117723
-0.124645
-0.131517
-0.138332
-0.145083
-0.151762
-0.158362
-0.164873
-0.171286
-0.177588
-0.183766
-0.189804
-0.195681
-0.201376
-0.206862
-0.212111
-0.217086
-0.221751
-0.22606
-0.229964
-0.233409
-0.236334
-0.238673
-0.240356
-0.241305
-0.241442
-0.240682
-0.238944
-0.236145
-0.232207
-0.227062
-0.220653
-0.212942
-0.203911
-0.193574
-0.181976
-0.169204
-0.155384
-0.140689
-0.125337
-0.109585
-0.0937307
-0.0780961
-0.0630231
-0.0488584
-0.0359415
-0.0245929
-0.0150952
-0.00767823
-0.00262523
-0.000367704
-0.000162229
-0.00108236
-0.00306735
-0.00590198
-0.00945471
-0.01364
-0.0183728
-0.0235714
-0.0291616
-0.0350762
-0.041255
-0.0476447
-0.0541986
-0.0608762
-0.0676429
-0.0744694
-0.0813311
-0.0882078
-0.0950829
-0.101943
-0.108777
-0.115577
-0.122335
-0.129046
-0.135704
-0.142305
-0.148844
-0.155315
-0.161712
-0.168028
-0.174255
-0.180379
-0.18639
-0.19227
-0.198
-0.203557
-0.208916
-0.214043
-0.218904
-0.223457
-0.227655
-0.231444
-0.234766
-0.237553
-0.239734
-0.241229
-0.241955
-0.241823
-0.240741
-0.238616
-0.235359
-0.230886
-0.225121
-0.218008
-0.209509
-0.199617
-0.188356
-0.175796
-0.162048
-0.147275
-0.131693
-0.115564
-0.0991962
-0.0829351
-0.0671506
-0.0522242
-0.038535
-0.0264454
-0.0162794
-0.00830524
-0.00285024
-0.000402309
-0.000158698
-0.00106169
-0.00301237
-0.00580034
-0.00929634
-0.0134156
-0.0180732
-0.0231875
-0.0286839
-0.0344947
-0.0405594
-0.0468243
-0.0532425
-0.0597736
-0.0663831
-0.0730423
-0.0797273
-0.0864187
-0.093101
-0.0997621
-0.106393
-0.112986
-0.119537
-0.126041
-0.132496
-0.138899
-0.145248
-0.151541
-0.157773
-0.16394
-0.170038
-0.176056
-0.181987
-0.187816
-0.193529
-0.199107
-0.204525
-0.209757