/*--------------------------------*- C++ -*----------------------------------*\
  =========                 |
  \\      /  F ield         | OpenFOAM: The Open Source CFD Toolbox
   \\    /   O peration     | Website:  https://openfoam.org
    \\  /    A nd           | Version:  dev
     \\/     M anipulation  |
\*---------------------------------------------------------------------------*/
FoamFile
{
    format      ascii;
    class       volScalarField;
    location    "20.25";
    object      Uy;
}
// * * * * * * * * * * * * * * * * * * * * * * * * * * * * * * * * * * * * * //

dimensions      [0 1 -1 0 0 0 0];

internalField   nonuniform List<scalar> 
5184
(
-1.24505e-05
-2.07153e-05
-1.71549e-05
-8.14372e-06
2.6979e-06
1.3629e-05
2.38451e-05
3.30362e-05
4.10839e-05
4.79937e-05
5.38271e-05
5.86688e-05
6.26114e-05
6.57458e-05
6.81566e-05
6.99194e-05
7.10982e-05
7.17454e-05
7.19017e-05
7.15966e-05
7.08495e-05
6.96709e-05
6.80641e-05
6.60259e-05
6.35492e-05
6.0624e-05
5.72401e-05
5.33879e-05
4.90602e-05
4.4254e-05
3.89719e-05
3.3223e-05
2.70246e-05
2.04028e-05
1.3393e-05
6.04082e-06
-1.59762e-06
-9.45602e-06
-1.7458e-05
-2.55177e-05
-3.35409e-05
-4.14263e-05
-4.90667e-05
-5.63514e-05
-6.31679e-05
-6.94044e-05
-7.49522e-05
-7.97085e-05
-8.35787e-05
-8.64794e-05
-8.83399e-05
-8.91049e-05
-8.87363e-05
-8.72143e-05
-8.45386e-05
-8.07285e-05
-7.58231e-05
-6.98809e-05
-6.29794e-05
-5.52145e-05
-4.67002e-05
-3.75692e-05
-2.79761e-05
-1.81028e-05
-8.1747e-06
1.51317e-06
1.05384e-05
1.82643e-05
2.36803e-05
2.5097e-05
1.98305e-05
6.24314e-06
-4.54596e-05
-6.53347e-05
-4.03019e-05
7.79643e-06
6.57585e-05
0.000125995
0.000184231
0.000238215
0.000286806
0.000329564
0.000366449
0.000397651
0.00042348
0.000444303
0.000460497
0.000472421
0.000480396
0.000484697
0.000485548
0.000483119
0.000477533
0.000468866
0.000457156
0.000442414
0.000424627
0.000403771
0.000379824
0.000352767
0.000322602
0.000289354
0.000253085
0.000213898
0.000171941
0.000127418
8.05873e-05
3.1768e-05
-1.86619e-05
-7.02648e-05
-0.000122547
-0.00017496
-0.000226913
-0.000277774
-0.000326882
-0.000373559
-0.000417122
-0.000456896
-0.000492229
-0.000522508
-0.000547171
-0.000565726
-0.000577759
-0.000582951
-0.000581087
-0.000572062
-0.000555892
-0.000532716
-0.000502798
-0.000466524
-0.00042441
-0.000377093
-0.000325342
-0.000270059
-0.000212305
-0.00015333
-9.46414e-05
-3.81184e-05
1.37857e-05
5.77672e-05
8.9239e-05
0.000101712
8.64216e-05
3.64617e-05
-8.10155e-05
-9.46154e-05
-1.8773e-05
0.000106164
0.000254724
0.000410487
0.000563153
0.000706589
0.000837351
0.000953734
0.00105514
0.00114168
0.00121384
0.00127237
0.00131808
0.00135179
0.00137427
0.0013862
0.00138813
0.00138052
0.00136368
0.00133785
0.00130315
0.00125964
0.00120734
0.00114623
0.00107631
0.000997589
0.000910133
0.000814079
0.00070966
0.00059722
0.000477231
0.000350309
0.000217217
7.88767e-05
-6.36327e-05
-0.000209078
-0.000356078
-0.000503117
-0.000648562
-0.000790682
-0.000927679
-0.00105771
-0.00117893
-0.00128951
-0.00138772
-0.0014719
-0.00154055
-0.00159236
-0.00162623
-0.00164133
-0.00163709
-0.00161325
-0.00156988
-0.00150739
-0.00142651
-0.00132835
-0.00121435
-0.00108631
-0.000946402
-0.000797194
-0.000641686
-0.000483406
-0.000326548
-0.000176193
-3.865e-05
7.80719e-05
0.000163685
0.000205036
0.000186026
9.02994e-05
-9.74883e-05
-7.27133e-05
8.51657e-05
0.000318558
0.000590027
0.00087399
0.00115344
0.00141761
0.00166002
0.00187717
0.00206748
0.00223072
0.00236743
0.00247867
0.00256569
0.00262983
0.00267236
0.00269444
0.00269705
0.00268098
0.00264682
0.00259499
0.00252578
0.00243934
0.00233575
0.00221506
0.00207731
0.00192262
0.0017512
0.0015634
0.00135973
0.00114094
0.000907997
0.000662139
0.000404876
0.000138008
-0.00013638
-0.000415922
-0.000697985
-0.000979696
-0.00125797
-0.00152957
-0.0017911
-0.00203913
-0.00227023
-0.00248101
-0.00266821
-0.00282881
-0.00296002
-0.00305942
-0.00312499
-0.00315519
-0.003149
-0.00310596
-0.00302623
-0.00291058
-0.00276046
-0.00257794
-0.00236578
-0.00212744
-0.00186705
-0.0015895
-0.00130051
-0.00100672
-0.000715962
-0.000437482
-0.000182419
3.5634e-05
0.000199975
0.000290227
0.000282112
0.000147101
-8.4152e-05
2.1308e-05
0.000295754
0.000668046
0.00109045
0.0015291
0.00196059
0.00236948
0.00274605
0.00308467
0.0033826
0.00363899
0.00385432
0.00402983
0.00416717
0.00426817
0.00433461
0.00436813
0.00437017
0.00434189
0.0042842
0.00419776
0.00408303
0.00394031
0.0037698
0.00357163
0.00334601
0.0030932
0.00281366
0.00250804
0.00217729
0.00182268
0.00144586
0.00104887
0.000634197
0.000204748
-0.000236118
-0.00068462
-0.00113657
-0.00158743
-0.00203233
-0.00246616
-0.00288364
-0.00327938
-0.00364802
-0.00398428
-0.00428312
-0.00453979
-0.00475
-0.00490999
-0.00501663
-0.00506753
-0.00506113
-0.00499674
-0.00487462
-0.00469602
-0.00446321
-0.00417951
-0.00384928
-0.00347799
-0.00307218
-0.0026396
-0.00218923
-0.00173145
-0.0012783
-0.000843825
-0.000444488
-9.98291e-05
0.000166836
0.000327798
0.000350343
0.000193863
-3.72814e-05
0.000197692
0.00062701
0.00117003
0.00177086
0.00238872
0.00299458
0.00356868
0.00409819
0.00457536
0.00499613
0.005359
0.00566422
0.00591316
0.00610779
0.00625037
0.00634319
0.00638837
0.00638779
0.00634301
0.00625526
0.00612548
0.00595433
0.00574229
0.00548971
0.00519692
0.00486429
0.00449235
0.00408187
0.00363393
0.00315002
0.0026321
0.00208264
0.00150468
0.000901864
0.000278441
-0.000360734
-0.00101021
-0.00166401
-0.00231561
-0.00295811
-0.00358424
-0.00418651
-0.00475732
-0.00528907
-0.00577435
-0.00620602
-0.00657742
-0.00688248
-0.00711593
-0.00727336
-0.00735142
-0.00734789
-0.00726182
-0.00709359
-0.00684498
-0.00651922
-0.00612103
-0.00565663
-0.00513379
-0.00456183
-0.00395172
-0.00331615
-0.00266969
-0.00202905
-0.00141341
-0.000844862
-0.000349079
4.39963e-05
0.000299453
0.000376508
0.000224154
4.43032e-05
0.000461427
0.00108684
0.00183388
0.00264077
0.00346134
0.004262
0.00501934
0.00571778
0.00634764
0.00690362
0.00738356
0.00778747
0.00811679
0.00837377
0.00856109
0.00868147
0.00873751
0.00873152
0.00866546
0.00854088
0.00835901
0.00812074
0.00782677
0.00747764
0.0070739
0.00661619
0.00610535
0.00554256
0.00492944
0.00426813
0.0035614
0.0028127
0.00202623
0.00120697
0.000360676
-0.00050608
-0.00138598
-0.00227099
-0.00315244
-0.0040211
-0.00486732
-0.00568117
-0.00645256
-0.00717144
-0.00782799
-0.00841277
-0.00891697
-0.00933257
-0.00965258
-0.00987116
-0.00998386
-0.00998774
-0.00988152
-0.00966566
-0.00934253
-0.00891639
-0.00839348
-0.00778207
-0.00709244
-0.00633697
-0.00553015
-0.0046887
-0.0038317
-0.00298081
-0.00216059
-0.00139895
-0.000727707
-0.000183316
0.000192454
0.00035152
0.000234551
0.000160591
0.00081437
0.001679
0.00266459
0.00370554
0.00475188
0.00576663
0.00672354
0.00760485
0.0083993
0.00910057
0.00970595
0.0102153
0.01063
0.0109528
0.0111865
0.0113345
0.0113997
0.0113849
0.0112924
0.0111241
0.0108814
0.0105657
0.0101777
0.00971825
0.00918818
0.00858844
0.00792025
0.00718529
0.0063858
0.00552466
0.00460559
0.00363313
0.00261278
0.00155099
0.000455216
-0.00066611
-0.00180361
-0.00294703
-0.00408532
-0.00520675
-0.00629909
-0.00734972
-0.00834587
-0.00927482
-0.0101241
-0.0108818
-0.0115368
-0.0120789
-0.0124991
-0.0127901
-0.0129462
-0.0129636
-0.0128406
-0.0125777
-0.0121779
-0.0116464
-0.0109912
-0.0102227
-0.00935376
-0.00840008
-0.00737988
-0.00631414
-0.00522666
-0.00414426
-0.00309706
-0.0021188
-0.00124743
-0.000525706
-1.78813e-06
0.000269822
0.00022335
0.000310942
0.00125642
0.00240445
0.00366402
0.00496749
0.00626257
0.00751009
0.00868186
0.0097586
0.010728
0.0115829
0.0123204
0.0129402
0.0134439
0.0138345
0.0141153
0.01429
0.014362
0.0143344
0.01421
0.013991
0.0136791
0.0132758
0.0127823
0.0121996
0.0115288
0.0107713
0.00992861
0.00900308
0.00799761
0.00691595
0.00576282
0.00454397
0.0032663
0.00193788
0.000567968
-0.000832995
-0.00225343
-0.0036807
-0.00510122
-0.0065006
-0.00786381
-0.00917541
-0.0104197
-0.0115812
-0.0126445
-0.0135951
-0.0144191
-0.0151042
-0.0156393
-0.0160152
-0.0162249
-0.0162635
-0.016129
-0.0158217
-0.0153451
-0.0147057
-0.0139128
-0.0129792
-0.0119205
-0.0107559
-0.00950737
-0.00820037
-0.00686358
-0.00552912
-0.00423273
-0.00301407
-0.00191709
-0.000990625
-0.000288786
0.000128314
0.000189904
0.000494448
0.00178634
0.0032623
0.00483178
0.00642657
0.00799345
0.00949212
0.0108934
0.0121773
0.0133308
0.0143466
0.0152216
0.0159557
0.0165508
0.0170102
0.0173378
0.0175375
0.0176134
0.0175688
0.017407
0.0171304
0.0167411
0.0162408
0.015631
0.0149129
0.014088
0.013158
0.012125
0.010992
0.0097625
0.00844126
0.00703405
0.00554794
0.00399129
0.00237387
0.000706866
-0.000997178
-0.00272436
-0.00445955
-0.00618649
-0.00788796
-0.00954602
-0.0111422
-0.0126578
-0.0140742
-0.015373
-0.0165368
-0.0175491
-0.0183947
-0.0190605
-0.0195353
-0.0198104
-0.0198799
-0.0197409
-0.0193938
-0.0188424
-0.0180942
-0.0171602
-0.0160553
-0.0147982
-0.0134112
-0.0119205
-0.0103561
-0.00875159
-0.00714458
-0.00557648
-0.00409284
-0.0027436
-0.00158344
-0.000672074
-7.4616e-05
0.000134132
0.000710075
0.00240221
0.00425045
0.0061659
0.008081
0.00994274
0.0117108
0.013356
0.014858
0.0162041
0.0173871
0.0184041
0.0192555
0.0199436
0.0204721
0.0208455
0.0210682
0.0211446
0.0210788
0.020874
0.0205332
0.0200587
0.0194525
0.0187162
0.0178515
0.0168602
0.0157444
0.0145067
0.0131507
0.0116807
0.0101024
0.00842276
0.00665015
0.00479449
0.00286731
0.000881757
-0.00114741
-0.00320391
-0.00526999
-0.00732662
-0.00935367
-0.0113301
-0.0132343
-0.0150444
-0.0167384
-0.0182949
-0.0196932
-0.0209139
-0.021939
-0.0227529
-0.0233422
-0.0236964
-0.0238082
-0.0236738
-0.0232935
-0.0226711
-0.0218152
-0.0207383
-0.0194575
-0.0179943
-0.0163745
-0.0146286
-0.0127909
-0.0109003
-0.00899984
-0.00713672
-0.00536242
-0.00373281
-0.00230835
-0.00115409
-0.000339801
5.62047e-05
0.000956745
0.00310173
0.00536604
0.00766327
0.00992761
0.0121073
0.0141629
0.0160659
0.0177969
0.0193437
0.0206996
0.0218626
0.0228335
0.0236155
0.024213
0.0246308
0.0248742
0.0249479
0.0248563
0.0246033
0.024192
0.023625
0.0229046
0.0220328
0.0210114
0.0198425
0.0185287
0.0170732
0.0154801
0.0137547
0.0119035
0.00993467
0.00785791
0.00568474
0.00342848
0.00110429
-0.00127083
-0.00367813
-0.00609722
-0.00850619
-0.0108819
-0.0132001
-0.0154359
-0.017564
-0.0195591
-0.0213963
-0.0230516
-0.0245023
-0.0257275
-0.0267086
-0.02743
-0.0278789
-0.0280466
-0.0279281
-0.027523
-0.0268355
-0.0258747
-0.0246546
-0.0231945
-0.0215187
-0.0196565
-0.0176424
-0.0155156
-0.0133201
-0.0111045
-0.00892196
-0.00682991
-0.00489021
-0.00316907
-0.00173684
-0.000667803
-4.36614e-05
0.00123337
0.00388237
0.00660562
0.00932
0.0119622
0.0144827
0.0168438
0.0190187
0.0209891
0.0227442
0.0242785
0.025591
0.0266835
0.0275601
0.028226
0.0286868
0.0289483
0.029016
0.0288946
0.0285884
0.0281008
0.0274348
0.0265928
0.0255771
0.0243899
0.0230336
0.021511
0.0198261
0.0179834
0.0159891
0.0138507
0.0115775
0.00918044
0.00667275
0.00406947
0.00138782
-0.00135298
-0.00413168
-0.00692518
-0.00970866
-0.0124559
-0.0151393
-0.0177306
-0.0202009
-0.0225214
-0.0246636
-0.0265997
-0.0283037
-0.0297514
-0.0309212
-0.0317943
-0.032356
-0.0325954
-0.0325061
-0.032087
-0.031342
-0.0302809
-0.0289189
-0.0272773
-0.0253831
-0.0232693
-0.0209743
-0.0185423
-0.0160224
-0.013469
-0.0109413
-0.00850278
-0.00622147
-0.00416943
-0.00242238
-0.00105927
-0.000165332
0.00153885
0.00474142
0.00796539
0.0111315
0.0141799
0.0170638
0.0197482
0.0222086
0.0244288
0.0263998
0.0281177
0.029583
0.030799
0.0317707
0.0325044
0.0330067
0.0332841
0.0333426
0.0331876
0.0328237
0.0322547
0.0314838
0.0305138
0.0293471
0.0279861
0.0264336
0.024693
0.0227684
0.0206652
0.0183902
0.0159518
0.0133605
0.0106287
0.00777088
0.004804
0.00174723
-0.00137794
-0.0045478
-0.00773652
-0.0109163
-0.0140578
-0.0171301
-0.0201014
-0.022939
-0.0256103
-0.028083
-0.0303256
-0.0323082
-0.0340029
-0.0353847
-0.0364319
-0.0371266
-0.0374559
-0.0374116
-0.0369914
-0.0361988
-0.0350437
-0.0335426
-0.0317186
-0.0296012
-0.0272269
-0.0246384
-0.0218845
-0.01902
-0.016105
-0.0132047
-0.0103893
-0.0077329
-0.00531376
-0.00321323
-0.00151518
-0.000308846
0.00187209
0.00567604
0.00944123
0.0130929
0.016575
0.0198444
0.0228697
0.0256291
0.0281093
0.0303036
0.0322103
0.0338318
0.0351729
0.0362403
0.0370414
0.0375838
0.037875
0.0379217
0.0377297
0.0373043
0.0366494
0.0357688
0.0346652
0.0333414
0.0318
0.0300442
0.0280775
0.0259046
0.0235314
0.0209655
0.0182161
0.0152947
0.012215
0.00899293
0.00564719
0.00219886
-0.00132838
-0.00490837
-0.00851257
-0.0121103
-0.0156688
-0.019154
-0.0225301
-0.025761
-0.0288098
-0.0316403
-0.0342167
-0.0365052
-0.0384738
-0.0400936
-0.0413395
-0.0421904
-0.0426304
-0.0426495
-0.0422436
-0.0414154
-0.0401748
-0.0385391
-0.0365328
-0.0341883
-0.0315451
-0.0286503
-0.0255576
-0.0223271
-0.0190252
-0.0157236
-0.0124988
-0.00943183
-0.00660728
-0.00411258
-0.00203702
-0.000474468
0.00223196
0.00668327
0.0110287
0.0151985
0.0191411
0.0228179
0.0262012
0.029273
0.0320232
0.0344481
0.0365488
0.0383297
0.0397979
0.0409616
0.0418298
0.0424114
0.0427147
0.0427473
0.0425157
0.0420256
0.0412814
0.0402869
0.0390454
0.0375596
0.0358326
0.0338675
0.0316683
0.02924
0.0265891
0.0237237
0.0206538
0.0173919
0.0139528
0.0103539
0.00661539
0.00276026
-0.00118572
-0.00519399
-0.00923337
-0.0132702
-0.0172686
-0.0211909
-0.0249977
-0.0286486
-0.032103
-0.03532
-0.0382597
-0.0408835
-0.0431553
-0.0450418
-0.0465139
-0.0475468
-0.0481215
-0.048225
-0.0478515
-0.0470022
-0.0456867
-0.0439226
-0.0417358
-0.0391611
-0.0362413
-0.0330274
-0.0295783
-0.0259598
-0.0222444
-0.0185107
-0.0148422
-0.0113269
-0.00805632
-0.00512458
-0.00262696
-0.000662735
0.0026173
0.00776002
0.0127233
0.0174426
0.0218717
0.0259767
0.0297347
0.0331319
0.0361621
0.038825
0.0411248
0.0430686
0.0446659
0.0459269
0.0468623
0.0474824
0.0477966
0.0478135
0.0475403
0.0469831
0.0461469
0.0450357
0.0436529
0.0420017
0.040085
0.0379063
0.0354697
0.0327807
0.0298459
0.0266741
0.023276
0.0196649
0.0158565
0.0118697
0.00772593
0.00345003
-0.000930255
-0.00538409
-0.00987771
-0.0143746
-0.0188356
-0.0232195
-0.0274831
-0.0315822
-0.0354714
-0.0391054
-0.0424396
-0.0454306
-0.0480374
-0.0502221
-0.0519509
-0.0531948
-0.053931
-0.0541434
-0.0538232
-0.0529702
-0.0515927
-0.0497085
-0.0473447
-0.0445379
-0.0413341
-0.0377887
-0.0339652
-0.0299355
-0.0257788
-0.0215806
-0.0174318
-0.0134281
-0.00966851
-0.0062544
-0.00328785
-0.00087448
0.00302692
0.00890302
0.0145198
0.0198188
0.0247593
0.0293129
0.0334618
0.0371972
0.0405171
0.0434252
0.0459293
0.0480397
0.0497683
0.0511278
0.0521308
0.0527892
0.0531137
0.0531138
0.0527977
0.052172
0.0512422
0.0500124
0.0484865
0.0466675
0.0445586
0.0421634
0.0394863
0.0365326
0.0333097
0.0298264
0.0260941
0.0221267
0.017941
0.0135567
0.00899683
0.00428758
-0.00054138
-0.00545706
-0.0104232
-0.0154005
-0.0203467
-0.0252169
-0.0299643
-0.0345401
-0.0388946
-0.0429778
-0.0467398
-0.0501322
-0.0531086
-0.0556259
-0.057645
-0.0591322
-0.0600603
-0.0604089
-0.0601664
-0.0593299
-0.0579063
-0.0559128
-0.0533773
-0.050338
-0.0468441
-0.0429547
-0.0387387
-0.034274
-0.0296467
-0.0249496
-0.0202819
-0.0157472
-0.0114529
-0.0075084
-0.00402339
-0.00111085
0.00345955
0.0101089
0.0164133
0.0223205
0.0277961
0.0328178
0.0373733
0.0414591
0.0450782
0.0482388
0.0509525
0.0532331
0.0550956
0.0565552
0.0576266
0.0583236
0.0586584
0.0586415
0.0582821
0.0575873
0.0565631
0.0552142
0.0535442
0.0515566
0.0492545
0.0466415
0.0437221
0.0405019
0.0369881
0.0331901
0.0291195
0.0247908
0.0202213
0.0154319
0.0104465
0.00529282
2.184e-06
-0.00539046
-0.0108465
-0.016324
-0.0217775
-0.0271587
-0.0324169
-0.037499
-0.0423506
-0.0469165
-0.0511416
-0.0549719
-0.0583551
-0.0612422
-0.0635886
-0.0653549
-0.0665086
-0.0670249
-0.0668878
-0.0660915
-0.0646408
-0.0625516
-0.059852
-0.0565817
-0.0527925
-0.0485475
-0.0439208
-0.0389966
-0.033868
-0.0286362
-0.0234085
-0.0182977
-0.0134202
-0.00889417
-0.00483807
-0.00137331
0.00391388
0.0113739
0.018398
0.0249406
0.030974
0.0364821
0.0414591
0.0459073
0.049835
0.0532551
0.0561837
0.0586384
0.0606375
0.0621991
0.0633403
0.0640768
0.0644224
0.064389
0.0639866
0.0632231
0.062105
0.0606372
0.0588237
0.0566679
0.054173
0.0513426
0.048181
0.0446939
0.0408885
0.0367743
0.0323631
0.0276698
0.0227122
0.0175117
0.0120933
0.00648588
0.000722096
-0.00516126
-0.0111235
-0.0171199
-0.0231024
-0.029019
-0.0348152
-0.0404335
-0.0458147
-0.0508983
-0.0556236
-0.0599304
-0.0637602
-0.0670577
-0.0697716
-0.0718564
-0.0732735
-0.0739925
-0.0739927
-0.0732642
-0.0718087
-0.0696406
-0.0667874
-0.0632897
-0.0592017
-0.0545904
-0.049535
-0.0441263
-0.0384649
-0.0326604
-0.0268297
-0.0210949
-0.0155825
-0.0104206
-0.00573729
-0.00166367
0.0043885
0.0126944
0.0204682
0.0276716
0.0342839
0.040296
0.0457089
0.0505308
0.054776
0.0584627
0.0616115
0.0642443
0.0663831
0.0680489
0.0692616
0.0700389
0.0703965
0.0703477
0.0699035
0.0690726
0.067862
0.0662769
0.0643216
0.0619994
0.0593136
0.0562675
0.0528655
0.049113
0.0450171
0.0405872
0.0358352
0.030776
0.0254278
0.0198124
0.0139555
0.0078867
0.00164006
-0.00474616
-0.0112293
-0.0177625
-0.0242945
-0.0307703
-0.0371315
-0.0433161
-0.0492601
-0.0548975
-0.0601615
-0.0649855
-0.0693044
-0.0730556
-0.0761807
-0.0786272
-0.0803493
-0.0813104
-0.081484
-0.080855
-0.0794213
-0.0771948
-0.0742017
-0.070483
-0.0660948
-0.0611078
-0.0556064
-0.0496879
-0.0434612
-0.0370447
-0.0305653
-0.0241559
-0.0179537
-0.0120979
-0.00672732
-0.00198406
0.00488192
0.0140662
0.0226176
0.0305055
0.0377166
0.0442492
0.0501112
0.0553177
0.0598891
0.0638491
0.0672235
0.0700385
0.0723201
0.0740927
0.075379
0.0761991
0.0765705
0.0765081
0.076024
0.0751278
0.0738271
0.0721274
0.0700332
0.0675478
0.0646744
0.0614161
0.057777
0.0537623
0.0493788
0.0446356
0.0395446
0.0341204
0.0283812
0.0223492
0.0160502
0.00951464
0.00277742
-0.00412193
-0.0111391
-0.0182251
-0.0253261
-0.032384
-0.0393364
-0.0461173
-0.0526575
-0.0588854
-0.0647279
-0.0701117
-0.0749643
-0.0792155
-0.0827989
-0.085654
-0.0877272
-0.0889742
-0.0893617
-0.0888686
-0.0874879
-0.0852277
-0.0821121
-0.0781821
-0.073495
-0.0681247
-0.062161
-0.0557078
-0.0488824
-0.0418131
-0.0346374
-0.0274997
-0.0205493
-0.0139375
-0.00781531
-0.00233698
0.00539257
0.0154851
0.0248397
0.0334339
0.0412621
0.0483305
0.0546543
0.0602556
0.0651614
0.0694013
0.0730065
0.0760079
0.0784357
0.0803179
0.0816803
0.0825454
0.082933
0.0828594
0.0823381
0.0813796
0.079992
0.0781815
0.0759524
0.0733082
0.0702518
0.0667862
0.062915
0.058643
0.0539767
0.0489247
0.0434984
0.0377121
0.0315839
0.0251357
0.0183935
0.011388
0.00415473
-0.00326582
-0.010828
-0.018481
-0.0261688
-0.0338301
-0.0413992
-0.0488055
-0.0559751
-0.0628305
-0.0692923
-0.0752798
-0.0807129
-0.0855129
-0.089605
-0.0929194
-0.0953938
-0.0969753
-0.0976223
-0.0973066
-0.0960149
-0.0937505
-0.0905347
-0.0864068
-0.0814252
-0.0756666
-0.0692257
-0.0622135
-0.0547559
-0.0469916
-0.0390697
-0.0311471
-0.0233864
-0.0159524
-0.00900935
-0.00272525
0.00591878
0.0169465
0.0271276
0.036448
0.0449101
0.0525283
0.0593255
0.0653312
0.0705792
0.0751053
0.0789463
0.0821383
0.0847157
0.0867106
0.0881518
0.0890647
0.0894711
0.0893893
0.0888341
0.087817
0.0863468
0.0844299
0.0820711
0.0792736
0.0760402
0.0723736
0.0682769
0.0637544
0.0588118
0.0534573
0.0477015
0.0415584
0.0350453
0.0281837
0.0209996
0.0135235
0.00579128
-0.00215608
-0.0102719
-0.0185039
-0.0267939
-0.0350782
-0.0432876
-0.0513474
-0.0591788
-0.0666985
-0.0738205
-0.0804567
-0.0865186
-0.0919188
-0.0965728
-0.100401
-0.103331
-0.105301
-0.106258
-0.106167
-0.105005
-0.102772
-0.0994828
-0.0951753
-0.0899076
-0.0837588
-0.0768281
-0.0692335
-0.0611102
-0.0526077
-0.0438876
-0.0351207
-0.0264838
-0.0181567
-0.0103184
-0.00315203
0.00645879
0.0184457
0.0294741
0.0395384
0.0486496
0.0568304
0.0641117
0.0705306
0.0761279
0.0809462
0.0850279
0.0884145
0.0911451
0.0932558
0.0947787
0.0957423
0.0961707
0.0960842
0.0954989
0.0944274
0.0928794
0.0908617
0.0883792
0.0854351
0.0820319
0.0781719
0.0738577
0.0690928
0.0638824
0.0582336
0.0521563
0.0456637
0.0387722
0.0315027
0.0238805
0.0159359
0.00770452
-0.000772431
-0.00944768
-0.0182678
-0.0271731
-0.0360974
-0.0449686
-0.0537081
-0.0622322
-0.0704521
-0.078275
-0.0856052
-0.0923455
-0.0983991
-0.103671
-0.108071
-0.111516
-0.113931
-0.115255
-0.115441
-0.114458
-0.112297
-0.108967
-0.104504
-0.0989629
-0.0924257
-0.0849954
-0.076797
-0.0679749
-0.0586904
-0.0491184
-0.0394447
-0.0298618
-0.0205658
-0.0117523
-0.00362084
0.00701077
0.0199778
0.0318717
0.0426956
0.0524694
0.0612241
0.0689991
0.0758392
0.0817925
0.0869083
0.0912354
0.0948205
0.0977077
0.0999372
0.101545
0.102562
0.103016
0.102929
0.102317
0.101196
0.099576
0.0974636
0.0948642
0.091781
0.0882163
0.0841718
0.0796494
0.074652
0.0691837
0.0632508
0.056862
0.0500294
0.0427685
0.035099
0.0270455
0.0186373
0.00990953
0.00090333
-0.00833394
-0.0177482
-0.0272786
-0.036857
-0.0464086
-0.0558515
-0.0650973
-0.0740517
-0.0826152
-0.0906844
-0.0981531
-0.104914
-0.110863
-0.115896
-0.119918
-0.122843
-0.124595
-0.125117
-0.124367
-0.122325
-0.118995
-0.114405
-0.10861
-0.101691
-0.0937545
-0.0849332
-0.0753804
-0.0652698
-0.0547907
-0.0441449
-0.0335423
-0.0231967
-0.0133218
-0.00413553
0.00757279
0.0215377
0.0343125
0.0459095
0.0563575
0.0656961
0.0739732
0.0812417
0.087557
0.0929754
0.0975519
0.101339
0.104386
0.106738
0.108433
0.109508
0.10999
0.109905
0.109273
0.108107
0.106421
0.10422
0.101511
0.0982973
0.0945802
0.090361
0.0856411
0.0804222
0.0747077
0.0685025
0.0618142
0.0546535
0.0470344
0.0389756
0.0305001
0.0216363
0.0124184
0.00288673
-0.00691161
-0.0169224
-0.027084
-0.037327
-0.0475743
-0.057741
-0.0677345
-0.0774553
-0.0867973
-0.0956493
-0.103896
-0.11142
-0.118105
-0.123835
-0.128501
-0.132003
-0.134252
-0.135175
-0.134718
-0.132851
-0.129567
-0.124888
-0.118863
-0.111575
-0.103131
-0.093671
-0.0833576
-0.0723771
-0.0609344
-0.0492485
-0.0375483
-0.0260672
-0.0150386
-0.0047003
0.00814287
0.0231199
0.0367884
0.0491699
0.0603018
0.0702329
0.0790194
0.0867223
0.0934047
0.0991301
0.10396
0.107952
0.111162
0.113638
0.115424
0.116559
0.117074
0.116996
0.116346
0.115142
0.113394
0.111113
0.108303
0.104967
0.101107
0.096724
0.0918182
0.0863904
0.0804426
0.0739787
0.0670047
0.0595297
0.0515664
0.0431314
0.0342464
0.0249383
0.0152397
0.00519
-0.00516456
-0.0157702
-0.026565
-0.0374789
-0.048433
-0.0593399
-0.0701035
-0.0806191
-0.0907748
-0.100452
-0.109525
-0.117867
-0.125349
-0.131841
-0.137221
-0.141373
-0.144191
-0.145587
-0.145493
-0.143863
-0.14068
-0.135956
-0.129735
-0.122096
-0.113149
-0.103038
-0.0919369
-0.0800439
-0.0675803
-0.0547841
-0.0419046
-0.0291966
-0.016915
-0.0053197
0.00871898
0.0247192
0.0392913
0.052466
0.0642899
0.0748204
0.0841223
0.0922648
0.0993187
0.105355
0.110441
0.114641
0.118016
0.120619
0.122499
0.123696
0.124246
0.124179
0.123517
0.122278
0.120477
0.118121
0.115218
0.111769
0.107777
0.103242
0.0981627
0.0925394
0.0863728
0.0796652
0.0724211
0.0646479
0.0563562
0.047561
0.0382819
0.0285439
0.0183778
0.00782146
-0.00308028
-0.0142745
-0.0256999
-0.0372861
-0.0489534
-0.0606123
-0.0721636
-0.0834985
-0.0944993
-0.10504
-0.114986
-0.1242
-0.132539
-0.139862
-0.146028
-0.150905
-0.15437
-0.156318
-0.156663
-0.155342
-0.152324
-0.147608
-0.141232
-0.133268
-0.123829
-0.113061
-0.101148
-0.0883016
-0.07476
-0.0607813
-0.0466369
-0.0326051
-0.0189644
-0.00599861
0.00929904
0.0263299
0.0418127
0.0557874
0.0683092
0.0794444
0.0892664
0.0978524
0.105281
0.111631
0.116975
0.121386
0.124928
0.12766
0.129635
0.130897
0.131485
0.131432
0.130761
0.129494
0.127644
0.125222
0.122234
0.118682
0.114569
0.109893
0.104653
0.0988484
0.0924783
0.0855434
0.0780464
0.0699928
0.0613911
0.0522542
0.0425993
0.0324491
0.0218325
0.0107849
-0.000650526
-0.0124225
-0.0244707
-0.0367254
-0.0491066
-0.0615236
-0.073875
-0.0860484
-0.0979208
-0.109359
-0.120222
-0.130358
-0.139615
-0.147835
-0.154861
-0.160543
-0.164739
-0.167324
-0.16819
-0.167258
-0.164478
-0.159835
-0.153354
-0.145102
-0.135188
-0.123764
-0.11102
-0.0971816
-0.0825052
-0.0672702
-0.0517719
-0.0363141
-0.021201
-0.00674225
0.00988098
0.0279466
0.0443443
0.0591231
0.072347
0.0840907
0.094436
0.103468
0.111274
0.117939
0.123544
0.128166
0.131876
0.134738
0.136809
0.138138
0.138767
0.13873
0.138055
0.136764
0.134871
0.132389
0.129323
0.125678
0.121454
0.11665
0.111263
0.105292
0.0987349
0.0915902
0.083859
0.0755446
0.0666533
0.0571955
0.047186
0.0366448
0.0255982
0.014079
0.00212803
-0.0102057
-0.0228636
-0.0357771
-0.0488669
-0.062042
-0.0751995
-0.0882243
-0.100989
-0.113355
-0.125171
-0.136279
-0.14651
-0.155693
-0.163654
-0.170223
-0.175238
-0.178549
-0.180029
-0.179574
-0.177115
-0.172617
-0.166094
-0.157599
-0.14724
-0.135167
-0.121578
-0.106714
-0.0908477
-0.0742817
-0.0573373
-0.0403458
-0.0236394
-0.00755619
0.0104627
0.0295637
0.0468779
0.0624627
0.0763906
0.0887447
0.0996152
0.109096
0.11728
0.124261
0.130126
0.13496
0.138839
0.141831
0.143999
0.145395
0.146066
0.146048
0.145371
0.144059
0.142129
0.139593
0.136458
0.132728
0.128404
0.123483
0.117964
0.111842
0.105114
0.0977782
0.0898325
0.0812783
0.0721198
0.0623643
0.0520241
0.0411162
0.0296639
0.017697
0.00525324
-0.00762091
-0.0208695
-0.0344261
-0.0482126
-0.0621388
-0.0761014
-0.0899835
-0.103655
-0.11697
-0.129773
-0.141894
-0.153152
-0.163362
-0.172332
-0.179871
-0.185794
-0.189929
-0.19212
-0.192241
-0.190195
-0.18593
-0.179436
-0.170757
-0.159989
-0.147285
-0.132847
-0.116927
-0.0998184
-0.0818468
-0.0633613
-0.0447233
-0.0262954
-0.0084463
0.0110423
0.0311761
0.0494052
0.0657956
0.0804276
0.0933926
0.104789
0.114717
0.12328
0.130576
0.136702
0.141746
0.145792
0.148914
0.151178
0.152642
0.153355
0.153356
0.15268
0.151351
0.149387
0.146803
0.143606
0.1398
0.135385
0.13036
0.124722
0.118464
0.111584
0.104075
0.0959357
0.0871642
0.0777623
0.0677345
0.05709
0.0458428
0.0340125
0.0216259
0.00871699
-0.00467108
-0.0184856
-0.0326628
-0.0471271
-0.06179
-0.0765487
-0.091286
-0.105869
-0.120149
-0.133964
-0.147133
-0.159468
-0.170764
-0.180814
-0.189406
-0.19633
-0.201387
-0.204395
-0.205197
-0.20367
-0.199733
-0.193355
-0.184561
-0.173437
-0.160129
-0.144845
-0.127847
-0.109447
-0.0899961
-0.0698726
-0.0494704
-0.0291852
-0.0094188
0.0116177
0.0327784
0.0519186
0.0691118
0.0844461
0.0980204
0.109941
0.120316
0.129255
0.136865
0.143249
0.148502
0.152714
0.155963
0.158322
0.159851
0.160605
0.160626
0.159951
0.158606
0.156613
0.153985
0.150732
0.146857
0.142362
0.137245
0.1315
0.125122
0.118106
0.110444
0.102133
0.0931674
0.0835474
0.0732745
0.0623545
0.050798
0.0386211
0.0258466
0.0125048
-0.00136532
-0.0157148
-0.0304837
-0.0455997
-0.0609769
-0.0765145
-0.0920959
-0.107588
-0.122839
-0.13768
-0.151927
-0.165377
-0.177814
-0.189012
-0.198737
-0.206754
-0.212837
-0.216773
-0.218371
-0.217476
-0.213976
-0.207814
-0.198989
-0.187573
-0.173703
-0.157586
-0.139496
-0.119762
-0.0987596
-0.0769
-0.0546113
-0.0323256
-0.0104802
0.0121872
0.034366
0.0544107
0.0724018
0.0884346
0.102615
0.115057
0.125876
0.135189
0.14311
0.149748
0.155206
0.159579
0.162952
0.165402
0.166995
0.167787
0.167827
0.167152
0.165792
0.16377
0.161102
0.157798
0.153862
0.149295
0.144096
0.138258
0.131775
0.12464
0.116845
0.108383
0.0992483
0.0894367
0.0789473
0.0677826
0.0559495
0.0434604
0.0303337
0.0165955
0.0022804
-0.0125674
-0.0278923
-0.0436263
-0.0596872
-0.0759774
-0.0923825
-0.10877
-0.124987
-0.140863
-0.156205
-0.170802
-0.184426
-0.196832
-0.207767
-0.216969
-0.224182
-0.229159
-0.231675
-0.231537
-0.228597
-0.222763
-0.214008
-0.20238
-0.188002
-0.17108
-0.151893
-0.130787
-0.108166
-0.0844718
-0.0601707
-0.0357338
-0.0116373
0.0127491
0.0359344
0.0568747
0.075657
0.0923826
0.107164
0.120123
0.131381
0.141063
0.149289
0.156177
0.161835
0.166364
0.169855
0.172391
0.174042
0.17487
0.174924
0.174248
0.172872
0.170823
0.168117
0.164765
0.160774
0.156143
0.150871
0.144952
0.138378
0.131142
0.123233
0.114643
0.105363
0.095387
0.0847109
0.073334
0.0612592
0.0484949
0.0350553
0.0209615
0.00624319
-0.00906044
-0.0248991
-0.04121
-0.0579158
-0.0749233
-0.0921217
-0.109381
-0.126549
-0.143453
-0.159898
-0.175663
-0.190511
-0.204179
-0.216394
-0.226868
-0.235315
-0.241451
-0.245012
-0.245764
-0.243518
-0.238141
-0.229571
-0.217827
-0.203013
-0.185327
-0.165051
-0.142546
-0.118242
-0.0926159
-0.0661733
-0.0394277
-0.0128972
0.0133019
0.0374798
0.059305
0.0788696
0.0962806
0.111657
0.125126
0.136817
0.146861
0.155386
0.162516
0.168366
0.173044
0.176647
0.179261
0.180964
0.181821
0.181885
0.181203
0.17981
0.177732
0.174988
0.171592
0.167549
0.162861
0.157525
0.151536
0.144886
0.137564
0.12956
0.120863
0.111463
0.101351
0.0905189
0.0789634
0.0666837
0.0536838
0.0399732
0.0255682
0.0104931
-0.00521859
-0.0215226
-0.038362
-0.0556656
-0.0733459
-0.091297
-0.109393
-0.127485
-0.1454
-0.162942
-0.179885
-0.19598
-0.210953
-0.22451
-0.236338
-0.246118
-0.25353
-0.258269
-0.260053
-0.258646
-0.253869
-0.245617
-0.233871
-0.218712
-0.200319
-0.178976
-0.155056
-0.129013
-0.101359
-0.0726436
-0.0434251
-0.0142673
0.0138445
0.0389991
0.0616965
0.0820331
0.100121
0.116083
0.130054
0.142169
0.152567
0.161382
0.168745
0.174778
0.179595
0.183299
0.185984
0.18773
0.188608
0.188676
0.187982
0.186566
0.184456
0.181674
0.178234
0.174142
0.169402
0.16401
0.157961
0.151247
0.143855
0.135775
0.126993
0.117498
0.107277
0.0963204
0.0846211
0.0721745
0.0589803
0.0450435
0.030375
0.0149935
-0.00107375
-0.0177888
-0.0351017
-0.0529481
-0.0712474
-0.0899005
-0.108787
-0.127763
-0.14666
-0.165279
-0.183394
-0.200749
-0.217057
-0.232006
-0.24526
-0.256469
-0.265273
-0.271322
-0.274286
-0.273875
-0.269855
-0.26207
-0.250458
-0.235061
-0.21604
-0.193668
-0.168329
-0.140498
-0.110726
-0.0796057
-0.0477444
-0.0157551
0.0143759
0.04049
0.0640458
0.0851425
0.103896
0.120435
0.134897
0.147427
0.158168
0.167261
0.174845
0.181049
0.185993
0.189787
0.19253
0.194308
0.195197
0.195259
0.194546
0.193101
0.190955
0.188132
0.184646
0.180507
0.175718
0.170277
0.164177
0.15741
0.149963
0.141824
0.132979
0.123412
0.11311
0.102061
0.0902533
0.0776788
0.0643334
0.0502169
0.0353352
0.019701
0.00333504
-0.0137317
-0.0314566
-0.0497835
-0.0686396
-0.087934