/*--------------------------------*- C++ -*----------------------------------*\
  =========                 |
  \\      /  F ield         | OpenFOAM: The Open Source CFD Toolbox
   \\    /   O peration     | Website:  https://openfoam.org
    \\  /    A nd           | Version:  dev
     \\/     M anipulation  |
\*---------------------------------------------------------------------------*/
FoamFile
{
    format      ascii;
    class       volScalarField;
    location    "31.5";
    object      p;
}
// * * * * * * * * * * * * * * * * * * * * * * * * * * * * * * * * * * * * * //

dimensions      [0 2 -2 0 0 0 0];

internalField   nonuniform List<scalar> 
5184
(
1.82329e-06
-9.46591e-06
-9.52746e-05
-0.000248137
-0.000447529
-0.000676176
-0.000919842
-0.00116656
-0.00140719
-0.00163458
-0.00184331
-0.00202937
-0.00218981
-0.00232253
-0.00242606
-0.00249941
-0.00254189
-0.00255306
-0.00253265
-0.00248049
-0.0023965
-0.00228066
-0.00213302
-0.00195372
-0.001743
-0.00150122
-0.00122894
-0.000926906
-0.000596109
-0.000237822
0.00014637
0.000554542
0.0009844
0.00143327
0.0018981
0.00237543
0.00286146
0.003352
0.0038426
0.0043285
0.00480477
0.00526634
0.00570807
0.00612488
0.00651183
0.00686421
0.00717763
0.00744819
0.00767251
0.00784784
0.00797219
0.00804435
0.00806396
0.0080316
0.00794876
0.00781788
0.00764237
0.00742653
0.00717557
0.00689556
0.00659336
0.00627657
0.00595351
0.00563313
0.00532499
0.00503917
0.00478617
0.00457662
0.00442049
0.00432623
0.00429933
0.00432664
1.5618e-05
3.19216e-06
-7.13812e-05
-0.000199132
-0.000364371
-0.000554627
-0.000758968
-0.000967795
-0.00117318
-0.00136874
-0.00154941
-0.0017113
-0.00185143
-0.00196757
-0.00205808
-0.00212177
-0.00215778
-0.00216549
-0.00214448
-0.00209447
-0.00201529
-0.00190683
-0.00176912
-0.00160226
-0.00140647
-0.00118212
-0.000929737
-0.000650051
-0.000344023
-1.28709e-05
0.000341898
0.000718467
0.00111469
0.00152807
0.00195576
0.0023946
0.00284105
0.0032913
0.00374125
0.00418658
0.0046228
0.0050453
0.00544943
0.00583062
0.00618441
0.00650657
0.00679321
0.00704083
0.00724645
0.00740769
0.00752283
0.00759088
0.00761163
0.00758571
0.0075146
0.00740062
0.00724696
0.00705763
0.00683742
0.00659189
0.00632729
0.0060505
0.00576895
0.00549056
0.00522366
0.00497681
0.00475869
0.00457765
0.004441
0.00435469
0.00432613
0.00435378
0.000102357
7.76408e-05
2.31126e-06
-0.000115219
-0.000262915
-0.000431143
-0.000611196
-0.000795241
-0.000976576
-0.00114964
-0.00130993
-0.00145385
-0.0015786
-0.001682
-0.00176241
-0.00181859
-0.00184961
-0.00185479
-0.00183361
-0.00178572
-0.00171089
-0.00160897
-0.00147992
-0.00132381
-0.00114081
-0.00093127
-0.000695665
-0.000434679
-0.000149212
0.000159595
0.000490329
0.000841288
0.00121046
0.00159552
0.00199382
0.00240238
0.00281795
0.00323695
0.00365558
0.00406984
0.00447555
0.00486844
0.00524422
0.00559864
0.0059276
0.00622721
0.00649387
0.00672438
0.00691604
0.00706668
0.00717477
0.00723945
0.0072606
0.00723888
0.00717573
0.00707338
0.00693485
0.0067639
0.00656502
0.00634337
0.00610471
0.00585535
0.00560205
0.00535191
0.00511232
0.00489071
0.0046946
0.00453102
0.004406
0.00432476
0.00429695
0.0043276
0.0002574
0.000205997
0.000118204
-7.35454e-07
-0.000143156
-0.000301284
-0.000467993
-0.000636914
-0.000802507
-0.000960082
-0.00110577
-0.00123642
-0.00134955
-0.00144318
-0.00151579
-0.0015662
-0.0015935
-0.00159699
-0.00157616
-0.00153061
-0.00146005
-0.00136431
-0.00124329
-0.00109701
-0.000925597
-0.000729316
-0.000508592
-0.000264034
3.54686e-06
0.000293103
0.000603334
0.00093266
0.00127921
0.00164081
0.00201499
0.00239896
0.00278964
0.00318371
0.00357756
0.00396743
0.00434938
0.00471939
0.00507339
0.00540738
0.00571749
0.00600002
0.00625161
0.00646922
0.00665032
0.00679287
0.00689544
0.00695725
0.00697823
0.00695904
0.00690105
0.00680643
0.00667803
0.00651946
0.00633493
0.0061293
0.00590795
0.00567671
0.00544182
0.00520975
0.00498715
0.0047807
0.00459702
0.00444239
0.00432224
0.00424159
0.00421053
0.00423578
0.000462149
0.000373556
0.000264975
0.000137293
-7.04277e-06
-0.000161872
-0.000321422
-0.000480692
-0.00063527
-0.000781356
-0.000915769
-0.0010359
-0.00113964
-0.00122529
-0.00129154
-0.00133732
-0.0013618
-0.00136435
-0.00134443
-0.00130166
-0.00123571
-0.00114636
-0.00103347
-0.000897002
-0.000737007
-0.00055368
-0.00034736
-0.00011856
0.000132013
0.000403426
0.000694502
0.0010038
0.00132959
0.00166987
0.00202231
0.00238431
0.00275298
0.00312517
0.00349749
0.00386633
0.00422797
0.00457855
0.00491422
0.00523112
0.00552555
0.00579397
0.00603313
0.00624014
0.00641255
0.0065484
0.00664632
0.00670558
0.00672609
0.00670849
0.00665412
0.00656503
0.00644399
0.00629439
0.00612025
0.00592616
0.00571716
0.00549871
0.00527654
0.00505663
0.00484502
0.00464773
0.00447067
0.00431947
0.00419911
0.00411433
0.00407392
0.00408375
0.000700447
0.00056844
0.000433294
0.000291277
0.000139373
-1.7647e-05
-0.000175176
-0.000329471
-0.000477197
-0.000615428
-0.000741691
-0.000853941
-0.000950505
-0.00103003
-0.00109144
-0.00113385
-0.00115656
-0.001159
-0.00114068
-0.0011012
-0.00104026
-0.000957569
-0.000852948
-0.000726282
-0.000577555
-0.000406868
-0.00021446
-7.3207e-07
0.000233727
0.000488115
0.000761392
0.00105226
0.00135915
0.00168019
0.00201325
0.00235586
0.00270531
0.00305861
0.00341252
0.0037636
0.00410825
0.00444278
0.00476343
0.00506649
0.00534834
0.00560554
0.0058349
0.0060336
0.00619921
0.00632983
0.00642408
0.00648122
0.00650116
0.00648447
0.00643244
0.00634704
0.00623089
0.00608726
0.00591998
0.0057334
0.0055323
0.00532178
0.00510722
0.00489413
0.00468807
0.00449451
0.00431878
0.00416595
0.00404057
0.00394705
0.00389186
0.00387878
0.000958508
0.000779772
0.000614259
0.000453742
0.000289851
0.000126191
-3.36151e-05
-0.000186965
-0.000331525
-0.00046521
-0.000586246
-0.000693163
-0.000784753
-0.000860033
-0.000918201
-0.000958596
-0.000980663
-0.000983926
-0.000967967
-0.000932412
-0.000876925
-0.000801213
-0.000705027
-0.000588184
-0.00045058
-0.000292216
-0.000113215
8.6145e-05
0.000305409
0.000543916
0.000800772
0.00107483
0.00136468
0.0016686
0.00198461
0.00231041
0.00264342
0.00298079
0.0033194
0.00365595
0.00398693
0.00430874
0.00461771
0.00491017
0.00518255
0.00543144
0.00565367
0.00584642
0.00600726
0.00613424
0.00622596
0.00628164
0.00630112
0.00628491
0.00623423
0.00615094
0.00603757
0.00589725
0.00573365
0.00555093
0.00535364
0.00514664
0.00493497
0.00472379
0.00451827
0.00432344
0.00414417
0.00398501
0.00385022
0.00374383
0.00366952
0.0036285
0.00122421
0.00099741
0.000799272
0.000617401
0.000438319
0.000264662
9.92245e-05
-5.64236e-05
-0.000200875
-0.000332834
-0.000451204
-0.000555085
-0.000643739
-0.000716564
-0.000773061
-0.000812801
-0.000835399
-0.000840494
-0.00082774
-0.000796794
-0.000747319
-0.000678987
-0.000591496
-0.000484584
-0.000358053
-0.00021179
-4.57948e-05
0.000139792
0.00034466
0.000568299
0.000809971
0.00106869
0.00134319
0.00163192
0.00193303
0.00224438
0.00256351
0.00288769
0.0032139
0.00353893
0.00385934
0.00417158
0.00447199
0.00475694
0.00502285
0.00526627
0.00548401
0.00567319
0.0058313
0.00595635
0.00604684
0.00610191
0.00612132
0.00610549
0.00605553
0.0059732
0.00586094
0.00572175
0.00555917
0.00537721
0.00518024
0.00497291
0.00476002
0.00454646
0.00433707
0.00413657
0.00394944
0.00377984
0.00363179
0.00350901
0.00341224
0.00334007
0.00148729
0.00121221
0.000980274
0.000775219
0.000578724
0.000392622
0.000218998
5.84942e-05
-8.83367e-05
-0.000220937
-0.000338854
-0.000441739
-0.000529321
-0.00060138
-0.000657723
-0.000698161
-0.000722486
-0.000730464
-0.000721823
-0.000696257
-0.000653426
-0.000592971
-0.00051453
-0.000417758
-0.000302352
-0.000168078
-1.48015e-05
0.000157484
0.000348623
0.000558266
0.000785837
0.00103051
0.00129119
0.00156647
0.00185465
0.00215371
0.00246132
0.00277484
0.00309136
0.00340769
0.00372044
0.00402608
0.00432096
0.00460139
0.00486373
0.00510449
0.00532038
0.0055084
0.00566596
0.00579091
0.00588168
0.00593725
0.00595726
0.00594203
0.00589253
0.00581045
0.00569807
0.00555832
0.0053946
0.00521082
0.00501119
0.00480023
0.00458256
0.00436286
0.00414576
0.00393572
0.00373695
0.00355331
0.00338868
0.00324658
0.00312484
0.00301951
0.00173876
0.0014159
0.00114977
0.000920468
0.000705098
0.000504817
0.000321104
0.000153755
2.54021e-06
-0.000132672
-0.000252038
-0.000355736
-0.000443945
-0.000516819
-0.000574467
-0.000616937
-0.000644201
-0.000656149
-0.000652586
-0.000633239
-0.000597767
-0.000545775
-0.000476835
-0.000390512
-0.000286392
-0.000164109
-2.33834e-05
0.000135946
0.000313889
0.000510264
0.000724668
0.000956442
0.00120465
0.00146805
0.00174508
0.00203384
0.00233212
0.00263735
0.00294669
0.003257
0.00356489
0.00386681
0.00415906
0.0044379
0.00469959
0.00494051
0.00515724
0.00534664
0.00550595
0.00563287
0.00572563
0.00578309
0.0058047
0.00579065
0.00574176
0.00565959
0.00554633
0.00540476
0.00523823
0.00505051
0.00484575
0.00462833
0.00440279
0.00417367
0.00394547
0.00372249
0.00350874
0.0033079
0.00312382
0.00295994
0.0028113
0.00267159
0.0019707
0.00160099
0.00130079
0.00104674
0.000811621
0.000595996
0.000400818
0.000225112
6.79204e-05
-7.15297e-05
-0.000193967
-0.000300071
-0.000390448
-0.000465609
-0.000525958
-0.00057177
-0.00060319
-0.000620225
-0.000622756
-0.000610538
-0.000583221
-0.000540369
-0.000481483
-0.000406028
-0.00031347
-0.000203304
-7.50966e-05
7.14816e-05
0.000236612
0.000420293
0.000622299
0.000842147
0.00107907
0.00133198
0.00159945
0.00187973
0.00217069
0.00246984
0.00277439
0.00308121
0.00338692
0.0036879
0.0039804
0.00426056
0.00452451
0.00476848
0.00498886
0.00518232
0.00534588
0.00547705
0.00557384
0.00563487
0.00565944
0.00564751
0.00559978
0.00551763
0.00540313
0.00525896
0.00508837
0.00489507
0.00468314
0.00445691
0.00422084
0.00397945
0.00373716
0.00349821
0.00326653
0.0030457
0.00283965
0.00265188
0.00247482
0.00229991
0.00217595
0.00176061
0.00142681
0.00114795
0.000892643
0.000660958
0.000453368
0.000268182
0.000103769
-4.12484e-05
-0.000168135
-0.000278043
-0.000371983
-0.000450806
-0.000515189
-0.000565625
-0.000602418
-0.000625688
-0.000635377
-0.000631264
-0.000612982
-0.000580045
-0.000531873
-0.000467826
-0.000387237
-0.000289454
-0.000173878
-4.0004e-05
0.000112534
0.000283921
0.000474119
0.00068283
0.000909458
0.00115308
0.00141242
0.00168584
0.00197131
0.00226643
0.00256843
0.00287419
0.00318029
0.00348307
0.00377866
0.00406307
0.00433226
0.00458225
0.00480923
0.00500961
0.00518017
0.00531814
0.00542127
0.00548793
0.00551717
0.00550874
0.00546312
0.00538154
0.00526591
0.0051188
0.00494337
0.00474329
0.00452258
0.00428558
0.00403675
0.0037806
0.0035216
0.003264
0.00301174
0.00276842
0.00253816
0.00232463
0.00211781
0.00190703
0.00234797
0.00188836
0.00152172
0.00121827
0.000942694
0.000694582
0.000473972
0.000278503
0.000105907
-4.57582e-05
-0.000178264
-0.000293207
-0.000391977
-0.000475743
-0.000545438
-0.000601755
-0.000645146
-0.000675825
-0.000693788
-0.000698826
-0.000690547
-0.000668404
-0.000631725
-0.000579753
-0.000511684
-0.000426703
-0.000324037
-0.000202995
-6.30152e-05
9.62859e-05
0.000275069
0.000473228
0.000690353
0.00092569
0.00117812
0.00144611
0.00172776
0.00202072
0.00232226
0.00262926
0.00293827
0.00324553
0.00354704
0.00383865
0.00411613
0.00437526
0.00461196
0.00482235
0.0050029
0.00515053
0.00526268
0.00533741
0.00537347
0.00537033
0.00532825
0.00524824
0.00513205
0.00498212
0.00480153
0.00459388
0.00436322
0.00411389
0.00385042
0.0035774
0.00329937
0.00302072
0.00274549
0.00247739
0.00222085
0.00197983
0.00174196
0.00149459
0.00248067
0.0019783
0.00157972
0.00125216
0.000956487
0.000691851
0.00045788
0.000251576
7.00678e-05
-8.91227e-05
-0.000228245
-0.000349313
-0.000454073
-0.000543987
-0.000620226
-0.000683664
-0.000734881
-0.000774179
-0.000801589
-0.000816902
-0.000819687
-0.000809327
-0.000785048
-0.000745966
-0.000691122
-0.000619534
-0.000530241
-0.000422353
-0.000295101
-0.00014789
1.96497e-05
0.00020762
0.000415804
0.00064363
0.000890137
0.00115394
0.00143323
0.00172574
0.00202878
0.00233921
0.00265354
0.00296791
0.00327817
0.00358
0.00386892
0.00414045
0.00439019
0.00461393
0.00480779
0.0049683
0.00509254
0.00517819
0.00522365
0.00522809
0.00519145
0.00511451
0.00499881
0.00484667
0.00466105
0.00444553
0.00420415
0.00394133
0.0036617
0.00336998
0.00307091
0.00276905
0.00246865
0.00217363
0.00188884
0.00161863
0.00134839
0.00106351
0.00256834
0.00202479
0.00159535
0.00124432
0.00092892
0.00064787
0.000400405
0.000182913
-8.05547e-06
-0.000175487
-0.000322084
-0.000450255
-0.000562076
-0.000659283
-0.000743264
-0.000815053
-0.000875347
-0.000924511
-0.000962603
-0.000989397
-0.00100441
-0.00100695
-0.000996118
-0.000970895
-0.000930158
-0.000872743
-0.000797488
-0.000703293
-0.000589167
-0.000454291
-0.000298066
-0.000120174
7.93829e-05
0.000300227
0.000541572
0.000802187
0.00108037
0.00137396
0.00168027
0.0019962
0.00231818
0.00264224
0.0029641
0.00327921
0.00358284
0.00387019
0.00413652
0.00437724
0.00458805
0.00476505
0.00490486
0.00500476
0.00506273
0.00507752
0.00504877
0.00497693
0.00486332
0.00471007
0.00452005
0.00429679
0.00404436
0.00376727
0.0034703
0.00315839
0.00283649
0.00250947
0.00218185
0.00185787
0.0015429
0.00124178
0.000937686
0.000614122
0.00260556
0.00202252
0.0015634
0.00118968
0.000855074
0.000557882
0.000296948
6.80658e-05
-0.000132768
-0.00030903
-0.000463853
-0.000600014
-0.000719903
-0.000825506
-0.000918405
-0.000999782
-0.00107043
-0.00113076
-0.00118084
-0.00122041
-0.00124894
-0.00126562
-0.00126944
-0.00125922
-0.00123366
-0.00119141
-0.00113108
-0.00105136
-0.00095101
-0.000828975
-0.000684413
-0.000516764
-0.000325802
-0.00011169
0.000124981
0.000383148
0.000661249
0.000957204
0.00126841
0.00159174
0.00192359
0.00225989
0.00259619
0.00292769
0.00324941
0.0035562
0.00384292
0.00410455
0.00433631
0.00453381
0.00469317
0.00481116
0.00488526
0.00491378
0.00489592
0.0048318
0.00472243
0.00456974
0.00437647
0.0041461
0.00388274
0.003591
0.00327587
0.00294255
0.00259629
0.00224233
0.00188557
0.00153064
0.00118353
0.000849674
0.000510068
0.000146271
0.00258719
0.00196642
0.0014789
0.00108338
0.000730221
0.000417281
0.000143023
-9.7334e-05
-0.000308333
-0.00049392
-0.000657638
-0.000802616
-0.000931533
-0.00104661
-0.0011496
-0.00124182
-0.00132413
-0.00139698
-0.00146044
-0.0015142
-0.00155765
-0.00158986
-0.0016097
-0.00161581
-0.00160672
-0.00158084
-0.00153659
-0.00147238
-0.00138674
-0.00127835
-0.0011461
-0.000989168
-0.000807082
-0.000599762
-0.000367581
-0.000111411
0.000167348
0.000466733
0.000784212
0.00111669
0.0014605
0.0018115
0.00216504
0.00251612
0.00285942
0.00318943
0.00350059
0.00378738
0.00404449
0.00426698
0.00445037
0.00459084
0.0046853
0.00473153
0.00472822
0.00467506
0.00457273
0.00442288
0.00422807
0.00399174
0.00371804
0.00341171
0.00307796
0.0027223
0.00235038
0.00196787
0.00158013
0.00119228
0.000811028
0.000442493
6.54471e-05
-0.000340532
0.00250832
0.0018517
0.00133715
0.000920822
0.000549834
0.000221632
-6.57126e-05
-0.000317545
-0.00053893
-0.000734269
-0.000907496
-0.00106207
-0.00120095
-0.00132657
-0.00144084
-0.00154517
-0.00164051
-0.00172732
-0.00180564
-0.0018751
-0.00193501
-0.00198432
-0.00202172
-0.00204571
-0.00205459
-0.00204656
-0.00201979
-0.00197243
-0.00190274
-0.00180911
-0.00169016
-0.00154477
-0.00137219
-0.00117207
-0.000944537
-0.000690243
-0.000410398
-0.000106814
0.000218076
0.000561213
0.000918928
0.00128696
0.00166053
0.00203437
0.00240284
0.00276005
0.00309995
0.00341649
0.00370376
0.00395619
0.00416863
0.00433658
0.00445628
0.00452488
0.00454048
0.00450225
0.00441043
0.00426635
0.00407237
0.00383183
0.00354889
0.00322847
0.00287603
0.00249743
0.00209878
0.00168626
0.00126578
0.000843043
0.000425557
2.02346e-05
-0.00039646
-0.000847008
0.0023643
0.0016738
0.00113368
0.000697596
0.000309596
-3.3309e-05
-0.000333435
-0.000596681
-0.00082862
-0.00103409
-0.00121741
-0.00138235
-0.00153212
-0.00166934
-0.00179609
-0.00191388
-0.00202367
-0.00212594
-0.00222069
-0.00230751
-0.00238556
-0.00245369
-0.00251042
-0.00255404
-0.00258264
-0.0025942
-0.00258661
-0.00255775
-0.00250558
-0.00242819
-0.00232388
-0.00219124
-0.00202918
-0.00183706
-0.00161473
-0.00136257
-0.00108157
-0.000773351
-0.000440219
-8.51552e-05
0.000288177
0.000675451
0.00107172
0.0014715
0.00186881
0.00225734
0.00263053
0.00298173
0.0033044
0.00359223
0.00383932
0.00404039
0.00419092
0.00428729
0.00432692
0.00430834
0.00423129
0.00409667
0.00390658
0.00366421
0.00337375
0.00304025
0.00266947
0.00226767
0.00184147
0.00139764
0.000942738
0.000483126
2.72226e-05
-0.000417182
-0.000876039
-0.00137401
0.00215071
0.00142841
0.000864259
0.00040956
5.42096e-06
-0.00035157
-0.000664124
-0.000938679
-0.0011813
-0.00139726
-0.00159123
-0.00176728
-0.00192887
-0.00207881
-0.00221928
-0.00235188
-0.00247761
-0.00259695
-0.00270984
-0.00281578
-0.00291383
-0.00300268
-0.00308068
-0.00314593
-0.00319628
-0.00322944
-0.00324304
-0.00323467
-0.00320195
-0.00314267
-0.00305476
-0.00293647
-0.00278638
-0.0026035
-0.00238734
-0.002138
-0.00185618
-0.00154329
-0.00120145
-0.000833512
-0.000443111
-3.46084e-05
0.000386922
0.000815755
0.00124559
0.00166968
0.00208092
0.00247204
0.00283575
0.00316495
0.0034529
0.00369343
0.00388112
0.00401147
0.00408108
0.00408775
0.00403057
0.00390994
0.00372759
0.00348652
0.00319089
0.0028459
0.0024576
0.00203272
0.00157844
0.00110219
0.000611259
0.000112764
-0.000383856
-0.000869835
-0.00137369
-0.0019224
0.00186341
0.00111149
0.00052495
5.28246e-05
-0.000366525
-0.000736943
-0.00106153
-0.00134727
-0.00160069
-0.00182747
-0.00203265
-0.00222058
-0.00239494
-0.0025587
-0.00271418
-0.00286303
-0.00300627
-0.00314436
-0.00327719
-0.00340417
-0.00352422
-0.00363589
-0.00373735
-0.00382645
-0.00390084
-0.00395793
-0.00399507
-0.00400951
-0.00399858
-0.00395965
-0.00389033
-0.00378847
-0.00365225
-0.00348031
-0.0032718
-0.00302643
-0.00274462
-0.00242746
-0.00207685
-0.00169548
-0.00128689
-0.000855448
-0.000406315
5.45745e-05
0.000520601
0.000984562
0.0014388
0.00187536
0.00228617
0.00266323
0.00299887
0.00328589
0.00351786
0.00368928
0.00379576
0.00383421
0.00380294
0.00370173
0.00353186
0.00329604
0.00299835
0.00264411
0.00223968
0.00179227
0.0013097
0.000800135
0.000271665
-0.000267728
-0.000807472
-0.00133772
-0.00188975
-0.00249302
0.00149851
0.000719308
0.000112083
-0.000376216
-0.000809803
-0.00119295
-0.00152917
-0.00182593
-0.00209025
-0.0023282
-0.00254515
-0.00274573
-0.00293382
-0.00311257
-0.00328439
-0.00345097
-0.00361337
-0.003772
-0.0039267
-0.00407677
-0.004221
-0.00435778
-0.00448507
-0.00460052
-0.0047015
-0.00478515
-0.00484851
-0.00488849
-0.00490205
-0.00488619
-0.00483809
-0.00475519
-0.00463526
-0.0044765
-0.00427761
-0.00403793
-0.00375745
-0.00343694
-0.00307801
-0.00268311
-0.00225563
-0.00179988
-0.00132107
-0.000825326
-0.000319555
0.000188598
0.000690897
0.00117867
0.00164299
0.00207492
0.00246568
0.00280698
0.0030912
0.00331167
0.00346287
0.00354066
0.0035424
0.0034671
0.00331543
0.00308973
0.00279394
0.00243345
0.00201491
0.00154604
0.00103534
0.000491802
-7.55826e-05
-0.00065788
-0.00124326
-0.00182067
-0.00242437
-0.0030865
0.00105245
0.00024841
-0.000377699
-0.000880865
-0.00132767
-0.00172284
-0.00207024
-0.00237787
-0.00265319
-0.00290266
-0.00313195
-0.00334597
-0.00354879
-0.00374372
-0.00393324
-0.00411911
-0.00430239
-0.00448344
-0.00466205
-0.00483739
-0.00500815
-0.0051725
-0.00532823
-0.00547276
-0.00560317
-0.00571633
-0.00580893
-0.00587754
-0.00591871
-0.00592906
-0.00590531
-0.00584444
-0.00574374
-0.00560092
-0.00541423
-0.0051825
-0.00490529
-0.00458294
-0.00421668
-0.00380868
-0.0033621
-0.00288112
-0.00237096
-0.00183784
-0.00128896
-0.000732378
-0.000176913
0.000368018
0.000892594
0.00138681
0.00184075
0.00224484
0.00259014
0.00286861
0.00307345
0.00319923
0.00324222
0.00320044
0.00307382
0.00286418
0.00257521
0.00221231
0.00178241
0.00129374
0.000755526
0.000177678
-0.000429834
-0.001057
-0.00169061
-0.00231827
-0.00297748
-0.00370326
0.000522022
-0.000304302
-0.000947417
-0.00146409
-0.00192308
-0.00232951
-0.00268766
-0.00300599
-0.00329241
-0.00355374
-0.00379596
-0.00402422
-0.0042428
-0.00445512
-0.00466376
-0.00487053
-0.00507647
-0.00528192
-0.00548657
-0.00568951
-0.00588926
-0.00608385
-0.00627083
-0.00644739
-0.00661035
-0.00675626
-0.00688147
-0.00698218
-0.00705452
-0.00709466
-0.00709886
-0.0070636
-0.00698563
-0.00686214
-0.00669081
-0.00646994
-0.00619856
-0.00587652
-0.00550459
-0.00508454
-0.00461924
-0.00411265
-0.00356991
-0.00299731
-0.00240225
-0.00179319
-0.00117951
-0.000571392
2.04039e-05
0.000584759
0.00111047
0.00158657
0.00200262
0.00234907
0.00261754
0.00280117
0.00289486
0.00289547
0.00280197
0.00261551
0.00233937
0.00197889
0.00154123
0.00103512
0.000470562
-0.000141563
-0.000790188
-0.00146413
-0.0021486
-0.00282979
-0.00354865
-0.00434338
-9.56394e-05
-0.000941564
-0.00159974
-0.00212852
-0.00259861
-0.00301553
-0.00338397
-0.00371285
-0.00401046
-0.004284
-0.00453974
-0.00478306
-0.00501842
-0.00524938
-0.00547859
-0.0057079
-0.00593834
-0.00617022
-0.00640316
-0.00663612
-0.00686749
-0.00709511
-0.00731635
-0.00752812
-0.00772699
-0.00790919
-0.00807071
-0.00820735
-0.00831481
-0.00838879
-0.00842504
-0.00841949
-0.00836833
-0.00826814
-0.00811599
-0.00790956
-0.00764728
-0.0073284
-0.00695314
-0.0065228
-0.00603983
-0.00550789
-0.00493195
-0.00431827
-0.0036744
-0.00300912
-0.00233236
-0.00165505
-0.000988937
-0.000346308
0.000260263
0.000818261
0.00131559
0.00174094
0.0020842
0.00233677
0.00249196
0.00254518
0.00249424
0.00233938
0.00208333
0.00173122
0.00129036
0.000769989
0.000180894
-0.000465004
-0.00115544
-0.00187792
-0.00261594
-0.00335406
-0.00413704
-0.00500649
-0.00080298
-0.00166572
-0.00233693
-0.00287638
-0.00335646
-0.00378311
-0.00416137
-0.00450061
-0.00480952
-0.00509561
-0.00536545
-0.00562465
-0.00587784
-0.00612868
-0.00637992
-0.00663344
-0.00689026
-0.00715066
-0.00741417
-0.00767965
-0.00794536
-0.00820896
-0.00846761
-0.00871799
-0.00895636
-0.00917864
-0.00938046
-0.00955721
-0.00970413
-0.00981643
-0.00988931
-0.0099181
-0.00989839
-0.00982609
-0.00969759
-0.00950988
-0.00926068
-0.00894857
-0.00857312
-0.00813502
-0.00763621
-0.00707994
-0.00647088
-0.00581516
-0.00512039
-0.00439561
-0.00365123
-0.00289892
-0.0021514
-0.00142217
-0.000725286
-7.49213e-05
0.000514984
0.00103117
0.0014615
0.0017954
0.00202425
0.00214178
0.00214431
0.00203093
0.00180361
0.0014671
0.00102875
0.000498236
-0.000112834
-0.000791437
-0.001524
-0.0022966
-0.00309082
-0.00388941
-0.00474128
-0.00569169
-0.00160201
-0.00247869
-0.00316087
-0.00370951
-0.00419846
-0.00463403
-0.00502164
-0.00537104
-0.00569133
-0.00599032
-0.00627484
-0.00655071
-0.00682274
-0.0070947
-0.00736942
-0.00764881
-0.00793389
-0.0082249
-0.00852131
-0.00882188
-0.00912473
-0.00942735
-0.00972669
-0.0100192
-0.0103008
-0.0105672
-0.0108136
-0.011035
-0.011226
-0.0113815
-0.0114961
-0.0115643
-0.0115813
-0.0115421
-0.0114423
-0.0112783
-0.011047
-0.010746
-0.0103743
-0.00993185
-0.00941989
-0.00884114
-0.00819987
-0.00750195
-0.00675491
-0.00596796
-0.00515192
-0.00431913
-0.00348327
-0.00265911
-0.00186221
-0.00110855
-0.000414077
0.000205774
0.000736586
0.00116548
0.00148164
0.0016767
0.00174521
0.0016848
0.00149638
0.00118411
0.000755253
0.000219833
-0.000409747
-0.0011193
-0.00189385
-0.00271788
-0.00357087
-0.00443356
-0.00535934
-0.00639742
-0.00249429
-0.00338196
-0.00407299
-0.00462932
-0.00512599
-0.00556967
-0.00596613
-0.0063255
-0.00665722
-0.0069694
-0.00726914
-0.00756245
-0.00785429
-0.00814857
-0.00844818
-0.00875506
-0.00907025
-0.00939396
-0.00972559
-0.0100638
-0.0104066
-0.0107513
-0.0110947
-0.011433
-0.0117618
-0.0120765
-0.0123719
-0.0126426
-0.0128828
-0.0130867
-0.0132484
-0.0133617
-0.013421
-0.0134207
-0.0133555
-0.0132209
-0.0130128
-0.0127283
-0.0123652
-0.0119226
-0.0114011
-0.0108027
-0.0101311
-0.00939167
-0.00859186
-0.00774086
-0.00684979
-0.00593159
-0.00500084
-0.00407356
-0.0031669
-0.00229871
-0.00148712
-0.000749967
-0.000104212
0.000434647
0.000853191
0.00114064
0.00128933
0.00129507
0.00115742
0.000879655
0.000468722
-6.51112e-05
-0.00070869
-0.00144663
-0.00226244
-0.00313886
-0.00405304
-0.00498351
-0.00598846
-0.00712137
-0.00348087
-0.00437654
-0.00507426
-0.00563678
-0.00614001
-0.00659097
-0.00699575
-0.00736486
-0.00770803
-0.00803367
-0.0083491
-0.00866054
-0.00897311
-0.00929082
-0.00961664
-0.00995256
-0.0102996
-0.0106581
-0.0110272
-0.0114055
-0.0117911
-0.012181
-0.0125718
-0.0129595
-0.0133395
-0.0137068
-0.0140559
-0.0143808
-0.0146754
-0.0149333
-0.0151477
-0.0153122
-0.01542
-0.0154648
-0.0154406
-0.0153417
-0.0151632
-0.0149011
-0.0145522
-0.0141148
-0.0135884
-0.0129741
-0.012275
-0.0114959
-0.0106439
-0.00972789
-0.00875929
-0.00775148
-0.00671988
-0.0056817
-0.00465568
-0.00366165
-0.00272004
-0.00185128
-0.00107518
-0.000410192
0.000127277
0.00052358
0.000768424
0.00085537
0.000782174
0.000550928
0.000167986
-0.000356321
-0.00100817
-0.00177095
-0.00262659
-0.00355592
-0.0045335
-0.00553538
-0.00662498
-0.00786031
-0.0045623
-0.00546295
-0.00616522
-0.00673239
-0.00724101
-0.00769841
-0.00811098
-0.00848954
-0.00884412
-0.0091834
-0.00951492
-0.00984509
-0.0101792
-0.0105213
-0.0108745
-0.0112409
-0.0116215
-0.0120165
-0.0124253
-0.0128462
-0.0132772
-0.0137153
-0.0141568
-0.0145976
-0.0150328
-0.015457
-0.0158644
-0.0162486
-0.016603
-0.0169205
-0.0171938
-0.0174157
-0.0175786
-0.0176754
-0.017699
-0.0176428
-0.0175008
-0.0172679
-0.0169398
-0.0165137
-0.0159879
-0.0153628
-0.0146402
-0.0138243
-0.0129217
-0.0119409
-0.0108934
-0.00979275
-0.00865515
-0.00749894
-0.0063444
-0.00521336
-0.00412866
-0.00311355
-0.00219094
-0.00138258
-0.000708277
-0.000185025
0.000173754
0.000358858
0.000365785
0.000194996
-0.000148078
-0.000653294
-0.00130628
-0.00208925
-0.00298243
-0.00396461
-0.00500748
-0.00608435
-0.00726423
-0.00860996
-0.0057386
-0.00664122
-0.0073459
-0.00791622
-0.00842907
-0.00889204
-0.00931181
-0.00969948
-0.0100654
-0.0104184
-0.0107662
-0.0111156
-0.0114718
-0.0118392
-0.0122209
-0.012619
-0.0130346
-0.0134679
-0.0139181
-0.0143839
-0.0148629
-0.0153519
-0.0158474
-0.0163448
-0.016839
-0.0173244
-0.0177948
-0.0182434
-0.0186629
-0.0190459
-0.0193843
-0.01967
-0.0198949
-0.0200508
-0.0201295
-0.0201235
-0.0200256
-0.0198294
-0.0195295
-0.0191217
-0.0186033
-0.0179732
-0.0172323
-0.0163839
-0.0154336
-0.0143895
-0.0132629
-0.0120674
-0.0108197
-0.00953928
-0.00824777
-0.006969
-0.00572833
-0.00455194
-0.00346609
-0.00249622
-0.00166594
-0.000996094
-0.000503802
-0.000201603
-9.68216e-05
-0.000191141
-0.000480488
-0.000955226
-0.00160064
-0.00239782
-0.00332526
-0.00435951
-0.00546916
-0.00662442
-0.00790033
-0.00936484
-0.00700924
-0.00791088
-0.00861588
-0.00918786
-0.00970377
-0.0101714
-0.0105978
-0.0109941
-0.0113711
-0.0117378
-0.0121021
-0.0124709
-0.0128498
-0.013243
-0.0136539
-0.0140847
-0.0145364
-0.0150094
-0.015503
-0.0160155
-0.0165447
-0.0170874
-0.0176397
-0.018197
-0.018754
-0.0193047
-0.0198425
-0.0203604
-0.0208505
-0.0213047
-0.0217144
-0.0220707
-0.0223646
-0.0225868
-0.0227284
-0.0227804
-0.0227347
-0.0225834
-0.0223197
-0.0219382
-0.0214346
-0.0208066
-0.0200539
-0.0191783
-0.0181846
-0.0170802
-0.0158757
-0.0145847
-0.0132243
-0.0118146
-0.0103787
-0.0089423
-0.00753324
-0.00618078
-0.00491474
-0.00376456
-0.00275811
-0.00192063
-0.00127351
-0.000833303
-0.000610796
-0.000610437
-0.000830046
-0.00126091
-0.00188826
-0.00269217
-0.00364939
-0.00473411
-0.00591148
-0.00714832
-0.00852604
-0.010118
-0.00837316
-0.00927099
-0.00997428
-0.0105465
-0.0110643
-0.0115357
-0.0119679
-0.0123725
-0.0127602
-0.0131403
-0.0135211
-0.0139094
-0.0143109
-0.0147303
-0.0151709
-0.015635
-0.0161238
-0.0166377
-0.0171758
-0.0177368
-0.0183181
-0.0189166
-0.0195284
-0.0201486
-0.0207717
-0.0213915
-0.0220012
-0.022593
-0.0231588
-0.0236899
-0.024177
-0.0246105
-0.0249803
-0.0252764
-0.0254886
-0.0256069
-0.0256217
-0.0255239
-0.0253052
-0.0249586
-0.0244783
-0.0238606
-0.0231034
-0.0222075
-0.0211761
-0.0200158
-0.0187362
-0.0173508
-0.0158765
-0.014334
-0.0127476
-0.0111448
-0.00955577
-0.00801295
-0.00654989
-0.00520029
-0.00399672
-0.00296934
-0.0021445
-0.00154344
-0.00118117
-0.00106564
-0.00119721
-0.00156862
-0.00216542
-0.00296689
-0.00394806
-0.00508062
-0.00632599
-0.00764724
-0.00913257
-0.0108611
-0.00982877
-0.0107201
-0.0114198
-0.0119908
-0.0125094
-0.0129837
-0.013421
-0.0138332
-0.014231
-0.0146242
-0.0150209
-0.0154285
-0.0158526
-0.0162982
-0.0167686
-0.0172662
-0.0177925
-0.0183478
-0.0189315
-0.019542
-0.020177
-0.0208332
-0.0215066
-0.0221923
-0.0228845
-0.0235769
-0.0242621
-0.0249323
-0.0255787
-0.0261921
-0.0267624
-0.0272794
-0.0277321
-0.0281094
-0.0284001
-0.0285929
-0.0286769
-0.0286414
-0.0284768
-0.0281744
-0.0277267
-0.0271281
-0.0263752
-0.0254668
-0.0244049
-0.0231945
-0.0218445
-0.0203673
-0.0187798
-0.0171028
-0.0153615
-0.0135849
-0.0118057
-0.0100591
-0.00838274
-0.00681468
-0.00539263
-0.00415219
-0.00312532
-0.00233878
-0.00181261
-0.00155909
-0.0015819
-0.00187593
-0.00242752
-0.00321547
-0.00421319
-0.00538978
-0.00670263
-0.00811067
-0.00970931
-0.0115836
-0.011374
-0.0122563
-0.0129506
-0.0135191
-0.0140374
-0.0145136
-0.0149552
-0.0153742
-0.0157815
-0.016187
-0.0165991
-0.0170252
-0.0174714
-0.0179426
-0.0184424
-0.0189734
-0.0195372
-0.0201341
-0.0207636
-0.0214244
-0.022114
-0.0228292
-0.0235658
-0.024319
-0.0250828
-0.0258506
-0.0266149
-0.0273673
-0.0280986
-0.0287991
-0.0294582
-0.0300647
-0.0306068
-0.0310725
-0.0314493
-0.0317247
-0.0318865
-0.0319225
-0.0318214
-0.0315727
-0.0311673
-0.0305976
-0.0298584
-0.0289468
-0.0278628
-0.0266099
-0.0251955
-0.0236311
-0.0219329
-0.0201217
-0.018223
-0.0162673
-0.0142892
-0.012327
-0.0104219
-0.00861691
-0.006955
-0.00547779
-0.00422354
-0.00322527
-0.00250906
-0.00209241
-0.00198329
-0.0021795
-0.00266886
-0.0034301
-0.0044352
-0.00565065
-0.0070295
-0.00852616
-0.0102436
-0.012273
-0.0130062
-0.0138773
-0.0145646
-0.0151295
-0.0156464
-0.0161235
-0.0165685
-0.0169932
-0.0174091
-0.0178259
-0.0182523
-0.018696
-0.0191632
-0.019659
-0.0201873
-0.0207509
-0.0213514
-0.0219895
-0.0226647
-0.0233757