/*--------------------------------*- C++ -*----------------------------------*\
  =========                 |
  \\      /  F ield         | OpenFOAM: The Open Source CFD Toolbox
   \\    /   O peration     | Website:  https://openfoam.org
    \\  /    A nd           | Version:  dev
     \\/     M anipulation  |
\*---------------------------------------------------------------------------*/
FoamFile
{
    format      ascii;
    class       surfaceScalarField;
    location    "31.5";
    object      phi;
}
// * * * * * * * * * * * * * * * * * * * * * * * * * * * * * * * * * * * * * //

dimensions      [0 3 -1 0 0 0 0];

internalField   nonuniform List<scalar> 
10224
(
3.37424e-08
-3.49355e-08
8.78299e-08
-5.40858e-08
1.244e-07
-3.65699e-08
1.25368e-07
-9.67666e-10
8.37421e-08
4.16254e-08
-1.7473e-09
8.54888e-08
-1.29272e-07
1.27525e-07
-2.9553e-07
1.66258e-07
-4.96458e-07
2.00929e-07
-7.27757e-07
2.31298e-07
-9.85156e-07
2.57398e-07
-1.26456e-06
2.79406e-07
-1.56214e-06
2.97575e-07
-1.87433e-06
3.12188e-07
-2.19786e-06
3.23531e-07
-2.52973e-06
3.3187e-07
-2.86717e-06
3.37441e-07
-3.20761e-06
3.40445e-07
-3.54866e-06
3.41044e-07
-3.88802e-06
3.3936e-07
-4.2235e-06
3.35478e-07
-4.55295e-06
3.29451e-07
-4.87426e-06
3.21305e-07
-5.1853e-06
3.1104e-07
-5.48394e-06
2.98647e-07
-5.76805e-06
2.84103e-07
-6.03543e-06
2.67386e-07
-6.28392e-06
2.48481e-07
-6.5113e-06
2.27382e-07
-6.7154e-06
2.04103e-07
-6.89408e-06
1.78683e-07
-7.04527e-06
1.51189e-07
-7.16699e-06
1.21723e-07
-7.25742e-06
9.04249e-08
-7.31489e-06
5.7475e-08
-7.33799e-06
2.30959e-08
-7.32554e-06
-1.24465e-08
-7.27669e-06
-4.8844e-08
-7.19095e-06
-8.57473e-08
-7.06818e-06
-1.22769e-07
-6.90869e-06
-1.59488e-07
-6.71323e-06
-1.95456e-07
-6.48303e-06
-2.30203e-07
-6.21979e-06
-2.63244e-07
-5.92569e-06
-2.94093e-07
-5.60342e-06
-3.22268e-07
-5.25612e-06
-3.47303e-07
-4.88736e-06
-3.68759e-07
-4.50113e-06
-3.86234e-07
-4.10175e-06
-3.99373e-07
-3.69387e-06
-4.07883e-07
-3.28234e-06
-4.11532e-07
-2.87217e-06
-4.10166e-07
-2.46846e-06
-4.03707e-07
-2.0763e-06
-3.92166e-07
-1.70066e-06
-3.7564e-07
-1.34634e-06
-3.54315e-07
-1.01788e-06
-3.28463e-07
-7.19432e-07
-2.98446e-07
-4.5472e-07
-2.64713e-07
-2.26918e-07
-2.27802e-07
-3.85711e-08
-1.88346e-07
1.08513e-07
-1.47083e-07
2.13397e-07
-1.04883e-07
2.76195e-07
-6.27969e-08
2.98341e-07
-2.21442e-08
2.83011e-07
1.53286e-08
2.35801e-07
4.72059e-08
1.65771e-07
7.00259e-08
8.72202e-08
7.8556e-08
2.25347e-08
6.47038e-08
2.25533e-08
5.38804e-08
-8.8814e-08
1.12402e-07
-1.12606e-07
1.18216e-07
-4.23842e-08
3.89168e-08
7.83298e-08
-1.419e-07
2.22441e-07
-4.29559e-07
3.73146e-07
-8.22294e-07
5.2026e-07
-1.31396e-06
6.57925e-07
-1.896e-06
7.82964e-07
-2.55859e-06
8.93889e-07
-3.29146e-06
9.90268e-07
-4.08436e-06
1.07231e-06
-4.92737e-06
1.14058e-06
-5.81104e-06
1.19586e-06
-6.7265e-06
1.23899e-06
-7.66541e-06
1.27078e-06
-8.61996e-06
1.29199e-06
-9.58281e-06
1.3033e-06
-1.0547e-05
1.30524e-06
-1.15059e-05
1.29825e-06
-1.24531e-05
1.28264e-06
-1.33822e-05
1.25861e-06
-1.42872e-05
1.22629e-06
-1.51619e-05
1.18572e-06
-1.60001e-05
1.1369e-06
-1.67958e-05
1.0798e-06
-1.75429e-05
1.01441e-06
-1.82351e-05
9.40721e-07
-1.88665e-05
8.58775e-07
-1.94311e-05
7.68689e-07
-1.99231e-05
6.70665e-07
-2.03369e-05
5.65014e-07
-2.06673e-05
4.5217e-07
-2.09096e-05
3.32703e-07
-2.10594e-05
2.07325e-07
-2.11133e-05
7.69016e-08
-2.10681e-05
-5.75522e-08
-2.09221e-05
-1.94871e-07
-2.06741e-05
-3.33748e-07
-2.03241e-05
-4.72745e-07
-1.98733e-05
-6.1031e-07
-1.9324e-05
-7.44796e-07
-1.86797e-05
-8.74488e-07
-1.79453e-05
-9.97629e-07
-1.71269e-05
-1.11246e-06
-1.6232e-05
-1.21723e-06
-1.5269e-05
-1.31028e-06
-1.42478e-05
-1.39002e-06
-1.3179e-05
-1.45502e-06
-1.20743e-05
-1.50403e-06
-1.09462e-05
-1.53599e-06
-9.80764e-06
-1.55009e-06
-8.67202e-06
-1.54579e-06
-7.55288e-06
-1.52284e-06
-6.46375e-06
-1.4813e-06
-5.41785e-06
-1.42154e-06
-4.42789e-06
-1.34428e-06
-3.50581e-06
-1.25054e-06
-2.66257e-06
-1.14169e-06
-1.90785e-06
-1.01943e-06
-1.24983e-06
-8.85818e-07
-6.94913e-07
-7.43261e-07
-2.47401e-07
-5.94593e-07
9.08594e-08
-4.43143e-07
3.20946e-07
-2.92884e-07
4.47461e-07
-1.48657e-07
4.79402e-07
-1.66066e-08
4.31249e-07
9.53645e-08
3.24441e-07
1.76827e-07
1.88991e-07
2.1398e-07
6.43656e-08
1.89297e-07
8.69327e-08
3.73365e-08
-1.26151e-07
4.33126e-08
-1.18582e-07
-4.32822e-08
4.42103e-08
-2.58734e-07
2.9378e-07
-6.2266e-07
5.86367e-07
-1.14218e-06
8.92665e-07
-1.81556e-06
1.19364e-06
-2.63514e-06
1.47751e-06
-3.58955e-06
1.73738e-06
-4.66528e-06
1.96962e-06
-5.84775e-06
2.17274e-06
-7.12208e-06
2.34663e-06
-8.47355e-06
2.49205e-06
-9.88792e-06
2.61024e-06
-1.13516e-05
2.70264e-06
-1.28516e-05
2.77076e-06
-1.43756e-05
2.81604e-06
-1.5912e-05
2.83973e-06
-1.74497e-05
2.84292e-06
-1.89779e-05
2.82646e-06
-2.04863e-05
2.79099e-06
-2.19646e-05
2.73698e-06
-2.3403e-05
2.66469e-06
-2.47916e-05
2.57427e-06
-2.61205e-05
2.4658e-06
-2.738e-05
2.33929e-06
-2.85603e-05
2.19477e-06
-2.9652e-05
2.03233e-06
-3.06453e-05
1.85216e-06
-3.15313e-05
1.6546e-06
-3.23008e-05
1.44017e-06
-3.29454e-05
1.20961e-06
-3.34571e-05
9.63951e-07
-3.38289e-05
7.04464e-07
-3.40543e-05
4.32739e-07
-3.41281e-05
1.5067e-07
-3.40461e-05
-1.3954e-07
-3.38056e-05
-4.35383e-07
-3.34053e-05
-7.34066e-07
-3.28455e-05
-1.03253e-06
-3.21283e-05
-1.32749e-06
-3.12576e-05
-1.61548e-06
-3.02392e-05
-1.8929e-06
-2.90807e-05
-2.15607e-06
-2.77919e-05
-2.4013e-06
-2.63841e-05
-2.62498e-06
-2.48708e-05
-2.82362e-06
-2.32668e-05
-2.99397e-06
-2.15888e-05
-3.13303e-06
-1.98546e-05
-3.23823e-06
-1.80833e-05
-3.30737e-06
-1.62945e-05
-3.33882e-06
-1.45089e-05
-3.33146e-06
-1.27469e-05
-3.2848e-06
-1.10292e-05
-3.199e-06
-9.37584e-06
-3.07488e-06
-7.80615e-06
-2.91396e-06
-6.33822e-06
-2.71846e-06
-4.9886e-06
-2.49131e-06
-3.77187e-06
-2.23616e-06
-2.70028e-06
-1.9574e-06
-1.7833e-06
-1.66024e-06
-1.02716e-06
-1.35073e-06
-4.34324e-07
-1.03598e-06
-2.88753e-09
-7.24322e-07
2.74229e-07
-4.25776e-07
4.10096e-07
-1.52472e-07
4.24961e-07
8.05119e-08
3.47457e-07
2.5435e-07
2.15782e-07
3.45664e-07
7.86441e-08
3.26414e-07
1.65579e-07
1.90729e-09
-1.28058e-07
-7.8949e-08
-3.77263e-08
-2.97645e-07
2.62905e-07
-6.87909e-07
6.84044e-07
-1.26806e-06
1.16652e-06
-2.04438e-06
1.66899e-06
-3.01408e-06
2.16333e-06
-4.1679e-06
2.63132e-06
-5.49223e-06
3.06172e-06
-6.97077e-06
3.44815e-06
-8.58565e-06
3.78762e-06
-1.03184e-05
4.07939e-06
-1.21505e-05
4.32417e-06
-1.40638e-05
4.52354e-06
-1.60407e-05
4.67955e-06
-1.80644e-05
4.79439e-06
-2.01185e-05
4.87018e-06
-2.21877e-05
4.90887e-06
-2.42569e-05
4.91215e-06
-2.63118e-05
4.88136e-06
-2.83383e-05
4.81755e-06
-3.03229e-05
4.72148e-06
-3.22518e-05
4.59366e-06
-3.4112e-05
4.4344e-06
-3.589e-05
4.24388e-06
-3.7573e-05
4.02225e-06
-3.91479e-05
3.76968e-06
-4.0602e-05
3.48642e-06
-4.19228e-05
3.17294e-06
-4.30981e-05
2.82993e-06
-4.41164e-05
2.45842e-06
-4.49665e-05
2.0598e-06
-4.56385e-05
1.63589e-06
-4.6123e-05
1.18898e-06
-4.64121e-05
7.21834e-07
-4.64991e-05
2.37743e-07
-4.63792e-05
-2.59514e-07
-4.60489e-05
-7.65661e-07
-4.5507e-05
-1.27596e-06
-4.47543e-05
-1.78524e-06
-4.37938e-05
-2.28799e-06
-4.26309e-05
-2.77839e-06
-4.12734e-05
-3.25041e-06
-3.97315e-05
-3.69793e-06
-3.8018e-05
-4.11482e-06
-3.61479e-05
-4.49506e-06
-3.41386e-05
-4.83288e-06
-3.20097e-05
-5.12288e-06
-2.97826e-05
-5.36013e-06
-2.74805e-05
-5.54033e-06
-2.5128e-05
-5.65993e-06
-2.27506e-05
-5.71617e-06
-2.03748e-05
-5.70727e-06
-1.80272e-05
-5.63244e-06
-1.57342e-05
-5.49195e-06
-1.35219e-05
-5.28724e-06
-1.1415e-05
-5.02088e-06
-9.43679e-06
-4.69662e-06
-7.60867e-06
-4.31943e-06
-5.94933e-06
-3.8955e-06
-4.47446e-06
-3.43227e-06
-3.19619e-06
-2.93852e-06
-2.12246e-06
-2.42446e-06
-1.25648e-06
-1.90195e-06
-5.96e-07
-1.3848e-06
-1.32576e-07
-8.89202e-07
1.49294e-07
-4.34347e-07
2.73077e-07
-4.32763e-08
2.71248e-07
2.56187e-07
1.8631e-07
4.30619e-07
7.22181e-08
4.40502e-07
2.37794e-07
-4.20509e-08
-8.60075e-08
-2.30027e-07
1.50249e-07
-6.06545e-07
6.39423e-07
-1.1982e-06
1.27569e-06
-2.01872e-06
1.98705e-06
-3.0713e-06
2.72157e-06
-4.35076e-06
3.44278e-06
-5.84564e-06
4.12621e-06
-7.54011e-06
4.75618e-06
-9.41534e-06
5.32338e-06
-1.14508e-05
5.82307e-06
-1.3625e-05
6.25363e-06
-1.59164e-05
6.61557e-06
-1.83036e-05
6.91069e-06
-2.07655e-05
7.14153e-06
-2.32821e-05
7.31092e-06
-2.58336e-05
7.42169e-06
-2.84012e-05
7.47647e-06
-3.09666e-05
7.47754e-06
-3.3512e-05
7.42682e-06
-3.60203e-05
7.32578e-06
-3.84743e-05
7.17553e-06
-4.08575e-05
6.97686e-06
-4.31534e-05
6.73029e-06
-4.53457e-05
6.43621e-06
-4.74184e-05
6.09496e-06
-4.93557e-05
5.7069e-06
-5.11419e-05
5.27262e-06
-5.27619e-05
4.79295e-06
-5.4201e-05
4.2691e-06
-5.54454e-05
3.70276e-06
-5.64818e-05
3.09619e-06
-5.72981e-05
2.45223e-06
-5.78836e-05
1.77445e-06
-5.82288e-05
1.06708e-06
-5.83262e-05
3.35115e-07
-5.817e-05
-4.15735e-07
-5.77566e-05
-1.17905e-06
-5.70848e-05
-1.94776e-06
-5.61558e-05
-2.71418e-06
-5.49737e-05
-3.47011e-06
-5.35452e-05
-4.20695e-06
-5.18797e-05
-4.91583e-06
-4.999e-05
-5.5877e-06
-4.78912e-05
-6.21356e-06
-4.56017e-05
-6.78458e-06
-4.31423e-05
-7.2923e-06
-4.05364e-05
-7.72878e-06
-3.78097e-05
-8.08684e-06
-3.49899e-05
-8.36017e-06
-3.21062e-05
-8.54356e-06
-2.91894e-05
-8.633e-06
-2.62708e-05
-8.62589e-06
-2.33821e-05
-8.52108e-06
-2.05551e-05
-8.31901e-06
-1.78205e-05
-8.02182e-06
-1.52081e-05
-7.63331e-06
-1.27456e-05
-7.15908e-06
-1.04585e-05
-6.6065e-06
-8.36927e-06
-5.98477e-06
-6.49661e-06
-5.30494e-06
-4.85513e-06
-4.58e-06
-3.45457e-06
-3.82502e-06
-2.29915e-06
-3.05737e-06
-1.38691e-06
-2.29704e-06
-7.09001e-07
-1.5671e-06
-2.48952e-07
-8.94396e-07
1.80931e-08
-3.10328e-07
1.26197e-07
1.48079e-07
1.19514e-07
4.37311e-07
5.36654e-08
5.06354e-07
2.91458e-07
-8.94351e-08
3.42726e-09
-3.9534e-07
4.56153e-07
-9.45096e-07
1.18918e-06
-1.75529e-06
2.08589e-06
-2.83273e-06
3.06449e-06
-4.17565e-06
4.06448e-06
-5.7752e-06
5.04234e-06
-7.617e-06
5.96802e-06
-9.68259e-06
6.82176e-06
-1.19507e-05
7.59145e-06
-1.43981e-05
8.27056e-06
-1.70011e-05
8.85656e-06
-1.97351e-05
9.34962e-06
-2.25761e-05
9.7517e-06
-2.55003e-05
1.00657e-05
-2.84846e-05
1.02952e-05
-3.15063e-05
1.04435e-05
-3.45438e-05
1.05139e-05
-3.75757e-05
1.05094e-05
-4.05813e-05
1.04324e-05
-4.35404e-05
1.02849e-05
-4.64332e-05
1.00683e-05
-4.92402e-05
9.78379e-06
-5.19419e-05
9.43207e-06
-5.45196e-05
9.01383e-06
-5.69542e-05
8.52965e-06
-5.92276e-05
7.98024e-06
-6.13215e-05
7.36656e-06
-6.32185e-05
6.68995e-06
-6.49017e-05
5.95231e-06
-6.63551e-05
5.15614e-06
-6.75637e-05
4.30475e-06
-6.85137e-05
3.40224e-06
-6.91929e-05
2.45366e-06
-6.95908e-05
1.46499e-06
-6.96989e-05
4.43215e-07
-6.95109e-05
-6.03737e-07
-6.9023e-05
-1.66698e-06
-6.8234e-05
-2.73677e-06
-6.71456e-05
-3.80254e-06
-6.57626e-05
-4.85307e-06
-6.4093e-05
-5.87661e-06
-6.21478e-05
-6.86103e-06
-5.99414e-05
-7.79403e-06
-5.74916e-05
-8.66336e-06
-5.48192e-05
-9.457e-06
-5.19481e-05
-1.01635e-05
-4.89049e-05
-1.0772e-05
-4.57189e-05
-1.12728e-05
-4.24218e-05
-1.16573e-05
-3.90469e-05
-1.19184e-05
-3.56292e-05
-1.20508e-05
-3.22043e-05
-1.20507e-05
-2.88087e-05
-1.19168e-05
-2.54782e-05
-1.16495e-05
-2.22483e-05
-1.12517e-05
-1.91529e-05
-1.07287e-05
-1.62239e-05
-1.00881e-05
-1.34904e-05
-9.34001e-06
-1.09782e-05
-8.49693e-06
-8.70918e-06
-7.57397e-06
-6.70034e-06
-6.58883e-06
-4.96339e-06
-5.56197e-06
-3.50397e-06
-4.51679e-06
-2.32106e-06
-3.47995e-06
-1.40628e-06
-2.48188e-06
-7.43322e-07
-1.55735e-06
-3.07345e-07
-7.46305e-07
-6.43711e-08
-9.48981e-08
2.9363e-08
3.43578e-07
2.83162e-08
5.07402e-07
3.19774e-07
-1.37641e-07
1.41069e-07
-5.6631e-07
8.84822e-07
-1.29747e-06
1.92034e-06
-2.33622e-06
3.12464e-06
-3.68086e-06
4.40913e-06
-5.32333e-06
5.70695e-06
-7.25002e-06
6.96902e-06
-9.44281e-06
8.16081e-06
-1.18802e-05
9.2591e-06
-1.45381e-05
1.02494e-05
-1.7391e-05
1.11235e-05
-2.04125e-05
1.18781e-05
-2.35759e-05
1.2513e-05
-2.68546e-05
1.30304e-05
-3.02224e-05
1.34335e-05
-3.36535e-05
1.37263e-05
-3.71231e-05
1.3913e-05
-4.06066e-05
1.39974e-05
-4.40802e-05
1.3983e-05
-4.75206e-05
1.38729e-05
-5.0905e-05
1.36693e-05
-5.4211e-05
1.33743e-05
-5.74164e-05
1.29892e-05
-6.04996e-05
1.25152e-05
-6.34389e-05
1.19532e-05
-6.62133e-05
1.1304e-05
-6.8802e-05
1.05689e-05
-7.11847e-05
9.74928e-06
-7.33418e-05
8.8471e-06
-7.52546e-05
7.86504e-06
-7.6905e-05
6.80662e-06
-7.82766e-05
5.67634e-06
-7.93542e-05
4.47976e-06
-8.01241e-05
3.22362e-06
-8.0575e-05
1.91587e-06
-8.06975e-05
5.65713e-07
-8.04848e-05
-8.16426e-07
-7.99328e-05
-2.21893e-06
-7.90405e-05
-3.62909e-06
-7.78099e-05
-5.03318e-06
-7.62463e-05
-6.41664e-06
-7.43587e-05
-7.76425e-06
-7.21594e-05
-9.06032e-06
-6.96644e-05
-1.0289e-05
-6.68934e-05
-1.14344e-05
-6.38694e-05
-1.2481e-05
-6.06188e-05
-1.34141e-05
-5.71711e-05
-1.42197e-05
-5.35587e-05
-1.48851e-05
-4.98166e-05
-1.53994e-05
-4.59817e-05
-1.57533e-05
-4.20926e-05
-1.59399e-05
-3.8189e-05
-1.59543e-05
-3.43112e-05
-1.57945e-05
-3.04993e-05
-1.54614e-05
-2.67926e-05
-1.49584e-05
-2.32289e-05
-1.42924e-05
-1.9844e-05
-1.34731e-05
-1.66705e-05
-1.25135e-05
-1.37377e-05
-1.14298e-05
-1.10702e-05
-1.02414e-05
-8.68784e-06
-8.9712e-06
-6.60451e-06
-7.64531e-06
-4.82774e-06
-6.29356e-06
-3.35803e-06
-4.94966e-06
-2.18828e-06
-3.65164e-06
-1.30328e-06
-2.44235e-06
-6.79286e-07
-1.37029e-06
-2.83674e-07
-4.9051e-07
-7.45768e-08
1.34479e-07
-5.79849e-10
4.33405e-07
3.19195e-07
-1.85422e-07
3.26491e-07
-7.38048e-07
1.43745e-06
-1.65389e-06
2.83618e-06
-2.92596e-06
4.39671e-06
-4.54319e-06
6.02635e-06
-6.49025e-06
7.65401e-06
-8.74791e-06
9.22669e-06
-1.12937e-05
1.07066e-05
-1.41024e-05
1.20678e-05
-1.71471e-05
1.32941e-05
-2.03997e-05
1.4376e-05
-2.38313e-05
1.53097e-05
-2.7413e-05
1.60947e-05
-3.1116e-05
1.67334e-05
-3.49118e-05
1.72293e-05
-3.87727e-05
1.75872e-05
-4.26713e-05
1.78116e-05
-4.65809e-05
1.79071e-05
-5.04756e-05
1.78777e-05
-5.43298e-05
1.7727e-05
-5.81183e-05
1.74578e-05
-6.18164e-05
1.70724e-05
-6.53998e-05
1.65727e-05
-6.88445e-05
1.59599e-05
-7.21268e-05
1.52355e-05
-7.52235e-05
1.44007e-05
-7.81116e-05
1.34571e-05
-8.07691e-05
1.24068e-05
-8.31744e-05
1.12524e-05
-8.5307e-05
9.99758e-06
-8.71473e-05
8.64692e-06
-8.86772e-05
7.20629e-06
-8.98803e-05
5.68285e-06
-9.07419e-05
4.08522e-06
-9.12496e-05
2.42351e-06
-9.13932e-05
7.09334e-07
-9.11654e-05
-1.04418e-06
-9.05619e-05
-2.82245e-06
-8.95814e-05
-4.60956e-06
-8.82262e-05
-6.38838e-06
-8.65021e-05
-8.14076e-06
-8.44186e-05
-9.84773e-06
-8.19892e-05
-1.14898e-05
-7.9231e-05
-1.30472e-05
-7.61652e-05
-1.45002e-05
-7.28167e-05
-1.58295e-05
-6.9214e-05
-1.70168e-05
-6.5389e-05
-1.80447e-05
-6.13768e-05
-1.88974e-05
-5.72151e-05
-1.95611e-05
-5.29441e-05
-2.00243e-05
-4.86059e-05
-2.02781e-05
-4.42435e-05
-2.03166e-05
-3.99009e-05
-2.01371e-05
-3.5622e-05
-1.97403e-05
-3.14498e-05
-1.91306e-05
-2.74259e-05
-1.83162e-05
-2.35898e-05
-1.73092e-05
-1.99777e-05
-1.61256e-05
-1.66222e-05
-1.47853e-05
-1.35512e-05
-1.33125e-05
-1.07872e-05
-1.17352e-05
-8.34682e-06
-1.00857e-05
-6.23997e-06
-8.40041e-06
-4.46924e-06
-6.7204e-06
-3.02947e-06
-5.09141e-06
-1.90734e-06
-3.56449e-06
-1.08107e-06
-2.19656e-06
-5.20296e-07
-1.05128e-06
-1.86074e-07
-1.99744e-07
-3.10651e-08
2.78396e-07
2.88131e-07
-2.32135e-07
5.58626e-07
-9.07793e-07
2.11311e-06
-2.00836e-06
3.93676e-06
-3.51479e-06
5.90313e-06
-5.40619e-06
7.91776e-06
-7.65943e-06
9.90724e-06
-1.02491e-05
1.18163e-05
-1.31476e-05
1.36051e-05
-1.6326e-05
1.52462e-05
-1.97539e-05
1.6722e-05
-2.34005e-05
1.80227e-05
-2.72346e-05
1.91437e-05
-3.12249e-05
2.0085e-05
-3.53406e-05
2.08491e-05
-3.95513e-05
2.14401e-05
-4.38272e-05
2.18631e-05
-4.81391e-05
2.21235e-05
-5.24584e-05
2.22264e-05
-5.67571e-05
2.21764e-05
-6.10075e-05
2.19775e-05
-6.51827e-05
2.1633e-05
-6.92559e-05
2.11456e-05
-7.32008e-05
2.05176e-05
-7.69914e-05
1.97506e-05
-8.06023e-05
1.88463e-05
-8.40081e-05
1.78065e-05
-8.71844e-05
1.66333e-05
-9.0107e-05
1.53294e-05
-9.27529e-05
1.38983e-05
-9.50998e-05
1.23445e-05
-9.71269e-05
1.0674e-05
-9.88145e-05
8.89398e-06
-0.000100145
7.01343e-06
-0.000101103
5.04297e-06
-0.000101674
2.99498e-06
-0.000101849
8.83693e-07
-0.000101618
-1.27491e-06
-0.000100977
-3.46311e-06
-9.99253e-05
-5.66159e-06
-9.84641e-05
-7.84961e-06
-9.65996e-05
-1.00052e-05
-9.4342e-05
-1.21054e-05
-9.17051e-05
-1.41266e-05
-8.87072e-05
-1.60451e-05
-8.53705e-05
-1.78368e-05
-8.17214e-05
-1.94787e-05
-7.779e-05
-2.09481e-05
-7.36104e-05
-2.22243e-05
-6.92198e-05
-2.32879e-05
-6.46586e-05
-2.41223e-05
-5.99698e-05
-2.47131e-05
-5.51983e-05
-2.50496e-05
-5.03908e-05
-2.51242e-05
-4.55944e-05
-2.49335e-05
-4.08566e-05
-2.44781e-05
-3.62243e-05
-2.37629e-05
-3.17428e-05
-2.27978e-05
-2.74551e-05
-2.15969e-05
-2.34013e-05
-2.01794e-05
-1.96174e-05
-1.85692e-05
-1.61347e-05
-1.67951e-05
-1.29791e-05
-1.48908e-05
-1.01702e-05
-1.28946e-05
-7.72063e-06
-1.085e-05
-5.63573e-06
-8.8053e-06
-3.91287e-06
-6.81427e-06
-2.54127e-06
-4.9361e-06
-1.50177e-06
-3.23606e-06
-7.66938e-07
-1.78611e-06
-3.01313e-07
-6.65369e-07
-6.20375e-08
3.91206e-08
2.26094e-07
-2.77502e-07
8.36129e-07
-1.07401e-06
2.90961e-06
-2.35725e-06
5.21999e-06
-4.09639e-06
7.64228e-06
-6.2607e-06
1.00821e-05
-8.81892e-06
1.24655e-05
-1.1739e-05
1.47364e-05
-1.49881e-05
1.68542e-05
-1.85329e-05
1.8791e-05
-2.23396e-05
2.05287e-05
-2.63744e-05
2.20574e-05
-3.06034e-05
2.33728e-05
-3.49934e-05
2.4475e-05
-3.95116e-05
2.53672e-05
-4.41257e-05
2.60541e-05
-4.8804e-05
2.65415e-05
-5.35158e-05
2.68353e-05
-5.82307e-05
2.69413e-05
-6.2919e-05
2.68646e-05
-6.75513e-05
2.66098e-05
-7.2099e-05
2.61807e-05
-7.65336e-05
2.55802e-05
-8.0827e-05
2.4811e-05
-8.49517e-05
2.38753e-05
-8.88804e-05
2.2775e-05
-9.25862e-05
2.15124e-05
-9.60429e-05
2.00901e-05
-9.9225e-05
1.85115e-05
-0.000102108
1.6781e-05
-0.000104668
1.49043e-05
-0.000106882
1.28885e-05
-0.000108731
1.07425e-05
-0.000110194
8.47694e-06
-0.000111256
6.10465e-06
-0.000111901
3.64041e-06
-0.000112119
1.10114e-06
-0.000111899
-1.49418e-06
-0.000111238
-4.12454e-06
-0.000110133
-6.76708e-06
-0.000108585
-9.39727e-06
-0.000106601
-1.19891e-05
-0.000104191
-1.45156e-05
-0.000101369
-1.69488e-05
-9.81532e-05
-1.92604e-05
-9.45677e-05
-2.14223e-05
-9.06394e-05
-2.34069e-05
-8.64e-05
-2.51876e-05
-8.1885e-05
-2.67393e-05
-7.71336e-05
-2.80393e-05
-7.21885e-05
-2.90673e-05
-6.70953e-05
-2.98064e-05
-6.19017e-05
-3.02432e-05
-5.66573e-05
-3.03686e-05
-5.14129e-05
-3.01779e-05
-4.62194e-05
-2.96716e-05
-4.11273e-05
-2.88551e-05
-3.61857e-05
-2.77393e-05
-3.14417e-05
-2.63409e-05
-2.69391e-05
-2.4682e-05
-2.27177e-05
-2.27905e-05
-1.88128e-05
-2.07001e-05
-1.52536e-05
-1.84499e-05
-1.20634e-05
-1.60848e-05
-9.25811e-06
-1.36553e-05
-6.84625e-06
-1.12172e-05
-4.82829e-06
-8.83223e-06
-3.19651e-06
-6.56788e-06
-1.9349e-06
-4.49767e-06
-1.01936e-06
-2.70165e-06
-4.18181e-07
-1.26655e-06
-9.29437e-08
-2.86117e-07
1.3315e-07
-3.2141e-07
1.15754e-06
-1.23585e-06
3.82405e-06
-2.6983e-06
6.68244e-06
-4.66665e-06
9.61062e-06
-7.10043e-06
1.25159e-05
-9.96019e-06
1.53252e-05
-1.32071e-05
1.79833e-05
-1.68028e-05
2.045e-05
-2.07093e-05
2.26975e-05
-2.48892e-05
2.47086e-05
-2.93056e-05
2.64737e-05
-3.39221e-05
2.79893e-05
-3.87032e-05
2.92562e-05
-4.36143e-05
3.02783e-05
-4.86213e-05
3.10611e-05
-5.3691e-05
3.16112e-05
-5.8791e-05
3.19353e-05
-6.38895e-05
3.20398e-05
-6.89553e-05
3.19304e-05
-7.39576e-05
3.16122e-05
-7.88663e-05
3.10893e-05
-8.36515e-05
3.03654e-05
-8.82836e-05
2.94432e-05
-9.27335e-05
2.83252e-05
-9.69726e-05
2.7014e-05
-0.000100972
2.55122e-05
-0.000104705
2.38231e-05
-0.000108145
2.19508e-05
-0.000111264
1.99004e-05
-0.000114039
1.76789e-05
-0.000116445
1.52947e-05
-0.000118461
1.27582e-05
-0.000120066
1.0082e-05
-0.000121242
7.2811e-06
-0.000121974
4.37274e-06
-0.00012225
1.37661e-06
-0.000122059
-1.68521e-06
-0.000121395
-4.78835e-06
-0.000120256
-7.90629e-06
-0.000118643
-1.10106e-05
-0.000116561
-1.40711e-05
-0.00011402
-1.70564e-05
-0.000111034
-1.99342e-05
-0.000107623
-2.26715e-05
-0.00010381
-2.52357e-05
-9.96225e-05
-2.75944e-05
-9.50935e-05
-2.97166e-05
-9.02598e-05
-3.1573e-05
-8.51624e-05
-3.31367e-05
-7.98458e-05
-3.43839e-05
-7.43579e-05
-3.52943e-05
-6.87493e-05
-3.58518e-05
-6.30725e-05
-3.60453e-05
-5.73816e-05
-3.58689e-05
-5.17311e-05
-3.53221e-05
-4.61753e-05
-3.44109e-05
-4.07673e-05
-3.31473e-05
-3.55583e-05
-3.15499e-05
-3.05963e-05
-2.9644e-05
-2.59254e-05
-2.74614e-05
-2.15849e-05
-2.50406e-05
-1.76082e-05
-2.24266e-05
-1.40225e-05
-1.96706e-05
-1.08476e-05
-1.68302e-05
-8.09571e-06
-1.39691e-05
-5.77089e-06
-1.1157e-05
-3.86893e-06
-8.46984e-06
-2.37733e-06
-5.98928e-06
-1.27557e-06
-3.80341e-06
-5.3575e-07
-2.00637e-06
-1.23581e-07
-6.98285e-07
9.56984e-09
-3.63817e-07
1.52135e-06
-1.39283e-06
4.85306e-06
-3.03011e-06
8.31972e-06
-5.22279e-06
1.18033e-05
-7.92096e-06
1.5214e-05
-1.10771e-05
1.84813e-05
-1.46454e-05
2.15517e-05
-1.8582e-05
2.43865e-05
-2.28442e-05
2.69597e-05
-2.73906e-05
2.92551e-05
-3.21813e-05
3.12644e-05
-3.71773e-05
3.29853e-05
-4.2341e-05
3.44199e-05
-4.76357e-05
3.5573e-05
-5.30258e-05
3.64512e-05
-5.84767e-05
3.70621e-05
-6.39545e-05
3.74131e-05
-6.94262e-05
3.75114e-05
-7.48592e-05
3.73634e-05
-8.02217e-05
3.69746e-05
-8.54821e-05
3.63497e-05
-9.06093e-05
3.54926e-05
-9.55726e-05
3.44065e-05
-0.000100342
3.30942e-05
-0.000104886
3.15587e-05
-0.000109177
2.98031e-05
-0.000113185
2.78313e-05
-0.000116883
2.56479e-05
-0.000120241
2.32593e-05
-0.000123236
2.06732e-05
-0.000125841
1.78995e-05
-0.000128033
1.49503e-05
-0.000129791
1.18401e-05
-0.000131096
8.58588e-06
-0.00013193
5.20752e-06
-0.000132281
1.72748e-06
-0.000132137
-1.82903e-06
-0.000131492
-5.43421e-06
-0.00013034
-9.05779e-06
-0.000128683
-1.26673e-05
-0.000126526
-1.62284e-05
-0.000123877
-1.97051e-05
-0.000120751
-2.30604e-05
-0.000117166
-2.62567e-05
-0.000113145
-2.92562e-05
-0.000108718
-3.20219e-05
-0.000103916
-3.45179e-05
-9.87793e-05
-3.67102e-05
-9.33484e-05
-3.85676e-05
-8.76703e-05
-4.0062e-05
-8.1795e-05
-4.11696e-05
-7.57755e-05
-4.18713e-05
-6.96675e-05
-4.21533e-05
-6.35283e-05
-4.20081e-05
-5.74161e-05
-4.14343e-05
-5.13892e-05
-4.04377e-05
-4.55051e-05
-3.90314e-05
-3.98192e-05
-3.72358e-05
-3.43842e-05
-3.5079e-05
-2.92488e-05
-3.25968e-05
-2.44569e-05
-2.98326e-05
-2.00466e-05
-2.68369e-05
-1.60495e-05
-2.36677e-05
-1.24898e-05
-2.03898e-05
-9.38395e-06
-1.70749e-05
-6.74004e-06
-1.3801e-05
-4.55776e-06
-1.06521e-05
-2.82841e-06
-7.71863e-06
-1.5352e-06
-5.09663e-06
-6.53911e-07
-2.88765e-06
-1.53975e-07
-1.19822e-06
-1.44405e-07
-4.04709e-07
1.92606e-06
-1.54465e-06
5.993e-06
-3.35174e-06
1.01268e-05
-5.76289e-06
1.42145e-05
-8.71908e-06
1.81702e-05
-1.21648e-05
2.19271e-05
-1.60477e-05
2.54346e-05
-2.0318e-05
2.86568e-05
-2.49284e-05
3.15701e-05
-2.98336e-05
3.41603e-05
-3.49905e-05
3.64213e-05
-4.03575e-05
3.83523e-05
-4.58948e-05
3.99571e-05
-5.15639e-05
4.12421e-05
-5.73277e-05
4.2215e-05
-6.31502e-05
4.28846e-05
-6.89963e-05
4.32592e-05
-7.48318e-05
4.33469e-05
-8.06231e-05
4.31547e-05
-8.63373e-05
4.26888e-05
-9.19418e-05
4.19542e-05
-9.74045e-05
4.09553e-05
-0.000102694
3.96956e-05
-0.000107778
3.81783e-05
-0.000112626
3.64067e-05
-0.000117207
3.43844e-05
-0.000121491
3.21157e-05
-0.000125449
2.96062e-05
-0.000129053
2.68629e-05
-0.000132275
2.38947e-05
-0.000135088
2.07128e-05
-0.000137468
1.73309e-05
-0.000139393
1.37652e-05
-0.000140843
1.0035e-05
-0.000141798
6.16266e-06
-0.000142244
2.17336e-06
-0.000142168
-1.90454e-06
-0.000141563
-6.03978e-06
-0.000140422
-1.01983e-05
-0.000138746
-1.43437e-05
-0.000136537
-1.8437e-05
-0.000133804
-2.24379e-05
-0.00013056
-2.63043e-05
-0.000126823
-2.99937e-05
-0.000122616
-3.34632e-05
-0.000117968
-3.66706e-05
-0.000112911
-3.95747e-05
-0.000107484
-4.21367e-05
-0.000101732
-4.43203e-05
-9.57006e-05
-4.60931e-05
-8.94432e-05
-4.7427e-05
-8.30151e-05
-4.82994e-05
-7.64747e-05
-4.86937e-05
-6.98829e-05
-4.85999e-05
-6.33017e-05
-4.80155e-05
-5.67936e-05
-4.69458e-05
-5.04207e-05
-4.54043e-05
-4.42431e-05
-4.34133e-05
-3.83186e-05
-4.10035e-05
-3.27011e-05
-3.82144e-05
-2.74396e-05
-3.50941e-05
-2.25773e-05
-3.16991e-05
-1.8151e-05
-2.8094e-05
-1.41897e-05
-2.43511e-05
-1.07146e-05
-2.055e-05
-7.73834e-06
-1.67772e-05
-5.26483e-06
-1.31256e-05
-3.2894e-06
-9.69405e-06
-1.79906e-06
-6.58697e-06
-7.73135e-07
-3.91358e-06
-1.84302e-07
-1.78706e-06
-3.28707e-07
-4.44075e-07
2.37014e-06
-1.69109e-06
7.24001e-06
-3.66248e-06
1.20982e-05
-6.28544e-06
1.68374e-05
-9.49225e-06
2.1377e-05
-1.32198e-05
2.56546e-05
-1.7409e-05
2.96238e-05
-2.20045e-05
3.32524e-05
-2.69544e-05
3.652e-05
-3.22096e-05
3.94155e-05
-3.77236e-05
4.19353e-05
-4.34524e-05
4.40811e-05
-4.93539e-05
4.58587e-05
-5.5388e-05
4.72762e-05
-6.15161e-05
4.83431e-05
-6.77008e-05
4.90693e-05
-7.39061e-05
4.94645e-05
-8.00968e-05
4.95375e-05
-8.62383e-05
4.92963e-05
-9.22969e-05
4.87474e-05
-9.82391e-05
4.78965e-05
-0.000104032
4.67482e-05
-0.000109643
4.53065e-05
-0.00011504
4.3575e-05
-0.00012019
4.15572e-05
-0.000125063
3.9257e-05
-0.000129627
3.66795e-05
-0.000133851
3.38308e-05
-0.000137707
3.07186e-05
-0.000141165
2.7353e-05
-0.000144199
2.37463e-05
-0.000146782
1.99138e-05
-0.00014889
1.58735e-05
-0.000150502
1.16467e-05
-0.000151597
7.25821e-06
-0.00015216
2.73597e-06
-0.000152176
-1.88861e-06
-0.000151635
-6.58083e-06
-0.00015053
-1.13029e-05
-0.00014886
-1.60142e-05
-0.000146625
-2.06715e-05
-0.000143834
-2.52295e-05
-0.000140496
-2.96415e-05
-0.000136631
-3.38594e-05
-0.000132259
-3.78351e-05
-0.000127409
-4.15208e-05
-0.000122113
-4.48699e-05
-0.000116412
-4.7838e-05
-0.000110349
-5.03836e-05
-0.000103973
-5.24691e-05
-9.73379e-05
-5.40619e-05
-9.0502e-05
-5.51353e-05
-8.35267e-05
-5.5669e-05
-7.64763e-05
-5.56504e-05
-6.94167e-05
-5.5075e-05
-6.24152e-05
-5.39473e-05
-5.55384e-05
-5.22811e-05
-4.8852e-05
-5.00997e-05
-4.24192e-05
-4.74363e-05
-3.62995e-05
-4.43341e-05
-3.05477e-05
-4.08459e-05
-2.52129e-05
-3.70339e-05
-2.03374e-05
-3.29695e-05
-1.59557e-05
-2.87328e-05
-1.20944e-05
-2.44114e-05
-8.77091e-06
-2.01007e-05
-5.9939e-06
-1.59026e-05
-3.76293e-06
-1.1925e-05
-2.06883e-06
-8.28107e-06
-8.94294e-07
-5.08811e-06
-2.14842e-07
-2.46651e-06
-5.4355e-07
-4.81894e-07
2.85203e-06
-1.83196e-06
8.59008e-06
-3.96171e-06
1.4228e-05
-6.78918e-06
1.96649e-05
-1.02383e-05
2.48262e-05
-1.42387e-05
2.96549e-05
-1.87248e-05
3.41099e-05
-2.3636e-05
3.81636e-05
-2.89156e-05
4.17996e-05
-3.45107e-05
4.50106e-05
-4.03719e-05
4.77964e-05
-4.64523e-05
5.01616e-05
-5.27081e-05
5.21144e-05
-5.90973e-05
5.36653e-05
-6.55799e-05
5.48257e-05
-7.21175e-05
5.5607e-05
-7.86731e-05
5.60201e-05
-8.52106e-05
5.6075e-05
-9.16947e-05
5.57804e-05
-9.80911e-05
5.51437e-05
-0.000104366
5.4171e-05
-0.000110484
5.28672e-05
-0.000116415
5.12366e-05
-0.000122123
4.92832e-05
-0.000127576
4.70108e-05
-0.000132743
4.44238e-05
-0.000137591
4.15274e-05
-0.000142089
3.83284e-05
-0.000146206
3.48355e-05
-0.000149912
3.10594e-05
-0.000153179
2.70136e-05
-0.000155981
2.27149e-05
-0.00015829
1.81829e-05
-0.000160084
1.3441e-05
-0.000161342
8.51605e-06
-0.000162045
3.43883e-06
-0.000162177
-1.75629e-06
-0.000161727
-7.03129e-06
-0.000160685
-1.23446e-05
-0.000159048
-1.76516e-05
-0.000156815
-2.29045e-05
-0.000153991
-2.80533e-05
-0.000150586
-3.30459e-05
-0.000146617
-3.78291e-05
-0.000142103
-4.2349e-05
-0.000137072
-4.6552e-05
-0.000131556
-5.03855e-05
-0.000125595
-5.37991e-05
-0.000119233
-5.67457e-05
-0.00011252
-5.91819e-05
-0.000105512
-6.107e-05
-9.8269e-05
-6.23782e-05
-9.08556e-05
-6.30824e-05
-8.33395e-05
-6.31664e-05
-7.57911e-05
-6.26234e-05
-6.82822e-05
-6.14563e-05
-6.08849e-05
-5.96784e-05
-5.36706e-05
-5.7314e-05
-4.67084e-05
-5.43985e-05
-4.00642e-05
-5.09783e-05
-3.37992e-05
-4.71108e-05
-2.79689e-05
-4.28642e-05
-2.26219e-05
-3.83166e-05
-1.77989e-05
-3.35557e-05
-1.35322e-05
-2.86781e-05
-9.84476e-06
-2.37881e-05
-6.75024e-06
-1.89972e-05
-4.25266e-06
-1.44226e-05
-2.34678e-06
-1.01869e-05
-1.01854e-06
-6.41635e-06
-2.4594e-07
-3.23911e-06
-7.8949e-07
-5.18128e-07
3.37016e-06
-1.96703e-06
1.0039e-05
-4.24884e-06
1.65098e-05
-7.27293e-06
2.2689e-05
-1.09554e-05
2.85086e-05
-1.52187e-05
3.39182e-05
-1.99913e-05
3.88826e-05
-2.52073e-05
4.33796e-05
-3.08056e-05
4.73979e-05
-3.67297e-05
5.09347e-05
-4.29269e-05
5.39936e-05
-4.93481e-05
5.65828e-05
-5.59473e-05
5.87137e-05
-6.26811e-05
6.03991e-05
-6.95081e-05
6.16527e-05
-7.6389e-05
6.24878e-05
-8.32858e-05
6.29169e-05
-9.01618e-05
6.2951e-05
-9.69812e-05
6.25998e-05
-0.000103709
6.18715e-05
-0.00011031
6.07725e-05
-0.000116752
5.93084e-05
-0.000122999
5.74837e-05
-0.000129018
5.53026e-05
-0.000134776
5.27691e-05
-0.000140241
4.9888e-05
-0.000145378
4.6665e-05
-0.000150157
4.31071e-05
-0.000154545
3.92236e-05
-0.000158512
3.50263e-05
-0.000162028
3.05296e-05
-0.000165064
2.57513e-05
-0.000167594
2.07128e-05
-0.000169592
1.54392e-05
-0.000171036
9.95956e-06
-0.000171904
4.30708e-06
-0.000172179
-1.48099e-06
-0.000171847
-7.36338e-06
-0.000170897
-1.32949e-05
-0.000169322
-1.92268e-05
-0.000167119
-2.51069e-05
-0.000164292
-3.08804e-05
-0.000160848
-3.64898e-05
-0.000156801
-4.18764e-05
-0.00015217
-4.69802e-05
-0.00014698
-5.17416e-05
-0.000141264
-5.61017e-05
-0.00013506
-6.00036e-05
-0.000128412
-6.33936e-05
-0.000121371
-6.62223e-05
-0.000113995
-6.84459e-05
-0.000106346
-7.00272e-05
-9.84918e-05
-7.09371e-05
-9.05029e-05
-7.11553e-05
-8.24545e-05
-7.06718e-05
-7.44235e-05
-6.94872e-05
-6.64878e-05
-6.76141e-05
-5.87248e-05
-6.5077e-05
-5.12104e-05
-6.19129e-05
-4.40174e-05
-5.81713e-05
-3.7214e-05
-5.39142e-05
-3.0863e-05
-4.92152e-05
-2.50199e-05
-4.41597e-05
-1.97322e-05
-3.88434e-05
-1.50387e-05
-3.33716e-05
-1.09683e-05
-2.78585e-05
-7.54014e-06
-2.24253e-05
-4.76299e-06
-1.71998e-05
-2.63563e-06
-1.23143e-05
-1.14722e-06
-7.90476e-06
-2.77988e-07
-4.10835e-06
-1.06748e-06
-5.52725e-07
3.92289e-06
-2.09604e-06
1.15823e-05
-4.52323e-06
1.8937e-05
-7.73548e-06
2.59012e-05
-1.16414e-05
3.24146e-05
-1.61569e-05
3.84337e-05
-2.12046e-05
4.39303e-05
-2.67136e-05
4.88885e-05
-3.26186e-05
5.33028e-05
-3.88594e-05
5.71755e-05
-4.53806e-05
6.05148e-05
-5.21307e-05
6.33329e-05
-5.90617e-05
6.56447e-05
-6.61288e-05
6.74662e-05
-7.32894e-05
6.88134e-05
-8.05033e-05
6.97017e-05
-8.77319e-05
7.01454e-05
-9.49378e-05
7.01569e-05
-0.000102085
6.97469e-05
-0.000109137