/*--------------------------------*- C++ -*----------------------------------*\
  =========                 |
  \\      /  F ield         | OpenFOAM: The Open Source CFD Toolbox
   \\    /   O peration     | Website:  https://openfoam.org
    \\  /    A nd           | Version:  dev
     \\/     M anipulation  |
\*---------------------------------------------------------------------------*/
FoamFile
{
    format      ascii;
    class       volVectorField;
    location    "31.5";
    object      U;
}
// * * * * * * * * * * * * * * * * * * * * * * * * * * * * * * * * * * * * * //

dimensions      [0 1 -1 0 0 0 0];

internalField   nonuniform List<vector> 
5184
(
(1.23004e-05 -1.27336e-05 0)
(4.51282e-05 -2.0902e-05 0)
(8.03106e-05 -1.72526e-05 0)
(9.59788e-05 -8.19763e-06 0)
(8.2154e-05 2.66871e-06 0)
(3.64602e-05 1.36174e-05 0)
(-4.05534e-05 2.38454e-05 0)
(-0.000146867 3.30474e-05 0)
(-0.000279689 4.11046e-05 0)
(-0.000435963 4.80226e-05 0)
(-0.000612566 5.38631e-05 0)
(-0.000806466 5.87109e-05 0)
(-0.0010148 6.26585e-05 0)
(-0.00123489 6.57971e-05 0)
(-0.00146428 6.82116e-05 0)
(-0.00170073 6.99772e-05 0)
(-0.00194214 7.11582e-05 0)
(-0.00218662 7.18072e-05 0)
(-0.00243237 7.19649e-05 0)
(-0.00267771 7.16608e-05 0)
(-0.00292104 7.09144e-05 0)
(-0.00316079 6.97362e-05 0)
(-0.00339544 6.81291e-05 0)
(-0.00362346 6.609e-05 0)
(-0.00384332 6.36118e-05 0)
(-0.00405349 6.06847e-05 0)
(-0.0042524 5.72983e-05 0)
(-0.00443849 5.34428e-05 0)
(-0.00461017 4.91113e-05 0)
(-0.00476587 4.43007e-05 0)
(-0.00490403 3.90134e-05 0)
(-0.00502313 3.32588e-05 0)
(-0.00512169 2.70541e-05 0)
(-0.00519835 2.04252e-05 0)
(-0.00525185 1.34077e-05 0)
(-0.00528106 6.04752e-06 0)
(-0.00528506 -1.5993e-06 0)
(-0.0052631 -9.46632e-06 0)
(-0.00521468 -1.74771e-05 0)
(-0.00513959 -2.55457e-05 0)
(-0.00503788 -3.35777e-05 0)
(-0.00490992 -4.14715e-05 0)
(-0.00475643 -4.91199e-05 0)
(-0.00457845 -5.6412e-05 0)
(-0.00437739 -6.32351e-05 0)
(-0.004155 -6.94775e-05 0)
(-0.00391338 -7.50303e-05 0)
(-0.00365496 -7.97904e-05 0)
(-0.00338246 -8.36634e-05 0)
(-0.00309888 -8.65654e-05 0)
(-0.00280747 -8.8426e-05 0)
(-0.00251165 -8.919e-05 0)
(-0.00221499 -8.8819e-05 0)
(-0.00192114 -8.72931e-05 0)
(-0.00163378 -8.46122e-05 0)
(-0.00135655 -8.07957e-05 0)
(-0.00109299 -7.58831e-05 0)
(-0.000846464 -6.99328e-05 0)
(-0.000620121 -6.30224e-05 0)
(-0.000416814 -5.52479e-05 0)
(-0.00023904 -4.67234e-05 0)
(-8.88751e-05 -3.75822e-05 0)
(3.20902e-05 -2.79789e-05 0)
(0.000122842 -1.8096e-05 0)
(0.000183049 -8.15906e-06 0)
(0.000213214 1.53681e-06 0)
(0.000214923 1.05679e-05 0)
(0.000191227 1.82979e-05 0)
(0.000147153 2.37156e-05 0)
(9.07959e-05 2.51295e-05 0)
(3.66247e-05 1.98526e-05 0)
(6.2255e-06 6.24621e-06 0)
(2.08322e-05 -4.59218e-05 0)
(6.55998e-05 -6.57343e-05 0)
(9.47032e-05 -4.05695e-05 0)
(7.2808e-05 7.62863e-06 0)
(-1.89243e-05 6.56752e-05 0)
(-0.000187307 0.000125988 0)
(-0.000432924 0.00018429 0)
(-0.000752556 0.000238334 0)
(-0.00114066 0.000286981 0)
(-0.00159045 0.000329789 0)
(-0.00209459 0.000366718 0)
(-0.00264562 0.000397957 0)
(-0.00323624 0.000423819 0)
(-0.00385945 0.00044467 0)
(-0.00450866 0.000460887 0)
(-0.00517765 0.000472829 0)
(-0.00586064 0.000480818 0)
(-0.00655218 0.000485131 0)
(-0.00724712 0.00048599 0)
(-0.0079406 0.000483566 0)
(-0.00862791 0.000477982 0)
(-0.0093045 0.000469313 0)
(-0.00996588 0.000457599 0)
(-0.0106077 0.000442848 0)
(-0.0112254 0.000425048 0)
(-0.0118147 0.000404176 0)
(-0.0123712 0.000380208 0)
(-0.0128904 0.000353127 0)
(-0.0133679 0.000322933 0)
(-0.0137995 0.000289653 0)
(-0.0141809 0.000253348 0)
(-0.0145079 0.00021412 0)
(-0.0147767 0.000172118 0)
(-0.0149837 0.000127547 0)
(-0.0151256 8.06657e-05 0)
(-0.0151994 3.17928e-05 0)
(-0.015203 -1.86926e-05 0)
(-0.0151344 -7.03522e-05 0)
(-0.0149927 -0.000122691 0)
(-0.0147773 -0.000175162 0)
(-0.0144887 -0.000227171 0)
(-0.0141281 -0.000278085 0)
(-0.0136976 -0.000327243 0)
(-0.0132003 -0.000373967 0)
(-0.0126402 -0.000417572 0)
(-0.012022 -0.000457383 0)
(-0.0113515 -0.000492747 0)
(-0.0106354 -0.00052305 0)
(-0.00988098 -0.000547731 0)
(-0.00909643 -0.000566294 0)
(-0.0082904 -0.000578328 0)
(-0.00747209 -0.000583513 0)
(-0.00665102 -0.000581633 0)
(-0.00583694 -0.000572585 0)
(-0.00503962 -0.000556385 0)
(-0.00426874 -0.000533171 0)
(-0.00353367 -0.000503208 0)
(-0.00284333 -0.000466884 0)
(-0.00220601 -0.000424715 0)
(-0.00162918 -0.000377341 0)
(-0.00111932 -0.000325529 0)
(-0.00068173 -0.000270185 0)
(-0.000320321 -0.00021237 0)
(-3.73786e-05 -0.000153337 0)
(0.00016673 -9.45948e-05 0)
(0.000293927 -3.80234e-05 0)
(0.000348964 1.39173e-05 0)
(0.00034011 5.7922e-05 0)
(0.000279856 8.94006e-05 0)
(0.000186052 0.000101859 0)
(8.63646e-05 8.65267e-05 0)
(1.96769e-05 3.64951e-05 0)
(1.76307e-05 -8.13261e-05 0)
(4.13204e-05 -9.50513e-05 0)
(1.95929e-05 -1.91474e-05 0)
(-8.4001e-05 0.000105919 0)
(-0.000290247 0.00025464 0)
(-0.000607894 0.000410572 0)
(-0.0010382 0.000563403 0)
(-0.00157736 0.000706998 0)
(-0.0022182 0.000837907 0)
(-0.00295154 0.000954423 0)
(-0.00376709 0.00105595 0)
(-0.00465416 0.00114259 0)
(-0.00560201 0.00121484 0)
(-0.00660019 0.00127345 0)
(-0.00763864 0.00131922 0)
(-0.00870779 0.00135298 0)
(-0.00979858 0.0013755 0)
(-0.0109024 0.00138746 0)
(-0.012011 0.00138941 0)
(-0.0131166 0.00138181 0)
(-0.0142116 0.00136498 0)
(-0.0152886 0.00133914 0)
(-0.0163404 0.00130442 0)
(-0.0173599 0.00126088 0)
(-0.0183399 0.00120854 0)
(-0.0192735 0.00114738 0)
(-0.0201536 0.0010774 0)
(-0.0209732 0.000998603 0)
(-0.0217254 0.000911061 0)
(-0.0224036 0.00081491 0)
(-0.0230011 0.000710383 0)
(-0.0235116 0.000597825 0)
(-0.0239293 0.000477708 0)
(-0.0242485 0.000350647 0)
(-0.0244646 0.00021741 0)
(-0.0245731 7.89181e-05 0)
(-0.0245707 -6.37477e-05 0)
(-0.024455 -0.000209352 0)
(-0.0242244 -0.000356512 0)
(-0.0238785 -0.00050371 0)
(-0.0234182 -0.000649309 0)
(-0.0228457 -0.000791579 0)
(-0.0221645 -0.000928715 0)
(-0.0213792 -0.00105888 0)
(-0.0204963 -0.00118021 0)
(-0.0195234 -0.0012909 0)
(-0.0184693 -0.00138919 0)
(-0.0173442 -0.00147343 0)
(-0.0161597 -0.00154213 0)
(-0.014928 -0.00159396 0)
(-0.0136625 -0.00162784 0)
(-0.0123773 -0.00164292 0)
(-0.0110869 -0.00163864 0)
(-0.0098061 -0.00161474 0)
(-0.00854981 -0.00157129 0)
(-0.00733274 -0.00150869 0)
(-0.00616913 -0.00142769 0)
(-0.00507251 -0.0013294 0)
(-0.00405543 -0.00121525 0)
(-0.00312916 -0.00108705 0)
(-0.00230343 -0.000946981 0)
(-0.00158615 -0.000797607 0)
(-0.000983043 -0.000641937 0)
(-0.000497346 -0.000483501 0)
(-0.000129372 -0.000326497 0)
(0.000123951 -0.000176014 0)
(0.000269717 -3.83692e-05 0)
(0.000319776 7.842e-05 0)
(0.000291262 0.000164056 0)
(0.0002074 0.000205376 0)
(0.000102452 0.000186274 0)
(2.49754e-05 9.03972e-05 0)
(8.83735e-06 -9.77506e-05 0)
(-7.01437e-06 -7.31585e-05 0)
(-0.000107582 8.47692e-05 0)
(-0.000322357 0.000318344 0)
(-0.000669583 0.000590066 0)
(-0.00115767 0.000874314 0)
(-0.00178735 0.00115406 0)
(-0.00255388 0.00141851 0)
(-0.0034487 0.00166119 0)
(-0.00446079 0.00187858 0)
(-0.00557766 0.00206912 0)
(-0.00678611 0.00223255 0)
(-0.00807274 0.00236944 0)
(-0.00942429 0.00248081 0)
(-0.0108278 0.00256795 0)
(-0.012271 0.00263219 0)
(-0.0137418 0.0026748 0)
(-0.0152289 0.00269693 0)
(-0.0167214 0.00269958 0)
(-0.0182086 0.00268352 0)
(-0.0196804 0.00264935 0)
(-0.0211268 0.00259751 0)
(-0.0225381 0.00252826 0)
(-0.0239045 0.00244175 0)
(-0.0252166 0.00233808 0)
(-0.0264649 0.00221728 0)
(-0.0276401 0.0020794 0)
(-0.0287328 0.00192456 0)
(-0.0297339 0.00175297 0)
(-0.0306346 0.00156497 0)
(-0.0314263 0.0013611 0)
(-0.0321009 0.00114207 0)
(-0.0326506 0.000908879 0)
(-0.0330684 0.000662752 0)
(-0.0333482 0.000405208 0)
(-0.0334847 0.000138047 0)
(-0.0334735 -0.000136642 0)
(-0.0333118 -0.000416489 0)
(-0.0329979 -0.000698858 0)
(-0.0325315 -0.000980872 0)
(-0.031914 -0.00125944 0)
(-0.0311484 -0.00153132 0)
(-0.0302394 -0.00179312 0)
(-0.0291936 -0.0020414 0)
(-0.0280191 -0.00227271 0)
(-0.0267262 -0.00248368 0)
(-0.0253263 -0.00267105 0)
(-0.0238329 -0.00283177 0)
(-0.0222608 -0.00296307 0)
(-0.020626 -0.00306251 0)
(-0.0189458 -0.00312809 0)
(-0.0172384 -0.00315826 0)
(-0.0155226 -0.00315199 0)
(-0.0138174 -0.00310884 0)
(-0.0121421 -0.00302895 0)
(-0.0105157 -0.00291312 0)
(-0.00895644 -0.00276277 0)
(-0.00748183 -0.00258 0)
(-0.00610799 -0.00236757 0)
(-0.00484942 -0.00212893 0)
(-0.00371862 -0.00186824 0)
(-0.00272568 -0.00159038 0)
(-0.00187795 -0.00130109 0)
(-0.00117955 -0.00100701 0)
(-0.000630947 -0.000715982 0)
(-0.000228441 -0.000437266 0)
(3.64415e-05 -0.00018201 0)
(0.000177599 3.6178e-05 0)
(0.000214759 0.000200577 0)
(0.00017409 0.000290795 0)
(9.30293e-05 0.000282542 0)
(2.40276e-05 0.000147282 0)
(-2.12563e-06 -8.44115e-05 0)
(-6.72911e-05 2.08868e-05 0)
(-0.000264102 0.000295433 0)
(-0.000609747 0.000667997 0)
(-0.00111672 0.00109077 0)
(-0.00179124 0.00152985 0)
(-0.00263231 0.00196178 0)
(-0.00363355 0.0023711 0)
(-0.00478484 0.00274808 0)
(-0.00607347 0.00308709 0)
(-0.00748508 0.00338536 0)
(-0.00900442 0.00364206 0)
(-0.0106159 0.00385766 0)
(-0.012304 0.00403339 0)
(-0.0140534 0.00417092 0)
(-0.0158492 0.00427206 0)
(-0.0176771 0.00433861 0)
(-0.0195233 0.00437222 0)
(-0.0213744 0.0043743 0)
(-0.0232175 0.00434604 0)
(-0.0250399 0.00428834 0)
(-0.0268293 0.00420185 0)
(-0.0285737 0.00408705 0)
(-0.0302611 0.00394422 0)
(-0.0318798 0.00377355 0)
(-0.033418 0.00357521 0)
(-0.0348644 0.00334937 0)
(-0.0362076 0.00309631 0)
(-0.0374365 0.00281649 0)
(-0.0385404 0.00251055 0)
(-0.0395089 0.00217945 0)
(-0.0403322 0.00182446 0)
(-0.0410012 0.00144723 0)
(-0.0415077 0.0010498 0)
(-0.0418442 0.000634672 0)
(-0.0420048 0.000204752 0)
(-0.0419844 -0.000236597 0)
(-0.0417798 -0.000685587 0)
(-0.0413891 -0.00113803 0)
(-0.0408123 -0.00158937 0)
(-0.0400514 -0.00203474 0)
(-0.0391101 -0.00246902 0)
(-0.0379943 -0.00288691 0)
(-0.0367119 -0.00328305 0)
(-0.035273 -0.00365203 0)
(-0.0336898 -0.0039886 0)
(-0.0319762 -0.00428769 0)
(-0.0301483 -0.00454456 0)
(-0.0282238 -0.00475491 0)
(-0.0262219 -0.00491497 0)
(-0.0241633 -0.00502162 0)
(-0.0220696 -0.00507248 0)
(-0.0199632 -0.00506596 0)
(-0.0178669 -0.00500139 0)
(-0.0158037 -0.00487903 0)
(-0.0137961 -0.00470014 0)
(-0.011866 -0.00446698 0)
(-0.0100343 -0.00418289 0)
(-0.00832018 -0.00385224 0)
(-0.006741 -0.00348049 0)
(-0.0053117 -0.00307422 0)
(-0.00404441 -0.00264116 0)
(-0.00294801 -0.00219031 0)
(-0.00202762 -0.00173207 0)
(-0.0012842 -0.0012785 0)
(-0.000713976 -0.000843655 0)
(-0.000307963 -0.000444011 0)
(-5.13903e-05 -9.91315e-05 0)
(7.66211e-05 0.000167646 0)
(0.000103579 0.000328588 0)
(6.75037e-05 0.000350959 0)
(1.96657e-05 0.000194132 0)
(-1.36949e-05 -3.7527e-05 0)
(-0.00013283 0.000197358 0)
(-0.000435811 0.000626881 0)
(-0.000924605 0.0011703 0)
(-0.00160384 0.00177166 0)
(-0.00247609 0.00239011 0)
(-0.0035375 0.00299658 0)
(-0.00477937 0.00357129 0)
(-0.00618962 0.00410137 0)
(-0.00775373 0.00457908 0)
(-0.00945556 0.00500033 0)
(-0.0112781 0.00536363 0)
(-0.0132037 0.00566922 0)
(-0.015215 0.00591846 0)
(-0.0172947 0.00611335 0)
(-0.0194259 0.00625615 0)
(-0.021592 0.00634912 0)
(-0.0237772 0.00639441 0)
(-0.0259659 0.00639389 0)
(-0.0281431 0.00634912 0)
(-0.030294 0.00626134 0)
(-0.0324042 0.00613148 0)
(-0.0344596 0.0059602 0)
(-0.0364462 0.00574798 0)
(-0.0383502 0.00549518 0)
(-0.0401579 0.00520211 0)
(-0.0418561 0.00486915 0)
(-0.0434315 0.00449684 0)
(-0.0448713 0.00408593 0)
(-0.0461632 0.00363752 0)
(-0.0472951 0.00315309 0)
(-0.048256 0.00263461 0)
(-0.0490354 0.00208455 0)
(-0.0496239 0.00150595 0)
(-0.0500134 0.000902476 0)
(-0.0501969 0.000278369 0)
(-0.050169 -0.000361504 0)
(-0.0499261 -0.00101169 0)
(-0.0494664 -0.00166618 0)
(-0.0487899 -0.00231848 0)
(-0.0478991 -0.00296165 0)
(-0.0467984 -0.00358842 0)
(-0.0454948 -0.00419129 0)
(-0.0439974 -0.00476266 0)
(-0.0423177 -0.00529492 0)
(-0.0404697 -0.00578063 0)
(-0.0384695 -0.00621266 0)
(-0.0363353 -0.00658434 0)
(-0.0340874 -0.00688961 0)
(-0.0317477 -0.00712317 0)
(-0.0293396 -0.00728062 0)
(-0.0268879 -0.00735861 0)
(-0.0244182 -0.00735492 0)
(-0.0219563 -0.0072686 0)
(-0.0195285 -0.00710004 0)
(-0.0171606 -0.00685102 0)
(-0.0148776 -0.00652478 0)
(-0.0127033 -0.00612604 0)
(-0.0106598 -0.00566104 0)
(-0.00876712 -0.00513756 0)
(-0.00704239 -0.00456494 0)
(-0.00549976 -0.00395416 0)
(-0.00414969 -0.00331792 0)
(-0.00299855 -0.00267082 0)
(-0.00204812 -0.00202957 0)
(-0.00129513 -0.00141339 0)
(-0.000730791 -0.000844407 0)
(-0.000340385 -0.000348297 0)
(-0.000102955 4.49633e-05 0)
(9.13734e-06 0.000300431 0)
(3.24915e-05 0.000377292 0)
(1.36204e-05 0.000224507 0)
(-2.51852e-05 4.40994e-05 0)
(-0.000200005 0.000461262 0)
(-0.000614054 0.00108703 0)
(-0.00125285 0.00183465 0)
(-0.00211193 0.00264225 0)
(-0.00318914 0.00346361 0)
(-0.00447691 0.00426508 0)
(-0.00596352 0.00502322 0)
(-0.00763449 0.00572241 0)
(-0.00947324 0.00635297 0)
(-0.0114618 0.00690958 0)
(-0.0135814 0.00739008 0)
(-0.0158128 0.00779447 0)
(-0.0181367 0.0081242 0)
(-0.0205341 0.00838152 0)
(-0.0229862 0.0085691 0)
(-0.0254749 0.00868968 0)
(-0.0279824 0.00874585 0)
(-0.0304912 0.00873993 0)
(-0.0329844 0.00867386 0)
(-0.0354454 0.00854922 0)
(-0.0378579 0.00836722 0)
(-0.040206 0.00812876 0)
(-0.0424737 0.00783453 0)
(-0.0446457 0.00748507 0)
(-0.0467063 0.00708094 0)
(-0.0486407 0.00662277 0)
(-0.050434 0.0061114 0)
(-0.0520718 0.00554802 0)
(-0.0535403 0.00493424 0)
(-0.0548261 0.00427222 0)
(-0.0559169 0.00356472 0)
(-0.0568012 0.0028152 0)
(-0.0574685 0.00202787 0)
(-0.0579098 0.0012077 0)
(-0.0581177 0.000360482 0)
(-0.0580862 -0.000507219 0)
(-0.0578114 -0.00138807 0)
(-0.0572913 -0.00227403 0)
(-0.0565264 -0.0031564 0)
(-0.0555192 -0.00402597 0)
(-0.0542748 -0.00487305 0)
(-0.052801 -0.00568771 0)
(-0.0511079 -0.00645984 0)
(-0.0492083 -0.0071794 0)
(-0.0471177 -0.00783652 0)
(-0.0448538 -0.00842179 0)
(-0.0424368 -0.00892637 0)
(-0.0398892 -0.00934225 0)
(-0.0372351 -0.00966241 0)
(-0.0345006 -0.00988103 0)
(-0.031713 -0.00999365 0)
(-0.0289004 -0.00999732 0)
(-0.026092 -0.00989077 0)
(-0.0233166 -0.00967449 0)
(-0.0206029 -0.00935082 0)
(-0.017979 -0.00892404 0)
(-0.0154713 -0.00840042 0)
(-0.0131047 -0.00778822 0)
(-0.0109016 -0.00709775 0)
(-0.00888148 -0.0063414 0)
(-0.0070605 -0.0055337 0)
(-0.00545089 -0.00469136 0)
(-0.0040605 -0.0038335 0)
(-0.00289232 -0.00298181 0)
(-0.00194408 -0.00216087 0)
(-0.00120783 -0.00139863 0)
(-0.000669623 -0.000726933 0)
(-0.000309251 -0.000182264 0)
(-9.98796e-05 0.000193567 0)
(-7.72195e-06 0.000352439 0)
(6.85938e-06 0.000234975 0)
(-3.63384e-05 0.000160464 0)
(-0.000266929 0.00081447 0)
(-0.00079371 0.00167966 0)
(-0.00158555 0.00266605 0)
(-0.00262829 0.00370794 0)
(-0.00391438 0.00475529 0)
(-0.00543184 0.00577106 0)
(-0.00716539 0.00672898 0)
(-0.00909771 0.00761123 0)
(-0.0112099 0.00840656 0)
(-0.0134821 0.00910862 0)
(-0.0158936 0.00971469 0)
(-0.0184236 0.0102246 0)
(-0.0210512 0.0106399 0)
(-0.0237558 0.010963 0)
(-0.0265172 0.0111971 0)
(-0.0293155 0.0113453 0)
(-0.0321312 0.0114107 0)
(-0.0349454 0.0113959 0)
(-0.0377396 0.0113034 0)
(-0.0404954 0.011135 0)
(-0.043195 0.0108922 0)
(-0.0458207 0.0105761 0)
(-0.0483551 0.0101878 0)
(-0.050781 0.00972788 0)
(-0.0530816 0.00919729 0)
(-0.0552402 0.00859693 0)
(-0.0572405 0.00792804 0)
(-0.0590669 0.0071923 0)
(-0.0607041 0.00639194 0)
(-0.0621377 0.00552987 0)
(-0.0633541 0.00460978 0)
(-0.0643408 0.00363626 0)
(-0.0650865 0.00261478 0)
(-0.0655815 0.00155182 0)
(-0.0658175 0.00045485 0)
(-0.0657882 -0.000667694 0)
(-0.0654895 -0.00180642 0)
(-0.0649191 -0.00295105 0)
(-0.0640776 -0.00409054 0)
(-0.0629676 -0.00521313 0)
(-0.0615948 -0.00630656 0)
(-0.0599674 -0.00735823 0)
(-0.0580964 -0.00835533 0)
(-0.0559956 -0.00928514 0)
(-0.0536817 -0.0101352 0)
(-0.0511738 -0.0108935 0)
(-0.0484939 -0.011549 0)
(-0.0456659 -0.0120914 0)
(-0.0427163 -0.0125118 0)
(-0.0396732 -0.0128029 0)
(-0.0365663 -0.0129589 0)
(-0.0334262 -0.012976 0)
(-0.0302846 -0.0128526 0)
(-0.027173 -0.0125892 0)
(-0.024123 -0.0121887 0)
(-0.0211652 -0.0116565 0)
(-0.0183288 -0.0110004 0)
(-0.0156412 -0.0102309 0)
(-0.0131275 -0.00936088 0)
(-0.0108093 -0.00840609 0)
(-0.00870518 -0.00738477 0)
(-0.00682921 -0.00631791 0)
(-0.00519106 -0.00522935 0)
(-0.00379532 -0.00414593 0)
(-0.00264116 -0.0030978 0)
(-0.001722 -0.00211876 0)
(-0.00102526 -0.00124678 0)
(-0.000532123 -0.00052466 0)
(-0.000217232 -6.06963e-07 0)
(-5.04687e-05 0.000270832 0)
(-8.59339e-08 0.000223828 0)
(-4.7058e-05 0.00031093 0)
(-0.000332619 0.00125689 0)
(-0.000971779 0.00240574 0)
(-0.00191709 0.00366638 0)
(-0.00314453 0.00497104 0)
(-0.00464075 0.00626739 0)
(-0.00638894 0.00751617 0)
(-0.0083698 0.00868917 0)
(-0.0105628 0.00976706 0)
(-0.0129466 0.0107375 0)
(-0.0154991 0.0115934 0)
(-0.0181977 0.0123317 0)
(-0.0210201 0.0129522 0)
(-0.0239438 0.0134566 0)
(-0.0269467 0.0138476 0)
(-0.0300072 0.0141288 0)
(-0.033104 0.0143038 0)
(-0.0362164 0.0143759 0)
(-0.0393238 0.0143484 0)
(-0.0424064 0.0142239 0)
(-0.0454445 0.0140047 0)
(-0.0484186 0.0136926 0)
(-0.0513099 0.013289 0)
(-0.0540993 0.012795 0)
(-0.0567684 0.0122117 0)
(-0.0592989 0.0115402 0)
(-0.0616728 0.0107818 0)
(-0.0638726 0.00993828 0)
(-0.0658814 0.00901176 0)
(-0.0676827 0.00800519 0)
(-0.0692609 0.00692234 0)
(-0.0706016 0.00576794 0)
(-0.0716911 0.00454775 0)
(-0.0725175 0.00326867 0)
(-0.0730702 0.00193879 0)
(-0.0733404 0.000567381 0)
(-0.0733213 -0.000835098 0)
(-0.0730081 -0.00225705 0)
(-0.0723987 -0.00368583 0)
(-0.0714931 -0.00510783 0)
(-0.0702945 -0.00650864 0)
(-0.0688084 -0.00787322 0)
(-0.0670434 -0.00918609 0)
(-0.0650113 -0.0104316 0)
(-0.0627265 -0.0115941 0)
(-0.0602065 -0.0126584 0)
(-0.0574718 -0.0136097 0)
(-0.0545454 -0.0144344 0)
(-0.0514532 -0.0151199 0)
(-0.0482231 -0.0156552 0)
(-0.0448852 -0.0160312 0)
(-0.0414713 -0.0162408 0)
(-0.0380144 -0.0162792 0)
(-0.0345485 -0.0161441 0)
(-0.0311077 -0.0158362 0)
(-0.0277262 -0.0153588 0)
(-0.0244373 -0.0147184 0)
(-0.0212729 -0.0139245 0)
(-0.0182631 -0.0129896 0)
(-0.0154355 -0.0119297 0)
(-0.0128143 -0.0107637 0)
(-0.0104205 -0.00951385 0)
(-0.00827029 -0.00820548 0)
(-0.00637559 -0.00686736 0)
(-0.0047429 -0.00553164 0)
(-0.00337327 -0.00423411 0)
(-0.00226193 -0.00301446 0)
(-0.00139816 -0.00191669 0)
(-0.000764998 -0.000989689 0)
(-0.000339015 -0.000287616 0)
(-9.41899e-05 0.000129363 0)
(-6.94526e-06 0.000190417 0)
(-5.7332e-05 0.000494594 0)
(-0.000396593 0.00178729 0)
(-0.00114653 0.00326439 0)
(-0.00224393 0.00483525 0)
(-0.00365507 0.00643154 0)
(-0.0053606 0.00799995 0)
(-0.00733861 0.00950015 0)
(-0.00956551 0.0109029 0)
(-0.0120174 0.0121881 0)
(-0.01467 0.0133429 0)
(-0.017499 0.0143598 0)
(-0.02048 0.0152358 0)
(-0.0235889 0.0159707 0)
(-0.0268017 0.0165666 0)
(-0.030095 0.0170265 0)
(-0.0334459 0.0173545 0)
(-0.0368319 0.0175545 0)
(-0.0402309 0.0176305 0)
(-0.0436214 0.017586 0)
(-0.046982 0.0174241 0)
(-0.0502919 0.0171473 0)
(-0.0535306 0.0167576 0)
(-0.0566778 0.0162569 0)
(-0.0597132 0.0156464 0)
(-0.0626173 0.0149276 0)
(-0.0653705 0.0141018 0)
(-0.0679537 0.0131708 0)
(-0.0703482 0.0121367 0)
(-0.0725358 0.0110024 0)
(-0.0744993 0.0097716 0)
(-0.0762219 0.0084489 0)
(-0.0776882 0.00704014 0)
(-0.0788837 0.00555238 0)
(-0.0797956 0.00399402 0)
(-0.0804125 0.00237483 0)
(-0.0807249 0.000706011 0)
(-0.0807255 -0.000999868 0)
(-0.0804091 -0.00272889 0)
(-0.079773 -0.0044659 0)
(-0.0788172 -0.00619462 0)
(-0.0775444 -0.00789782 0)
(-0.0759603 -0.00955752 0)
(-0.0740736 -0.0111553 0)
(-0.0718964 -0.0126723 0)
(-0.0694435 -0.0140899 0)
(-0.0667333 -0.0153899 0)
(-0.0637869 -0.0165546 0)
(-0.0606286 -0.0175676 0)
(-0.0572853 -0.0184138 0)
(-0.0537867 -0.0190799 0)
(-0.0501646 -0.0195548 0)
(-0.0464526 -0.0198298 0)
(-0.0426859 -0.019899 0)
(-0.0389008 -0.0197594 0)
(-0.035134 -0.0194116 0)
(-0.0314223 -0.0188593 0)
(-0.0278015 -0.0181099 0)
(-0.0243065 -0.0171747 0)
(-0.0209702 -0.0160684 0)
(-0.0178228 -0.0148097 0)
(-0.0148915 -0.0134211 0)
(-0.0121997 -0.0119288 0)
(-0.00976635 -0.0103628 0)
(-0.00760572 -0.00875669 0)
(-0.00572671 -0.00714816 0)
(-0.00413258 -0.00557867 0)
(-0.00282079 -0.00409382 0)
(-0.00178285 -0.00274359 0)
(-0.00100401 -0.00158273 0)
(-0.000463014 -0.000671002 0)
(-0.000138068 -7.35822e-05 0)
(-1.36029e-05 0.000134659 0)
(-6.71782e-05 0.000710424 0)
(-0.000458625 0.00240375 0)
(-0.00131694 0.00425352 0)
(-0.00256388 0.00617069 0)
(-0.00415619 0.00808762 0)
(-0.00606859 0.00995121 0)
(-0.00827392 0.0117211 0)
(-0.0107442 0.013368 0)
(-0.0134518 0.0148716 0)
(-0.0163696 0.0162192 0)
(-0.0194708 0.0174034 0)
(-0.0227291 0.0184216 0)
(-0.0261186 0.0192739 0)
(-0.029614 0.0199628 0)
(-0.0331905 0.0204919 0)
(-0.0368241 0.0208658 0)
(-0.040491 0.0210888 0)
(-0.0441681 0.0211654 0)
(-0.0478328 0.0210995 0)
(-0.0514628 0.0208946 0)
(-0.0550362 0.0205534 0)
(-0.0585314 0.0200785 0)
(-0.0619268 0.0194716 0)
(-0.0652016 0.0187346 0)
(-0.0683348 0.017869 0)
(-0.0713058 0.0168767 0)
(-0.0740946 0.0157596 0)
(-0.0766814 0.0145206 0)
(-0.0790471 0.013163 0)
(-0.0811733 0.0116914 0)
(-0.0830424 0.0101114 0)
(-0.0846381 0.00842986 0)
(-0.085945 0.00665528 0)
(-0.0869493 0.00479758 0)
(-0.087639 0.00286829 0)
(-0.0880038 0.000880592 0)
(-0.0880356 -0.00115075 0)
(-0.0877287 -0.00320942 0)
(-0.0870797 -0.00527765 0)
(-0.0860881 -0.00733639 0)
(-0.0847565 -0.00936547 0)
(-0.0830901 -0.0113439 0)
(-0.0810977 -0.0132499 0)
(-0.0787911 -0.0150616 0)
(-0.0761857 -0.0167572 0)
(-0.0733 -0.018315 0)
(-0.0701558 -0.0197144 0)
(-0.0667783 -0.020936 0)
(-0.0631954 -0.0219618 0)
(-0.0594381 -0.0227761 0)
(-0.0555396 -0.0233655 0)
(-0.0515356 -0.0237196 0)
(-0.0474633 -0.023831 0)
(-0.0433612 -0.0236961 0)
(-0.0392685 -0.0233149 0)
(-0.0352246 -0.0226915 0)
(-0.0312683 -0.0218343 0)
(-0.0274372 -0.0207559 0)
(-0.0237674 -0.0194734 0)
(-0.020292 -0.0180085 0)
(-0.0170413 -0.0163869 0)
(-0.0140417 -0.014639 0)
(-0.011315 -0.0127994 0)
(-0.00887823 -0.0109069 0)
(-0.00674308 -0.00900469 0)
(-0.00491543 -0.00713992 0)
(-0.00339528 -0.00536416 0)
(-0.00217667 -0.00373335 0)
(-0.00124729 -0.00230799 0)
(-0.000588216 -0.00115321 0)
(-0.000181777 -0.000338843 0)
(-2.00325e-05 5.67236e-05 0)
(-7.66205e-05 0.000957341 0)
(-0.00051861 0.00310399 0)
(-0.00148244 0.00537025 0)
(-0.00287547 0.00766962 0)
(-0.00464536 0.00993615 0)
(-0.00676091 0.012118 0)
(-0.00918976 0.0141757 0)
(-0.0118994 0.0160807 0)
(-0.0148585 0.0178136 0)
(-0.0180369 0.019362 0)
(-0.0214054 0.0207194 0)
(-0.0249355 0.0218836 0)
(-0.0285997 0.0228556 0)
(-0.0323712 0.0236385 0)
(-0.0362241 0.0242366 0)
(-0.040133 0.024655 0)
(-0.0440734 0.0248986 0)
(-0.0480211 0.0249724 0)
(-0.0519526 0.0248808 0)
(-0.0558447 0.0246275 0)
(-0.0596746 0.0242158 0)
(-0.0634197 0.0236483 0)
(-0.0670578 0.0229271 0)
(-0.0705669 0.0220544 0)
(-0.0739252 0.0210318 0)
(-0.0771113 0.0198617 0)
(-0.0801041 0.0185464 0)
(-0.082883 0.0170893 0)
(-0.0854279 0.0154944 0)
(-0.0877196 0.0137671 0)
(-0.0897397 0.0119138 0)
(-0.0914706 0.0099428 0)
(-0.0928963 0.00786374 0)
(-0.0940022 0.00568819 0)
(-0.0947752 0.00342947 0)
(-0.0952042 0.00110278 0)
(-0.0952803 -0.00127487 0)
(-0.094997 -0.0036847 0)
(-0.0943502 -0.00610628 0)
(-0.0933388 -0.00851769 0)
(-0.0919645 -0.0108957 0)
(-0.0902323 -0.0132162 0)
(-0.0881504 -0.0154541 0)
(-0.0857305 -0.0175842 0)
(-0.0829878 -0.019581 0)
(-0.0799409 -0.0214198 0)
(-0.0766121 -0.0230763 0)
(-0.0730271 -0.0245281 0)
(-0.0692146 -0.0257541 0)
(-0.0652067 -0.0267358 0)
(-0.0610382 -0.0274573 0)
(-0.0567464 -0.0279062 0)
(-0.0523703 -0.0280735 0)
(-0.047951 -0.0279544 0)
(-0.04353 -0.0275483 0)
(-0.0391495 -0.0268596 0)
(-0.0348514 -0.0258973 0)
(-0.0306765 -0.0246756 0)
(-0.0266638 -0.0232136 0)
(-0.0228501 -0.0215358 0)
(-0.0192689 -0.0196715 0)
(-0.0159498 -0.0176552 0)
(-0.0129181 -0.0155262 0)
(-0.010194 -0.0133285 0)
(-0.00779212 -0.0111109 0)
(-0.00572146 -0.00892638 0)
(-0.00398482 -0.0068326 0)
(-0.00257907 -0.00489144 0)
(-0.00149448 -0.00316919 0)
(-0.000714465 -0.00173625 0)
(-0.000225318 -0.000666983 0)
(-2.62605e-05 -4.3173e-05 0)
(-8.56806e-05 0.00123426 0)
(-0.000576498 0.00388545 0)
(-0.00164263 0.00661115 0)
(-0.00317775 0.00932811 0)
(-0.00512074 0.011973 0)
(-0.00743474 0.014496 0)
(-0.0100822 0.0168595 0)
(-0.0130261 0.0190366 0)
(-0.0162315 0.0210092 0)
(-0.0196651 0.0227661 0)
(-0.0232951 0.024302 0)
(-0.027091 0.0256159 0)
(-0.0310236 0.0267096 0)
(-0.0350648 0.0275872 0)
(-0.0391872 0.0282538 0)
(-0.0433647 0.0287151 0)
(-0.0475716 0.0289769 0)
(-0.0517831 0.0290446 0)
(-0.0559747 0.0289231 0)
(-0.0601226 0.0286166 0)
(-0.0642032 0.0281285 0)
(-0.0681931 0.0274617 0)
(-0.0720695 0.0266189 0)
(-0.0758094 0.025602 0)
(-0.0793905 0.0244135 0)
(-0.0827905 0.0230556 0)
(-0.0859874 0.0215314 0)
(-0.08896 0.0198445 0)
(-0.0916873 0.0179998 0)
(-0.0941491 0.0160032 0)
(-0.0963262 0.0138624 0)
(-0.0982002 0.0115867 0)
(-0.0997541 0.009187 0)
(-0.100972 0.00667655 0)
(-0.101841 0.00407046 0)
(-0.102348 0.00138593 0)
(-0.102483 -0.00135776 0)
(-0.102239 -0.00413935 0)
(-0.101611 -0.00693571 0)
(-0.100596 -0.00972198 0)
(-0.0991967 -0.0124719 0)
(-0.0974159 -0.0151579 0)
(-0.0952615 -0.0177516 0)
(-0.0927446 -0.0202242 0)
(-0.0898802 -0.0225467 0)
(-0.0866866 -0.0246906 0)
(-0.0831861 -0.0266283 0)
(-0.0794048 -0.0283335 0)
(-0.0753721 -0.0297821 0)
(-0.071121 -0.0309525 0)
(-0.0666875 -0.0318259 0)
(-0.0621105 -0.0323876 0)
(-0.0574311 -0.0326265 0)
(-0.0526925 -0.0325365 0)
(-0.047939 -0.0321164 0)
(-0.0432157 -0.0313701 0)
(-0.0385675 -0.0303074 0)
(-0.0340387 -0.0289435 0)
(-0.029672 -0.0272998 0)
(-0.0255076 -0.0254034 0)
(-0.0215828 -0.0232872 0)
(-0.017931 -0.0209898 0)
(-0.0145812 -0.0185552 0)
(-0.0115571 -0.0160329 0)
(-0.0088769 -0.0134771 0)
(-0.00655286 -0.0109471 0)
(-0.00459099 -0.0085066 0)
(-0.00299113 -0.00622356 0)
(-0.00174629 -0.00417015 0)
(-0.000842208 -0.00242218 0)
(-0.000268911 -0.00105865 0)
(-3.23454e-05 -0.000164897 0)
(-9.43733e-05 0.00154007 0)
(-0.000632251 0.00474544 0)
(-0.00179723 0.00797241 0)
(-0.00346995 0.0111416 0)
(-0.00558094 0.014193 0)
(-0.00808784 0.0170799 0)
(-0.0109481 0.0197671 0)
(-0.0141203 0.02223 0)
(-0.0175658 0.0244525 0)
(-0.0212482 0.0264255 0)
(-0.0251333 0.0281453 0)
(-0.0291885 0.0296121 0)
(-0.0333828 0.0308293 0)
(-0.0376867 0.0318021 0)
(-0.0420719 0.0325365 0)
(-0.0465111 0.0330394 0)
(-0.050978 0.033317 0)
(-0.0554468 0.0333756 0)
(-0.0598926 0.0332204 0)
(-0.0642907 0.032856 0)
(-0.0686169 0.0322864 0)
(-0.0728475 0.0315146 0)
(-0.0769588 0.0305435 0)
(-0.0809274 0.0293754 0)
(-0.0847301 0.0280129 0)
(-0.0883441 0.0264587 0)
(-0.0917468 0.0247161 0)
(-0.094916 0.0227893 0)
(-0.0978301 0.0206837 0)
(-0.100468 0.0184061 0)
(-0.10281 0.015965 0)
(-0.104836 0.0133708 0)
(-0.106529 0.010636 0)
(-0.107872 0.00777505 0)
(-0.10885 0.00480497 0)
(-0.10945 0.00174495 0)
(-0.10966 -0.00138349 0)
(-0.109473 -0.00455662 0)
(-0.108881 -0.00774857 0)
(-0.107882 -0.0109315 0)
(-0.106475 -0.0140761 0)
(-0.104664 -0.0171513 0)
(-0.102455 -0.0201252 0)
(-0.0998588 -0.0229654 0)
(-0.0968888 -0.025639 0)
(-0.0935633 -0.0281137 0)
(-0.0899045 -0.0303581 0)
(-0.0859383 -0.0323421 0)
(-0.0816946 -0.0340379 0)
(-0.0772072 -0.0354204 0)
(-0.0725132 -0.0364679 0)
(-0.067653 -0.0371627 0)
(-0.0626697 -0.0374915 0)
(-0.0576088 -0.0374465 0)
(-0.0525172 -0.0370252 0)
(-0.0474432 -0.0362312 0)
(-0.0424351 -0.0350744 0)
(-0.0375408 -0.0335712 0)
(-0.0328068 -0.0317449 0)
(-0.0282776 -0.029625 0)
(-0.0239945 -0.0272481 0)
(-0.0199951 -0.0246568 0)
(-0.0163124 -0.0219001 0)
(-0.0129743 -0.0190327 0)
(-0.0100028 -0.016115 0)
(-0.00741386 -0.0132122 0)
(-0.00521694 -0.0103944 0)
(-0.00341513 -0.00773601 0)
(-0.00200425 -0.00531522 0)
(-0.000972323 -0.00321351 0)
(-0.000312927 -0.00151482 0)
(-3.83652e-05 -0.000308486 0)
(-0.000102707 0.00187368 0)
(-0.000685826 0.00568111 0)
(-0.00194599 0.0094499 0)
(-0.00375144 0.0131051 0)
(-0.00602476 0.0165907 0)
(-0.00871832 0.0198636 0)
(-0.0117848 0.022892 0)
(-0.0151784 0.0256542 0)
(-0.0188569 0.028137 0)
(-0.0227811 0.0303335 0)
(-0.026914 0.0322422 0)
(-0.0312211 0.0338653 0)
(-0.0356699 0.0352078 0)
(-0.0402295 0.0362763 0)
(-0.0448704 0.0370782 0)
(-0.0495645 0.0376211 0)
(-0.0542847 0.0379126 0)
(-0.0590046 0.0379592 0)
(-0.0636987 0.037767 0)
(-0.0683418 0.0373409 0)
(-0.0729094 0.0366853 0)
(-0.0773771 0.0358036 0)
(-0.0817207 0.0346987 0)
(-0.0859165 0.0333734 0)
(-0.0899406 0.0318302 0)
(-0.0937697 0.0300723 0)
(-0.0973807 0.0281034 0)
(-0.100751 0.025928 0)
(-0.103857 0.0235521 0)
(-0.106679 0.0209832 0)
(-0.109194 0.0182308 0)
(-0.111384 0.0153061 0)
(-0.113228 0.012223 0)
(-0.114709 0.00899748 0)
(-0.115812 0.00564815 0)
(-0.116521 0.00219618 0)
(-0.116824 -0.00133473 0)
(-0.116711 -0.00491836 0)
(-0.116175 -0.00852618 0)
(-0.115211 -0.0121274 0)
(-0.113817 -0.0156894 0)
(-0.111995 -0.0191778 0)
(-0.109751 -0.022557 0)
(-0.107093 -0.0257907 0)
(-0.104034 -0.0288421 0)
(-0.100593 -0.0316748 0)
(-0.0967896 -0.0342532 0)
(-0.0926505 -0.0365433 0)
(-0.0882056 -0.0385132 0)
(-0.0834891 -0.0401339 0)
(-0.0785392 -0.0413802 0)
(-0.0733977 -0.0422311 0)
(-0.0681095 -0.0426708 0)
(-0.0627225 -0.0426891 0)
(-0.0572865 -0.0422821 0)
(-0.0518529 -0.0414523 0)
(-0.0464738 -0.0402099 0)
(-0.041201 -0.0385719 0)
(-0.0360853 -0.0365631 0)
(-0.0311755 -0.0342158 0)
(-0.0265177 -0.0315698 0)
(-0.022154 -0.0286719 0)
(-0.0181221 -0.025576 0)
(-0.0144543 -0.0223424 0)
(-0.011177 -0.0190375 0)
(-0.00831015 -0.0157329 0)
(-0.00586705 -0.0125055 0)
(-0.00385422 -0.00943612 0)
(-0.00227045 -0.00660961 0)
(-0.00110599 -0.00411345 0)
(-0.00035784 -0.00203699 0)
(-4.44103e-05 -0.000474205 0)
(-0.000110681 0.00223396 0)
(-0.000737162 0.00668949 0)
(-0.00208867 0.0110392 0)
(-0.00402163 0.0152132 0)
(-0.00645109 0.0191598 0)
(-0.00932444 0.0228403 0)
(-0.0125897 0.0262271 0)
(-0.0161971 0.0293021 0)
(-0.0201008 0.0320551 0)
(-0.0242587 0.0344825 0)
(-0.0286315 0.0365853 0)
(-0.0331827 0.038368 0)
(-0.0378782 0.0398376 0)
(-0.0426857 0.0410025 0)
(-0.0475749 0.0418715 0)
(-0.0525167 0.0424536 0)
(-0.0574834 0.0427571 0)
(-0.0624481 0.0427896 0)
(-0.0673849 0.0425576 0)
(-0.0722681 0.0420668 0)
(-0.0770729 0.0413216 0)
(-0.0817744 0.0403259 0)
(-0.0863482 0.0390829 0)
(-0.0907701 0.0375953 0)