/*--------------------------------*- C++ -*----------------------------------*\
  =========                 |
  \\      /  F ield         | OpenFOAM: The Open Source CFD Toolbox
   \\    /   O peration     | Website:  https://openfoam.org
    \\  /    A nd           | Version:  dev
     \\/     M anipulation  |
\*---------------------------------------------------------------------------*/
FoamFile
{
    format      ascii;
    class       volScalarField;
    location    "31.5";
    object      Uy;
}
// * * * * * * * * * * * * * * * * * * * * * * * * * * * * * * * * * * * * * //

dimensions      [0 1 -1 0 0 0 0];

internalField   nonuniform List<scalar> 
5184
(
-1.27336e-05
-2.0902e-05
-1.72526e-05
-8.19763e-06
2.66871e-06
1.36174e-05
2.38454e-05
3.30474e-05
4.11046e-05
4.80226e-05
5.38631e-05
5.87109e-05
6.26585e-05
6.57971e-05
6.82116e-05
6.99772e-05
7.11582e-05
7.18072e-05
7.19649e-05
7.16608e-05
7.09144e-05
6.97362e-05
6.81291e-05
6.609e-05
6.36118e-05
6.06847e-05
5.72983e-05
5.34428e-05
4.91113e-05
4.43007e-05
3.90134e-05
3.32588e-05
2.70541e-05
2.04252e-05
1.34077e-05
6.04752e-06
-1.5993e-06
-9.46632e-06
-1.74771e-05
-2.55457e-05
-3.35777e-05
-4.14715e-05
-4.91199e-05
-5.6412e-05
-6.32351e-05
-6.94775e-05
-7.50303e-05
-7.97904e-05
-8.36634e-05
-8.65654e-05
-8.8426e-05
-8.919e-05
-8.8819e-05
-8.72931e-05
-8.46122e-05
-8.07957e-05
-7.58831e-05
-6.99328e-05
-6.30224e-05
-5.52479e-05
-4.67234e-05
-3.75822e-05
-2.79789e-05
-1.8096e-05
-8.15906e-06
1.53681e-06
1.05679e-05
1.82979e-05
2.37156e-05
2.51295e-05
1.98526e-05
6.24621e-06
-4.59218e-05
-6.57343e-05
-4.05695e-05
7.62863e-06
6.56752e-05
0.000125988
0.00018429
0.000238334
0.000286981
0.000329789
0.000366718
0.000397957
0.000423819
0.00044467
0.000460887
0.000472829
0.000480818
0.000485131
0.00048599
0.000483566
0.000477982
0.000469313
0.000457599
0.000442848
0.000425048
0.000404176
0.000380208
0.000353127
0.000322933
0.000289653
0.000253348
0.00021412
0.000172118
0.000127547
8.06657e-05
3.17928e-05
-1.86926e-05
-7.03522e-05
-0.000122691
-0.000175162
-0.000227171
-0.000278085
-0.000327243
-0.000373967
-0.000417572
-0.000457383
-0.000492747
-0.00052305
-0.000547731
-0.000566294
-0.000578328
-0.000583513
-0.000581633
-0.000572585
-0.000556385
-0.000533171
-0.000503208
-0.000466884
-0.000424715
-0.000377341
-0.000325529
-0.000270185
-0.00021237
-0.000153337
-9.45948e-05
-3.80234e-05
1.39173e-05
5.7922e-05
8.94006e-05
0.000101859
8.65267e-05
3.64951e-05
-8.13261e-05
-9.50513e-05
-1.91474e-05
0.000105919
0.00025464
0.000410572
0.000563403
0.000706998
0.000837907
0.000954423
0.00105595
0.00114259
0.00121484
0.00127345
0.00131922
0.00135298
0.0013755
0.00138746
0.00138941
0.00138181
0.00136498
0.00133914
0.00130442
0.00126088
0.00120854
0.00114738
0.0010774
0.000998603
0.000911061
0.00081491
0.000710383
0.000597825
0.000477708
0.000350647
0.00021741
7.89181e-05
-6.37477e-05
-0.000209352
-0.000356512
-0.00050371
-0.000649309
-0.000791579
-0.000928715
-0.00105888
-0.00118021
-0.0012909
-0.00138919
-0.00147343
-0.00154213
-0.00159396
-0.00162784
-0.00164292
-0.00163864
-0.00161474
-0.00157129
-0.00150869
-0.00142769
-0.0013294
-0.00121525
-0.00108705
-0.000946981
-0.000797607
-0.000641937
-0.000483501
-0.000326497
-0.000176014
-3.83692e-05
7.842e-05
0.000164056
0.000205376
0.000186274
9.03972e-05
-9.77506e-05
-7.31585e-05
8.47692e-05
0.000318344
0.000590066
0.000874314
0.00115406
0.00141851
0.00166119
0.00187858
0.00206912
0.00223255
0.00236944
0.00248081
0.00256795
0.00263219
0.0026748
0.00269693
0.00269958
0.00268352
0.00264935
0.00259751
0.00252826
0.00244175
0.00233808
0.00221728
0.0020794
0.00192456
0.00175297
0.00156497
0.0013611
0.00114207
0.000908879
0.000662752
0.000405208
0.000138047
-0.000136642
-0.000416489
-0.000698858
-0.000980872
-0.00125944
-0.00153132
-0.00179312
-0.0020414
-0.00227271
-0.00248368
-0.00267105
-0.00283177
-0.00296307
-0.00306251
-0.00312809
-0.00315826
-0.00315199
-0.00310884
-0.00302895
-0.00291312
-0.00276277
-0.00258
-0.00236757
-0.00212893
-0.00186824
-0.00159038
-0.00130109
-0.00100701
-0.000715982
-0.000437266
-0.00018201
3.6178e-05
0.000200577
0.000290795
0.000282542
0.000147282
-8.44115e-05
2.08868e-05
0.000295433
0.000667997
0.00109077
0.00152985
0.00196178
0.0023711
0.00274808
0.00308709
0.00338536
0.00364206
0.00385766
0.00403339
0.00417092
0.00427206
0.00433861
0.00437222
0.0043743
0.00434604
0.00428834
0.00420185
0.00408705
0.00394422
0.00377355
0.00357521
0.00334937
0.00309631
0.00281649
0.00251055
0.00217945
0.00182446
0.00144723
0.0010498
0.000634672
0.000204752
-0.000236597
-0.000685587
-0.00113803
-0.00158937
-0.00203474
-0.00246902
-0.00288691
-0.00328305
-0.00365203
-0.0039886
-0.00428769
-0.00454456
-0.00475491
-0.00491497
-0.00502162
-0.00507248
-0.00506596
-0.00500139
-0.00487903
-0.00470014
-0.00446698
-0.00418289
-0.00385224
-0.00348049
-0.00307422
-0.00264116
-0.00219031
-0.00173207
-0.0012785
-0.000843655
-0.000444011
-9.91315e-05
0.000167646
0.000328588
0.000350959
0.000194132
-3.7527e-05
0.000197358
0.000626881
0.0011703
0.00177166
0.00239011
0.00299658
0.00357129
0.00410137
0.00457908
0.00500033
0.00536363
0.00566922
0.00591846
0.00611335
0.00625615
0.00634912
0.00639441
0.00639389
0.00634912
0.00626134
0.00613148
0.0059602
0.00574798
0.00549518
0.00520211
0.00486915
0.00449684
0.00408593
0.00363752
0.00315309
0.00263461
0.00208455
0.00150595
0.000902476
0.000278369
-0.000361504
-0.00101169
-0.00166618
-0.00231848
-0.00296165
-0.00358842
-0.00419129
-0.00476266
-0.00529492
-0.00578063
-0.00621266
-0.00658434
-0.00688961
-0.00712317
-0.00728062
-0.00735861
-0.00735492
-0.0072686
-0.00710004
-0.00685102
-0.00652478
-0.00612604
-0.00566104
-0.00513756
-0.00456494
-0.00395416
-0.00331792
-0.00267082
-0.00202957
-0.00141339
-0.000844407
-0.000348297
4.49633e-05
0.000300431
0.000377292
0.000224507
4.40994e-05
0.000461262
0.00108703
0.00183465
0.00264225
0.00346361
0.00426508
0.00502322
0.00572241
0.00635297
0.00690958
0.00739008
0.00779447
0.0081242
0.00838152
0.0085691
0.00868968
0.00874585
0.00873993
0.00867386
0.00854922
0.00836722
0.00812876
0.00783453
0.00748507
0.00708094
0.00662277
0.0061114
0.00554802
0.00493424
0.00427222
0.00356472
0.0028152
0.00202787
0.0012077
0.000360482
-0.000507219
-0.00138807
-0.00227403
-0.0031564
-0.00402597
-0.00487305
-0.00568771
-0.00645984
-0.0071794
-0.00783652
-0.00842179
-0.00892637
-0.00934225
-0.00966241
-0.00988103
-0.00999365
-0.00999732
-0.00989077
-0.00967449
-0.00935082
-0.00892404
-0.00840042
-0.00778822
-0.00709775
-0.0063414
-0.0055337
-0.00469136
-0.0038335
-0.00298181
-0.00216087
-0.00139863
-0.000726933
-0.000182264
0.000193567
0.000352439
0.000234975
0.000160464
0.00081447
0.00167966
0.00266605
0.00370794
0.00475529
0.00577106
0.00672898
0.00761123
0.00840656
0.00910862
0.00971469
0.0102246
0.0106399
0.010963
0.0111971
0.0113453
0.0114107
0.0113959
0.0113034
0.011135
0.0108922
0.0105761
0.0101878
0.00972788
0.00919729
0.00859693
0.00792804
0.0071923
0.00639194
0.00552987
0.00460978
0.00363626
0.00261478
0.00155182
0.00045485
-0.000667694
-0.00180642
-0.00295105
-0.00409054
-0.00521313
-0.00630656
-0.00735823
-0.00835533
-0.00928514
-0.0101352
-0.0108935
-0.011549
-0.0120914
-0.0125118
-0.0128029
-0.0129589
-0.012976
-0.0128526
-0.0125892
-0.0121887
-0.0116565
-0.0110004
-0.0102309
-0.00936088
-0.00840609
-0.00738477
-0.00631791
-0.00522935
-0.00414593
-0.0030978
-0.00211876
-0.00124678
-0.00052466
-6.06963e-07
0.000270832
0.000223828
0.00031093
0.00125689
0.00240574
0.00366638
0.00497104
0.00626739
0.00751617
0.00868917
0.00976706
0.0107375
0.0115934
0.0123317
0.0129522
0.0134566
0.0138476
0.0141288
0.0143038
0.0143759
0.0143484
0.0142239
0.0140047
0.0136926
0.013289
0.012795
0.0122117
0.0115402
0.0107818
0.00993828
0.00901176
0.00800519
0.00692234
0.00576794
0.00454775
0.00326867
0.00193879
0.000567381
-0.000835098
-0.00225705
-0.00368583
-0.00510783
-0.00650864
-0.00787322
-0.00918609
-0.0104316
-0.0115941
-0.0126584
-0.0136097
-0.0144344
-0.0151199
-0.0156552
-0.0160312
-0.0162408
-0.0162792
-0.0161441
-0.0158362
-0.0153588
-0.0147184
-0.0139245
-0.0129896
-0.0119297
-0.0107637
-0.00951385
-0.00820548
-0.00686736
-0.00553164
-0.00423411
-0.00301446
-0.00191669
-0.000989689
-0.000287616
0.000129363
0.000190417
0.000494594
0.00178729
0.00326439
0.00483525
0.00643154
0.00799995
0.00950015
0.0109029
0.0121881
0.0133429
0.0143598
0.0152358
0.0159707
0.0165666
0.0170265
0.0173545
0.0175545
0.0176305
0.017586
0.0174241
0.0171473
0.0167576
0.0162569
0.0156464
0.0149276
0.0141018
0.0131708
0.0121367
0.0110024
0.0097716
0.0084489
0.00704014
0.00555238
0.00399402
0.00237483
0.000706011
-0.000999868
-0.00272889
-0.0044659
-0.00619462
-0.00789782
-0.00955752
-0.0111553
-0.0126723
-0.0140899
-0.0153899
-0.0165546
-0.0175676
-0.0184138
-0.0190799
-0.0195548
-0.0198298
-0.019899
-0.0197594
-0.0194116
-0.0188593
-0.0181099
-0.0171747
-0.0160684
-0.0148097
-0.0134211
-0.0119288
-0.0103628
-0.00875669
-0.00714816
-0.00557867
-0.00409382
-0.00274359
-0.00158273
-0.000671002
-7.35822e-05
0.000134659
0.000710424
0.00240375
0.00425352
0.00617069
0.00808762
0.00995121
0.0117211
0.013368
0.0148716
0.0162192
0.0174034
0.0184216
0.0192739
0.0199628
0.0204919
0.0208658
0.0210888
0.0211654
0.0210995
0.0208946
0.0205534
0.0200785
0.0194716
0.0187346
0.017869
0.0168767
0.0157596
0.0145206
0.013163
0.0116914
0.0101114
0.00842986
0.00665528
0.00479758
0.00286829
0.000880592
-0.00115075
-0.00320942
-0.00527765
-0.00733639
-0.00936547
-0.0113439
-0.0132499
-0.0150616
-0.0167572
-0.018315
-0.0197144
-0.020936
-0.0219618
-0.0227761
-0.0233655
-0.0237196
-0.023831
-0.0236961
-0.0233149
-0.0226915
-0.0218343
-0.0207559
-0.0194734
-0.0180085
-0.0163869
-0.014639
-0.0127994
-0.0109069
-0.00900469
-0.00713992
-0.00536416
-0.00373335
-0.00230799
-0.00115321
-0.000338843
5.67236e-05
0.000957341
0.00310399
0.00537025
0.00766962
0.00993615
0.012118
0.0141757
0.0160807
0.0178136
0.019362
0.0207194
0.0218836
0.0228556
0.0236385
0.0242366
0.024655
0.0248986
0.0249724
0.0248808
0.0246275
0.0242158
0.0236483
0.0229271
0.0220544
0.0210318
0.0198617
0.0185464
0.0170893
0.0154944
0.0137671
0.0119138
0.0099428
0.00786374
0.00568819
0.00342947
0.00110278
-0.00127487
-0.0036847
-0.00610628
-0.00851769
-0.0108957
-0.0132162
-0.0154541
-0.0175842
-0.019581
-0.0214198
-0.0230763
-0.0245281
-0.0257541
-0.0267358
-0.0274573
-0.0279062
-0.0280735
-0.0279544
-0.0275483
-0.0268596
-0.0258973
-0.0246756
-0.0232136
-0.0215358
-0.0196715
-0.0176552
-0.0155262
-0.0133285
-0.0111109
-0.00892638
-0.0068326
-0.00489144
-0.00316919
-0.00173625
-0.000666983
-4.3173e-05
0.00123426
0.00388545
0.00661115
0.00932811
0.011973
0.014496
0.0168595
0.0190366
0.0210092
0.0227661
0.024302
0.0256159
0.0267096
0.0275872
0.0282538
0.0287151
0.0289769
0.0290446
0.0289231
0.0286166
0.0281285
0.0274617
0.0266189
0.025602
0.0244135
0.0230556
0.0215314
0.0198445
0.0179998
0.0160032
0.0138624
0.0115867
0.009187
0.00667655
0.00407046
0.00138593
-0.00135776
-0.00413935
-0.00693571
-0.00972198
-0.0124719
-0.0151579
-0.0177516
-0.0202242
-0.0225467
-0.0246906
-0.0266283
-0.0283335
-0.0297821
-0.0309525
-0.0318259
-0.0323876
-0.0326265
-0.0325365
-0.0321164
-0.0313701
-0.0303074
-0.0289435
-0.0272998
-0.0254034
-0.0232872
-0.0209898
-0.0185552
-0.0160329
-0.0134771
-0.0109471
-0.0085066
-0.00622356
-0.00417015
-0.00242218
-0.00105865
-0.000164897
0.00154007
0.00474544
0.00797241
0.0111416
0.014193
0.0170799
0.0197671
0.02223
0.0244525
0.0264255
0.0281453
0.0296121
0.0308293
0.0318021
0.0325365
0.0330394
0.033317
0.0333756
0.0332204
0.032856
0.0322864
0.0315146
0.0305435
0.0293754
0.0280129
0.0264587
0.0247161
0.0227893
0.0206837
0.0184061
0.015965
0.0133708
0.010636
0.00777505
0.00480497
0.00174495
-0.00138349
-0.00455662
-0.00774857
-0.0109315
-0.0140761
-0.0171513
-0.0201252
-0.0229654
-0.025639
-0.0281137
-0.0303581
-0.0323421
-0.0340379
-0.0354204
-0.0364679
-0.0371627
-0.0374915
-0.0374465
-0.0370252
-0.0362312
-0.0350744
-0.0335712
-0.0317449
-0.029625
-0.0272481
-0.0246568
-0.0219001
-0.0190327
-0.016115
-0.0132122
-0.0103944
-0.00773601
-0.00531522
-0.00321351
-0.00151482
-0.000308486
0.00187368
0.00568111
0.0094499
0.0131051
0.0165907
0.0198636
0.022892
0.0256542
0.028137
0.0303335
0.0322422
0.0338653
0.0352078
0.0362763
0.0370782
0.0376211
0.0379126
0.0379592
0.037767
0.0373409
0.0366853
0.0358036
0.0346987
0.0333734
0.0318302
0.0300723
0.0281034
0.025928
0.0235521
0.0209832
0.0182308
0.0153061
0.012223
0.00899748
0.00564815
0.00219618
-0.00133473
-0.00491836
-0.00852618
-0.0121274
-0.0156894
-0.0191778
-0.022557
-0.0257907
-0.0288421
-0.0316748
-0.0342532
-0.0365433
-0.0385132
-0.0401339
-0.0413802
-0.0422311
-0.0426708
-0.0426891
-0.0422821
-0.0414523
-0.0402099
-0.0385719
-0.0365631
-0.0342158
-0.0315698
-0.0286719
-0.025576
-0.0223424
-0.0190375
-0.0157329
-0.0125055
-0.00943612
-0.00660961
-0.00411345
-0.00203699
-0.000474205
0.00223396
0.00668949
0.0110392
0.0152132
0.0191598
0.0228403
0.0262271
0.0293021
0.0320551
0.0344825
0.0365853
0.038368
0.0398376
0.0410025
0.0418715
0.0424536
0.0427571
0.0427896
0.0425576
0.0420668
0.0413216
0.0403259
0.0390829
0.0375953
0.0358662
0.0338988
0.0316971
0.029266
0.026612
0.0237433
0.02067
0.0174045
0.0139616
0.0103588
0.00661634
0.00275717
-0.00119286
-0.00520518
-0.00924855
-0.0132893
-0.0172915
-0.0212173
-0.0250275
-0.0286816
-0.0321389
-0.0353584
-0.0383003
-0.040926
-0.0431992
-0.0450868
-0.0465594
-0.0475924
-0.0481668
-0.0482696
-0.0478948
-0.047044
-0.0457264
-0.0439598
-0.0417704
-0.0391927
-0.0362696
-0.0330524
-0.0295998
-0.0259778
-0.0222591
-0.0185221
-0.0148505
-0.0113325
-0.00805965
-0.00512612
-0.00262731
-0.000662592
0.00261975
0.00776748
0.0127357
0.0174598
0.0218934
0.0260027
0.0297646
0.0331653
0.0361986
0.0388641
0.0411662
0.0431119
0.0447107
0.0459729
0.0469091
0.0475296
0.047844
0.0478606
0.0475869
0.0470289
0.0461916
0.045079
0.0436945
0.0420412
0.0401222
0.0379409
0.0355015
0.0328093
0.0298711
0.0266957
0.0232938
0.0196786
0.0158661
0.011875
0.00772689
0.00344655
-0.000938187
-0.00539646
-0.00989446
-0.0143956
-0.0188608
-0.0232486
-0.027516
-0.0316185
-0.0355109
-0.0391478
-0.0424844
-0.0454775
-0.048086
-0.0502719
-0.0520014
-0.0532455
-0.0539815
-0.0541931
-0.0538716
-0.0530169
-0.0516373
-0.0497505
-0.0473838
-0.0445737
-0.0413665
-0.0378174
-0.0339901
-0.0299566
-0.0257961
-0.0215942
-0.017442
-0.0134352
-0.00967298
-0.00625673
-0.00328866
-0.000874476
0.00302985
0.00891181
0.0145343
0.0198387
0.0247843
0.0293426
0.0334958
0.037235
0.0405582
0.0434693
0.0459758
0.0480881
0.0498183
0.0511791
0.0521828
0.0528416
0.0531662
0.0531661
0.0528493
0.0522226
0.0512914
0.0500601
0.0485322
0.0467109
0.0445994
0.0422013
0.039521
0.0365639
0.0333372
0.0298499
0.0261135
0.0221417
0.0179515
0.0135625
0.00899781
0.00428372
-0.000550086
-0.0054706
-0.0104415
-0.0154235
-0.0203742
-0.0252487
-0.0300002
-0.0345798
-0.0389379
-0.0430242
-0.046789
-0.0501837
-0.0531619
-0.0556806
-0.0577005
-0.0591881
-0.0601159
-0.0604639
-0.0602201
-0.0593818
-0.057956
-0.0559598
-0.0534211
-0.0503784
-0.0468807
-0.0429873
-0.0387672
-0.0342984
-0.0296668
-0.0249657
-0.0202942
-0.015756
-0.0114587
-0.00751161
-0.0040247
-0.001111
0.003463
0.0101191
0.01643
0.0223433
0.0278246
0.0328514
0.0374116
0.0415015
0.0451243
0.048288
0.0510043
0.0532869
0.0551511
0.0566119
0.0576841
0.0583814
0.0587162
0.0586989
0.0583387
0.0576428
0.0566171
0.0552662
0.0535941
0.0516039
0.0492989
0.0466828
0.0437599
0.0405358
0.037018
0.0332156
0.0291404
0.0248069
0.0202326
0.0154381
0.0104475
0.00528862
-7.26883e-06
-0.00540514
-0.0108664
-0.0163489
-0.0218073
-0.0271932
-0.0324558
-0.0375421
-0.0423975
-0.0469669
-0.051195
-0.0550278
-0.0584131
-0.0613019
-0.0636493
-0.0654161
-0.0665697
-0.0670853
-0.066947
-0.0661489
-0.0646958
-0.0626038
-0.0599008
-0.0566269
-0.0528336
-0.0485843
-0.0439532
-0.0390244
-0.0338913
-0.0286549
-0.023423
-0.0183083
-0.0134273
-0.00889835
-0.00483996
-0.00137365
0.00391787
0.0113856
0.018417
0.0249664
0.031006
0.0365198
0.041502
0.0459546
0.0498862
0.0533096
0.0562409
0.0586978
0.0606986
0.0622614
0.0634033
0.0641401
0.0644856
0.0644516
0.0640483
0.0632835
0.0621636
0.0606938
0.0588778
0.0567192
0.0542211
0.0513872
0.0482218
0.0447305
0.0409207
0.0368018
0.0323857
0.0276872
0.0227243
0.0175184
0.0120944
0.00648136
0.000711933
-0.00517704
-0.0111448
-0.0171467
-0.0231344
-0.0290561
-0.0348571
-0.0404799
-0.0458652
-0.0509526
-0.0556812
-0.0599909
-0.063823
-0.0671223
-0.0698375
-0.0719229
-0.07334
-0.0740584
-0.0740574
-0.073327
-0.0718692
-0.0696982
-0.0668414
-0.0633399
-0.0592476
-0.0546317
-0.0495715
-0.0441578
-0.0384915
-0.0326821
-0.0268466
-0.0211075
-0.0155911
-0.0104258
-0.00573981
-0.00166421
0.00439305
0.0127076
0.0204895
0.0277005
0.0343197
0.040338
0.0457563
0.050583
0.0548324
0.0585226
0.0616743
0.0643093
0.0664498
0.0681168
0.0693302
0.0701078
0.0704651
0.0704157
0.0699703
0.0691379
0.0679253
0.066338
0.0643799
0.0620547
0.0593654
0.0563155
0.0529093
0.0491523
0.0450516
0.0406167
0.0358594
0.0307947
0.0254408
0.0198196
0.0139567
0.00788189
0.00162923
-0.00476299
-0.0112521
-0.017791
-0.0243287
-0.03081
-0.0371762
-0.0433657
-0.0493142
-0.0549557
-0.0602233
-0.0650505
-0.0693719
-0.0731251
-0.0762517
-0.078699
-0.0804213
-0.0813819
-0.0815543
-0.0809235
-0.0794874
-0.0772579
-0.0742611
-0.0705383
-0.0661456
-0.0611537
-0.0556472
-0.0497234
-0.0434912
-0.0370695
-0.0305849
-0.0241707
-0.017964
-0.0121043
-0.00673052
-0.00198483
0.00488705
0.014081
0.0226414
0.0305376
0.0377561
0.0442955
0.0501634
0.0553751
0.0599508
0.0639145
0.0672919
0.0701093
0.0723926
0.0741664
0.0754533
0.0762736
0.0766446
0.0765814
0.076096
0.0751981
0.0738952
0.072193
0.0700958
0.067607
0.0647298
0.0614674
0.0578238
0.0538042
0.0494156
0.0446671
0.0395703
0.0341403
0.0283951
0.0223568
0.0160515
0.00950958
0.00276597
-0.00413974
-0.0111632
-0.0182553
-0.0253623
-0.032426
-0.0393839
-0.04617
-0.052715
-0.0589473
-0.0647938
-0.070181
-0.0750365
-0.07929
-0.0828751
-0.0857311
-0.0878046
-0.0890513
-0.0894377
-0.0889428
-0.0875597
-0.0852963
-0.0821771
-0.0782428
-0.0735509
-0.0681755
-0.0622062
-0.0557474
-0.0489162
-0.0418412
-0.0346598
-0.0275168
-0.0205614
-0.0139452
-0.00781927
-0.002338
0.00539828
0.0155015
0.024866
0.0334692
0.0413055
0.0483811
0.0547113
0.0603181
0.0652285
0.0694723
0.0730806
0.0760844
0.078514
0.0803974
0.0817603
0.0826255
0.0830125
0.082938
0.0824152
0.0814548
0.0800649
0.0782515
0.0760191
0.0733712
0.0703108
0.0668407
0.0629647
0.0586876
0.0540158
0.0489581
0.0435257
0.0377332
0.0315986
0.0251438
0.0183949
0.0113827
0.00414271
-0.00328456
-0.0108534
-0.0185129
-0.026207
-0.0338744
-0.0414493
-0.0488612
-0.0560359
-0.062896
-0.0693621
-0.0753533
-0.0807896
-0.0855922
-0.0896861
-0.0930017
-0.0954767
-0.097058
-0.097704
-0.0973866
-0.0960924
-0.0938249
-0.0906052
-0.0864729
-0.0814864
-0.0757224
-0.0692757
-0.0622574
-0.0547936
-0.0470231
-0.039095
-0.0311666
-0.0234004
-0.0159614
-0.00901411
-0.00272653
0.00592508
0.0169645
0.0271564
0.0364865
0.0449574
0.0525833
0.0593873
0.0653989
0.0706517
0.0751818
0.0790261
0.0822206
0.0847998
0.0867958
0.0882375
0.0891503
0.0895561
0.0894732
0.0889163
0.087897
0.0864242
0.0845043
0.0821419
0.0793405
0.0761028
0.0724314
0.0683295
0.0638015
0.0588531
0.0534925
0.0477304
0.0415806
0.0350608
0.0281923
0.0210012
0.0135181
0.00577874
-0.00217567
-0.0102985
-0.0185373
-0.026834
-0.0351247
-0.0433402
-0.0514059
-0.0592427
-0.0667675
-0.073894
-0.0805342
-0.0865996
-0.0920026
-0.0966588
-0.100488
-0.103419
-0.105389
-0.106345
-0.106252
-0.105089
-0.102852
-0.0995591
-0.095247
-0.0899742
-0.0838197
-0.0768828
-0.0692819
-0.0611519
-0.0526427
-0.043916
-0.0351427
-0.0264998
-0.0181671
-0.010324
-0.0031536
0.00646569
0.0184654
0.0295054
0.0395802
0.0487008
0.0568898
0.0641783
0.0706034
0.0762058
0.0810283
0.0851133
0.0885025
0.0912349
0.0933466
0.09487
0.0958334
0.0962611
0.0961732
0.095586
0.0945122
0.0929614
0.0909403
0.088454
0.0855056
0.0820978
0.0782327
0.0739131
0.0691424
0.0639258
0.0582706
0.0521867
0.0456871
0.0387885
0.0315118
0.0238823
0.0159303
0.0076915
-0.000792811
-0.00947533
-0.0183026
-0.0272149
-0.0361459
-0.0450235
-0.0537692
-0.0622991
-0.0705243
-0.0783521
-0.0856866
-0.0924306
-0.0984872
-0.103762
-0.108163
-0.111609
-0.114025
-0.115348
-0.115532
-0.114547
-0.112383
-0.109049
-0.104581
-0.0990349
-0.0924918
-0.0850551
-0.07685
-0.0680208
-0.0587292
-0.0491501
-0.0394694
-0.02988
-0.0205779
-0.0117589
-0.00362271
0.00701826
0.0199991
0.0319055
0.0427407
0.0525244
0.0612879
0.0690704
0.075917
0.0818757
0.0869959
0.0913264
0.0949142
0.0978031
0.100034
0.101642
0.102659
0.103112
0.103023
0.102409
0.101286
0.0996624
0.0975464
0.0949429
0.0918552
0.0882855
0.0842356
0.0797074
0.0747039
0.0692291
0.0632894
0.0568937
0.0500539
0.0427855
0.0351086
0.0270473
0.0186315
0.00989606
0.00088222
-0.0083626
-0.0177843
-0.0273219
-0.0369074
-0.0464657
-0.055915
-0.0651668
-0.0741268
-0.0826955
-0.0907693
-0.098242
-0.105007
-0.110958
-0.115993
-0.120016
-0.122941
-0.124693
-0.125214
-0.124461
-0.122416
-0.119082
-0.114488
-0.108687
-0.101762
-0.0938193
-0.0849909
-0.0754307
-0.0653125
-0.0548258
-0.0441724
-0.0335626
-0.0232104
-0.0133293
-0.00413773
0.00758085
0.0215605
0.0343487
0.0459577
0.0564163
0.0657642
0.0740493
0.0813245
0.0876454
0.0930683
0.0976484
0.101438
0.104487
0.106839
0.108535
0.109609
0.110091
0.110004
0.109369
0.108201
0.106511
0.104307
0.101594
0.0983748
0.0946524
0.0904275
0.0857015
0.0804763
0.074755
0.0685427
0.0618472
0.0546789
0.0470522
0.0389855
0.0305021
0.0216304
0.0124045
0.00286494
-0.0069412
-0.0169597
-0.0271287
-0.037379
-0.0476333
-0.0578067
-0.0678065
-0.0775331
-0.0868805
-0.0957374
-0.103989
-0.111517
-0.118204
-0.123936
-0.128604
-0.132106
-0.134355
-0.135277
-0.134818
-0.132948
-0.12966
-0.124976
-0.118946
-0.111651
-0.103201
-0.0937335
-0.0834123
-0.0724238
-0.060973
-0.049279
-0.037571
-0.0260826
-0.0150471
-0.00470285
0.0081515
0.0231443
0.036827
0.0492211
0.0603643
0.0703052
0.0791
0.0868099
0.0934983
0.0992283
0.104062
0.108057
0.111268
0.113745
0.115532
0.116666
0.117179
0.117099
0.116447
0.11524
0.113489
0.111203
0.108388
0.105047
0.101182
0.0967932
0.0918809
0.0864464
0.0804916
0.0740204
0.0670388
0.059556
0.0515847
0.0431416
0.0342485
0.0249321
0.0152254
0.00516758
-0.005195
-0.0158085
-0.026611
-0.0375323
-0.0484937
-0.0594075
-0.0701775
-0.0806993
-0.0908606
-0.100542
-0.109621
-0.117967
-0.125452
-0.131947
-0.137328
-0.14148
-0.144299
-0.145694
-0.145598
-0.143966
-0.140779
-0.13605
-0.129824
-0.122178
-0.113224
-0.103106
-0.0919961
-0.0800946
-0.0676225
-0.0548177
-0.0419297
-0.0292137
-0.0169247
-0.00532262
0.00872814
0.024745
0.0393321
0.0525203
0.064356
0.0748967
0.0842073
0.0923571
0.0994171
0.105458
0.110548
0.114751
0.118128
0.120732
0.122611
0.123808
0.124356
0.124287
0.123622
0.12238
0.120575
0.118215
0.115307
0.111853
0.107855
0.103314
0.0982275
0.0925972
0.0864233
0.0797081
0.0724561
0.0646748
0.056375
0.0475715
0.038284
0.0285375
0.0183631
0.00779843
-0.00311151
-0.0143138
-0.0257471
-0.0373409
-0.0490155
-0.0606815
-0.0722395
-0.0835807
-0.0945873
-0.105133
-0.115084
-0.124302
-0.132645
-0.13997
-0.146138
-0.151017
-0.154483
-0.15643
-0.156773
-0.155449
-0.152427
-0.147707
-0.141326
-0.133356
-0.123909
-0.113134
-0.101212
-0.0883565
-0.0748058
-0.0608179
-0.0466645
-0.0326241
-0.0189752
-0.00600192
0.00930872
0.0263571
0.0418557
0.0558444
0.0683786
0.0795245
0.0893555
0.0979492
0.105384
0.111739
0.117087
0.121501
0.125044
0.127777
0.129752
0.131013
0.1316
0.131544
0.130871
0.1296
0.127746
0.125319
0.122325
0.118768
0.114649
0.109966
0.10472
0.0989077
0.09253
0.0855872
0.0780822
0.0700202
0.0614102
0.0522647
0.0426012
0.0324425
0.0218173
0.0107613
-0.000682502
-0.0124627
-0.0245189
-0.0367814
-0.04917
-0.0615942
-0.0739524
-0.0861323
-0.0980107
-0.109455
-0.120322
-0.130463
-0.139724
-0.147946
-0.154975
-0.160658
-0.164856
-0.16744
-0.168305
-0.16737
-0.164586
-0.159939
-0.153453
-0.145194
-0.135273
-0.123841
-0.111088
-0.0972406
-0.0825547
-0.06731
-0.0518021
-0.0363349
-0.0212129
-0.00674597
0.00989114
0.0279751
0.0443894
0.0591828
0.0724195
0.0841743
0.094529
0.103569
0.111382
0.118052
0.12366
0.128285
0.131997
0.13486
0.136931
0.138259
0.138886
0.138846
0.138168
0.136873
0.134976
0.132489
0.129418
0.125767
0.121536
0.116725
0.111331
0.105353
0.0987877
0.0916349
0.0838953
0.0755724
0.0666725
0.057206
0.0471877
0.0366378
0.0255825
0.0140548
0.00209534
-0.0102466
-0.0229126
-0.035834
-0.0489313
-0.0621137
-0.0752781
-0.0883095
-0.101081
-0.113452
-0.125274
-0.136386
-0.146621
-0.155807
-0.163771
-0.170341
-0.175357
-0.178669
-0.180148
-0.179691
-0.177228
-0.172726
-0.166197
-0.157697
-0.147329
-0.135248
-0.121651
-0.106777
-0.0909009
-0.0743247
-0.0573701
-0.0403686
-0.0236526
-0.00756033
0.0104733
0.0295935
0.0469248
0.0625248
0.076466
0.0888316
0.0997119
0.1092
0.117391
0.124377
0.130247
0.135083
0.138964
0.141957
0.144124
0.14552
0.146188
0.146168
0.145487
0.144171
0.142237
0.139696
0.136555
0.132819
0.128488
0.12356
0.118033
0.111904
0.105168
0.0978233
0.0898691
0.0813063
0.0721389
0.0623746
0.0520255
0.0411088
0.0296476
0.0176721
0.00521986
-0.00766262
-0.0209194
-0.0344838
-0.0482779
-0.0622114
-0.076181
-0.0900697
-0.103747
-0.117068
-0.129877
-0.142002
-0.153265
-0.163478
-0.172451
-0.179992
-0.185917
-0.190052
-0.192242
-0.192361
-0.190313
-0.186043
-0.179544
-0.170858
-0.160084
-0.147371
-0.132924
-0.116994
-0.0998753
-0.081893
-0.0633968
-0.0447481
-0.0263099
-0.00845088
0.0110533
0.0312069
0.0494538
0.0658599
0.0805057
0.0934825
0.104889
0.114825
0.123395
0.130697
0.136826
0.141874
0.145921
0.149044
0.151308
0.15277
0.153481
0.153479
0.152799
0.151466
0.149497
0.146908
0.143705
0.139892
0.135471
0.130439
0.124792
0.118527
0.111638
0.10412
0.0959723
0.0871921
0.0777811
0.0677444
0.057091
0.0458348
0.0339957
0.0216003
0.0086829
-0.00471349
-0.0185361
-0.0327212
-0.0471931
-0.0618632
-0.076629
-0.0913728
-0.105962
-0.120248
-0.134068
-0.147243
-0.159581
-0.170882
-0.180935
-0.189529
-0.196454
-0.201512
-0.20452
-0.205321
-0.203791
-0.19985
-0.193467
-0.184667
-0.173536
-0.160219
-0.144926
-0.127918
-0.109508
-0.0900456
-0.0699108
-0.0494972
-0.0292009
-0.00942383
0.0116291
0.0328102
0.0519687
0.069178
0.0845265
0.098113
0.110044
0.120427
0.129374
0.136989
0.143377
0.148633
0.152846
0.156096
0.158454
0.159983
0.160734
0.160752
0.160073
0.158724
0.156725
0.154092
0.150832
0.146951
0.142449
0.137323
0.131571
0.125185
0.11816
0.11049
0.102169
0.0931949
0.0835658
0.0732838
0.0623547
0.0507893
0.0386035
0.0258203
0.01247
-0.00140843
-0.015766
-0.0305427
-0.0456662
-0.0610505
-0.076595
-0.092183
-0.107681
-0.122938
-0.137785
-0.152037
-0.165491
-0.177932
-0.189133
-0.198861
-0.20688
-0.212964
-0.2169
-0.218497
-0.2176
-0.214097
-0.207929
-0.199099
-0.187676
-0.173797
-0.157672
-0.139571
-0.119826
-0.0988123
-0.0769408
-0.0546402
-0.0323426
-0.0104857
0.0121988
0.0343985
0.054462
0.0724698
0.088517
0.10271
0.115162
0.12599
0.13531
0.143237
0.149879
0.15534
0.159714
0.163088
0.165537
0.167128
0.167918
0.167955
0.167276
0.165911
0.163884
0.16121
0.1579
0.153957
0.149383
0.144175
0.138329
0.131838
0.124694
0.11689
0.108419
0.0992752
0.0894544
0.0789558
0.067782
0.0559399
0.0434419
0.0303066
0.01656
0.00223661
-0.0126191
-0.0279517
-0.043693
-0.059761
-0.076058
-0.0924696
-0.108863
-0.125086
-0.140967
-0.156314
-0.170916
-0.184544
-0.196954
-0.207891
-0.217096
-0.22431
-0.229288
-0.231803
-0.231663
-0.22872
-0.222882
-0.214122
-0.202486
-0.188101
-0.171169
-0.151972
-0.130855
-0.108222
-0.0845152
-0.0602016
-0.0357521
-0.0116433
0.0127609
0.0359676
0.0569271
0.0757263
0.0924667
0.107261
0.12023
0.131497
0.141187
0.149419
0.156311
0.161971
0.166502
0.169994
0.172529
0.174178
0.175003
0.175054
0.174373
0.172993
0.170938
0.168226
0.164868
0.160869
0.156231
0.15095
0.145023
0.138441
0.131196
0.123278
0.114678
0.105389
0.0954037
0.0847184
0.0733323
0.0612486
0.0484755
0.0350272
0.0209251
0.0061987
-0.00911274
-0.0249589
-0.041277
-0.0579897
-0.0750038
-0.0922084
-0.109473
-0.126647
-0.143557
-0.160006
-0.175777
-0.190628
-0.2043
-0.216518
-0.226995
-0.235443
-0.24158
-0.245141
-0.245892
-0.243643
-0.238262
-0.229687
-0.217936
-0.203115
-0.18542
-0.165133
-0.142617
-0.118301
-0.0926618
-0.0662061
-0.0394473
-0.0129037
0.0133139
0.0375135
0.0593581
0.0789399
0.096366
0.111755
0.125235
0.136935
0.146987
0.155518
0.162652
0.168505
0.173184
0.176787
0.179401
0.181102
0.181956
0.182017
0.181331
0.179932
0.177848
0.175098
0.171695
0.167644
0.162948
0.157604
0.151607
0.144947
0.137617
0.129604
0.120897
0.111488
0.101366
0.0905252
0.0789606
0.0666719
0.0536632
0.0399441
0.025531
0.0104479
-0.00527143
-0.0215828
-0.0384292
-0.0557394
-0.073426
-0.0913832
-0.109485
-0.127582
-0.145503
-0.163049
-0.179997
-0.196096
-0.211073
-0.224633
-0.236464
-0.246246
-0.253659
-0.258398
-0.260182
-0.258773
-0.253992
-0.245735
-0.233984
-0.218816
-0.200415
-0.179061
-0.15513
-0.129074
-0.101407
-0.0726784
-0.043446
-0.0142742
0.0138566
0.0390331
0.0617502
0.0821042
0.100207
0.116183
0.130165
0.142289
0.152695
0.161516
0.168883
0.174918
0.179737
0.183441
0.186125
0.187869
0.188744
0.188808
0.18811
0.186689
0.184573
0.181784
0.178337
0.174237
0.169489
0.164089
0.158031
0.151307
0.143907
0.135817
0.127026
0.117521
0.107291
0.0963252
0.0846169
0.0721614
0.0589586
0.0450133
0.0303368
0.0149475
-0.00112714
-0.0178493
-0.0351689
-0.0530217
-0.0713271
-0.0899859
-0.108878
-0.127859
-0.146761
-0.165385
-0.183504
-0.200863
-0.217175
-0.232127
-0.245384
-0.256595
-0.265401
-0.271451
-0.274415
-0.274002
-0.269979
-0.26219
-0.250572
-0.235168
-0.216138
-0.193756
-0.168405
-0.140562
-0.110777
-0.0796423
-0.0477665
-0.0157625
0.0143881
0.0405242
0.0640997
0.085214
0.103983
0.120535
0.135009
0.147548
0.158296
0.167396
0.174984
0.18119
0.186136
0.18993
0.192672
0.194448
0.195334
0.195392
0.194675
0.193224
0.191072
0.188242
0.184749
0.180602
0.175805
0.170355
0.164246
0.157469
0.150013
0.141865
0.13301
0.123434
0.113123
0.102064
0.0902475
0.0776643
0.0643102
0.0501855
0.035296
0.0196542
0.0032811
-0.0137924
-0.0315238
-0.0498567
-0.0687186