#           y            Uy
         0.05             0
         0.05      0.015427
         0.05     0.0308541
         0.05     0.0462811
         0.05     0.0617082
         0.05      0.076918
         0.05     0.0880009
         0.05     0.0990837
         0.05      0.110167
         0.05      0.121249
         0.05      0.131883
         0.05       0.13847
         0.05      0.145057
         0.05      0.151644
         0.05       0.15823
         0.05      0.164204
         0.05      0.166705
         0.05      0.169206
         0.05      0.171706
         0.05      0.174207
         0.05      0.176025
         0.05      0.175109
         0.05      0.174194
         0.05      0.173278
         0.05      0.172363
         0.05      0.170772
         0.05      0.167156
         0.05       0.16354
         0.05      0.159924
         0.05      0.156308
         0.05      0.152079
         0.05       0.14642
         0.05      0.140761
         0.05      0.135102
         0.05      0.129443
         0.05      0.123266
         0.05      0.116127
         0.05      0.108988
         0.05      0.101849
         0.05     0.0947097
         0.05     0.0871669
         0.05     0.0790185
         0.05     0.0708701
         0.05     0.0627217
         0.05     0.0545733
         0.05     0.0461541
         0.05     0.0374039
         0.05     0.0286538
         0.05     0.0199036
         0.05     0.0111535
         0.05    0.00229689
         0.05   -0.00666618
         0.05    -0.0156292
         0.05    -0.0245923
         0.05    -0.0335554
         0.05    -0.0424041
         0.05    -0.0511592
         0.05    -0.0599144
         0.05    -0.0686695
         0.05    -0.0774246
         0.05    -0.0857526
         0.05    -0.0937958
         0.05     -0.101839
         0.05     -0.109882
         0.05     -0.117926
         0.05     -0.125097
         0.05     -0.131799
         0.05     -0.138501
         0.05     -0.145203
         0.05     -0.151905
         0.05     -0.157127
         0.05     -0.161715
         0.05     -0.166303
         0.05     -0.170891
         0.05     -0.175479
         0.05     -0.177815
         0.05       -0.1794
         0.05     -0.180986
         0.05     -0.182571
         0.05     -0.184156
         0.05     -0.182615
         0.05     -0.180291
         0.05     -0.177968
         0.05     -0.175645
         0.05     -0.173322
         0.05     -0.167054
         0.05      -0.16009
         0.05     -0.153126
         0.05     -0.146162
         0.05     -0.139198
         0.05     -0.127841
         0.05     -0.115995
         0.05      -0.10415
         0.05    -0.0923051
         0.05    -0.0804599
         0.05    -0.0645395
         0.05    -0.0484046
         0.05    -0.0322697
         0.05    -0.0161349
         0.05             0