/*--------------------------------*- C++ -*----------------------------------*\
  =========                 |
  \\      /  F ield         | OpenFOAM: The Open Source CFD Toolbox
   \\    /   O peration     | Website:  https://openfoam.org
    \\  /    A nd           | Version:  dev
     \\/     M anipulation  |
\*---------------------------------------------------------------------------*/
FoamFile
{
    format      ascii;
    class       surfaceScalarField;
    location    "38.25";
    object      phi;
}
// * * * * * * * * * * * * * * * * * * * * * * * * * * * * * * * * * * * * * //

dimensions      [0 3 -1 0 0 0 0];

internalField   nonuniform List<scalar> 
10224
(
3.38683e-08
-3.48276e-08
8.79114e-08
-5.40479e-08
1.24472e-07
-3.65677e-08
1.25441e-07
-9.71908e-10
8.38145e-08
4.16262e-08
-1.68353e-09
8.54988e-08
-1.29227e-07
1.27544e-07
-2.95514e-07
1.66287e-07
-4.96482e-07
2.00968e-07
-7.27827e-07
2.31346e-07
-9.8528e-07
2.57453e-07
-1.26475e-06
2.79467e-07
-1.56239e-06
2.97641e-07
-1.87465e-06
3.12259e-07
-2.19825e-06
3.23605e-07
-2.5302e-06
3.31946e-07
-2.86772e-06
3.37519e-07
-3.20824e-06
3.40525e-07
-3.54937e-06
3.41125e-07
-3.88881e-06
3.39441e-07
-4.22437e-06
3.35559e-07
-4.5539e-06
3.29531e-07
-4.87528e-06
3.21382e-07
-5.1864e-06
3.11116e-07
-5.48511e-06
2.98719e-07
-5.76929e-06
2.84171e-07
-6.03674e-06
2.67451e-07
-6.28528e-06
2.4854e-07
-6.51271e-06
2.27435e-07
-6.71686e-06
2.0415e-07
-6.89558e-06
1.78722e-07
-7.0468e-06
1.5122e-07
-7.16855e-06
1.21746e-07
-7.25899e-06
9.04394e-08
-7.31647e-06
5.74803e-08
-7.33956e-06
2.30917e-08
-7.3271e-06
-1.24605e-08
-7.27823e-06
-4.88679e-08
-7.19245e-06
-8.57809e-08
-7.06964e-06
-1.22812e-07
-6.9101e-06
-1.59541e-07
-6.71458e-06
-1.95518e-07
-6.48431e-06
-2.30273e-07
-6.22099e-06
-2.63322e-07
-5.92681e-06
-2.94178e-07
-5.60445e-06
-3.22359e-07
-5.25705e-06
-3.47398e-07
-4.8882e-06
-3.68857e-07
-4.50187e-06
-3.86334e-07
-4.10239e-06
-3.99475e-07
-3.69441e-06
-4.07983e-07
-3.28278e-06
-4.1163e-07
-2.87252e-06
-4.10259e-07
-2.46873e-06
-4.03796e-07
-2.07648e-06
-3.9225e-07
-1.70076e-06
-3.75717e-07
-1.34638e-06
-3.54383e-07
-1.01785e-06
-3.28521e-07
-7.19359e-07
-2.98494e-07
-4.54608e-07
-2.64751e-07
-2.26778e-07
-2.2783e-07
-3.84144e-08
-1.88364e-07
1.08676e-07
-1.47091e-07
2.13557e-07
-1.04881e-07
2.76343e-07
-6.27869e-08
2.98468e-07
-2.21254e-08
2.83112e-07
1.53556e-08
2.35875e-07
4.7238e-08
1.6582e-07
7.00557e-08
8.72485e-08
7.85739e-08
2.25457e-08
6.47046e-08
2.25456e-08
5.39574e-08
-8.87895e-08
1.12503e-07
-1.12606e-07
1.18328e-07
-4.23981e-08
3.90298e-08
7.83265e-08
-1.41806e-07
2.22464e-07
-4.29507e-07
3.73202e-07
-8.22312e-07
5.2035e-07
-1.31408e-06
6.5805e-07
-1.89623e-06
7.83122e-07
-2.55896e-06
8.94077e-07
-3.29199e-06
9.90483e-07
-4.08507e-06
1.07255e-06
-4.92827e-06
1.14084e-06
-5.81215e-06
1.19614e-06
-6.72782e-06
1.23927e-06
-7.66695e-06
1.27107e-06
-8.62173e-06
1.2923e-06
-9.58481e-06
1.30361e-06
-1.05492e-05
1.30555e-06
-1.15084e-05
1.29856e-06
-1.24558e-05
1.28295e-06
-1.33851e-05
1.25892e-06
-1.42903e-05
1.22658e-06
-1.51652e-05
1.186e-06
-1.60037e-05
1.13717e-06
-1.67996e-05
1.08006e-06
-1.75468e-05
1.01465e-06
-1.82392e-05
9.40942e-07
-1.88707e-05
8.58973e-07
-1.94354e-05
7.68861e-07
-1.99275e-05
6.70809e-07
-2.03414e-05
5.65129e-07
-2.06719e-05
4.52253e-07
-2.09142e-05
3.32752e-07
-2.10641e-05
2.0734e-07
-2.11179e-05
7.688e-08
-2.10727e-05
-5.76104e-08
-2.09266e-05
-1.94966e-07
-2.06785e-05
-3.3388e-07
-2.03284e-05
-4.72913e-07
-1.98775e-05
-6.10512e-07
-1.9328e-05
-7.45032e-07
-1.86835e-05
-8.74755e-07
-1.79489e-05
-9.97924e-07
-1.71303e-05
-1.11278e-06
-1.62351e-05
-1.21757e-06
-1.52718e-05
-1.31063e-06
-1.42503e-05
-1.39039e-06
-1.31812e-05
-1.4554e-06
-1.20763e-05
-1.50441e-06
-1.09479e-05
-1.53637e-06
-9.80909e-06
-1.55046e-06
-8.6732e-06
-1.54615e-06
-7.55382e-06
-1.52318e-06
-6.46445e-06
-1.48162e-06
-5.41834e-06
-1.42183e-06
-4.42818e-06
-1.34454e-06
-3.50594e-06
-1.25077e-06
-2.66255e-06
-1.14188e-06
-1.90771e-06
-1.01959e-06
-1.2496e-06
-8.85938e-07
-6.94625e-07
-7.43344e-07
-2.47078e-07
-5.94638e-07
9.11903e-08
-4.43152e-07
3.21264e-07
-2.92862e-07
4.47745e-07
-1.48606e-07
4.79636e-07
-1.65331e-08
4.31421e-07
9.54558e-08
3.2455e-07
1.76926e-07
1.8905e-07
2.1407e-07
6.43953e-08
1.89352e-07
8.69421e-08
3.73783e-08
-1.26175e-07
4.33893e-08
-1.18623e-07
-4.31932e-08
4.41842e-08
-2.58661e-07
2.93797e-07
-6.22639e-07
5.86444e-07
-1.14225e-06
8.92812e-07
-1.81576e-06
1.19386e-06
-2.63551e-06
1.4778e-06
-3.59013e-06
1.73774e-06
-4.6661e-06
1.97005e-06
-5.84884e-06
2.17322e-06
-7.12345e-06
2.34716e-06
-8.47524e-06
2.49263e-06
-9.88995e-06
2.61084e-06
-1.13539e-05
2.70327e-06
-1.28543e-05
2.77142e-06
-1.43787e-05
2.81671e-06
-1.59155e-05
2.84041e-06
-1.74536e-05
2.8436e-06
-1.89821e-05
2.82714e-06
-2.04909e-05
2.79167e-06
-2.19696e-05
2.73764e-06
-2.34083e-05
2.66533e-06
-2.47972e-05
2.5749e-06
-2.61265e-05
2.46639e-06
-2.73862e-05
2.33985e-06
-2.85669e-05
2.19529e-06
-2.96587e-05
2.03281e-06
-3.06524e-05
1.85259e-06
-3.15385e-05
1.65497e-06
-3.23081e-05
1.44047e-06
-3.29529e-05
1.20985e-06
-3.34647e-05
9.64122e-07
-3.38365e-05
7.04562e-07
-3.4062e-05
4.32761e-07
-3.41357e-05
1.50614e-07
-3.40536e-05
-1.39675e-07
-3.3813e-05
-4.35598e-07
-3.34125e-05
-7.34359e-07
-3.28525e-05
-1.0329e-06
-3.21351e-05
-1.32794e-06
-3.12641e-05
-1.616e-06
-3.02454e-05
-1.89348e-06
-2.90866e-05
-2.15671e-06
-2.77974e-05
-2.402e-06
-2.63893e-05
-2.62572e-06
-2.48755e-05
-2.8244e-06
-2.32711e-05
-2.99477e-06
-2.15927e-05
-3.13385e-06
-1.9858e-05
-3.23905e-06
-1.80862e-05
-3.30819e-06
-1.62971e-05
-3.33962e-06
-1.4511e-05
-3.33223e-06
-1.27486e-05
-3.28554e-06
-1.10305e-05
-3.19969e-06
-9.37686e-06
-3.07552e-06
-7.80685e-06
-2.91454e-06
-6.33865e-06
-2.71897e-06
-4.98879e-06
-2.49174e-06
-3.77186e-06
-2.23651e-06
-2.70012e-06
-1.95768e-06
-1.78303e-06
-1.66044e-06
-1.02681e-06
-1.35086e-06
-4.33941e-07
-1.03602e-06
-2.5056e-09
-7.24298e-07
2.74585e-07
-4.25696e-07
4.10401e-07
-1.52348e-07
4.25195e-07
8.06642e-08
3.47607e-07
2.54515e-07
2.15856e-07
3.4582e-07
7.86753e-08
3.26528e-07
1.65619e-07
1.93014e-09
-1.28108e-07
-7.8908e-08
-3.77851e-08
-2.97614e-07
2.62892e-07
-6.87931e-07
6.84115e-07
-1.26819e-06
1.1667e-06
-2.04466e-06
1.66928e-06
-3.01455e-06
2.16375e-06
-4.16862e-06
2.63187e-06
-5.49326e-06
3.06238e-06
-6.97213e-06
3.44892e-06
-8.58739e-06
3.78848e-06
-1.03206e-05
4.08033e-06
-1.21531e-05
4.32518e-06
-1.40669e-05
4.52461e-06
-1.60443e-05
4.68067e-06
-1.80684e-05
4.79553e-06
-2.0123e-05
4.87135e-06
-2.21927e-05
4.91006e-06
-2.42624e-05
4.91334e-06
-2.63178e-05
4.88255e-06
-2.83449e-05
4.81873e-06
-3.03299e-05
4.72264e-06
-3.22593e-05
4.59478e-06
-3.41199e-05
4.43547e-06
-3.58984e-05
4.24491e-06
-3.75818e-05
4.02322e-06
-3.91571e-05
3.77057e-06
-4.06115e-05
3.48723e-06
-4.19326e-05
3.17366e-06
-4.31081e-05
2.83055e-06
-4.41266e-05
2.45893e-06
-4.49769e-05
2.0602e-06
-4.5649e-05
1.63617e-06
-4.61336e-05
1.18913e-06
-4.64227e-05
7.21858e-07
-4.65097e-05
2.37633e-07
-4.63896e-05
-2.5976e-07
-4.60591e-05
-7.66042e-07
-4.5517e-05
-1.27647e-06
-4.4764e-05
-1.78589e-06
-4.38032e-05
-2.28876e-06
-4.26399e-05
-2.77928e-06
-4.1282e-05
-3.25142e-06
-3.97397e-05
-3.69904e-06
-3.80257e-05
-4.11601e-06
-3.6155e-05
-4.49633e-06
-3.41452e-05
-4.83421e-06
-3.20158e-05
-5.12424e-06
-2.97881e-05
-5.36152e-06
-2.74854e-05
-5.54174e-06
-2.51323e-05
-5.66132e-06
-2.27543e-05
-5.71754e-06
-2.0378e-05
-5.7086e-06
-1.80298e-05
-5.6337e-06
-1.57364e-05
-5.49315e-06
-1.35235e-05
-5.28835e-06
-1.14162e-05
-5.02188e-06
-9.43766e-06
-4.69751e-06
-7.6092e-06
-4.3202e-06
-5.94958e-06
-3.89614e-06
-4.47449e-06
-3.43277e-06
-3.19604e-06
-2.93889e-06
-2.12219e-06
-2.4247e-06
-1.25614e-06
-1.90207e-06
-5.95632e-07
-1.38481e-06
-1.32219e-07
-8.8911e-07
1.49611e-07
-4.34178e-07
2.73331e-07
-4.30566e-08
2.71419e-07
2.56426e-07
1.86395e-07
4.30845e-07
7.22472e-08
4.40676e-07
2.37866e-07
-4.20436e-08
-8.60648e-08
-2.30029e-07
1.50202e-07
-6.06596e-07
6.39462e-07
-1.19835e-06
1.27587e-06
-2.01904e-06
1.98739e-06
-3.07184e-06
2.72208e-06
-4.35157e-06
3.44349e-06
-5.8468e-06
4.1271e-06
-7.54166e-06
4.75723e-06
-9.41733e-06
5.32459e-06
-1.14533e-05
5.82441e-06
-1.3628e-05
6.2551e-06
-1.592e-05
6.61714e-06
-1.83077e-05
6.91234e-06
-2.07703e-05
7.14325e-06
-2.32875e-05
7.31269e-06
-2.58396e-05
7.42349e-06
-2.84078e-05
7.47829e-06
-3.09739e-05
7.47937e-06
-3.352e-05
7.42864e-06
-3.60288e-05
7.32757e-06
-3.84834e-05
7.17728e-06
-4.08672e-05
6.97856e-06
-4.31637e-05
6.73193e-06
-4.53565e-05
6.43777e-06
-4.74297e-05
6.09641e-06
-4.93674e-05
5.70825e-06
-5.1154e-05
5.27384e-06
-5.27744e-05
4.79403e-06
-5.42139e-05
4.27003e-06
-5.54585e-05
3.70353e-06
-5.6495e-05
3.09677e-06
-5.73115e-05
2.45264e-06
-5.7897e-05
1.77466e-06
-5.82423e-05
1.06709e-06
-5.83396e-05
3.34928e-07
-5.81832e-05
-4.16127e-07
-5.77696e-05
-1.17965e-06
-5.70975e-05
-1.94856e-06
-5.61682e-05
-2.71517e-06
-5.49857e-05
-3.47129e-06
-5.35567e-05
-4.20831e-06
-5.18907e-05
-4.91735e-06
-5.00004e-05
-5.58937e-06
-4.79011e-05
-6.21536e-06
-4.56109e-05
-6.78649e-06
-4.31508e-05
-7.2943e-06
-4.05442e-05
-7.73085e-06
-3.78168e-05
-8.08894e-06
-3.49962e-05
-8.36229e-06
-3.21119e-05
-8.54567e-06
-2.91943e-05
-8.63508e-06
-2.6275e-05
-8.6279e-06
-2.33857e-05
-8.523e-06
-2.05581e-05
-8.32083e-06
-1.78229e-05
-8.0235e-06
-1.521e-05
-7.63484e-06
-1.2747e-05
-7.16044e-06
-1.04595e-05
-6.60769e-06
-8.36989e-06
-5.98577e-06
-6.49692e-06
-5.30574e-06
-4.8552e-06
-4.58061e-06
-3.45446e-06
-3.82544e-06
-2.29892e-06
-3.05761e-06
-1.38662e-06
-2.29712e-06
-7.08696e-07
-1.56704e-06
-2.48668e-07
-8.94207e-07
1.8329e-08
-3.10055e-07
1.26365e-07
1.4839e-07
1.19602e-07
4.3761e-07
5.36932e-08
5.06587e-07
2.9156e-07
-8.94424e-08
3.37822e-09
-3.9539e-07
4.56151e-07
-9.45244e-07
1.18932e-06
-1.7556e-06
2.08623e-06
-2.83327e-06
3.06506e-06
-4.17649e-06
4.0653e-06
-5.77641e-06
5.04341e-06
-7.61865e-06
5.96933e-06
-9.68473e-06
6.82331e-06
-1.19533e-05
7.59321e-06
-1.44014e-05
8.2725e-06
-1.7005e-05
8.85866e-06
-1.97397e-05
9.35187e-06
-2.25814e-05
9.75405e-06
-2.55064e-05
1.00682e-05
-2.84914e-05
1.02977e-05
-3.15139e-05
1.0446e-05
-3.45521e-05
1.05165e-05
-3.75847e-05
1.0512e-05
-4.05911e-05
1.0435e-05
-4.3551e-05
1.02874e-05
-4.64445e-05
1.00708e-05
-4.92521e-05
9.78617e-06
-5.19545e-05
9.43436e-06
-5.45328e-05
9.01599e-06
-5.6968e-05
8.53167e-06
-5.92419e-05
7.9821e-06
-6.13363e-05
7.36824e-06
-6.32337e-05
6.69144e-06
-6.49173e-05
5.95358e-06
-6.63709e-05
5.15719e-06
-6.75797e-05
4.30554e-06
-6.85298e-05
3.40278e-06
-6.92091e-05
2.45393e-06
-6.9607e-05
1.46499e-06
-6.9715e-05
4.42927e-07
-6.95268e-05
-6.04309e-07
-6.90386e-05
-1.66784e-06
-6.82493e-05
-2.7379e-06
-6.71605e-05
-3.80394e-06
-6.57771e-05
-4.85473e-06
-6.41069e-05
-5.87851e-06
-6.21611e-05
-6.86316e-06
-5.99541e-05
-7.79637e-06
-5.75036e-05
-8.66587e-06
-5.48304e-05
-9.45967e-06
-5.19584e-05
-1.01663e-05
-4.89144e-05
-1.07749e-05
-4.57277e-05
-1.12757e-05
-4.24297e-05
-1.16602e-05
-3.9054e-05
-1.19214e-05
-3.56354e-05
-1.20537e-05
-3.22098e-05
-1.20535e-05
-2.88133e-05
-1.19194e-05
-2.54822e-05
-1.1652e-05
-2.22516e-05
-1.12541e-05
-1.91555e-05
-1.07309e-05
-1.62259e-05
-1.00901e-05
-1.34919e-05
-9.34172e-06
-1.09793e-05
-8.49838e-06
-8.70987e-06
-7.57515e-06
-6.70072e-06
-6.58976e-06
-4.96352e-06
-5.56264e-06
-3.50393e-06
-4.51721e-06
-2.32091e-06
-3.48014e-06
-1.40607e-06
-2.48188e-06
-7.43103e-07
-1.55718e-06
-3.07152e-07
-7.46007e-07
-6.42273e-08
-9.45349e-08
2.94442e-08
3.4394e-07
2.83426e-08
5.0769e-07
3.19903e-07
-1.37663e-07
1.41042e-07
-5.66412e-07
8.84901e-07
-1.29773e-06
1.92063e-06
-2.3367e-06
3.1252e-06
-3.68165e-06
4.41e-06
-5.3245e-06
5.70816e-06
-7.25166e-06
6.97056e-06
-9.44498e-06
8.16266e-06
-1.18829e-05
9.26125e-06
-1.45415e-05
1.02518e-05
-1.73951e-05
1.11261e-05
-2.04174e-05
1.18809e-05
-2.35816e-05
1.25161e-05
-2.68611e-05
1.30336e-05
-3.02297e-05
1.34368e-05
-3.36618e-05
1.37297e-05
-3.71322e-05
1.39164e-05
-4.06166e-05
1.40008e-05
-4.4091e-05
1.39865e-05
-4.75323e-05
1.38763e-05
-5.09176e-05
1.36727e-05
-5.42244e-05
1.33776e-05
-5.74306e-05
1.29924e-05
-6.05145e-05
1.25182e-05
-6.34545e-05
1.1956e-05
-6.62295e-05
1.13067e-05
-6.88188e-05
1.05714e-05
-7.12021e-05
9.7515e-06
-7.33597e-05
8.84904e-06
-7.52728e-05
7.8667e-06
-7.69236e-05
6.80797e-06
-7.82954e-05
5.67736e-06
-7.9373e-05
4.48044e-06
-8.0143e-05
3.22394e-06
-8.05939e-05
1.91583e-06
-8.07163e-05
5.65301e-07
-8.05034e-05
-8.17211e-07
-7.99511e-05
-2.22009e-06
-7.90584e-05
-3.63061e-06
-7.78273e-05
-5.03506e-06
-7.62632e-05
-6.41885e-06
-7.43749e-05
-7.76678e-06
-7.21749e-05
-9.06315e-06
-6.96792e-05
-1.02921e-05
-6.69074e-05
-1.14377e-05
-6.38825e-05
-1.24845e-05
-6.0631e-05
-1.34178e-05
-5.71824e-05
-1.42235e-05
-5.35691e-05
-1.4889e-05
-4.9826e-05
-1.54033e-05
-4.59902e-05
-1.57572e-05
-4.21001e-05
-1.59437e-05
-3.81957e-05
-1.5958e-05
-3.4317e-05
-1.57981e-05
-3.05043e-05
-1.54648e-05
-2.67967e-05
-1.49616e-05
-2.32323e-05
-1.42953e-05
-1.98467e-05
-1.34757e-05
-1.66726e-05
-1.25158e-05
-1.37393e-05
-1.14318e-05
-1.10713e-05
-1.02431e-05
-8.68858e-06
-8.97251e-06
-6.60493e-06
-7.64628e-06
-4.82793e-06
-6.29421e-06
-3.35805e-06
-4.95002e-06
-2.1882e-06
-3.65173e-06
-1.30315e-06
-2.44223e-06
-6.79153e-07
-1.37e-06
-2.83566e-07
-4.90122e-07
-7.45108e-08
1.34885e-07
-5.56711e-10
4.33736e-07
3.19345e-07
-1.85459e-07
3.265e-07
-7.38205e-07
1.43765e-06
-1.65426e-06
2.83668e-06
-2.92663e-06
4.39757e-06
-4.54424e-06
6.02762e-06
-6.49178e-06
7.65569e-06
-8.75e-06
9.22878e-06
-1.12964e-05
1.07091e-05
-1.41058e-05
1.20707e-05
-1.71513e-05
1.32973e-05
-2.04047e-05
1.43795e-05
-2.38372e-05
1.53134e-05
-2.74198e-05
1.60987e-05
-3.11237e-05
1.67375e-05
-3.49205e-05
1.72336e-05
-3.87824e-05
1.75916e-05
-4.2682e-05
1.7816e-05
-4.65926e-05
1.79115e-05
-5.04883e-05
1.78822e-05
-5.43434e-05
1.77314e-05
-5.81328e-05
1.74621e-05
-6.18319e-05
1.70766e-05
-6.54162e-05
1.65767e-05
-6.88617e-05
1.59637e-05
-7.21448e-05
1.52391e-05
-7.52421e-05
1.44041e-05
-7.81309e-05
1.34602e-05
-8.0789e-05
1.24096e-05
-8.31948e-05
1.12548e-05
-8.53278e-05
9.99965e-06
-8.71684e-05
8.6486e-06
-8.86986e-05
7.20755e-06
-8.99018e-05
5.68367e-06
-9.07635e-05
4.08559e-06
-9.12711e-05
2.42342e-06
-9.14145e-05
7.08775e-07
-9.11865e-05
-1.04521e-06
-9.05827e-05
-2.82394e-06
-8.96018e-05
-4.61152e-06
-8.82461e-05
-6.39078e-06
-8.65213e-05
-8.14359e-06
-8.44371e-05
-9.85095e-06
-8.20069e-05
-1.14934e-05
-7.92479e-05
-1.30511e-05
-7.61812e-05
-1.45044e-05
-7.28318e-05
-1.5834e-05
-6.92281e-05
-1.70215e-05
-6.54021e-05
-1.80495e-05
-6.13888e-05
-1.89023e-05
-5.72261e-05
-1.9566e-05
-5.29541e-05
-2.00292e-05
-4.86148e-05
-2.0283e-05
-4.42514e-05
-2.03214e-05
-3.99078e-05
-2.01417e-05
-3.56279e-05
-1.97446e-05
-3.14548e-05
-1.91347e-05
-2.74302e-05
-1.832e-05
-2.35933e-05
-1.73126e-05
-1.99805e-05
-1.61286e-05
-1.66244e-05
-1.47879e-05
-1.35528e-05
-1.33147e-05
-1.07883e-05
-1.1737e-05
-8.34759e-06
-1.0087e-05
-6.24044e-06
-8.40136e-06
-4.46948e-06
-6.72098e-06
-3.02955e-06
-5.09166e-06
-1.90732e-06
-3.56446e-06
-1.08101e-06
-2.19631e-06
-5.20232e-07
-1.0509e-06
-1.86028e-07
-1.99319e-07
-3.10474e-08
2.78754e-07
2.88298e-07
-2.32187e-07
5.58688e-07
-9.08006e-07
2.11346e-06
-2.00884e-06
3.93752e-06
-3.51564e-06
5.90437e-06
-5.40752e-06
7.9195e-06
-7.66133e-06
9.9095e-06
-1.02516e-05
1.18191e-05
-1.31509e-05
1.36083e-05
-1.63301e-05
1.52499e-05
-1.97589e-05
1.67261e-05
-2.34065e-05
1.80271e-05
-2.72415e-05
1.91484e-05
-3.12328e-05
2.009e-05
-3.53496e-05
2.08543e-05
-3.95614e-05
2.14454e-05
-4.38384e-05
2.18686e-05
-4.81514e-05
2.2129e-05
-5.24718e-05
2.22319e-05
-5.67715e-05
2.21819e-05
-6.1023e-05
2.19829e-05
-6.51992e-05
2.16383e-05
-6.92734e-05
2.11508e-05
-7.32192e-05
2.05225e-05
-7.70108e-05
1.97553e-05
-8.06225e-05
1.88508e-05
-8.40291e-05
1.78107e-05
-8.7206e-05
1.66371e-05
-9.01293e-05
1.53328e-05
-9.27757e-05
1.39013e-05
-9.51231e-05
1.2347e-05
-9.71505e-05
1.0676e-05
-9.88384e-05
8.89548e-06
-0.000100169
7.0144e-06
-0.000101127
5.04338e-06
-0.000101698
2.99483e-06
-0.000101873
8.82965e-07
-0.000101642
-1.27621e-06
-0.000101
-3.46498e-06
-9.9948e-05
-5.66403e-06
-9.84862e-05
-7.85258e-06
-9.66211e-05
-1.00087e-05
-9.43627e-05
-1.21094e-05
-9.1725e-05
-1.41311e-05
-8.87262e-05
-1.60499e-05
-8.53885e-05
-1.7842e-05
-8.17384e-05
-1.94841e-05
-7.7806e-05
-2.09539e-05
-7.36252e-05
-2.22302e-05
-6.92335e-05
-2.3294e-05
-6.46712e-05
-2.41284e-05
-5.99812e-05
-2.47192e-05
-5.52086e-05
-2.50556e-05
-5.03999e-05
-2.51301e-05
-4.56024e-05
-2.49391e-05
-4.08637e-05
-2.44834e-05
-3.62304e-05
-2.3768e-05
-3.17479e-05
-2.28024e-05
-2.74593e-05
-2.16011e-05
-2.34047e-05
-2.01832e-05
-1.96201e-05
-1.85725e-05
-1.61368e-05
-1.6798e-05
-1.29807e-05
-1.48931e-05
-1.01713e-05
-1.28964e-05
-7.72139e-06
-1.08513e-05
-5.6362e-06
-8.80618e-06
-3.91313e-06
-6.81474e-06
-2.54138e-06
-4.93621e-06
-1.50179e-06
-3.2359e-06
-7.66922e-07
-1.78577e-06
-3.01291e-07
-6.64952e-07
-6.20264e-08
3.94884e-08
2.2627e-07
-2.7757e-07
8.36258e-07
-1.07428e-06
2.91017e-06
-2.35784e-06
5.22108e-06
-4.09743e-06
7.64396e-06
-6.2623e-06
1.00844e-05
-8.82118e-06
1.24684e-05
-1.1742e-05
1.47399e-05
-1.4992e-05
1.68583e-05
-1.85377e-05
1.87956e-05
-2.23454e-05
2.05338e-05
-2.63812e-05
2.20629e-05
-3.06114e-05
2.33786e-05
-3.50025e-05
2.44812e-05
-3.95218e-05
2.53736e-05
-4.41371e-05
2.60607e-05
-4.88167e-05
2.65482e-05
-5.35297e-05
2.6842e-05
-5.82457e-05
2.6948e-05
-6.29352e-05
2.68713e-05
-6.75686e-05
2.66164e-05
-7.21174e-05
2.61871e-05
-7.65531e-05
2.55865e-05
-8.08476e-05
2.4817e-05
-8.49732e-05
2.3881e-05
-8.89028e-05
2.27803e-05
-9.26094e-05
2.15173e-05
-9.60669e-05
2.00946e-05
-9.92497e-05
1.85156e-05
-0.000102133
1.67846e-05
-0.000104693
1.49073e-05
-0.000106908
1.28909e-05
-0.000108757
1.07442e-05
-0.000110221
8.47806e-06
-0.000111282
6.1051e-06
-0.000111928
3.64018e-06
-0.000112145
1.10022e-06
-0.000111925
-1.49578e-06
-0.000111263
-4.12682e-06
-0.000110157
-6.77003e-06
-0.000108609
-9.40086e-06
-0.000106625
-1.19934e-05
-0.000104213
-1.45204e-05
-0.00010139
-1.69541e-05
-9.81741e-05
-1.92662e-05
-9.45876e-05
-2.14286e-05
-9.06583e-05
-2.34135e-05
-8.64177e-05
-2.51944e-05
-8.19015e-05
-2.67464e-05
-7.71489e-05
-2.80465e-05
-7.22026e-05
-2.90746e-05
-6.71082e-05
-2.98137e-05
-6.19133e-05
-3.02504e-05
-5.66678e-05
-3.03756e-05
-5.14222e-05
-3.01847e-05
-4.62275e-05
-2.96781e-05
-4.11343e-05
-2.88612e-05
-3.61917e-05
-2.7745e-05
-3.14468e-05
-2.63461e-05
-2.69433e-05
-2.46867e-05
-2.27211e-05
-2.27947e-05
-1.88154e-05
-2.07036e-05
-1.52557e-05
-1.84528e-05
-1.20649e-05
-1.60872e-05
-9.25919e-06
-1.3657e-05
-6.84697e-06
-1.12184e-05
-4.82874e-06
-8.83297e-06
-3.19676e-06
-6.56819e-06
-1.93502e-06
-4.49765e-06
-1.0194e-06
-2.70139e-06
-4.18184e-07
-1.26617e-06
-9.29394e-08
-2.85757e-07
1.3333e-07
-3.21493e-07
1.15775e-06
-1.23617e-06
3.82485e-06
-2.699e-06
6.68391e-06
-4.66787e-06
9.61283e-06
-7.1023e-06
1.25188e-05
-9.96282e-06
1.53289e-05
-1.32106e-05
1.79877e-05
-1.68073e-05
2.0455e-05
-2.07148e-05
2.27032e-05
-2.48958e-05
2.47148e-05
-2.93133e-05
2.64803e-05
-3.3931e-05
2.79963e-05
-3.87134e-05
2.92636e-05
-4.36258e-05
3.02859e-05
-4.8634e-05
3.10689e-05
-5.3705e-05
3.16192e-05
-5.88063e-05
3.19433e-05
-6.39061e-05
3.20478e-05
-6.89732e-05
3.19383e-05
-7.39767e-05
3.162e-05
-7.88866e-05
3.1097e-05
-8.36729e-05
3.03728e-05
-8.83061e-05
2.94502e-05
-9.27571e-05
2.83319e-05
-9.69971e-05
2.70203e-05
-0.000100998
2.55181e-05
-0.000104732
2.38284e-05
-0.000108172
2.19555e-05
-0.000111292
1.99046e-05
-0.000114067
1.76824e-05
-0.000116473
1.52974e-05
-0.000118489
1.27602e-05
-0.000120094
1.00833e-05
-0.000121271
7.28158e-06
-0.000122003
4.37243e-06
-0.000122278
1.37549e-06
-0.000122087
-1.68713e-06
-0.000121423
-4.79107e-06
-0.000120283
-7.90979e-06
-0.000118669
-1.10148e-05
-0.000116586
-1.40761e-05
-0.000114045
-1.7062e-05
-0.000111058
-1.99404e-05
-0.000107646
-2.26783e-05
-0.000103832
-2.5243e-05
-9.96432e-05
-2.76021e-05
-9.5113e-05
-2.97247e-05
-9.0278e-05
-3.15814e-05
-8.51793e-05
-3.31453e-05
-7.98614e-05
-3.43925e-05
-7.43722e-05
-3.53029e-05
-6.87623e-05
-3.58604e-05
-6.30842e-05
-3.60537e-05
-5.7392e-05
-3.58769e-05
-5.17403e-05
-3.53298e-05
-4.61833e-05
-3.44182e-05
-4.07743e-05
-3.31541e-05
-3.55642e-05
-3.15561e-05
-3.06013e-05
-2.96496e-05
-2.59295e-05
-2.74664e-05
-2.15881e-05
-2.5045e-05
-1.76108e-05
-2.24302e-05
-1.40245e-05
-1.96735e-05
-1.0849e-05
-1.68324e-05
-8.0967e-06
-1.39707e-05
-5.77154e-06
-1.11581e-05
-3.86933e-06
-8.47041e-06
-2.37754e-06
-5.98943e-06
-1.27566e-06
-3.80327e-06
-5.35779e-07
-2.00605e-06
-1.23584e-07
-6.97953e-07
9.74585e-09
-3.63915e-07
1.52166e-06
-1.3932e-06
4.85413e-06
-3.03093e-06
8.32164e-06
-5.2242e-06
1.18061e-05
-7.9231e-06
1.52177e-05
-1.108e-05
1.84858e-05
-1.46494e-05
2.1557e-05
-1.8587e-05
2.43926e-05
-2.28503e-05
2.69665e-05
-2.7398e-05
2.92625e-05
-3.21899e-05
3.12723e-05
-3.71872e-05
3.29936e-05
-4.23523e-05
3.44286e-05
-4.76483e-05
3.5582e-05
-5.30398e-05
3.64604e-05
-5.84921e-05
3.70714e-05
-6.39713e-05
3.74225e-05
-6.94443e-05
3.75208e-05
-7.48787e-05
3.73727e-05
-8.02425e-05
3.69837e-05
-8.55041e-05
3.63586e-05
-9.06326e-05
3.55012e-05
-9.5597e-05
3.44147e-05
-0.000100367
3.3102e-05
-0.000104913
3.1566e-05
-0.000109205
2.98099e-05
-0.000113214
2.78374e-05
-0.000116911
2.56534e-05
-0.000120271
2.3264e-05
-0.000123266
2.06772e-05
-0.000125871
1.79027e-05
-0.000128063
1.49526e-05
-0.000129822
1.18415e-05
-0.000131126
8.5864e-06
-0.000131961
5.20711e-06
-0.000132312
1.72615e-06
-0.000132168
-1.83129e-06
-0.000131521
-5.43738e-06
-0.000130369
-9.06185e-06
-0.000128712
-1.26722e-05
-0.000126554
-1.62341e-05
-0.000123904
-1.97116e-05
-0.000120777
-2.30676e-05
-0.000117191
-2.62646e-05
-0.000113169
-2.92647e-05
-0.00010874
-3.20309e-05
-0.000103938
-3.45273e-05
-9.87991e-05
-3.67199e-05
-9.33669e-05
-3.85775e-05
-8.76875e-05
-4.0072e-05
-8.18107e-05
-4.11796e-05
-7.57899e-05
-4.18812e-05
-6.96805e-05
-4.21631e-05
-6.354e-05
-4.20175e-05
-5.74265e-05
-4.14433e-05
-5.13983e-05
-4.04463e-05
-4.5513e-05
-3.90394e-05
-3.9826e-05
-3.72432e-05
-3.43899e-05
-3.50857e-05
-2.92535e-05
-3.26028e-05
-2.44607e-05
-2.98378e-05
-2.00497e-05
-2.68413e-05
-1.60519e-05
-2.36713e-05
-1.24916e-05
-2.03927e-05
-9.38522e-06
-1.70771e-05
-6.7409e-06
-1.38024e-05
-4.55831e-06
-1.0653e-05
-2.82872e-06
-7.71902e-06
-1.53535e-06
-5.09664e-06
-6.53968e-07
-2.88744e-06
-1.53985e-07
-1.19794e-06
-1.44239e-07
-4.04821e-07
1.92649e-06
-1.54507e-06
5.99438e-06
-3.35266e-06
1.01292e-05
-5.76448e-06
1.42179e-05
-8.72148e-06
1.81747e-05
-1.21682e-05
2.19325e-05
-1.60521e-05
2.5441e-05
-2.03236e-05
2.86641e-05
-2.49352e-05
3.15781e-05
-2.98417e-05
3.4169e-05
-3.5e-05
3.64305e-05
-4.03684e-05
3.83621e-05
-4.59071e-05
3.99673e-05
-5.15777e-05
4.12525e-05
-5.7343e-05
4.22257e-05
-6.31669e-05
4.28954e-05
-6.90145e-05
4.32701e-05
-7.48514e-05
4.33577e-05
-8.06442e-05
4.31654e-05
-8.63597e-05
4.26993e-05
-9.19655e-05
4.19645e-05
-9.74295e-05
4.09651e-05
-0.00010272
3.9705e-05
-0.000107805
3.81872e-05
-0.000112654
3.6415e-05
-0.000117236
3.4392e-05
-0.000121521
3.21227e-05
-0.00012548
2.96124e-05
-0.000129085
2.68682e-05
-0.000132307
2.38992e-05
-0.00013512
2.07164e-05
-0.000137501
1.73334e-05
-0.000139426
1.37668e-05
-0.000140875
1.00356e-05
-0.000141831
6.16216e-06
-0.000142276
2.17181e-06
-0.0001422
-1.90714e-06
-0.000141594
-6.04342e-06
-0.000140453
-1.0203e-05
-0.000138776
-1.43493e-05
-0.000136567
-1.84436e-05
-0.000133833
-2.24453e-05
-0.000130588
-2.63126e-05
-0.00012685
-3.00027e-05
-0.000122642
-3.34729e-05
-0.000117992
-3.66808e-05
-0.000112934
-3.95854e-05
-0.000107506
-4.21477e-05
-0.000101752
-4.43316e-05
-9.57193e-05
-4.61045e-05
-8.94604e-05
-4.74385e-05
-8.30308e-05
-4.83108e-05
-7.6489e-05
-4.87049e-05
-6.98958e-05
-4.86108e-05
-6.33132e-05
-4.80259e-05
-5.68038e-05
-4.69557e-05
-5.04295e-05
-4.54137e-05
-4.42507e-05
-4.34219e-05
-3.83251e-05
-4.10113e-05
-3.27065e-05
-3.82214e-05
-2.7444e-05
-3.51003e-05
-2.25809e-05
-3.17044e-05
-1.81538e-05
-2.80984e-05
-1.41918e-05
-2.43547e-05
-1.07162e-05
-2.05528e-05
-7.73941e-06
-1.67792e-05
-5.26552e-06
-1.31269e-05
-3.28981e-06
-9.69473e-06
-1.79927e-06
-6.58718e-06
-7.73221e-07
-3.91349e-06
-1.8432e-07
-1.78684e-06
-3.28559e-07
-4.442e-07
2.37068e-06
-1.69157e-06
7.24175e-06
-3.6635e-06
1.21012e-05
-6.2872e-06
1.68416e-05
-9.4949e-06
2.13824e-05
-1.32234e-05
2.56611e-05
-1.74138e-05
2.96313e-05
-2.20106e-05
3.32609e-05
-2.69618e-05
3.65293e-05
-3.22184e-05
3.94256e-05
-3.77339e-05
4.1946e-05
-4.34642e-05
4.40923e-05
-4.93672e-05
4.58704e-05
-5.54029e-05
4.72882e-05
-6.15325e-05
4.83553e-05
-6.77187e-05
4.90817e-05
-7.39256e-05
4.94769e-05
-8.01177e-05
4.95499e-05
-8.62607e-05
4.93084e-05
-9.23207e-05
4.87593e-05
-9.82644e-05
4.79081e-05
-0.000104059
4.67594e-05
-0.000109671
4.53172e-05
-0.000115069
4.35851e-05
-0.00012022
4.15666e-05
-0.000125094
3.92657e-05
-0.000129659
3.66874e-05
-0.000133884
3.38377e-05
-0.00013774
3.07246e-05
-0.000141199
2.7358e-05
-0.000144233
2.37503e-05
-0.000146816
1.99166e-05
-0.000148925
1.58752e-05
-0.000150537
1.16473e-05
-0.000151632
7.25761e-06
-0.000152194
2.73419e-06
-0.00015221
-1.89156e-06
-0.000151668
-6.58495e-06
-0.000150563
-1.13082e-05
-0.000148892
-1.60205e-05
-0.000146657
-2.06789e-05
-0.000143864
-2.52379e-05
-0.000140526
-2.96508e-05
-0.000136659
-3.38695e-05
-0.000132286
-3.7846e-05
-0.000127434
-4.15323e-05
-0.000122138
-4.4882e-05
-0.000116435
-4.78504e-05
-0.00011037
-5.03963e-05
-0.000103993
-5.2482e-05
-9.73565e-05
-5.40749e-05
-9.05191e-05
-5.51482e-05
-8.35423e-05
-5.56817e-05
-7.64903e-05
-5.56627e-05
-6.94294e-05
-5.50869e-05
-6.24264e-05
-5.39587e-05
-5.55482e-05
-5.22918e-05
-4.88605e-05
-5.01096e-05
-4.24265e-05
-4.74454e-05
-3.63056e-05
-4.43423e-05
-3.05528e-05
-4.08531e-05
-2.5217e-05
-3.70402e-05
-2.03406e-05
-3.29748e-05
-1.59582e-05
-2.87371e-05
-1.20962e-05
-2.44148e-05
-8.7722e-06
-2.01032e-05
-5.99476e-06
-1.59043e-05
-3.76345e-06
-1.1926e-05
-2.0691e-06
-8.28153e-06
-8.94407e-07
-5.08818e-06
-2.14867e-07
-2.46638e-06
-5.43426e-07
-4.82032e-07
2.85272e-06
-1.83248e-06
8.5922e-06
-3.96283e-06
1.42315e-05
-6.7911e-06
1.96699e-05
-1.02412e-05
2.48325e-05
-1.42427e-05
2.96625e-05
-1.873e-05
3.41187e-05
-2.36425e-05
3.81734e-05
-2.89235e-05
4.18103e-05
-3.45202e-05
4.50222e-05
-4.03828e-05
4.78087e-05
-4.64649e-05
5.01744e-05
-5.27223e-05
5.21277e-05
-5.91131e-05
5.3679e-05
-6.55973e-05
5.48395e-05
-7.21366e-05
5.56209e-05
-7.86937e-05
5.60341e-05
-8.52328e-05
5.60889e-05
-9.17185e-05
5.57941e-05
-9.81163e-05
5.51571e-05
-0.000104392
5.4184e-05
-0.000110512
5.28797e-05
-0.000116444
5.12486e-05
-0.000122153
4.92945e-05
-0.000127608
4.70213e-05
-0.000132776
4.44335e-05
-0.000137625
4.15362e-05
-0.000142123
3.83362e-05
-0.000146241
3.48422e-05
-0.000149948
3.10649e-05
-0.000153215
2.7018e-05
-0.000156017
2.2718e-05
-0.000158326
1.81848e-05
-0.000160121
1.34416e-05
-0.000161378
8.51535e-06
-0.000162081
3.43683e-06
-0.000162213
-1.7596e-06
-0.000161762
-7.03589e-06
-0.00016072
-1.23505e-05
-0.000159081
-1.76587e-05
-0.000156848
-2.29127e-05
-0.000154023
-2.80626e-05
-0.000150617
-3.30562e-05
-0.000146647
-3.78404e-05
-0.000142131
-4.23611e-05
-0.000137099
-4.65648e-05
-0.000131582
-5.03989e-05
-0.00012562
-5.3813e-05
-0.000119256
-5.67599e-05
-0.000112542
-5.91964e-05
-0.000105532
-6.10845e-05
-9.82874e-05
-6.23927e-05
-9.08724e-05
-6.30967e-05
-8.33548e-05
-6.31804e-05
-7.58048e-05
-6.26369e-05
-6.82944e-05
-6.14691e-05
-6.08957e-05
-5.96905e-05
-5.36799e-05
-5.73253e-05
-4.67164e-05
-5.44089e-05
-4.0071e-05
-5.09877e-05
-3.38048e-05
-4.71192e-05
-2.79735e-05
-4.28715e-05
-2.26255e-05
-3.83228e-05
-1.78017e-05
-3.35609e-05
-1.35343e-05
-2.86822e-05
-9.84627e-06
-2.37912e-05
-6.75125e-06
-1.89994e-05
-4.25328e-06
-1.4424e-05
-2.34711e-06
-1.01877e-05
-1.01868e-06
-6.41661e-06
-2.45972e-07
-3.23909e-06
-7.89397e-07
-5.18278e-07
3.37099e-06
-1.96759e-06
1.00415e-05
-4.25005e-06
1.6514e-05
-7.27499e-06
2.26948e-05
-1.09585e-05
2.8516e-05
-1.52229e-05
3.3927e-05
-1.99969e-05
3.88926e-05
-2.52143e-05
4.33908e-05
-3.08141e-05
4.74101e-05
-3.67397e-05
5.09478e-05
-4.29385e-05
5.40075e-05
-4.93614e-05
5.65973e-05
-5.59623e-05
5.87286e-05
-6.26978e-05
6.04144e-05
-6.95265e-05
6.16683e-05
-7.6409e-05
6.25035e-05
-8.33075e-05
6.29325e-05
-9.01851e-05
6.29665e-05
-9.70061e-05
6.26151e-05
-0.000103735
6.18864e-05
-0.000110338
6.0787e-05
-0.000116781
5.93223e-05
-0.000123029
5.74969e-05
-0.00012905
5.53151e-05
-0.000134809
5.27808e-05
-0.000140274
4.98987e-05
-0.000145413
4.66746e-05
-0.000150192
4.31156e-05
-0.000154581
3.9231e-05
-0.000158549
3.50324e-05
-0.000162065
3.05344e-05
-0.000165102
2.57548e-05
-0.000167632
2.07149e-05
-0.00016963
1.54398e-05
-0.000171074
9.95878e-06
-0.000171942
4.30486e-06
-0.000172217
-1.48464e-06
-0.000171884
-7.36844e-06
-0.000170933
-1.33014e-05
-0.000169357
-1.92346e-05
-0.000167154
-2.5116e-05
-0.000164326
-3.08906e-05
-0.000160881
-3.65012e-05
-0.000156833
-4.18888e-05
-0.0001522
-4.69936e-05
-0.000147009
-5.17558e-05
-0.000141292
-5.61165e-05
-0.000135086
-6.00189e-05
-0.000128436
-6.34093e-05
-0.000121394
-6.62383e-05
-0.000114017
-6.8462e-05
-0.000106366
-7.00433e-05
-9.85098e-05
-7.0953e-05
-9.05193e-05
-7.11709e-05
-8.24693e-05
-7.06868e-05
-7.44368e-05
-6.95017e-05
-6.64995e-05
-6.76278e-05
-5.8735e-05
-6.50898e-05
-5.12192e-05
-6.19247e-05
-4.40248e-05
-5.81821e-05
-3.72203e-05
-5.39238e-05
-3.08681e-05
-4.92237e-05
-2.5024e-05
-4.41669e-05
-1.97354e-05
-3.88494e-05
-1.50411e-05
-3.33765e-05
-1.097e-05
-2.78623e-05
-7.54131e-06
-2.24281e-05
-4.76371e-06
-1.72016e-05
-2.63603e-06
-1.23154e-05
-1.14739e-06
-7.90525e-06
-2.78028e-07
-4.10845e-06
-1.06742e-06
-5.52886e-07
3.92388e-06
-2.09664e-06
1.15853e-05
-4.52452e-06
1.89419e-05
-7.73766e-06
2.59079e-05
-1.16447e-05
3.2423e-05
-1.61614e-05
3.84437e-05
-2.12105e-05
4.39418e-05
-2.6721e-05
4.89013e-05
-3.26275e-05
5.33167e-05
-3.88699e-05
5.71903e-05
-4.53928e-05
6.05303e-05
-5.21446e-05
6.33491e-05
-5.90774e-05
6.56614e-05
-6.61462e-05
6.74832e-05
-7.33086e-05
6.88307e-05
-8.05243e-05
6.97191e-05
-8.77545e-05
7.01628e-05
-9.49621e-05
7.01741e-05
-0.000102111
6.97638e-05
-0.000109165
6.89406e-05
-0.00011609