/*--------------------------------*- C++ -*----------------------------------*\
  =========                 |
  \\      /  F ield         | OpenFOAM: The Open Source CFD Toolbox
   \\    /   O peration     | Website:  https://openfoam.org
    \\  /    A nd           | Version:  dev
     \\/     M anipulation  |
\*---------------------------------------------------------------------------*/
FoamFile
{
    format      ascii;
    class       volScalarField;
    location    "18";
    object      p;
}
// * * * * * * * * * * * * * * * * * * * * * * * * * * * * * * * * * * * * * //

dimensions      [0 2 -2 0 0 0 0];

internalField   nonuniform List<scalar> 
5184
(
6.25332e-07
-1.10205e-05
-9.65179e-05
-0.000248975
-0.000447919
-0.000676037
-0.000919097
-0.00116518
-0.00140514
-0.00163185
-0.00183991
-0.00202531
-0.0021851
-0.00231721
-0.00242015
-0.00249291
-0.00253484
-0.00254548
-0.00252457
-0.00247194
-0.0023875
-0.00227124
-0.00212322
-0.00194358
-0.00173254
-0.0014905
-0.001218
-0.00091578
-0.000584842
-0.000226455
0.000157794
0.000565982
0.000995816
0.00144463
0.00190937
0.00238658
0.00287246
0.00336285
0.00385327
0.004339
0.0048151
0.0052765
0.00571809
0.00613478
0.00652164
0.00687396
0.00718738
0.00745798
0.00768239
0.00785788
0.00798243
0.00805486
0.0080748
0.00804282
0.00796041
0.00783002
0.00765502
0.00743974
0.00718936
0.00690994
0.00660832
0.00629211
0.0059696
0.00564973
0.00534206
0.00505664
0.00480398
0.00459468
0.0044387
0.00434449
0.00431753
0.00434474
1.41332e-05
1.86317e-06
-7.24449e-05
-0.000199864
-0.000364719
-0.000554495
-0.000758289
-0.000966525
-0.0011713
-0.00136623
-0.00154628
-0.00170756
-0.00184708
-0.00196264
-0.00205258
-0.00211571
-0.00215118
-0.00215837
-0.00213687
-0.00208639
-0.00200676
-0.00189789
-0.00175979
-0.00159257
-0.00139646
-0.00117182
-0.000919189
-0.000639295
-0.000333093
-1.80445e-06
0.000353063
0.000729692
0.00112594
0.00153931
0.00196697
0.00240574
0.0028521
0.00330225
0.00375209
0.0041973
0.0046334
0.00505579
0.00545983
0.00584094
0.00619468
0.00651683
0.00680348
0.00705117
0.0072569
0.0074183
0.00753365
0.00760196
0.00762303
0.00759747
0.00752677
0.00741323
0.00726005
0.00707122
0.00685153
0.00660654
0.00634247
0.0060662
0.00578514
0.00550722
0.00524073
0.00499424
0.00477641
0.0045956
0.00445911
0.00437288
0.00434431
0.00437184
0.000101051
7.64368e-05
1.30347e-06
-0.000115938
-0.000263271
-0.000431055
-0.000610601
-0.000794094
-0.000974855
-0.00114734
-0.00130704
-0.00145038
-0.00157455
-0.0016774
-0.00175726
-0.0018129
-0.00184339
-0.00184805
-0.00182639
-0.00177803
-0.00170275
-0.00160041
-0.00147097
-0.00131448
-0.00113115
-0.000921302
-0.000685426
-0.000424204
-0.000138534
0.000170441
0.000501307
0.000852363
0.0012216
0.0016067
0.002005
0.00241354
0.00282906
0.003248
0.00366657
0.00408075
0.00448639
0.00487921
0.00525493
0.00560931
0.00593825
0.00623787
0.00650457
0.00673517
0.00692695
0.00707776
0.00718605
0.00725099
0.00727245
0.00725108
0.00718831
0.00708638
0.00694829
0.00677781
0.00657942
0.00635827
0.0061201
0.00587122
0.00561837
0.00536865
0.00512944
0.00490818
0.00471233
0.00454896
0.00442407
0.00434291
0.00431511
0.00434565
0.000256155
0.000204806
0.000117178
-1.48755e-06
-0.000143553
-0.000301256
-0.000467487
-0.000635891
-0.000800941
-0.000957965
-0.0011031
-0.0012332
-0.00134578
-0.00143887
-0.00151094
-0.00156082
-0.0015876
-0.00159059
-0.00156927
-0.00152325
-0.00145225
-0.00135608
-0.00123465
-0.00108799
-0.000916218
-0.000719614
-0.000498598
-0.000253776
1.40363e-05
0.000303791
0.000614185
0.00094364
0.00129029
0.00165196
0.00202618
0.00241016
0.00280084
0.00319488
0.0035887
0.00397853
0.00436044
0.0047304
0.00508437
0.00541835
0.00572846
0.00601103
0.00626267
0.00648038
0.00666161
0.00680433
0.00690711
0.00696918
0.00699046
0.0069716
0.00691398
0.00681976
0.00669179
0.00653366
0.0063496
0.00614444
0.00592355
0.00569277
0.0054583
0.00522662
0.00500439
0.00479826
0.00461484
0.0044604
0.00434038
0.0042598
0.00422874
0.00425388
0.000460787
0.000372282
0.000263873
0.000136469
-7.51293e-06
-0.000161926
-0.000321017
-0.000479797
-0.000633863
-0.000779427
-0.000913316
-0.00103292
-0.00113613
-0.00122126
-0.00128698
-0.00133224
-0.00135622
-0.00135826
-0.00133786
-0.00129461
-0.00122821
-0.00113842
-0.00102511
-0.000888242
-0.000727876
-0.000544206
-0.000337568
-0.000108477
0.000142357
0.000413997
0.000705267
0.00101473
0.00134065
0.00168103
0.00203354
0.00239559
0.00276429
0.00313649
0.0035088
0.00387763
0.00423925
0.00458982
0.00492548
0.00524239
0.00553684
0.0058053
0.00604454
0.00625165
0.00642419
0.00656022
0.00665836
0.00671786
0.00673867
0.00672139
0.00666738
0.00657869
0.00645805
0.00630888
0.0061352
0.00594155
0.005733
0.00551497
0.00529322
0.00507369
0.00486242
0.00466543
0.00448863
0.00433763
0.00421739
0.00413267
0.00409226
0.00410198
0.000698886
0.000567025
0.000432083
0.000290352
0.000138803
-1.78102e-05
-0.000174895
-0.000328721
-0.00047596
-0.000613692
-0.000739451
-0.000851192
-0.000947245
-0.00102626
-0.00108716
-0.00112906
-0.00115127
-0.0011532
-0.00113439
-0.00109444
-0.00103303
-0.000949885
-0.000844828
-0.000717747
-0.000568629
-0.000397574
-0.000204821
9.22548e-06
0.000243974
0.00049862
0.000772123
0.00106319
0.00137024
0.00169141
0.00202457
0.00236727
0.00271677
0.00307011
0.00342404
0.00377513
0.00411979
0.00445432
0.00477498
0.00507807
0.00535995
0.0056172
0.00584664
0.00604545
0.00621121
0.006342
0.00643646
0.00649386
0.00651408
0.00649771
0.00644603
0.00636101
0.00624526
0.00610205
0.0059352
0.00574906
0.00554838
0.00533828
0.00512412
0.0049114
0.00470567
0.00451241
0.00433693
0.0041843
0.00405906
0.0039656
0.00391041
0.00389724
0.000956681
0.000778162
0.000612897
0.000452686
0.000289157
0.000125901
-3.34709e-05
-0.000186368
-0.000330461
-0.000463666
-0.000584213
-0.000690635
-0.000781727
-0.000856508
-0.000914173
-0.000954063
-0.000975627
-0.00097839
-0.000961937
-0.000925893
-0.000869926
-0.000793743
-0.000697103
-0.000579825
-0.000441806
-0.000283047
-0.000103672
9.60359e-05
0.000315619
0.000554414
0.000811528
0.00108581
0.00137585
0.00167994
0.00199608
0.00232199
0.00265508
0.00299251
0.00333117
0.00366774
0.00399875
0.00432058
0.00462956
0.00492206
0.00519448
0.00544344
0.00566576
0.00585862
0.0060196
0.00614675
0.00623869
0.00629461
0.00631437
0.00629848
0.00624814
0.00616522
0.00605225
0.00591234
0.00574916
0.00556686
0.00536999
0.00516339
0.00495211
0.00474131
0.00453612
0.00434158
0.00416256
0.00400361
0.00386896
0.00376266
0.00368836
0.00364728
0.00122208
0.000995565
0.000797722
0.000616182
0.000437474
0.000264223
9.92138e-05
-5.59919e-05
-0.000199986
-0.000331479
-0.000449373
-0.000552767
-0.000640932
-0.000713266
-0.000769264
-0.0008085
-0.000830592
-0.000835181
-0.000821924
-0.000790475
-0.000740502
-0.000671681
-0.000583716
-0.000476345
-0.000349372
-0.000202684
-3.62851e-05
0.000149681
0.000354899
0.000578857
0.000820818
0.00107979
0.00135451
0.00164344
0.00194471
0.00225619
0.00257543
0.00289968
0.00322596
0.00355103
0.00387148
0.00418374
0.00448419
0.00476918
0.00503514
0.00527863
0.00549645
0.00568574
0.005844
0.00596921
0.00605991
0.00611522
0.0061349
0.00611938
0.00606975
0.0059878
0.00587593
0.00573714
0.00557498
0.00539343
0.00519687
0.00498993
0.00477743
0.00456424
0.00435519
0.004155
0.00396813
0.00379874
0.00365085
0.00352817
0.00343144
0.00335923
0.00148482
0.00121009
0.000978507
0.000773812
0.000577708
0.000392016
0.00021882
5.87538e-05
-8.7625e-05
-0.000219764
-0.000337212
-0.000439619
-0.000526717
-0.000598285
-0.000654129
-0.00069406
-0.000717874
-0.000725336
-0.000716176
-0.000690089
-0.000646741
-0.000585776
-0.000506835
-0.000409576
-0.000293696
-0.000158966
-5.25366e-06
0.000167444
0.000358967
0.000568962
0.000796854
0.00104182
0.00130274
0.00157824
0.00186661
0.00216583
0.00247356
0.00278719
0.00310377
0.00342016
0.00373296
0.00403864
0.00433355
0.00461402
0.00487642
0.00511724
0.00533321
0.00552133
0.00567903
0.00580415
0.00589512
0.00595091
0.00597119
0.00595625
0.00590709
0.00582536
0.00571338
0.00557402
0.00541072
0.00522734
0.00502813
0.00481756
0.00460027
0.00438094
0.00416419
0.00395447
0.00375597
0.00357256
0.0034081
0.00326613
0.00314446
0.00303913
0.00173592
0.00141349
0.00114776
0.000918852
0.000703895
0.000504038
0.000320756
0.000153846
3.08127e-06
-0.000131671
-0.00025057
-0.000353792
-0.000441517
-0.000513898
-0.000571042
-0.000612999
-0.000639741
-0.000651157
-0.000647056
-0.000627168
-0.000591155
-0.000538629
-0.000469159
-0.000382315
-0.000277686
-0.000154912
-1.3717e-05
0.000146059
0.000324422
0.000521185
0.000735943
0.000968037
0.00121653
0.00148017
0.00175741
0.00204635
0.00234477
0.00265012
0.00295955
0.00326992
0.00357787
0.00387983
0.00417212
0.00445099
0.00471272
0.0049537
0.0051705
0.00536
0.00551943
0.00564651
0.00573947
0.00579714
0.005819
0.00580523
0.00575666
0.00567485
0.00556196
0.00542079
0.00525466
0.00506736
0.00486301
0.00464599
0.00442084
0.0041921
0.00396425
0.00374159
0.00352813
0.00332754
0.00314366
0.00297993
0.0028314
0.00269174
0.00196746
0.00159828
0.00129853
0.00104491
0.000810224
0.000595041
0.000400305
0.000225043
6.83054e-05
-7.06834e-05
-0.000192652
-0.000298277
-0.000388166
-0.000462828
-0.000522664
-0.000567951
-0.000598831
-0.000615314
-0.000617283
-0.000604499
-0.000576615
-0.000533197
-0.000473747
-0.000397735
-0.000304631
-0.000193936
-6.52194e-05
8.18439e-05
0.000247432
0.000431538
0.000633932
0.000854132
0.00109136
0.00134455
0.00161226
0.00189274
0.00218385
0.00248314
0.00278778
0.00309467
0.00340044
0.00370147
0.003994
0.00427419
0.00453817
0.00478218
0.00500262
0.00519616
0.00535984
0.00549114
0.0055881
0.00564933
0.00567413
0.00566248
0.00561505
0.00553325
0.00541911
0.00527534
0.00510515
0.00491226
0.00470074
0.00447492
0.00423925
0.00399824
0.00375631
0.00351771
0.00328633
0.00306577
0.00285996
0.00267237
0.00249545
0.00232064
0.00217232
0.00175758
0.0014243
0.0011459
0.00089106
0.000659838
0.000452705
0.000267973
0.00010402
-4.05309e-05
-0.000166943
-0.000276365
-0.000369808
-0.000448122
-0.000511978
-0.000561869
-0.000598101
-0.000620794
-0.000629894
-0.000625186
-0.000606304
-0.000572763
-0.000523988
-0.000459344
-0.000378168
-0.000279815
-0.000163687
-2.92859e-05
0.00012375
0.0002956
0.000486223
0.000695318
0.00092229
0.00116622
0.00142582
0.00169946
0.00198511
0.00228036
0.00258246
0.00288829
0.00319446
0.00349728
0.00379289
0.00407731
0.00434652
0.00459654
0.00482356
0.005024
0.00519465
0.00533273
0.00543601
0.00550285
0.00553231
0.00552413
0.00547881
0.00539755
0.00528227
0.00513555
0.00496052
0.00476085
0.00454055
0.00430396
0.00405554
0.00379979
0.00354116
0.00328392
0.00303199
0.00278896
0.00255896
0.00234566
0.00213901
0.00192837
0.00234395
0.00188504
0.00151897
0.00121603
0.000940947
0.00069332
0.000473186
0.000278182
0.000106055
-4.51337e-05
-0.000177156
-0.000291603
-0.000389864
-0.000473104
-0.000542252
-0.000598
-0.000640801
-0.000670875
-0.000688218
-0.000692625
-0.000683707
-0.000660917
-0.000623593
-0.00057098
-0.000502278
-0.00041668
-0.000313418
-0.000191803
-5.12822e-05
0.000108522
0.000287768
0.000486349
0.000703849
0.000939518
0.00119223
0.00146047
0.0017423
0.00203541
0.00233706
0.00264414
0.0029532
0.00326049
0.00356201
0.00385362
0.0041311
0.00439023
0.00462695
0.00483737
0.00501799
0.00516571
0.00527797
0.00535285
0.0053891
0.0053862
0.00534439
0.00526468
0.00514883
0.00499927
0.00481907
0.00461184
0.00438159
0.00413268
0.00386963
0.00359702
0.00331938
0.00304111
0.00276623
0.00249844
0.0022422
0.00200143
0.00176378
0.00151661
0.00247631
0.00197471
0.00157677
0.00124976
0.000954613
0.000690482
0.000457004
0.000251182
7.01547e-05
-8.85479e-05
-0.000227173
-0.000347731
-0.000451965
-0.000541333
-0.000616998
-0.000679836
-0.000730433
-0.000769091
-0.000795846
-0.000810486
-0.000812587
-0.000801533
-0.00077656
-0.000736787
-0.000681262
-0.000609006
-0.000519066
-0.000410557
-0.000282718
-0.000134961
3.30824e-05
0.000221512
0.000430108
0.000658296
0.000905114
0.00116918
0.00144867
0.00174134
0.00204449
0.002355
0.00266937
0.00298375
0.00329402
0.00359582
0.00388472
0.00415622
0.00440595
0.00462969
0.00482357
0.00498414
0.00510845
0.00519422
0.00523985
0.00524449
0.00520809
0.00513144
0.00501606
0.00486427
0.00467903
0.00446391
0.00422295
0.00396056
0.00368135
0.00339006
0.0030914
0.00278993
0.00248991
0.00219523
0.00191077
0.00164085
0.00137087
0.00108625
0.00256368
0.00202099
0.00159224
0.0012418
0.000926961
0.000646442
0.000399487
0.000182492
-7.97981e-06
-0.00017491
-0.000320995
-0.000448636
-0.000559908
-0.000656541
-0.000739918
-0.000811076
-0.000870714
-0.000919197
-0.000956589
-0.000982663
-0.000996946
-0.000998736
-0.000987157
-0.000961188
-0.000919715
-0.000861577
-0.000785621
-0.000690753
-0.000575991
-0.00044052
-0.000283747
-0.000105355
9.46503e-05
0.000315889
0.00055757
0.000818462
0.00109687
0.00139062
0.00169705
0.00201306
0.00233506
0.00265913
0.00298096
0.00329603
0.0035996
0.0038869
0.00415318
0.00439386
0.00460464
0.00478164
0.0049215
0.00502147
0.00507956
0.00509453
0.00506598
0.0049944
0.00488108
0.00472816
0.00453851
0.00431564
0.00406363
0.00378697
0.00349044
0.00317896
0.00285749
0.00253089
0.00220367
0.00188007
0.00156544
0.00126464
0.000960861
0.000637602
0.00260067
0.00201856
0.00156019
0.0011871
0.000853085
0.00055645
0.000296044
6.76768e-05
-0.000132644
-0.000308388
-0.000462679
-0.000598289
-0.0007176
-0.000822597
-0.00091486
-0.000995569
-0.00106552
-0.00112512
-0.00117445
-0.00121325
-0.00124099
-0.00125687
-0.00125988
-0.00124885
-0.0012225
-0.00117946
-0.00111838
-0.00103792
-0.000936885
-0.000814204
-0.000669043
-0.000500849
-0.0003094
-9.4861e-05
0.000142174
0.00040064
0.000678978
0.00097511
0.00128644
0.00160984
0.0019417
0.00227798
0.00261423
0.00294566
0.00326729
0.00357398
0.0038606
0.00412214
0.00435383
0.00455128
0.00471064
0.00482865
0.00490282
0.00493147
0.00491378
0.00484988
0.00474077
0.00458839
0.00439546
0.00416547
0.00390251
0.00361121
0.00329652
0.00296364
0.00261783
0.00226431
0.00190797
0.00155345
0.00120673
0.000873229
0.000533971
0.000170528
0.00258215
0.0019624
0.00147567
0.00108082
0.000728273
0.000415913
0.000142204
-9.76218e-05
-0.000308091
-0.00049314
-0.000656303
-0.000800703
-0.000929012
-0.00104345
-0.00114577
-0.00123727
-0.00131884
-0.00139091
-0.00145356
-0.00150649
-0.00154909
-0.00158044
-0.0015994
-0.00160464
-0.00159468
-0.00156796
-0.00152289
-0.00145789
-0.0013715
-0.0012624
-0.0011295
-0.000971978
-0.000789363
-0.000581581
-0.000349008
-9.2513e-05
0.0001865
0.000486072
0.000803674
0.00113621
0.00148003
0.00183098
0.00218444
0.00253541
0.00287858
0.00320845
0.00351946
0.00380611
0.00406309
0.00428546
0.00446878
0.00460922
0.0047037
0.00474999
0.00474681
0.00469383
0.00459172
0.00444214
0.00424765
0.00401168
0.00373837
0.00343247
0.00309916
0.00274395
0.00237249
0.00199044
0.00160315
0.00121574
0.000834907
0.000466767
9.01103e-05
-0.000315466
0.00250323
0.00184769
0.00133398
0.00091835
0.000548006
0.000220407
-6.63712e-05
-0.000317654
-0.00053849
-0.000733268
-0.000905914
-0.00105988
-0.00119812
-0.00132306
-0.00143662
-0.0015402
-0.00163473
-0.0017207
-0.00179815
-0.00186672
-0.00192571
-0.00197408
-0.00201055
-0.00203359
-0.00204153
-0.00203259
-0.00200492
-0.00195671
-0.0018862
-0.00179181
-0.00167215
-0.00152611
-0.00135296
-0.00115234
-0.000924382
-0.000669737
-0.000389618
-8.58363e-05
0.000239177
0.000582367
0.00094007
0.00130804
0.00168149
0.00205518
0.00242347
0.00278049
0.00312018
0.00343651
0.00372359
0.00397584
0.00418813
0.00435598
0.00447563
0.00454423
0.00455989
0.00452178
0.00443014
0.00428629
0.0040926
0.00385239
0.00356983
0.00324982
0.00289782
0.00251968
0.0021215
0.00170945
0.00128945
0.00086718
0.000450147
4.52562e-05
-0.000371008
-0.000821103
0.00235927
0.00166991
0.00113067
0.000695318
0.000307981
-3.4302e-05
-0.000333844
-0.000596522
-0.00082789
-0.00103278
-0.00121548
-0.00137978
-0.00152888
-0.00166539
-0.00179138
-0.00190835
-0.00201728
-0.00211865
-0.00221247
-0.00229832
-0.00237538
-0.0024425
-0.00249821
-0.00254081
-0.0025684
-0.00257897
-0.00257041
-0.00254062
-0.00248756
-0.00240934
-0.00230427
-0.00217092
-0.00200823
-0.00181557
-0.00159278
-0.00134024
-0.00105894
-0.000750519
-0.000417263
-6.21545e-05
0.000311149
0.00069833
0.00109446
0.00149404
0.00189112
0.00227939
0.0026523
0.00300322
0.00332562
0.0036132
0.00386007
0.00406096
0.00421136
0.00430765
0.00434726
0.00432874
0.0042518
0.00411737
0.00392753
0.00368546
0.00339535
0.00306225
0.00269189
0.00229055
0.00186483
0.0014215
0.000967089
0.000507972
5.25523e-05
-0.000391387
-0.000849772
-0.00134724
0.00214587
0.00142476
0.000861528
0.000407576
4.11868e-06
-0.000352234
-0.000664185
-0.000938154
-0.00118019
-0.00139553
-0.00158887
-0.00176425
-0.00192513
-0.0020743
-0.00221396
-0.00234568
-0.0024705
-0.00258886
-0.00270075
-0.00280564
-0.00290262
-0.00299038
-0.00306728
-0.00313143
-0.00318068
-0.00321277
-0.00322533
-0.00321594
-0.00318227
-0.00312208
-0.00303334
-0.00291428
-0.00276351
-0.00258004
-0.00236338
-0.00211363
-0.00183149
-0.00151838
-0.00117641
-0.000808438
-0.000418082
-9.69897e-06
0.000411646
0.000840237
0.00126979
0.00169355
0.00210444
0.00249519
0.00285855
0.00318742
0.00347506
0.00371531
0.00390278
0.00403296
0.00410248
0.00410913
0.00405199
0.00393148
0.00374933
0.00350851
0.00321321
0.00286859
0.00248071
0.00205628
0.00160248
0.00112674
0.000636324
0.000138349
-0.000357758
-0.000843239
-0.00134659
-0.00189475
0.00185889
0.0011082
0.000522604
5.12456e-05
-0.000367406
-0.000737172
-0.00106114
-0.00134627
-0.00159908
-0.00182523
-0.00202974
-0.00221696
-0.00239056
-0.00255352
-0.00270812
-0.00285604
-0.00299829
-0.00313534
-0.00326709
-0.00339294
-0.00351185
-0.00362234
-0.0037226
-0.00381052
-0.00388371
-0.00393965
-0.00397565
-0.003989
-0.00397702
-0.00393712
-0.00386689
-0.0037642
-0.00362724
-0.00345466
-0.0032456
-0.00299979
-0.00271763
-0.00240024
-0.0020495
-0.0016681
-0.00125957
-0.000828275
-0.000379366
8.12298e-05
0.000546903
0.00101046
0.00146427
0.00190038
0.00231075
0.00268738
0.00302261
0.00330926
0.00354091
0.00371205
0.00381834
0.00385667
0.00382537
0.00372422
0.00355448
0.00331886
0.00302145
0.00266755
0.00226353
0.00181656
0.00133447
0.000825414
0.000297476
-0.000241374
-0.000780578
-0.0013103
-0.00186178
-0.00246445
0.00149445
0.000716506
0.000110245
-0.000377272
-0.000810147
-0.00119263
-0.00152821
-0.00182435
-0.00208804
-0.00232534
-0.00254159
-0.00274142
-0.00292871
-0.00310659
-0.00327747
-0.00344306
-0.0036044
-0.00376192
-0.00391545
-0.00406431
-0.0042073
-0.00434281
-0.00446881
-0.00458298
-0.00468268
-0.00476508
-0.0048272
-0.00486601
-0.00487843
-0.00486151
-0.00481243
-0.00472864
-0.0046079
-0.00444843
-0.00424895
-0.00400878
-0.00372793
-0.00340718
-0.0030481
-0.00265318
-0.00222578
-0.0017702
-0.00129166
-0.000796263
-0.00029091
0.000216768
0.000718551
0.00120578
0.00166956
0.00210094
0.00249119
0.00283201
0.00311579
0.00333588
0.00348678
0.00356435
0.00356596
0.00349063
0.00333902
0.00311346
0.0028179
0.0024577
0.00203954
0.00157109
0.00106087
0.000517847
-4.89961e-05
-0.000630732
-0.00121554
-0.0017924
-0.00239551
-0.003057
0.00104901
0.000246238
-0.000378897
-0.000881273
-0.00132736
-0.00172185
-0.00206861
-0.0023756
-0.00265027
-0.00289905
-0.00312761
-0.00334084
-0.00354281
-0.00373681
-0.00392534
-0.00411015
-0.00429229
-0.00447215
-0.00464951
-0.00482355
-0.00499297
-0.00515596
-0.00531031
-0.00545344
-0.00558248
-0.00569428
-0.00578555
-0.00585289
-0.00589285
-0.00590204
-0.00587723
-0.00581538
-0.00571381
-0.00557023
-0.00538289
-0.00515063
-0.00487302
-0.0045504
-0.00418399
-0.00377597
-0.00332948
-0.0028487
-0.00233885
-0.00180614
-0.00125774
-0.000701708
-0.000146847
0.000397445
0.000921365
0.00141493
0.00186823
0.00227171
0.00261644
0.00289442
0.00309883
0.00322429
0.00326703
0.00322512
0.00309847
0.0028889
0.00260008
0.00223743
0.00180787
0.0013196
0.000781856
0.000204519
-0.000402443
-0.00102904
-0.00166206
-0.00228914
-0.00294772
-0.00367282
0.00051934
-0.000305703
-0.000947842
-0.00146373
-0.00192199
-0.00232774
-0.00268523
-0.00300292
-0.00328866
-0.00354927
-0.00379072
-0.00401815
-0.00423583
-0.00444716
-0.00465475
-0.00486038
-0.00506511
-0.00526928
-0.00547259
-0.00567414
-0.00587245
-0.00606557
-0.00625108
-0.00642614
-0.00658762
-0.00673207
-0.00685585
-0.00695518
-0.00702621
-0.00706511
-0.00706816
-0.00703184
-0.00695292
-0.0068286
-0.00665657
-0.00643513
-0.00616331
-0.00584097
-0.00546888
-0.00504881
-0.00458361
-0.00407725
-0.00353486
-0.00296272
-0.00236822
-0.00175979
-0.0011468
-0.000539425
5.16011e-05
0.000615176
0.00114012
0.00161548
0.00203083
0.00237664
0.00264456
0.00282773
0.00292106
0.00292142
0.00282778
0.0026413
0.00236525
0.00200495
0.00156758
0.00106184
0.000497727
-0.000113894
-0.000761968
-0.00143532
-0.0021192
-0.00279977
-0.00351799
-0.00431198
-9.74047e-05
-0.000942052
-0.00159925
-0.00212725
-0.00259661
-0.00301286
-0.00338064
-0.00370884
-0.00400576
-0.00427855
-0.00453348
-0.00477593
-0.00501034
-0.00524025
-0.00546834
-0.00569644
-0.00592559
-0.0061561
-0.0063876
-0.00661907
-0.0068489
-0.00707496
-0.00729461
-0.00750478
-0.00770206
-0.00788269
-0.00804267
-0.00817783
-0.00828388
-0.00835653
-0.00839153
-0.00838484
-0.00833265
-0.00823156
-0.00807865
-0.0078716
-0.00760883
-0.00728962
-0.00691419
-0.00648382
-0.00600097
-0.00546929
-0.00489374
-0.00428057
-0.00363732
-0.00297275
-0.00229678
-0.00162032
-0.000955094
-0.000313374
0.000292289
0.000849401
0.00134589
0.00177046
0.00211302
0.00236499
0.00251967
0.00257252
0.00252132
0.00236633
0.00211028
0.00175829
0.00131766
0.000797611
0.000208931
-0.00043648
-0.00112637
-0.00184825
-0.00258566
-0.00332315
-0.00410546
-0.00497413
-0.000803672
-0.00166515
-0.0023354
-0.00287408
-0.00335344
-0.00377941
-0.004157
-0.00449555
-0.00480374
-0.00508906
-0.00535806
-0.00561634
-0.00586852
-0.00611826
-0.0063683
-0.00662053
-0.00687598
-0.00713492
-0.0073969
-0.0076608
-0.00792487
-0.00818679
-0.00844374
-0.00869241
-0.00892908
-0.00914968
-0.00934986
-0.00952502
-0.00967042
-0.00978128
-0.00985282
-0.00988038
-0.00985956
-0.00978629
-0.00965696
-0.00946857
-0.00921885
-0.00890637
-0.00853073
-0.0080926
-0.00759391
-0.00703792
-0.00642929
-0.00577414
-0.00508005
-0.00435606
-0.00361257
-0.00286121
-0.00211469
-0.00138651
-0.000690677
-4.13492e-05
0.000547558
0.00106281
0.00149228
0.00182542
0.00205363
0.00217064
0.00217277
0.00205915
0.00183172
0.00149523
0.00105704
0.000526803
-8.38902e-05
-0.00076203
-0.00149406
-0.00226607
-0.00305966
-0.00385761
-0.00470877
-0.00565836
-0.00160148
-0.00247693
-0.00315817
-0.00370605
-0.00419429
-0.00462918
-0.00501611
-0.00536482
-0.00568437
-0.00598256
-0.0062662
-0.0065411
-0.00681207
-0.00708286
-0.00735632
-0.00763434
-0.00791796
-0.00820743
-0.00850221
-0.00880109
-0.00910219
-0.00940303
-0.00970056
-0.00999124
-0.0102711
-0.0105357
-0.0107803
-0.0109999
-0.0111894
-0.0113433
-0.0114564
-0.0115234
-0.0115391
-0.0114989
-0.0113983
-0.0112335
-0.0110016
-0.0107002
-0.0103283
-0.0098858
-0.00937397
-0.00879552
-0.00815472
-0.0074574
-0.00671111
-0.00592503
-0.00510997
-0.00427824
-0.00344351
-0.00262053
-0.00182483
-0.00107236
-0.000379043
0.000239704
0.000769491
0.00119746
0.00151281
0.0017072
0.00177517
0.00171437
0.00152573
0.00121339
0.000784604
0.000249391
-0.000379863
-0.00108899
-0.00186303
-0.00268647
-0.00353883
-0.00440087
-0.00532591
-0.00636313
-0.00249237
-0.00337886
-0.00406897
-0.00462457
-0.00512054
-0.00556355
-0.00595933
-0.006318
-0.00664896
-0.00696032
-0.00725913
-0.00755143
-0.00784216
-0.0081352
-0.00843347
-0.00873891
-0.00905256
-0.00937463
-0.00970454
-0.010041
-0.0103819
-0.0107247
-0.0110662
-0.0114025
-0.0117295
-0.0120423
-0.0123358
-0.0126047
-0.0128432
-0.0130454
-0.0132055
-0.0133174
-0.0133754
-0.013374
-0.0133078
-0.0131724
-0.0129638
-0.0126788
-0.0123154
-0.0118728
-0.0113514
-0.0107533
-0.0100822
-0.00934344
-0.00854443
-0.00769438
-0.00680438
-0.00588734
-0.00495784
-0.00403188
-0.00312656
-0.00225972
-0.00144946
-0.000713576
-6.90232e-05
0.000468735
0.000886296
0.0011729
0.00132089
0.00132611
0.00118809
0.000910143
0.000499185
-3.45199e-05
-0.000677834
-0.00141539
-0.00223072
-0.00310657
-0.00402013
-0.00494992
-0.00595412
-0.00708614
-0.00347742
-0.00437196
-0.00506881
-0.00563061
-0.00613317
-0.00658347
-0.00698758
-0.00735597
-0.00769837
-0.00802315
-0.00833763
-0.00864801
-0.0089594
-0.00927582
-0.00960023
-0.00993464
-0.0102801
-0.0106368
-0.0110041
-0.0113806
-0.0117641
-0.012152
-0.0125408
-0.0129265
-0.0133045
-0.0136697
-0.0140168
-0.0143398
-0.0146326
-0.0148887
-0.0151015
-0.0152644
-0.0153709
-0.0154145
-0.0153892
-0.0152895
-0.0151104
-0.0148477
-0.0144986
-0.0140611
-0.0135348
-0.0129209
-0.0122223
-0.0114439
-0.0105927
-0.00967771
-0.00871027
-0.00770373
-0.0066735
-0.00563676
-0.00461223
-0.00361971
-0.00267958
-0.00181227
-0.00103756
-0.000373859
0.000162444
0.000557722
0.000801703
0.000887959
0.000814257
0.000582692
0.000199615
-0.000324658
-0.000976315
-0.00173877
-0.00259397
-0.00352275
-0.00449972
-0.00550092
-0.00658975
-0.00782415
-0.00455718
-0.00545676
-0.00615821
-0.0067247
-0.00723267
-0.00768943
-0.00810132
-0.00847916
-0.00883296
-0.00917136
-0.00950189
-0.00983095
-0.0101638
-0.0105046
-0.0108564
-0.0112211
-0.0116
-0.0119932
-0.0124
-0.012819
-0.0132479
-0.0136839
-0.0141233
-0.0145619
-0.0149949
-0.015417
-0.0158223
-0.0162045
-0.0165569
-0.0168726
-0.0171442
-0.0173644
-0.0175259
-0.0176214
-0.0176439
-0.0175868
-0.0174441
-0.0172106
-0.0168823
-0.016456
-0.0159304
-0.0153055
-0.0145835
-0.0137684
-0.0128666
-0.011887
-0.0108407
-0.00974139
-0.00860527
-0.00745063
-0.00629772
-0.00516833
-0.00408529
-0.00307181
-0.00215076
-0.00134388
-0.000670932
-0.000148893
0.000208842
0.000393086
0.000399349
0.000228098
-0.000115239
-0.000620527
-0.00127341
-0.00205612
-0.00294891
-0.00393057
-0.00497284
-0.00604904
-0.00722813
-0.00857292
-0.00573167
-0.0066333
-0.00733722
-0.0079069
-0.00841912
-0.00888147
-0.00930057
-0.00968753
-0.0100526
-0.0104047
-0.0107516
-0.0110998
-0.0114547
-0.0118207
-0.0122008
-0.0125972
-0.013011
-0.0134424
-0.0138907
-0.0143544
-0.0148312
-0.015318
-0.0158112
-0.0163064
-0.0167983
-0.0172815
-0.0177497
-0.0181961
-0.0186136
-0.0189946
-0.0193312
-0.0196153
-0.0198386
-0.0199931
-0.0200707
-0.0200637
-0.019965
-0.0197683
-0.0194681
-0.0190601
-0.0185418
-0.017912
-0.0171717
-0.016324
-0.0153746
-0.0143317
-0.0132064
-0.0120124
-0.0107663
-0.00948752
-0.00819776
-0.0069208
-0.00568195
-0.00450736
-0.00342326
-0.00245505
-0.00162631
-0.000957878
-0.00046682
-0.000165663
-6.17137e-05
-0.00015665
-0.000446398
-0.00092133
-0.00156674
-0.00236375
-0.00329085
-0.00432463
-0.00543369
-0.0065883
-0.00786341
-0.00932695
-0.00700039
-0.00790114
-0.00860543
-0.00917682
-0.00969213
-0.0101592
-0.0105849
-0.0109805
-0.0113567
-0.0117224
-0.0120857
-0.0124534
-0.0128309
-0.0132226
-0.0136319
-0.0140609
-0.0145108
-0.0149818
-0.0154733
-0.0159837
-0.0165106
-0.017051
-0.0176009
-0.0181558
-0.0187104
-0.0192588
-0.0197944
-0.02031
-0.020798
-0.0212501
-0.0216579
-0.0220124
-0.0223047
-0.0225255
-0.0226658
-0.0227169
-0.0226703
-0.0225183
-0.0222544
-0.0218727
-0.0213692
-0.0207415
-0.0199893
-0.0191145
-0.0181218
-0.0170186
-0.0158155
-0.014526
-0.0131673
-0.0117594
-0.0103254
-0.00889089
-0.00748379
-0.00613329
-0.00486918
-0.00372085
-0.00271614
-0.00188026
-0.00123457
-0.000795588
-0.000574093
-0.000574517
-0.000794678
-0.00122587
-0.00185333
-0.00265716
-0.00361412
-0.00469841
-0.00587523
-0.00711142
-0.00848836
-0.0100794
-0.00836228
-0.00925932
-0.00996197
-0.0105336
-0.0110509
-0.0115217
-0.0119533
-0.0123572
-0.012744
-0.0131232
-0.0135029
-0.01389
-0.0142902
-0.0147081
-0.015147
-0.0156093
-0.0160961
-0.0166079
-0.0171439
-0.0177025
-0.0182815
-0.0188777
-0.019487
-0.0201047
-0.0207254
-0.0213428
-0.02195
-0.0225395
-0.0231031
-0.0236321
-0.0241172
-0.0245488
-0.0249169
-0.0252115
-0.0254225
-0.0255397
-0.0255536
-0.0254551
-0.025236
-0.0248893
-0.0244091
-0.0237917
-0.0230351
-0.0221399
-0.0211096
-0.0199505
-0.0186723
-0.0172885
-0.015816
-0.0142754
-0.0126909
-0.0110902
-0.00950325
-0.00796255
-0.00650158
-0.005154
-0.00395236
-0.00292677
-0.00210354
-0.0015039
-0.00114284
-0.00102827
-0.00116055
-0.00153243
-0.00212947
-0.00293096
-0.00391195
-0.00504414
-0.00628901
-0.00760963
-0.00909418
-0.0108217
-0.00981578
-0.0107064
-0.0114055
-0.011976
-0.0124941
-0.0129679
-0.0134046
-0.013816
-0.0142131
-0.0146053
-0.015001
-0.0154072
-0.01583
-0.0162739
-0.0167426
-0.0172384
-0.0177627
-0.0183158
-0.0188973
-0.0195054
-0.020138
-0.0207917
-0.0214626
-0.0221457
-0.0228354
-0.0235252
-0.024208
-0.0248758
-0.0255199
-0.026131
-0.0266993
-0.0272144
-0.0276653
-0.0280411
-0.0283305
-0.0285221
-0.0286052
-0.0285691
-0.0284041
-0.0281014
-0.0276538
-0.0270556
-0.0263032
-0.0253956
-0.0243348
-0.0231257
-0.0217771
-0.0203015
-0.0187158
-0.0170408
-0.0153016
-0.0135272
-0.0117501
-0.0100059
-0.00833171
-0.00676583
-0.00534588
-0.00410741
-0.00308235
-0.00229741
-0.00177263
-0.00152025
-0.00154395
-0.0018386
-0.00239056
-0.00317864
-0.00417628
-0.00535258
-0.00666498
-0.00807243
-0.00967029
-0.0115435
-0.0113588
-0.0122406
-0.0129343
-0.0135025
-0.0140203
-0.0144959
-0.014937
-0.0153552
-0.0157618
-0.0161663
-0.0165773
-0.0170021
-0.0174469
-0.0179164
-0.0184145
-0.0189436
-0.0195053
-0.0200999
-0.0207272
-0.0213855
-0.0220726
-0.0227852
-0.0235193
-0.0242698
-0.025031
-0.0257962
-0.0265579
-0.0273078
-0.0280368
-0.0287351
-0.029392
-0.0299965
-0.0305368
-0.0310009
-0.0313763
-0.0316506
-0.0318115
-0.0318468
-0.0317452
-0.0314963
-0.031091
-0.0305217
-0.0297831
-0.0288723
-0.0277893
-0.0265377
-0.0251248
-0.0235621
-0.0218658
-0.0200565
-0.01816
-0.0162066
-0.0142308
-0.0122709
-0.0103682
-0.00856556
-0.0069059
-0.00543083
-0.00417856
-0.00318209
-0.00246744
-0.00205212
-0.00194406
-0.00214106
-0.00263093
-0.00339243
-0.00439755
-0.00561279
-0.00699125
-0.00848735
-0.0102041
-0.0122325
-0.0129887
-0.0138595
-0.0145463
-0.0151109
-0.0156273
-0.016104
-0.0165484
-0.0169725
-0.0173875
-0.0178033
-0.0182287
-0.018671
-0.0191368
-0.0196309
-0.0201575
-0.0207191
-0.0213175
-0.0219532
-0.022626
-0.0233346
-0.0240765