/*--------------------------------*- C++ -*----------------------------------*\
  =========                 |
  \\      /  F ield         | OpenFOAM: The Open Source CFD Toolbox
   \\    /   O peration     | Website:  https://openfoam.org
    \\  /    A nd           | Version:  dev
     \\/     M anipulation  |
\*---------------------------------------------------------------------------*/
FoamFile
{
    format      ascii;
    class       surfaceScalarField;
    location    "18";
    object      phi;
}
// * * * * * * * * * * * * * * * * * * * * * * * * * * * * * * * * * * * * * //

dimensions      [0 3 -1 0 0 0 0];

internalField   nonuniform List<scalar> 
10224
(
3.40353e-08
-3.45591e-08
8.78169e-08
-5.37754e-08
1.24205e-07
-3.63378e-08
1.25025e-07
-8.07017e-10
8.33094e-08
4.17034e-08
-2.19746e-09
8.5497e-08
-1.29683e-07
1.27471e-07
-2.95842e-07
1.66144e-07
-4.96617e-07
2.00765e-07
-7.27714e-07
2.31091e-07
-9.84869e-07
2.57153e-07
-1.264e-06
2.79128e-07
-1.56126e-06
2.97268e-07
-1.87312e-06
3.11857e-07
-2.1963e-06
3.23179e-07
-2.52779e-06
3.31499e-07
-2.86485e-06
3.37055e-07
-3.2049e-06
3.40048e-07
-3.54554e-06
3.40639e-07
-3.88449e-06
3.38952e-07
-4.21956e-06
3.35069e-07
-4.5486e-06
3.29044e-07
-4.8695e-06
3.20901e-07
-5.18014e-06
3.10644e-07
-5.4784e-06
2.9826e-07
-5.76213e-06
2.8373e-07
-6.02917e-06
2.67032e-07
-6.27732e-06
2.48149e-07
-6.50439e-06
2.27076e-07
-6.70822e-06
2.03826e-07
-6.88665e-06
1.78439e-07
-7.03763e-06
1.50982e-07
-7.15919e-06
1.21557e-07
-7.24949e-06
9.03028e-08
-7.30689e-06
5.73994e-08
-7.32996e-06
2.30689e-08
-7.31754e-06
-1.24227e-08
-7.26877e-06
-4.87683e-08
-7.18315e-06
-8.56195e-08
-7.06056e-06
-1.22589e-07
-6.9013e-06
-1.59256e-07
-6.70613e-06
-1.95175e-07
-6.47625e-06
-2.29875e-07
-6.21338e-06
-2.62873e-07
-5.9197e-06
-2.93683e-07
-5.59787e-06
-3.21824e-07
-5.25104e-06
-3.4683e-07
-4.88278e-06
-3.68263e-07
-4.49706e-06
-3.85722e-07
-4.0982e-06
-3.98853e-07
-3.69084e-06
-4.07361e-07
-3.27982e-06
-4.11016e-07
-2.87016e-06
-4.09664e-07
-2.46693e-06
-4.03227e-07
-2.07522e-06
-3.91716e-07
-1.69999e-06
-3.75225e-07
-1.34605e-06
-3.53939e-07
-1.01792e-06
-3.28134e-07
-7.19752e-07
-2.98167e-07
-4.55262e-07
-2.64489e-07
-2.27627e-07
-2.27635e-07
-3.93895e-08
-1.88237e-07
1.07642e-07
-1.47032e-07
2.12529e-07
-1.04887e-07
2.75382e-07
-6.28523e-08
2.97627e-07
-2.22448e-08
2.82432e-07
1.5194e-08
2.35381e-07
4.70504e-08
1.65519e-07
6.98631e-08
8.7119e-08
7.84038e-08
2.25271e-08
6.45941e-08
2.25278e-08
5.39795e-08
-8.8528e-08
1.12349e-07
-1.12062e-07
1.17919e-07
-4.18858e-08
3.84338e-08
7.86647e-08
-1.42465e-07
2.22575e-07
-4.30058e-07
3.73073e-07
-8.22577e-07
5.19983e-07
-1.31388e-06
6.57451e-07
-1.89542e-06
7.82306e-07
-2.5574e-06
8.93067e-07
-3.28954e-06
9.89299e-07
-4.08163e-06
1.07121e-06
-4.92373e-06
1.13937e-06
-5.80643e-06
1.19456e-06
-6.72086e-06
1.2376e-06
-7.65869e-06
1.26933e-06
-8.61212e-06
1.29049e-06
-9.57383e-06
1.30176e-06
-1.05369e-05
1.30367e-06
-1.14946e-05
1.29667e-06
-1.24406e-05
1.28105e-06
-1.33685e-05
1.25703e-06
-1.42724e-05
1.22473e-06
-1.51459e-05
1.1842e-06
-1.59831e-05
1.13542e-06
-1.67777e-05
1.07839e-06
-1.75238e-05
1.01307e-06
-1.82151e-05
9.39469e-07
-1.88457e-05
8.57627e-07
-1.94095e-05
7.67658e-07
-1.99008e-05
6.69765e-07
-2.03141e-05
5.64259e-07
-2.06441e-05
4.51572e-07
-2.08861e-05
3.32272e-07
-2.10357e-05
2.07073e-07
-2.10895e-05
7.68355e-08
-2.10445e-05
-5.74264e-08
-2.08987e-05
-1.94549e-07
-2.06511e-05
-3.33229e-07
-2.03017e-05
-4.72031e-07
-1.98515e-05
-6.09404e-07
-1.9303e-05
-7.43706e-07
-1.86596e-05
-8.73224e-07
-1.79263e-05
-9.96205e-07
-1.71091e-05
-1.11089e-06
-1.62154e-05
-1.21554e-06
-1.52537e-05
-1.30848e-06
-1.42339e-05
-1.38814e-06
-1.31665e-05
-1.45308e-06
-1.20633e-05
-1.50206e-06
-1.09366e-05
-1.53401e-06
-9.79951e-06
-1.54814e-06
-8.66528e-06
-1.54389e-06
-7.54749e-06
-1.52102e-06
-6.45963e-06
-1.47958e-06
-5.4149e-06
-1.41995e-06
-4.42601e-06
-1.34283e-06
-3.50488e-06
-1.24926e-06
-2.66245e-06
-1.1406e-06
-1.9084e-06
-1.01854e-06
-1.25091e-06
-8.85129e-07
-6.96365e-07
-7.42781e-07
-2.49078e-07
-5.94319e-07
8.9099e-08
-4.43065e-07
3.19234e-07
-2.92988e-07
4.45916e-07
-1.48926e-07
4.78113e-07
-1.70013e-08
4.30272e-07
9.48903e-08
3.23801e-07
1.76332e-07
1.88669e-07
2.13534e-07
6.42874e-08
1.88974e-07
8.6816e-08
3.73357e-08
-1.25813e-07
4.31941e-08
-1.17914e-07
-4.35564e-08
4.48443e-08
-2.59077e-07
2.94165e-07
-6.22925e-07
5.86396e-07
-1.14217e-06
8.92298e-07
-1.81507e-06
1.19287e-06
-2.63396e-06
1.47634e-06
-3.5875e-06
1.73584e-06
-4.66216e-06
1.96773e-06
-5.8434e-06
2.17054e-06
-7.11636e-06
2.34416e-06
-8.46633e-06
2.48935e-06
-9.87909e-06
2.60733e-06
-1.13411e-05
2.69956e-06
-1.28393e-05
2.76755e-06
-1.43615e-05
2.81271e-06
-1.58961e-05
2.83633e-06
-1.74318e-05
2.83946e-06
-1.89582e-05
2.82297e-06
-2.04646e-05
2.78751e-06
-2.19411e-05
2.73352e-06
-2.33777e-05
2.66129e-06
-2.47644e-05
2.57096e-06
-2.60916e-05
2.4626e-06
-2.73494e-05
2.33623e-06
-2.85282e-05
2.19188e-06
-2.96184e-05
2.02964e-06
-3.06105e-05
1.84971e-06
-3.14952e-05
1.6524e-06
-3.22637e-05
1.43826e-06
-3.29075e-05
1.20803e-06
-3.34186e-05
9.6271e-07
-3.37899e-05
7.0359e-07
-3.40151e-05
4.32252e-07
-3.40889e-05
1.50586e-07
-3.40071e-05
-1.39209e-07
-3.3767e-05
-4.34632e-07
-3.33673e-05
-7.32892e-07
-3.28084e-05
-1.03094e-06
-3.20923e-05
-1.32549e-06
-3.1223e-05
-1.61309e-06
-3.0206e-05
-1.89014e-06
-2.90493e-05
-2.15297e-06
-2.77623e-05
-2.3979e-06
-2.63565e-05
-2.62131e-06
-2.48452e-05
-2.81973e-06
-2.32435e-05
-2.9899e-06
-2.15677e-05
-3.12884e-06
-1.98358e-05
-3.23397e-06
-1.80667e-05
-3.30311e-06
-1.62802e-05
-3.3346e-06
-1.44968e-05
-3.32734e-06
-1.2737e-05
-3.28085e-06
-1.10213e-05
-3.19526e-06
-9.36981e-06
-3.07141e-06
-7.80184e-06
-2.9108e-06
-6.33545e-06
-2.71565e-06
-4.98717e-06
-2.48888e-06
-3.77157e-06
-2.23414e-06
-2.70088e-06
-1.95581e-06
-1.78458e-06
-1.65908e-06
-1.0289e-06
-1.35e-06
-4.36307e-07
-1.03566e-06
-4.91374e-09
-7.24383e-07
2.72328e-07
-4.26167e-07
4.08464e-07
-1.53136e-07
4.23695e-07
7.96621e-08
3.46597e-07
2.53431e-07
2.15317e-07
3.44813e-07
7.85064e-08
3.25784e-07
1.65323e-07
1.87486e-09
-1.27667e-07
-7.90477e-08
-3.70092e-08
-2.97758e-07
2.6353e-07
-6.87893e-07
6.84282e-07
-1.26772e-06
1.1662e-06
-2.04347e-06
1.66804e-06
-3.01234e-06
2.16172e-06
-4.16508e-06
2.62907e-06
-5.48809e-06
3.05884e-06
-6.96507e-06
3.44471e-06
-8.57819e-06
3.78366e-06
-1.0309e-05
4.07498e-06
-1.2139e-05
4.31936e-06
-1.40501e-05
4.5184e-06
-1.60246e-05
4.67412e-06
-1.80458e-05
4.78873e-06
-2.00975e-05
4.86434e-06
-2.2164e-05
4.90291e-06
-2.42307e-05
4.90611e-06
-2.6283e-05
4.87528e-06
-2.8307e-05
4.81149e-06
-3.02889e-05
4.71549e-06
-3.22154e-05
4.58777e-06
-3.40731e-05
4.42867e-06
-3.58489e-05
4.23836e-06
-3.75297e-05
4.01699e-06
-3.91025e-05
3.76472e-06
-4.05547e-05
3.48183e-06
-4.18738e-05
3.16876e-06
-4.30476e-05
2.82621e-06
-4.40645e-05
2.45521e-06
-4.49136e-05
2.05715e-06
-4.55848e-05
1.63384e-06
-4.60687e-05
1.18756e-06
-4.63576e-05
7.21087e-07
-4.64447e-05
2.37687e-07
-4.6325e-05
-2.5886e-07
-4.59954e-05
-7.64288e-07
-4.54544e-05
-1.27387e-06
-4.47029e-05
-1.78244e-06
-4.37439e-05
-2.2845e-06
-4.25827e-05
-2.77424e-06
-4.12272e-05
-3.24564e-06
-3.96876e-05
-3.69258e-06
-3.79766e-05
-4.10895e-06
-3.61091e-05
-4.48874e-06
-3.41027e-05
-4.82619e-06
-3.19767e-05
-5.11589e-06
-2.97526e-05
-5.35293e-06
-2.74535e-05
-5.53302e-06
-2.5104e-05
-5.65259e-06
-2.27297e-05
-5.70892e-06
-2.03569e-05
-5.70019e-06
-1.80121e-05
-5.62562e-06
-1.57219e-05
-5.48549e-06
-1.35121e-05
-5.28122e-06
-1.14075e-05
-5.01537e-06
-9.43145e-06
-4.69169e-06
-7.60519e-06
-4.31514e-06
-5.94744e-06
-3.89189e-06
-4.47389e-06
-3.42937e-06
-3.19664e-06
-2.93633e-06
-2.12366e-06
-2.42298e-06
-1.25815e-06
-1.90116e-06
-5.97886e-07
-1.38465e-06
-1.34451e-07
-8.89603e-07
1.47618e-07
-4.35205e-07
2.7174e-07
-4.44587e-08
2.7032e-07
2.5485e-07
1.85793e-07
4.2934e-07
7.20527e-08
4.39524e-07
2.37377e-07
-4.20756e-08
-8.56024e-08
-2.30011e-07
1.50908e-07
-6.06356e-07
6.39844e-07
-1.19762e-06
1.27552e-06
-2.0175e-06
1.98607e-06
-3.06915e-06
2.71967e-06
-4.34736e-06
3.43994e-06
-5.84072e-06
4.12242e-06
-7.53336e-06
4.75149e-06
-9.40651e-06
5.31786e-06
-1.14396e-05
5.81679e-06
-1.36113e-05
6.24668e-06
-1.59e-05
6.60804e-06
-1.82843e-05
6.90267e-06
-2.07433e-05
7.13309e-06
-2.32567e-05
7.30215e-06
-2.5805e-05
7.41267e-06
-2.83694e-05
7.46727e-06
-3.09315e-05
7.46825e-06
-3.34737e-05
7.41749e-06
-3.59787e-05
7.3165e-06
-3.84296e-05
7.16636e-06
-4.08097e-05
6.96788e-06
-4.31026e-05
6.72158e-06
-4.52921e-05
6.42784e-06
-4.73621e-05
6.08699e-06
-4.92968e-05
5.69943e-06
-5.10807e-05
5.26572e-06
-5.26986e-05
4.78669e-06
-5.41359e-05
4.26355e-06
-5.53787e-05
3.69801e-06
-5.64139e-05
3.09228e-06
-5.72293e-05
2.44925e-06
-5.78142e-05
1.77243e-06
-5.81591e-05
1.06607e-06
-5.82566e-05
3.35156e-07
-5.81008e-05
-4.14625e-07
-5.76883e-05
-1.17686e-06
-5.70176e-05
-1.94449e-06
-5.60902e-05
-2.70984e-06
-5.491e-05
-3.46474e-06
-5.34836e-05
-4.2006e-06
-5.18207e-05
-4.90854e-06
-4.99337e-05
-5.57956e-06
-4.7838e-05
-6.20465e-06
-4.55518e-05
-6.775e-06
-4.30958e-05
-7.28215e-06
-4.04935e-05
-7.7182e-06
-3.77705e-05
-8.07595e-06
-3.49544e-05
-8.3491e-06
-3.20745e-05
-8.53245e-06
-2.91615e-05
-8.62201e-06
-2.62465e-05
-8.61514e-06
-2.33614e-05
-8.51071e-06
-2.05377e-05
-8.30917e-06
-1.78063e-05
-8.01261e-06
-1.51969e-05
-7.62485e-06
-1.27371e-05
-7.15147e-06
-1.04524e-05
-6.59983e-06
-8.3652e-06
-5.97909e-06
-6.49428e-06
-5.30029e-06
-4.85421e-06
-4.5764e-06
-3.45472e-06
-3.82247e-06
-2.30005e-06
-3.05583e-06
-1.38826e-06
-2.29644e-06
-7.10528e-07
-1.56733e-06
-2.50422e-07
-8.9531e-07
1.68634e-08
-3.11742e-07
1.25319e-07
1.46396e-07
1.19015e-07
4.35643e-07
5.34997e-08
5.05038e-07
2.90876e-07
-8.94214e-08
3.79984e-09
-3.9514e-07
4.56619e-07
-9.44489e-07
1.18917e-06
-1.75399e-06
2.08501e-06
-2.83041e-06
3.06248e-06
-4.17198e-06
4.06123e-06
-5.76983e-06
5.03778e-06
-7.6096e-06
5.96219e-06
-9.67283e-06
6.81471e-06
-1.19382e-05
7.58328e-06
-1.43828e-05
8.26137e-06
-1.69826e-05
8.84646e-06
-1.97133e-05
9.33874e-06
-2.25508e-05
9.74015e-06
-2.54713e-05
1.00536e-05
-2.84518e-05
1.02826e-05
-3.14697e-05
1.04306e-05
-3.45033e-05
1.05008e-05
-3.75313e-05
1.04962e-05
-4.0533e-05
1.04192e-05
-4.34883e-05
1.02718e-05
-4.63774e-05
1.00554e-05
-4.91807e-05
9.77115e-06
-5.18789e-05
9.41984e-06
-5.44532e-05
9.00209e-06
-5.68847e-05
8.51852e-06
-5.91551e-05
7.96983e-06
-6.12463e-05
7.35697e-06
-6.31409e-05
6.68129e-06
-6.48221e-05
5.94467e-06
-6.62737e-05
5.14962e-06
-6.74808e-05
4.29944e-06
-6.84298e-05
3.39822e-06
-6.91084e-05
2.451e-06
-6.9506e-05
1.46375e-06
-6.96143e-05
4.43432e-07
-6.94269e-05
-6.0203e-07
-6.894e-05
-1.66378e-06
-6.81524e-05
-2.73206e-06
-6.70659e-05
-3.79636e-06
-6.56852e-05
-4.84547e-06
-6.40181e-05
-5.86764e-06
-6.20759e-05
-6.85078e-06
-5.98728e-05
-7.7826e-06
-5.74266e-05
-8.65087e-06
-5.4758e-05
-9.44359e-06
-5.18909e-05
-1.01493e-05
-4.88519e-05
-1.07572e-05
-4.56703e-05
-1.12575e-05
-4.23776e-05
-1.16418e-05
-3.90072e-05
-1.19029e-05
-3.55938e-05
-1.20354e-05
-3.21733e-05
-1.20357e-05
-2.87818e-05
-1.19022e-05
-2.54554e-05
-1.16356e-05
-2.22293e-05
-1.12387e-05
-1.91375e-05
-1.07167e-05
-1.62117e-05
-1.00773e-05
-1.34811e-05
-9.33042e-06
-1.09715e-05
-8.48868e-06
-8.70462e-06
-7.56713e-06
-6.6976e-06
-6.58342e-06
-4.96209e-06
-5.55798e-06
-3.50375e-06
-4.51417e-06
-2.32157e-06
-3.47862e-06
-1.4072e-06
-2.4817e-06
-7.44381e-07
-1.55813e-06
-3.08322e-07
-7.47799e-07
-6.51094e-08
-9.68129e-08
2.89305e-08
3.41603e-07
2.81693e-08
5.05799e-07
3.19044e-07
-1.3757e-07
1.41349e-07
-5.65878e-07
8.84923e-07
-1.29636e-06
1.91964e-06
-2.33407e-06
3.1227e-06
-3.67728e-06
4.40569e-06
-5.31793e-06
5.70187e-06
-7.24241e-06
6.96226e-06
-9.43262e-06
8.1524e-06
-1.1867e-05
9.24913e-06
-1.45217e-05
1.02379e-05
-1.73711e-05
1.11108e-05
-2.03888e-05
1.18642e-05
-2.35482e-05
1.24982e-05
-2.68228e-05
1.30147e-05
-3.01862e-05
1.34171e-05
-3.3613e-05
1.37094e-05
-3.70781e-05
1.38957e-05
-4.0557e-05
1.39798e-05
-4.40261e-05
1.39653e-05
-4.74621e-05
1.38552e-05
-5.08421e-05
1.36518e-05
-5.41437e-05
1.33571e-05
-5.7345e-05
1.29724e-05
-6.04241e-05
1.2499e-05
-6.33596e-05
1.19376e-05
-6.61304e-05
1.12893e-05
-6.87158e-05
1.05552e-05
-7.10955e-05
9.73668e-06
-7.32499e-05
8.83575e-06
-7.51603e-05
7.85507e-06
-7.68089e-05
6.79816e-06
-7.81789e-05
5.66949e-06
-7.92553e-05
4.47463e-06
-8.00246e-05
3.22029e-06
-8.04753e-05
1.91442e-06
-8.05981e-05
5.66196e-07
-8.03861e-05
-8.1398e-07
-7.98354e-05
-2.21451e-06
-7.89447e-05
-3.62271e-06
-7.77162e-05
-5.02487e-06
-7.61552e-05
-6.40646e-06
-7.42706e-05
-7.75229e-06
-7.20747e-05
-9.04668e-06
-6.95835e-05
-1.02738e-05
-6.68165e-05
-1.14178e-05
-6.37969e-05
-1.24632e-05
-6.05509e-05
-1.33953e-05
-5.7108e-05
-1.42001e-05
-5.35005e-05
-1.4865e-05
-4.97634e-05
-1.53789e-05
-4.59335e-05
-1.57328e-05
-4.20495e-05
-1.59194e-05
-3.81509e-05
-1.59342e-05
-3.42779e-05
-1.57752e-05
-3.04706e-05
-1.54429e-05
-2.67683e-05
-1.4941e-05
-2.32088e-05
-1.42763e-05
-1.98276e-05
-1.34584e-05
-1.66576e-05
-1.25004e-05
-1.37278e-05
-1.14185e-05
-1.1063e-05
-1.02319e-05
-8.68292e-06
-8.96353e-06
-6.60143e-06
-7.63947e-06
-4.8261e-06
-6.2895e-06
-3.35744e-06
-4.94728e-06
-2.18839e-06
-3.65076e-06
-1.30376e-06
-2.44275e-06
-6.79895e-07
-1.37167e-06
-2.84202e-07
-4.92504e-07
-7.49098e-08
1.32312e-07
-6.97539e-10
4.31588e-07
3.18345e-07
-1.85274e-07
3.26606e-07
-7.37346e-07
1.43699e-06
-1.65221e-06
2.8345e-06
-2.92286e-06
4.39335e-06
-4.53821e-06
6.02104e-06
-6.48294e-06
7.64661e-06
-8.73786e-06
9.21718e-06
-1.12805e-05
1.0695e-05
-1.40857e-05
1.20543e-05
-1.71265e-05
1.32788e-05
-2.03749e-05
1.43592e-05
-2.38021e-05
1.52914e-05
-2.73792e-05
1.60752e-05
-3.10773e-05
1.67128e-05
-3.48682e-05
1.7208e-05
-3.8724e-05
1.75652e-05
-4.26175e-05
1.77891e-05
-4.65221e-05
1.78844e-05
-5.04116e-05
1.78549e-05
-5.42607e-05
1.77043e-05
-5.80442e-05
1.74353e-05
-6.17375e-05
1.70504e-05
-6.53162e-05
1.65512e-05
-6.87565e-05
1.59392e-05
-7.20345e-05
1.52157e-05
-7.51272e-05
1.4382e-05
-7.80117e-05
1.34397e-05
-8.06659e-05
1.23909e-05
-8.30683e-05
1.12381e-05
-8.51983e-05
9.98507e-06
-8.70365e-05
8.63636e-06
-8.85648e-05
7.19779e-06
-8.97667e-05
5.67655e-06
-9.06276e-05
4.08123e-06
-9.11351e-05
2.4219e-06
-9.12791e-05
7.10174e-07
-9.10522e-05
-1.04085e-06
-9.04501e-05
-2.81663e-06
-8.94716e-05
-4.60127e-06
-8.81188e-05
-6.37766e-06
-8.63975e-05
-8.12769e-06
-8.43174e-05
-9.83242e-06
-8.18917e-05
-1.14724e-05
-7.91377e-05
-1.30278e-05
-7.60765e-05
-1.44791e-05
-7.27328e-05
-1.58069e-05
-6.91352e-05
-1.69929e-05
-6.53155e-05
-1.80197e-05
-6.13088e-05
-1.88717e-05
-5.71527e-05
-1.9535e-05
-5.28874e-05
-1.99981e-05
-4.85547e-05
-2.02521e-05
-4.41979e-05
-2.02911e-05
-3.98608e-05
-2.01123e-05
-3.5587e-05
-1.97166e-05
-3.14198e-05
-1.91082e-05
-2.74007e-05
-1.82954e-05
-2.35689e-05
-1.72902e-05
-1.99609e-05
-1.61085e-05
-1.66089e-05
-1.47704e-05
-1.3541e-05
-1.32998e-05
-1.07798e-05
-1.17248e-05
-8.3417e-06
-1.00776e-05
-6.23669e-06
-8.39452e-06
-4.46737e-06
-6.7166e-06
-3.02861e-06
-5.08952e-06
-1.90713e-06
-3.56423e-06
-1.08122e-06
-2.19759e-06
-5.20558e-07
-1.05316e-06
-1.86282e-07
-2.01965e-07
-3.11487e-08
2.76456e-07
2.87197e-07
-2.31902e-07
5.58501e-07
-9.06798e-07
2.11189e-06
-2.00607e-06
3.93377e-06
-3.51067e-06
5.89794e-06
-5.39972e-06
7.91009e-06
-7.6501e-06
9.89699e-06
-1.02364e-05
1.18035e-05
-1.31312e-05
1.35898e-05
-1.63054e-05
1.52286e-05
-1.97289e-05
1.67023e-05
-2.33707e-05
1.8001e-05
-2.71997e-05
1.91204e-05
-3.11847e-05
2.00602e-05
-3.52949e-05
2.08231e-05
-3.95e-05
2.14131e-05
-4.37703e-05
2.18354e-05
-4.80765e-05
2.20953e-05
-5.239e-05
2.21979e-05
-5.66829e-05
2.21478e-05
-6.09278e-05
2.19491e-05
-6.50974e-05
2.1605e-05
-6.91653e-05
2.11182e-05
-7.31051e-05
2.04909e-05
-7.68908e-05
1.97249e-05
-8.0497e-05
1.88219e-05
-8.38985e-05
1.77835e-05
-8.70708e-05
1.6612e-05
-8.99899e-05
1.53099e-05
-9.26326e-05
1.38808e-05
-9.49768e-05
1.23293e-05
-9.70016e-05
1.06612e-05
-9.86876e-05
8.88375e-06
-0.000100017
7.00593e-06
-0.000100974
5.03831e-06
-0.000101545
2.99326e-06
-0.00010172
8.84979e-07
-0.00010149
-1.27058e-06
-0.000100851
-3.45572e-06
-9.98015e-05
-5.65117e-06
-9.83429e-05
-7.83622e-06
-9.64817e-05
-9.98893e-06
-9.42277e-05
-1.20864e-05
-9.1595e-05
-1.41051e-05
-8.86016e-05
-1.60211e-05
-8.52699e-05
-1.78108e-05
-8.1626e-05
-1.94507e-05
-7.77003e-05
-2.09187e-05
-7.35265e-05
-2.21935e-05
-6.91419e-05
-2.32563e-05
-6.45869e-05
-2.40901e-05
-5.99042e-05
-2.46807e-05
-5.51389e-05
-2.50173e-05
-5.03375e-05
-2.50925e-05
-4.55471e-05
-2.49027e-05
-4.08152e-05
-2.44485e-05
-3.61884e-05
-2.3735e-05
-3.17122e-05
-2.27717e-05
-2.74294e-05
-2.15729e-05
-2.33801e-05
-2.01578e-05
-1.96004e-05
-1.85502e-05
-1.61214e-05
-1.67788e-05
-1.2969e-05
-1.48772e-05
-1.01628e-05
-1.28837e-05
-7.71552e-06
-1.08418e-05
-5.63242e-06
-8.7997e-06
-3.91093e-06
-6.81101e-06
-2.54028e-06
-4.93487e-06
-1.5014e-06
-3.23647e-06
-7.66894e-07
-1.78767e-06
-3.01378e-07
-6.67482e-07
-6.20833e-08
3.71604e-08
2.25115e-07
-2.77182e-07
8.3568e-07
-1.07271e-06
2.90741e-06
-2.35431e-06
5.21538e-06
-4.0912e-06
7.63483e-06
-6.25267e-06
1.00716e-05
-8.80749e-06
1.24518e-05
-1.17237e-05
1.47197e-05
-1.49684e-05
1.68346e-05
-1.85085e-05
1.87686e-05
-2.231e-05
2.05038e-05
-2.63393e-05
2.20302e-05
-3.05626e-05
2.33437e-05
-3.49467e-05
2.44443e-05
-3.94587e-05
2.53351e-05
-4.40666e-05
2.6021e-05
-4.87387e-05
2.65075e-05
-5.34441e-05
2.68008e-05
-5.81527e-05
2.69065e-05
-6.28347e-05
2.68298e-05
-6.74609e-05
2.65753e-05
-7.20026e-05
2.61466e-05
-7.64313e-05
2.5547e-05
-8.07192e-05
2.47788e-05
-8.48386e-05
2.38443e-05
-8.87623e-05
2.27456e-05
-9.24635e-05
2.14847e-05
-9.5916e-05
2.00645e-05
-9.90942e-05
1.84882e-05
-0.000101974
1.67602e-05
-0.000104531
1.48862e-05
-0.000106743
1.28733e-05
-0.000108589
1.07304e-05
-0.000110052
8.46819e-06
-0.000111113
6.09932e-06
-0.000111758
3.63862e-06
-0.000111976
1.10295e-06
-0.000111758
-1.48871e-06
-0.000111098
-4.11542e-06
-0.000109995
-6.75434e-06
-0.00010845
-9.38099e-06
-0.00010647
-1.19694e-05
-0.000104063
-1.44926e-05
-0.000101246
-1.69228e-05
-9.80354e-05
-1.92316e-05
-9.44552e-05
-2.13909e-05
-9.05327e-05
-2.33733e-05
-8.62993e-05
-2.5152e-05
-8.17905e-05
-2.67023e-05
-7.70457e-05
-2.80011e-05
-7.21073e-05
-2.90285e-05
-6.70207e-05
-2.97673e-05
-6.18338e-05
-3.02042e-05
-5.65962e-05
-3.03302e-05
-5.13583e-05
-3.01406e-05
-4.61712e-05
-2.96356e-05
-4.10852e-05
-2.88209e-05
-3.61495e-05
-2.77074e-05
-3.1411e-05
-2.63114e-05
-2.69135e-05
-2.46553e-05
-2.26968e-05
-2.27668e-05
-1.8796e-05
-2.06795e-05
-1.52406e-05
-1.84326e-05
-1.20536e-05
-1.60708e-05
-9.25103e-06
-1.36444e-05
-6.84138e-06
-1.12094e-05
-4.82517e-06
-8.82722e-06
-3.19469e-06
-6.56535e-06
-1.93397e-06
-4.49718e-06
-1.01899e-06
-2.70266e-06
-4.18091e-07
-1.26838e-06
-9.29479e-08
-2.87984e-07
1.32168e-07
-3.21002e-07
1.15668e-06
-1.23423e-06
3.82064e-06
-2.6947e-06
6.67585e-06
-4.66037e-06
9.60049e-06
-7.09081e-06
1.2502e-05
-9.94662e-06
1.53076e-05
-1.3189e-05
1.79621e-05
-1.67797e-05
2.04253e-05
-2.06809e-05
2.26697e-05
-2.4855e-05
2.46779e-05
-2.92652e-05
2.64404e-05
-3.38753e-05
2.79538e-05
-3.86499e-05
2.92189e-05
-4.35542e-05
3.02394e-05
-4.85543e-05
3.10211e-05
-5.36172e-05
3.15704e-05
-5.87103e-05
3.18939e-05
-6.38019e-05
3.19981e-05
-6.88609e-05
3.18888e-05
-7.38567e-05
3.1571e-05
-7.87589e-05
3.10489e-05
-8.35378e-05
3.03259e-05
-8.81639e-05
2.94049e-05
-9.26082e-05
2.82886e-05
-9.68419e-05
2.69793e-05
-0.000100837
2.54797e-05
-0.000104565
2.3793e-05
-0.000108001
2.19234e-05
-0.000111116
1.98761e-05
-0.000113888
1.76578e-05
-0.000116292
1.5277e-05
-0.000118305
1.27442e-05
-0.000119909
1.0072e-05
-0.000121085
7.27511e-06
-0.000121817
4.37091e-06
-0.000122093
1.37903e-06
-0.000121904
-1.67851e-06
-0.000121242
-4.77736e-06
-0.000120105
-7.89106e-06
-0.000118495
-1.09912e-05
-0.000116416
-1.40477e-05
-0.00011388
-1.70292e-05
-0.000110899
-1.99034e-05
-0.000107493
-2.26374e-05
-0.000103686
-2.51986e-05
-9.95044e-05
-2.75546e-05
-9.49818e-05
-2.96746e-05
-9.01549e-05
-3.15292e-05
-8.50644e-05
-3.30916e-05
-7.97549e-05
-3.43379e-05
-7.42742e-05
-3.52479e-05
-6.86729e-05
-3.58056e-05
-6.30033e-05
-3.59997e-05
-5.73195e-05
-3.58244e-05
-5.16759e-05
-3.52792e-05
-4.61269e-05
-3.437e-05
-4.07253e-05
-3.31089e-05
-3.55224e-05
-3.15144e-05
-3.05661e-05
-2.96116e-05
-2.59004e-05
-2.74325e-05
-2.15646e-05
-2.50153e-05
-1.75922e-05
-2.2405e-05
-1.40102e-05
-1.96528e-05
-1.08385e-05
-1.68161e-05
-8.08921e-06
-1.39586e-05
-5.76652e-06
-1.11499e-05
-3.86621e-06
-8.46567e-06
-2.3758e-06
-5.98759e-06
-1.27485e-06
-3.80361e-06
-5.35496e-07
-2.00773e-06
-1.23541e-07
-6.9994e-07
8.62654e-09
-3.63321e-07
1.52e-06
-1.39089e-06
4.84821e-06
-3.02586e-06
8.31082e-06
-5.21542e-06
1.17901e-05
-7.90974e-06
1.51963e-05
-1.10613e-05
1.84592e-05
-1.46246e-05
2.15253e-05
-1.85556e-05
2.43562e-05
-2.28117e-05
2.69258e-05
-2.73517e-05
2.92179e-05
-3.21356e-05
3.12244e-05
-3.71246e-05
3.29428e-05
-4.22811e-05
3.43753e-05
-4.75684e-05
3.55268e-05
-5.29511e-05
3.64038e-05
-5.83946e-05
3.70138e-05
-6.38649e-05
3.73643e-05
-6.93292e-05
3.74624e-05
-7.4755e-05
3.73146e-05
-8.01104e-05
3.69264e-05
-8.53639e-05
3.63024e-05
-9.04844e-05
3.54465e-05
-9.54414e-05
3.43619e-05
-0.000100204
3.30516e-05
-0.000104743
3.15183e-05
-0.000109029
2.97653e-05
-0.000113033
2.77964e-05
-0.000116725
2.56163e-05
-0.000120081
2.32312e-05
-0.000123072
2.06489e-05
-0.000125674
1.78793e-05
-0.000127864
1.49344e-05
-0.000129621
1.18287e-05
-0.000130925
8.57923e-06
-0.00013176
5.20568e-06
-0.000132111
1.73056e-06
-0.000131969
-1.821e-06
-0.000131325
-5.42123e-06
-0.000130176
-9.03992e-06
-0.000128523
-1.26447e-05
-0.000126369
-1.62011e-05
-0.000123725
-1.96734e-05
-0.000120604
-2.30246e-05
-0.000117024
-2.6217e-05
-0.00011301
-2.92131e-05
-0.000108589
-3.19758e-05
-0.000103794
-3.44692e-05
-9.86639e-05
-3.66594e-05
-9.32404e-05
-3.85151e-05
-8.75699e-05
-4.00085e-05
-8.17022e-05
-4.11156e-05
-7.56905e-05
-4.18173e-05
-6.95902e-05
-4.21e-05
-6.34586e-05
-4.1956e-05
-5.7354e-05
-4.13839e-05
-5.13344e-05
-4.03896e-05
-4.54572e-05
-3.8986e-05
-3.9778e-05
-3.71936e-05
-3.43492e-05
-3.50404e-05
-2.92196e-05
-3.25621e-05
-2.4433e-05
-2.9802e-05
-2.00274e-05
-2.68105e-05
-1.60346e-05
-2.36457e-05
-1.24785e-05
-2.03721e-05
-9.37576e-06
-1.70614e-05
-6.73438e-06
-1.37913e-05
-4.55411e-06
-1.06459e-05
-2.82627e-06
-7.71543e-06
-1.53412e-06
-5.09577e-06
-6.53492e-07
-2.88835e-06
-1.5389e-07
-1.19954e-06
-1.45265e-07
-4.04125e-07
1.92412e-06
-1.5424e-06
5.98648e-06
-3.34683e-06
1.01153e-05
-5.75443e-06
1.41977e-05
-8.70628e-06
1.81482e-05
-1.2147e-05
2.18999e-05
-1.60242e-05
2.54025e-05
-2.02883e-05
2.86203e-05
-2.4892e-05
3.15295e-05
-2.97901e-05
3.41161e-05
-3.49396e-05
3.63739e-05
-4.0299e-05
3.83022e-05
-4.58285e-05
3.99048e-05
-5.14897e-05
4.1188e-05
-5.72455e-05
4.21596e-05
-6.306e-05
4.28283e-05
-6.88981e-05
4.32024e-05
-7.47258e-05
4.329e-05
-8.05093e-05
4.30982e-05
-8.6216e-05
4.2633e-05
-9.18132e-05
4.18996e-05
-9.72688e-05
4.09021e-05
-0.000102551
3.96443e-05
-0.000107629
3.81293e-05
-0.000112471
3.63604e-05
-0.000117047
3.43411e-05
-0.000121326
3.20758e-05
-0.00012528
2.95701e-05
-0.00012888
2.68309e-05
-0.000132098
2.38671e-05
-0.000134909
2.069e-05
-0.000137287
1.7313e-05
-0.000139211
1.37525e-05
-0.000140659
1.00277e-05
-0.000141614
6.16084e-06
-0.000142061
2.17715e-06
-0.000141987
-1.89511e-06
-0.000141383
-6.02472e-06
-0.000140246
-1.01777e-05
-0.000138573
-1.43176e-05
-0.000136368
-1.84057e-05
-0.00013364
-2.24015e-05
-0.000130401
-2.62633e-05
-0.00012667
-2.99483e-05
-0.000122469
-3.34138e-05
-0.000117827
-3.66177e-05
-0.000112778
-3.95188e-05
-0.000107359
-4.20783e-05
-0.000101614
-4.42601e-05
-9.55907e-05
-4.60315e-05
-8.93414e-05
-4.73648e-05
-8.29214e-05
-4.82373e-05
-7.63893e-05
-4.86322e-05
-6.98056e-05
-4.85396e-05
-6.32325e-05
-4.79571e-05
-5.67322e-05
-4.68899e-05
-5.03668e-05
-4.53514e-05
-4.41965e-05
-4.33639e-05
-3.82788e-05
-4.09581e-05
-3.26676e-05
-3.81733e-05
-2.74119e-05
-3.50576e-05
-2.2555e-05
-3.16675e-05
-1.81334e-05
-2.80673e-05
-1.41762e-05
-2.43293e-05
-1.07047e-05
-2.05329e-05
-7.73136e-06
-1.67646e-05
-5.26023e-06
-1.31171e-05
-3.28663e-06
-9.68903e-06
-1.79761e-06
-6.58479e-06
-7.72549e-07
-3.91341e-06
-1.84174e-07
-1.78792e-06
-3.29439e-07
-4.43406e-07
2.36753e-06
-1.68854e-06
7.2316e-06
-3.65693e-06
1.20837e-05
-6.27593e-06
1.68167e-05
-9.47791e-06
2.13501e-05
-1.31998e-05
2.56218e-05
-1.73828e-05
2.95855e-05
-2.19715e-05
3.32091e-05
-2.69142e-05
3.64721e-05
-3.21617e-05
3.93636e-05
-3.76677e-05
4.18799e-05
-4.33883e-05
4.40228e-05
-4.92815e-05
4.5798e-05
-5.53071e-05
4.72136e-05
-6.14266e-05
4.82791e-05
-6.76028e-05
4.90045e-05
-7.37997e-05
4.93993e-05
-7.9982e-05
4.94723e-05
-8.61154e-05
4.92316e-05
-9.2166e-05
4.86836e-05
-9.81006e-05
4.78341e-05
-0.000103886
4.66877e-05
-0.00010949
4.52483e-05
-0.00011488
4.35194e-05
-0.000120025
4.15047e-05
-0.000124892
3.92081e-05
-0.00012945
3.66345e-05
-0.00013367
3.37901e-05
-0.000137522
3.06826e-05
-0.000140977
2.7322e-05
-0.000144008
2.37207e-05
-0.000146589
1.98938e-05
-0.000148695
1.58594e-05
-0.000150306
1.16387e-05
-0.000151402
7.25641e-06
-0.000151965
2.74048e-06
-0.000151983
-1.87774e-06
-0.000151444
-6.56363e-06
-0.000150342
-1.12795e-05
-0.000148675
-1.59846e-05
-0.000146445
-2.0636e-05
-0.000143658
-2.51884e-05
-0.000140326
-2.9595e-05
-0.000136466
-3.3808e-05
-0.000132101
-3.77792e-05
-0.000127258
-4.1461e-05
-0.00012197
-4.48066e-05
-0.000116276
-4.77719e-05
-0.000110221
-5.03152e-05
-0.000103854
-5.23992e-05
-9.72271e-05
-5.39913e-05
-9.03999e-05
-5.50645e-05
-8.34333e-05
-5.55988e-05
-7.63915e-05
-5.55814e-05
-6.93405e-05
-5.50081e-05
-6.23472e-05
-5.38831e-05
-5.54786e-05
-5.22201e-05
-4.87999e-05
-5.00426e-05
-4.23745e-05
-4.73836e-05
-3.62617e-05
-4.42861e-05
-3.05163e-05
-4.0803e-05
-2.51873e-05
-3.69964e-05
-2.0317e-05
-3.29376e-05
-1.594e-05
-2.87063e-05
-1.20827e-05
-2.43903e-05
-8.7626e-06
-2.00847e-05
-5.98835e-06
-1.58913e-05
-3.75953e-06
-1.19178e-05
-2.06701e-06
-8.27731e-06
-8.93539e-07
-5.08689e-06
-2.1467e-07
-2.46678e-06
-5.44107e-07
-4.81144e-07
2.84868e-06
-1.82911e-06
8.57957e-06
-3.95556e-06
1.42101e-05
-6.77866e-06
1.96398e-05
-1.02225e-05
2.4794e-05
-1.42168e-05
2.96161e-05
-1.86961e-05
3.40649e-05
-2.35999e-05
3.81129e-05
-2.88717e-05
4.17439e-05
-3.44586e-05
4.49505e-05
-4.03112e-05
4.77325e-05
-4.63829e-05
5.00945e-05
-5.26297e-05
5.20448e-05
-5.90099e-05
5.35938e-05
-6.54835e-05
5.47527e-05
-7.20122e-05
5.55331e-05
-7.85589e-05
5.5946e-05
-8.50876e-05
5.60011e-05
-9.15632e-05
5.57072e-05
-9.79513e-05
5.50717e-05
-0.000104218
5.41006e-05
-0.000110329
5.2799e-05
-0.000116252
5.11711e-05
-0.000121953
4.92208e-05
-0.0001274
4.6952e-05
-0.000132561
4.4369e-05
-0.000137404
4.14771e-05
-0.000141897
3.8283e-05
-0.00014601
3.47954e-05
-0.000149713
3.10249e-05
-0.000152977
2.69852e-05
-0.000155776
2.26928e-05
-0.000158084
1.81674e-05
-0.000159878
1.34322e-05
-0.000161135
8.51425e-06
-0.000161839
3.44408e-06
-0.000161973
-1.74397e-06
-0.000161524
-7.01191e-06
-0.000160486
-1.23183e-05
-0.000158852
-1.76184e-05
-0.000156623
-2.28647e-05
-0.000153804
-2.80072e-05
-0.000150405
-3.29939e-05
-0.000146442
-3.77716e-05
-0.000141935
-4.22865e-05
-0.000136911
-4.64849e-05
-0.000131403
-5.03145e-05
-0.00012545
-5.3725e-05
-0.000119096
-5.6669e-05
-0.000112392
-5.91034e-05
-0.000105393
-6.09904e-05
-9.81586e-05
-6.22984e-05
-9.07542e-05
-6.30031e-05
-8.32473e-05
-6.30884e-05
-7.57079e-05
-6.25475e-05
-6.82078e-05
-6.13832e-05
-6.08191e-05
-5.96088e-05
-5.36131e-05
-5.72486e-05
-4.66588e-05
-5.43379e-05
-4.0022e-05
-5.09229e-05
-3.3764e-05
-4.70611e-05
-2.79401e-05
-4.28203e-05
-2.25988e-05
-3.82788e-05
-1.7781e-05
-3.35241e-05
-1.35187e-05
-2.86525e-05
-9.83511e-06
-2.37683e-05
-6.74372e-06
-1.89827e-05
-4.24863e-06
-1.44129e-05
-2.3446e-06
-1.01813e-05
-1.01762e-06
-6.41387e-06
-2.45724e-07
-3.23868e-06
-7.89831e-07
-5.17304e-07
3.36598e-06
-1.9639e-06
1.00262e-05
-4.24211e-06
1.64883e-05
-7.26145e-06
2.26591e-05
-1.09382e-05
2.84707e-05
-1.51949e-05
3.38728e-05
-1.99602e-05
3.88302e-05
-2.51683e-05
4.3321e-05
-3.07583e-05
4.73338e-05
-3.66735e-05
5.08658e-05
-4.28617e-05
5.39207e-05
-4.92737e-05
5.65065e-05
-5.58635e-05
5.86347e-05
-6.25878e-05
6.03181e-05
-6.94053e-05
6.15703e-05
-7.62768e-05
6.24046e-05
-8.31643e-05
6.28335e-05
-9.00312e-05
6.2868e-05
-9.68417e-05
6.25177e-05
-0.000103561
6.17908e-05
-0.000110154
6.06938e-05
-0.000116587
5.92322e-05
-0.000122827
5.74106e-05
-0.000128839
5.52331e-05
-0.000134591
5.27037e-05
-0.000140049
4.98272e-05
-0.000145181
4.66092e-05
-0.000149955
4.30568e-05
-0.000154339
3.91793e-05
-0.000158302
3.49883e-05
-0.000161815
3.04983e-05
-0.000164849
2.5727e-05
-0.000167378
2.06958e-05
-0.000169375
1.54297e-05
-0.000170819
9.95775e-06
-0.000171688
4.31305e-06
-0.000171965
-1.4672e-06
-0.000171635
-7.34181e-06
-0.000170687
-1.32657e-05
-0.000169116
-1.919e-05
-0.000166918
-2.50629e-05
-0.000164096
-3.08293e-05
-0.000160657
-3.64322e-05
-0.000156616
-4.18126e-05
-0.000151992
-4.69109e-05
-0.00014681
-5.16672e-05
-0.000141101
-5.60229e-05
-0.000134905
-5.99211e-05
-0.000128266
-6.33082e-05
-0.000121234
-6.61348e-05
-0.000113868
-6.83571e-05
-0.000106228
-6.9938e-05
-9.83827e-05
-7.08483e-05
-9.04033e-05
-7.10678e-05
-8.23644e-05
-7.05864e-05
-7.43427e-05
-6.94048e-05
-6.64161e-05
-6.75355e-05
-5.86619e-05
-6.50028e-05
-5.11559e-05
-6.18438e-05
-4.39709e-05
-5.81079e-05
-3.71751e-05
-5.38569e-05
-3.08309e-05
-4.91645e-05
-2.49941e-05
-4.41157e-05
-1.97121e-05
-3.88061e-05
-1.50235e-05
-3.33411e-05
-1.09573e-05
-2.78345e-05
-7.53268e-06
-2.24074e-05
-4.75833e-06
-1.71873e-05
-2.63309e-06
-1.23066e-05
-1.14613e-06
-7.90082e-06
-2.77729e-07
-4.10708e-06
-1.06756e-06
-5.51832e-07
3.91781e-06
-2.09265e-06
1.1567e-05
-4.51597e-06
1.89116e-05
-7.72311e-06
2.58662e-05
-1.16229e-05
3.23705e-05
-1.61314e-05
3.83813e-05
-2.11714e-05
4.38702e-05
-2.6672e-05
4.88216e-05
-3.25681e-05
5.32299e-05
-3.87996e-05
5.70974e-05
-4.53113e-05
6.04323e-05
-5.20516e-05
6.32469e-05
-5.89729e-05
6.55559e-05
-6.603e-05
6.73753e-05
-7.31808e-05
6.87211e-05
-8.0385e-05
6.96088e-05
-8.76039e-05
7.00524e-05
-9.48004e-05
7.00644e-05
-0.000101938
6.96555e-05