/*--------------------------------*- C++ -*----------------------------------*\
  =========                 |
  \\      /  F ield         | OpenFOAM: The Open Source CFD Toolbox
   \\    /   O peration     | Website:  https://openfoam.org
    \\  /    A nd           | Version:  dev
     \\/     M anipulation  |
\*---------------------------------------------------------------------------*/
FoamFile
{
    format      ascii;
    class       volVectorField;
    location    "18";
    object      U;
}
// * * * * * * * * * * * * * * * * * * * * * * * * * * * * * * * * * * * * * //

dimensions      [0 1 -1 0 0 0 0];

internalField   nonuniform List<vector> 
5184
(
(1.24372e-05 -1.25717e-05 0)
(4.52641e-05 -2.07537e-05 0)
(8.02462e-05 -1.71544e-05 0)
(9.57732e-05 -8.13989e-06 0)
(8.18625e-05 2.7019e-06 0)
(3.61293e-05 1.36304e-05 0)
(-4.08759e-05 2.3842e-05 0)
(-0.000147136 3.3029e-05 0)
(-0.000279867 4.10744e-05 0)
(-0.000436012 4.79827e-05 0)
(-0.000612454 5.3815e-05 0)
(-0.000806165 5.86558e-05 0)
(-0.00101428 6.25972e-05 0)
(-0.00123414 6.57305e-05 0)
(-0.00146329 6.81405e-05 0)
(-0.00169947 6.9902e-05 0)
(-0.00194061 7.10795e-05 0)
(-0.00218481 7.17257e-05 0)
(-0.00243027 7.18814e-05 0)
(-0.00267532 7.15766e-05 0)
(-0.00291835 7.08299e-05 0)
(-0.00315781 6.96515e-05 0)
(-0.00339216 6.80447e-05 0)
(-0.00361989 6.60064e-05 0)
(-0.00383947 6.35296e-05 0)
(-0.00404936 6.06049e-05 0)
(-0.00424801 5.72218e-05 0)
(-0.00443385 5.33708e-05 0)
(-0.00460531 4.90444e-05 0)
(-0.0047608 4.42395e-05 0)
(-0.00489877 3.89589e-05 0)
(-0.0050177 3.32118e-05 0)
(-0.00511613 2.70153e-05 0)
(-0.00519268 2.03956e-05 0)
(-0.00524611 1.3388e-05 0)
(-0.00527529 6.03811e-06 0)
(-0.00527928 -1.59776e-06 0)
(-0.00525735 -9.4535e-06 0)
(-0.00520902 -1.74529e-05 0)
(-0.00513403 -2.55099e-05 0)
(-0.00503247 -3.35304e-05 0)
(-0.0049047 -4.14132e-05 0)
(-0.00475142 -4.90514e-05 0)
(-0.0045737 -5.63338e-05 0)
(-0.00437292 -6.31483e-05 0)
(-0.00415084 -6.9383e-05 0)
(-0.00390955 -7.49292e-05 0)
(-0.00365148 -7.96841e-05 0)
(-0.00337934 -8.35534e-05 0)
(-0.00309614 -8.64536e-05 0)
(-0.0028051 -8.83139e-05 0)
(-0.00250966 -8.90792e-05 0)
(-0.00221337 -8.87115e-05 0)
(-0.00191987 -8.71909e-05 0)
(-0.00163285 -8.45167e-05 0)
(-0.00135593 -8.07082e-05 0)
(-0.00109265 -7.58047e-05 0)
(-0.000846383 -6.9865e-05 0)
(-0.00062026 -6.29663e-05 0)
(-0.000417134 -5.52044e-05 0)
(-0.000239499 -4.66934e-05 0)
(-8.94345e-05 -3.75657e-05 0)
(3.14729e-05 -2.79758e-05 0)
(0.000122208 -1.81058e-05 0)
(0.000182436 -8.18086e-06 0)
(0.000212658 1.50401e-06 0)
(0.000214453 1.05272e-05 0)
(0.000190865 1.82525e-05 0)
(0.000146912 2.36693e-05 0)
(9.06739e-05 2.50875e-05 0)
(3.65937e-05 1.98242e-05 0)
(6.22654e-06 6.24251e-06 0)
(2.0913e-05 -4.56551e-05 0)
(6.56563e-05 -6.53959e-05 0)
(9.45799e-05 -4.02892e-05 0)
(7.25077e-05 7.81582e-06 0)
(-1.93257e-05 6.57689e-05 0)
(-0.000187716 0.000125992 0)
(-0.00043323 0.00018421 0)
(-0.000752653 0.000238175 0)
(-0.00114045 0.00028675 0)
(-0.00158984 0.000329495 0)
(-0.00209349 0.000366368 0)
(-0.00264397 0.000397559 0)
(-0.00323396 0.000423379 0)
(-0.0038565 0.000444194 0)
(-0.00450498 0.000460381 0)
(-0.00517321 0.000472299 0)
(-0.0058554 0.000480268 0)
(-0.00654612 0.000484564 0)
(-0.00724024 0.000485412 0)
(-0.00793287 0.000482982 0)
(-0.00861933 0.000477396 0)
(-0.00929507 0.00046873 0)
(-0.00995562 0.000457022 0)
(-0.0105966 0.000442282 0)
(-0.0112135 0.000424498 0)
(-0.011802 0.000403647 0)
(-0.0123578 0.000379705 0)
(-0.0128763 0.000352655 0)
(-0.0133532 0.000322499 0)
(-0.0137843 0.000289261 0)
(-0.0141651 0.000253004 0)
(-0.0144917 0.000213828 0)
(-0.0147602 0.000171885 0)
(-0.0149669 0.000127376 0)
(-0.0151085 8.0561e-05 0)
(-0.0151823 3.17577e-05 0)
(-0.0151859 -1.86556e-05 0)
(-0.0151175 -7.02414e-05 0)
(-0.0149759 -0.000122506 0)
(-0.0147609 -0.000174903 0)
(-0.0144727 -0.000226839 0)
(-0.0141127 -0.000277683 0)
(-0.0136828 -0.000326775 0)
(-0.0131863 -0.000373438 0)
(-0.0126269 -0.000416988 0)
(-0.0120095 -0.00045675 0)
(-0.01134 -0.000492074 0)
(-0.0106249 -0.000522345 0)
(-0.00987148 -0.000547003 0)
(-0.00908797 -0.000565555 0)
(-0.00828299 -0.000577588 0)
(-0.00746572 -0.000582781 0)
(-0.00664568 -0.000580921 0)
(-0.00583258 -0.000571903 0)
(-0.00503621 -0.000555743 0)
(-0.00426621 -0.000532579 0)
(-0.00353195 -0.000502673 0)
(-0.00284234 -0.000466415 0)
(-0.00220565 -0.000424318 0)
(-0.00162936 -0.000377019 0)
(-0.00111993 -0.000325287 0)
(-0.000682667 -0.000270025 0)
(-0.000321473 -0.00021229 0)
(-3.86402e-05 -0.000153333 0)
(0.000165458 -9.46626e-05 0)
(0.000292737 -3.81553e-05 0)
(0.00034793 1.37369e-05 0)
(0.000339287 5.77123e-05 0)
(0.000279274 8.91846e-05 0)
(0.000185715 0.000101664 0)
(8.62384e-05 8.63883e-05 0)
(1.9657e-05 3.64523e-05 0)
(1.76511e-05 -8.10893e-05 0)
(4.12959e-05 -9.46015e-05 0)
(1.9446e-05 -1.87191e-05 0)
(-8.42464e-05 0.000106206 0)
(-0.000290498 0.000254734 0)
(-0.000608023 0.000410458 0)
(-0.00103806 0.000563081 0)
(-0.0015768 0.000706473 0)
(-0.00221707 0.000837192 0)
(-0.0029497 0.000953535 0)
(-0.00376443 0.00105491 0)
(-0.00465056 0.00114141 0)
(-0.00559737 0.00121354 0)
(-0.00659443 0.00127205 0)
(-0.00763168 0.00131773 0)
(-0.00869959 0.00135143 0)
(-0.00978908 0.0013739 0)
(-0.0108916 0.00138581 0)
(-0.0119988 0.00138774 0)
(-0.0131031 0.00138012 0)
(-0.0141967 0.00136329 0)
(-0.0152724 0.00133745 0)
(-0.0163228 0.00130276 0)
(-0.017341 0.00125926 0)
(-0.0183197 0.00120697 0)
(-0.0192521 0.00114588 0)
(-0.020131 0.00107598 0)
(-0.0209495 0.000997276 0)
(-0.0217008 0.000909845 0)
(-0.0223781 0.000813821 0)
(-0.0229748 0.000709435 0)
(-0.0234846 0.000597031 0)
(-0.0239017 0.000477081 0)
(-0.0242206 0.0003502 0)
(-0.0244364 0.000217152 0)
(-0.0245448 7.88577e-05 0)
(-0.0245425 -6.36044e-05 0)
(-0.024427 -0.000209001 0)
(-0.0241968 -0.000355953 0)
(-0.0238515 -0.000502944 0)
(-0.0233919 -0.000648342 0)
(-0.0228203 -0.000790417 0)
(-0.02214 -0.00092737 0)
(-0.021356 -0.00105736 0)
(-0.0204743 -0.00117854 0)
(-0.0195027 -0.0012891 0)
(-0.0184501 -0.00138728 0)
(-0.0173266 -0.00147143 0)
(-0.0161436 -0.00154007 0)
(-0.0149136 -0.00159187 0)
(-0.0136498 -0.00162575 0)
(-0.0123662 -0.00164085 0)
(-0.0110774 -0.00163662 0)
(-0.00979819 -0.0016128 0)
(-0.0085434 -0.00156946 0)
(-0.00732774 -0.00150699 0)
(-0.00616543 -0.00142615 0)
(-0.00506999 -0.00132803 0)
(-0.00405395 -0.00121408 0)
(-0.00312857 -0.00108609 0)
(-0.00230358 -0.000946233 0)
(-0.00158686 -0.000797078 0)
(-0.000984168 -0.000641622 0)
(-0.000498723 -0.000483393 0)
(-0.000130852 -0.000326581 0)
(0.000122505 -0.000176265 0)
(0.000268423 -3.87546e-05 0)
(0.000318719 7.79464e-05 0)
(0.000290493 0.000163555 0)
(0.000206934 0.000204919 0)
(0.000102256 0.000185942 0)
(2.49371e-05 9.0268e-05 0)
(8.82864e-06 -9.74895e-05 0)
(-7.06349e-06 -7.26483e-05 0)
(-0.000107675 8.52511e-05 0)
(-0.000322422 0.000318609 0)
(-0.000669492 0.000590014 0)
(-0.00115726 0.0008739 0)
(-0.00178644 0.00115327 0)
(-0.00255229 0.00141735 0)
(-0.00344624 0.00165969 0)
(-0.00445728 0.00187676 0)
(-0.00557296 0.002067 0)
(-0.00678007 0.00223018 0)
(-0.00806524 0.00236684 0)
(-0.00941522 0.00247803 0)
(-0.0108171 0.00256501 0)
(-0.0122585 0.00262911 0)
(-0.0137276 0.00267162 0)
(-0.0152129 0.00269369 0)
(-0.0167034 0.00269628 0)
(-0.0181888 0.0026802 0)
(-0.0196587 0.00264604 0)
(-0.0211033 0.00259422 0)
(-0.0225128 0.00252503 0)
(-0.0238774 0.0024386 0)
(-0.0251878 0.00233504 0)
(-0.0264345 0.00221437 0)
(-0.0276081 0.00207666 0)
(-0.0286994 0.00192202 0)
(-0.0296992 0.00175065 0)
(-0.0305988 0.00156291 0)
(-0.0313895 0.00135931 0)
(-0.0320631 0.00114059 0)
(-0.0326121 0.00090772 0)
(-0.0330295 0.000661942 0)
(-0.033309 0.000404765 0)
(-0.0334454 0.000137985 0)
(-0.0334344 -0.000136311 0)
(-0.033273 -0.00041576 0)
(-0.0329596 -0.000697731 0)
(-0.032494 -0.00097935 0)
(-0.0318775 -0.00125754 0)
(-0.031113 -0.00152904 0)
(-0.0302054 -0.0017905 0)
(-0.0291611 -0.00203846 0)
(-0.0279884 -0.00226948 0)
(-0.0266973 -0.0024802 0)
(-0.0252994 -0.00266736 0)
(-0.023808 -0.00282791 0)
(-0.022238 -0.0029591 0)
(-0.0206055 -0.00305848 0)
(-0.0189275 -0.00312405 0)
(-0.0172223 -0.00315426 0)
(-0.0155086 -0.00314809 0)
(-0.0138055 -0.00310509 0)
(-0.0121323 -0.0030254 0)
(-0.0105077 -0.00290982 0)
(-0.00895026 -0.00275976 0)
(-0.00747727 -0.00257731 0)
(-0.00610486 -0.00236525 0)
(-0.00484754 -0.00212699 0)
(-0.00371778 -0.0018667 0)
(-0.00272569 -0.00158925 0)
(-0.00187859 -0.00130035 0)
(-0.00118063 -0.00100666 0)
(-0.000632269 -0.000715984 0)
(-0.000229833 -0.000437579 0)
(3.51342e-05 -0.000182577 0)
(0.000176495 3.54346e-05 0)
(0.000213936 0.000199759 0)
(0.000173578 0.000290027 0)
(9.2805e-05 0.000281963 0)
(2.39805e-05 0.00014704 0)
(-2.14049e-06 -8.41209e-05 0)
(-6.7314e-05 2.14027e-05 0)
(-0.000264059 0.000295847 0)
(-0.000609514 0.000668072 0)
(-0.00111613 0.00109037 0)
(-0.00179008 0.0015289 0)
(-0.00263036 0.00196026 0)
(-0.00363061 0.00236901 0)
(-0.00478069 0.00274545 0)
(-0.00606791 0.00308396 0)
(-0.00747793 0.00338178 0)
(-0.00899552 0.00363808 0)
(-0.0106051 0.00385332 0)
(-0.0122912 0.00402876 0)
(-0.0140384 0.00416604 0)
(-0.015832 0.00426698 0)
(-0.0176577 0.00433338 0)
(-0.0195016 0.00436688 0)
(-0.0213504 0.0043689 0)
(-0.0231911 0.00434061 0)
(-0.0250111 0.00428293 0)
(-0.0267983 0.0041965 0)
(-0.0285404 0.0040818 0)
(-0.0302256 0.00393911 0)
(-0.0318421 0.00376864 0)
(-0.0333784 0.00357053 0)
(-0.0348229 0.00334497 0)
(-0.0361644 0.00309224 0)
(-0.0373917 0.00281279 0)
(-0.0384941 0.00250727 0)
(-0.0394614 0.00217662 0)
(-0.0402837 0.00182213 0)
(-0.0409519 0.00144543 0)
(-0.0414578 0.00104858 0)
(-0.0417941 0.000634038 0)
(-0.0419546 0.000204732 0)
(-0.0419344 -0.000235988 0)
(-0.0417302 -0.000684341 0)
(-0.0413403 -0.00113615 0)
(-0.0407645 -0.00158686 0)
(-0.0400048 -0.00203161 0)
(-0.0390649 -0.00246531 0)
(-0.0379508 -0.00288266 0)
(-0.0366704 -0.00327828 0)
(-0.0352336 -0.00364681 0)
(-0.0336526 -0.00398298 0)
(-0.0319415 -0.00428174 0)
(-0.0301161 -0.00453835 0)
(-0.0281942 -0.00474852 0)
(-0.0261951 -0.00490848 0)
(-0.0241392 -0.00501511 0)
(-0.0220482 -0.00506603 0)
(-0.0199444 -0.00505966 0)
(-0.0178508 -0.00499532 0)
(-0.01579 -0.00487328 0)
(-0.0137848 -0.00469477 0)
(-0.0118569 -0.00446206 0)
(-0.0100272 -0.00417848 0)
(-0.00831496 -0.00384839 0)
(-0.00673738 -0.00347723 0)
(-0.00530946 -0.00307158 0)
(-0.0040433 -0.00263915 0)
(-0.00294779 -0.00218892 0)
(-0.00202806 -0.00173129 0)
(-0.00128506 -0.00127828 0)
(-0.000715057 -0.00084392 0)
(-0.000309079 -0.000444679 0)
(-5.23888e-05 -0.000100089 0)
(7.58483e-05 0.000166543 0)
(0.000103087 0.000327517 0)
(6.72829e-05 0.000350127 0)
(1.96179e-05 0.000193771 0)
(-1.37047e-05 -3.72362e-05 0)
(-0.000132791 0.000197791 0)
(-0.000435567 0.000627075 0)
(-0.000923972 0.00116998 0)
(-0.0016026 0.00177066 0)
(-0.00247399 0.00238834 0)
(-0.0035343 0.00299401 0)
(-0.00477483 0.00356792 0)
(-0.0061835 0.00409725 0)
(-0.0077458 0.00457426 0)
(-0.00944563 0.00499487 0)
(-0.0112659 0.0053576 0)
(-0.0131892 0.0056627 0)
(-0.0151981 0.00591153 0)
(-0.0172752 0.00610608 0)
(-0.0194036 0.0062486 0)
(-0.021567 0.00634136 0)
(-0.0237494 0.00638651 0)
(-0.0259354 0.00638591 0)
(-0.0281097 0.00634113 0)
(-0.0302579 0.00625339 0)
(-0.0323654 0.00612363 0)
(-0.0344181 0.00595252 0)
(-0.0364021 0.00574053 0)
(-0.0383036 0.00548803 0)
(-0.040109 0.00519532 0)
(-0.0418049 0.00486279 0)
(-0.0433783 0.00449096 0)
(-0.0448163 0.00408061 0)
(-0.0461065 0.00363281 0)
(-0.047237 0.00314907 0)
(-0.0481968 0.00263132 0)
(-0.0489753 0.00208204 0)
(-0.0495632 0.00150427 0)
(-0.0499524 0.00090166 0)
(-0.0501358 0.000278445 0)
(-0.0501083 -0.000360517 0)
(-0.0498659 -0.00100978 0)
(-0.0494071 -0.00166336 0)
(-0.0487318 -0.00231475 0)
(-0.0478425 -0.00295704 0)
(-0.0467436 -0.00358297 0)
(-0.0454419 -0.00418506 0)
(-0.0439467 -0.0047557 0)
(-0.0422696 -0.00528731 0)
(-0.0404242 -0.00577245 0)
(-0.0384269 -0.006204 0)
(-0.0362956 -0.00657531 0)
(-0.0340508 -0.00688032 0)
(-0.0317142 -0.00711373 0)
(-0.0293094 -0.00727115 0)
(-0.0268609 -0.00734922 0)
(-0.0243943 -0.00734574 0)
(-0.0219355 -0.00725974 0)
(-0.0195107 -0.00709161 0)
(-0.0171456 -0.00684313 0)
(-0.0148652 -0.00651752 0)
(-0.0126934 -0.0061195 0)
(-0.0106521 -0.00565528 0)
(-0.0087614 -0.00513264 0)
(-0.00703839 -0.00456089 0)
(-0.0054972 -0.00395099 0)
(-0.0041483 -0.00331563 0)
(-0.00299807 -0.00266938 0)
(-0.00204829 -0.00202893 0)
(-0.0012957 -0.00141346 0)
(-0.000731548 -0.000845055 0)
(-0.000341153 -0.000349376 0)
(-0.000103593 4.36435e-05 0)
(8.7128e-06 0.000299102 0)
(3.2296e-05 0.000376231 0)
(1.3577e-05 0.000224031 0)
(-2.51832e-05 4.43474e-05 0)
(-0.000199879 0.000461499 0)
(-0.000613562 0.00108683 0)
(-0.00125174 0.0018337 0)
(-0.00210993 0.00264037 0)
(-0.00318597 0.0034607 0)
(-0.00447229 0.00426111 0)
(-0.00595718 0.00501819 0)
(-0.00762616 0.00571639 0)
(-0.00946269 0.00634603 0)
(-0.0114488 0.00690181 0)
(-0.0135658 0.00738156 0)
(-0.0157943 0.00778532 0)
(-0.0181153 0.0081145 0)
(-0.0205096 0.00837137 0)
(-0.0229587 0.0085586 0)
(-0.0254442 0.00867892 0)
(-0.0279483 0.00873492 0)
(-0.0304539 0.00872891 0)
(-0.0329438 0.00866285 0)
(-0.0354016 0.00853829 0)
(-0.037811 0.00835646 0)
(-0.040156 0.00811825 0)
(-0.0424208 0.00782436 0)
(-0.0445899 0.00747533 0)
(-0.0466479 0.00707172 0)
(-0.0485798 0.00661414 0)
(-0.0503708 0.00610346 0)
(-0.0520066 0.00554086 0)
(-0.0534732 0.00492794 0)
(-0.0547575 0.00426685 0)
(-0.055847 0.00356036 0)
(-0.0567303 0.00281192 0)
(-0.057397 0.00202571 0)
(-0.0578381 0.00120672 0)
(-0.0580459 0.000360716 0)
(-0.0580148 -0.000505751 0)
(-0.0577407 -0.00138536 0)
(-0.0572217 -0.00227008 0)
(-0.0564581 -0.00315124 0)
(-0.0554526 -0.00401962 0)
(-0.0542103 -0.00486559 0)
(-0.0527387 -0.00567919 0)
(-0.0510482 -0.00645035 0)
(-0.0491514 -0.00716902 0)
(-0.0470638 -0.00782539 0)
(-0.0448032 -0.00841001 0)
(-0.0423896 -0.00891409 0)
(-0.0398455 -0.00932961 0)
(-0.037195 -0.00964957 0)
(-0.0344641 -0.00986814 0)
(-0.0316801 -0.00998086 0)
(-0.0288712 -0.0099848 0)
(-0.0260663 -0.00987866 0)
(-0.0232943 -0.00966294 0)
(-0.0205839 -0.00933997 0)
(-0.017963 -0.00891402 0)
(-0.0154582 -0.00839134 0)
(-0.0130942 -0.00778017 0)
(-0.0108935 -0.0070908 0)
(-0.00887542 -0.00633561 0)
(-0.00705622 -0.00552907 0)
(-0.00544808 -0.0046879 0)
(-0.00405887 -0.00383117 0)
(-0.00289159 -0.00298053 0)
(-0.00194397 -0.00216055 0)
(-0.0012081 -0.0013991 0)
(-0.000670059 -0.000728007 0)
(-0.000309688 -0.000183702 0)
(-0.0001002 0.000192053 0)
(-7.87878e-06 0.000351193 0)
(6.82281e-06 0.000234401 0)
(-3.63186e-05 0.000160619 0)
(-0.000266698 0.000814377 0)
(-0.000792934 0.00167886 0)
(-0.00158391 0.00266422 0)
(-0.00262546 0.00370487 0)
(-0.00391004 0.00475089 0)
(-0.00542567 0.00576531 0)
(-0.00715709 0.0067219 0)
(-0.009087 0.00760289 0)
(-0.0111965 0.00839706 0)
(-0.0134658 0.00909808 0)
(-0.0158742 0.00970323 0)
(-0.0184009 0.0102123 0)
(-0.0210252 0.0106269 0)
(-0.0237263 0.0109496 0)
(-0.026484 0.0111832 0)
(-0.0292786 0.0113311 0)
(-0.0320906 0.0113963 0)
(-0.0349012 0.0113815 0)
(-0.0376916 0.0112889 0)
(-0.0404438 0.0111207 0)
(-0.0431399 0.0108781 0)
(-0.0457622 0.0105624 0)
(-0.0482933 0.0101745 0)
(-0.0507161 0.00971524 0)
(-0.0530137 0.00918534 0)
(-0.0551695 0.00858579 0)
(-0.0571673 0.00791782 0)
(-0.0589915 0.00718311 0)
(-0.0606267 0.00638388 0)
(-0.0620586 0.00552304 0)
(-0.0632737 0.00460428 0)
(-0.0642593 0.00363215 0)
(-0.0650044 0.00261214 0)
(-0.065499 0.00155071 0)
(-0.0657351 0.000455309 0)
(-0.0657063 -0.000665643 0)
(-0.0654084 -0.00180277 0)
(-0.0648392 -0.00294581 0)
(-0.0639992 -0.00408373 0)
(-0.0628912 -0.00520481 0)
(-0.0615206 -0.00629681 0)
(-0.0598958 -0.00734712 0)
(-0.0580277 -0.00834297 0)
(-0.0559301 -0.00927166 0)
(-0.0536195 -0.0101207 0)
(-0.0511152 -0.0108783 0)
(-0.048439 -0.0115331 0)
(-0.045615 -0.012075 0)
(-0.0426694 -0.0124952 0)
(-0.0396303 -0.0127862 0)
(-0.0365275 -0.0129423 0)
(-0.0333914 -0.0129597 0)
(-0.0302538 -0.0128368 0)
(-0.027146 -0.0125741 0)
(-0.0240997 -0.0121745 0)
(-0.0211454 -0.0116433 0)
(-0.0183122 -0.0109884 0)
(-0.0156277 -0.0102201 0)
(-0.0131167 -0.00935153 0)
(-0.010801 -0.0083982 0)
(-0.00869895 -0.00737836 0)
(-0.00682478 -0.00631297 0)
(-0.00518811 -0.00522584 0)
(-0.00379354 -0.00414377 0)
(-0.00264025 -0.00309686 0)
(-0.00172168 -0.00211887 0)
(-0.00102529 -0.0012477 0)
(-0.000532308 -0.000526093 0)
(-0.000217422 -2.21393e-06 0)
(-5.05778e-05 0.000269462 0)
(-1.14682e-07 0.00022318 0)
(-4.70181e-05 0.00031094 0)
(-0.000332273 0.00125632 0)
(-0.000970695 0.00240412 0)
(-0.00191487 0.00366337 0)
(-0.00314081 0.00496645 0)
(-0.00463515 0.00626113 0)
(-0.00638111 0.00750823 0)
(-0.00835942 0.0086796 0)
(-0.0105496 0.00975597 0)
(-0.0129303 0.010725 0)
(-0.0154794 0.0115796 0)
(-0.0181745 0.0123168 0)
(-0.0209931 0.0129364 0)
(-0.0239129 0.0134399 0)
(-0.0269118 0.0138304 0)
(-0.0299683 0.014111 0)
(-0.033061 0.0142856 0)
(-0.0361692 0.0143576 0)
(-0.0392725 0.01433 0)
(-0.042351 0.0142056 0)
(-0.045385 0.0139866 0)
(-0.0483553 0.0136749 0)
(-0.0512428 0.0132717 0)
(-0.0540286 0.0127784 0)
(-0.0566942 0.0121958 0)
(-0.0592215 0.0115253 0)
(-0.0615924 0.010768 0)
(-0.0637895 0.00992558 0)
(-0.0657958 0.00900037 0)
(-0.067595 0.00799524 0)
(-0.0691715 0.00691395 0)
(-0.0705107 0.00576121 0)
(-0.0715992 0.00454278 0)
(-0.0724249 0.00326555 0)
(-0.0729773 0.00193758 0)
(-0.0732476 0.00056813 0)
(-0.073229 -0.000832366 0)
(-0.0729168 -0.00225233 0)
(-0.0723086 -0.00367914 0)
(-0.0714049 -0.0050992 0)
(-0.0702083 -0.00649814 0)
(-0.0687247 -0.00786093 0)
(-0.0669626 -0.00917212 0)
(-0.0649335 -0.0104161 0)
(-0.0626522 -0.0115772 0)
(-0.0601359 -0.0126403 0)
(-0.0574051 -0.0135906 0)
(-0.0544829 -0.0144144 0)
(-0.0513949 -0.0150993 0)
(-0.0481692 -0.0156343 0)
(-0.0448357 -0.0160102 0)
(-0.0414263 -0.0162199 0)
(-0.0379739 -0.0162587 0)
(-0.0345123 -0.0161242 0)
(-0.0310758 -0.0158171 0)
(-0.0276984 -0.0153408 0)
(-0.0244134 -0.0147016 0)
(-0.0212527 -0.0139091 0)
(-0.0182463 -0.0129758 0)
(-0.0154218 -0.0119176 0)
(-0.0128035 -0.0107534 0)
(-0.0104121 -0.0095053 0)
(-0.00826408 -0.00819874 0)
(-0.00637118 -0.00686238 0)
(-0.00473995 -0.00552833 0)
(-0.00337146 -0.00423232 0)
(-0.00226095 -0.00301398 0)
(-0.00139773 -0.00191726 0)
(-0.000764896 -0.00099097 0)
(-0.000339054 -0.000289206 0)
(-9.42446e-05 0.00012794 0)
(-6.96553e-06 0.000189721 0)
(-5.72717e-05 0.000494402 0)
(-0.000396127 0.00178609 0)
(-0.00114512 0.00326172 0)
(-0.00224112 0.00483077 0)
(-0.00365041 0.00642508 0)
(-0.00535369 0.00799144 0)
(-0.00732906 0.00948961 0)
(-0.00955298 0.0108904 0)
(-0.0120015 0.0121738 0)
(-0.0146506 0.0133269 0)
(-0.0174758 0.0143423 0)
(-0.0204527 0.015217 0)
(-0.0235574 0.0159508 0)
(-0.0267658 0.0165458 0)
(-0.0300547 0.017005 0)
(-0.0334011 0.0173324 0)
(-0.0367826 0.0175321 0)
(-0.040177 0.0176079 0)
(-0.0435629 0.0175633 0)
(-0.0469191 0.0174015 0)
(-0.0502247 0.017125 0)
(-0.0534591 0.0167359 0)
(-0.0566021 0.0162357 0)
(-0.0596337 0.0156261 0)
(-0.062534 0.0149082 0)
(-0.0652837 0.0140836 0)
(-0.0678637 0.0131539 0)
(-0.0702553 0.0121213 0)
(-0.0724404 0.0109887 0)
(-0.0744015 0.00975963 0)
(-0.0761223 0.00843885 0)
(-0.077587 0.00703214 0)
(-0.0787815 0.00554653 0)
(-0.0796926 0.00399042 0)
(-0.0803093 0.00237356 0)
(-0.0806219 0.000707112 0)
(-0.0806231 -0.000996362 0)
(-0.0803077 -0.00272298 0)
(-0.0796731 -0.0044576 0)
(-0.0787191 -0.00618398 0)
(-0.0774486 -0.00788492 0)
(-0.0758672 -0.00954247 0)
(-0.0739836 -0.0111382 0)
(-0.0718097 -0.0126533 0)
(-0.0693606 -0.0140693 0)
(-0.0666543 -0.0153678 0)
(-0.0637122 -0.0165313 0)
(-0.0605583 -0.0175433 0)
(-0.0572197 -0.0183888 0)
(-0.0537258 -0.0190544 0)
(-0.0501085 -0.0195292 0)
(-0.0464013 -0.0198043 0)
(-0.0426395 -0.0198738 0)
(-0.0388592 -0.019735 0)
(-0.0350971 -0.0193881 0)
(-0.0313898 -0.018837 0)
(-0.0277734 -0.0180891 0)
(-0.0242825 -0.0171555 0)
(-0.02095 -0.0160511 0)
(-0.0178061 -0.0147944 0)
(-0.014878 -0.0134079 0)
(-0.0121891 -0.0119178 0)
(-0.00975823 -0.0103539 0)
(-0.00759974 -0.00874992 0)
(-0.0057225 -0.00714341 0)
(-0.00412979 -0.00557577 0)
(-0.00281909 -0.00409254 0)
(-0.00178193 -0.00274362 0)
(-0.00100359 -0.0015837 0)
(-0.000462888 -0.000672454 0)
(-0.000138064 -7.49808e-05 0)
(-1.36139e-05 0.000133946 0)
(-6.70973e-05 0.000709968 0)
(-0.000458035 0.00240177 0)
(-0.00131521 0.00424955 0)
(-0.00256045 0.00616444 0)
(-0.00415058 0.00807894 0)
(-0.00606034 0.00994006 0)
(-0.00826261 0.0117075 0)
(-0.0107294 0.0133521 0)
(-0.0134333 0.0148536 0)
(-0.016347 0.0161992 0)
(-0.019444 0.0173818 0)
(-0.0226978 0.0183985 0)
(-0.0260826 0.0192495 0)
(-0.0295732 0.0199374 0)
(-0.0331448 0.0204657 0)
(-0.0367734 0.0208389 0)
(-0.0404353 0.0210616 0)
(-0.0441075 0.021138 0)
(-0.0477673 0.0210721 0)
(-0.0513925 0.0208674 0)
(-0.0549612 0.0205267 0)
(-0.0584517 0.0200524 0)
(-0.0618428 0.0194464 0)
(-0.0651133 0.0187104 0)
(-0.0682425 0.017846 0)
(-0.0712099 0.016855 0)
(-0.0739952 0.0157396 0)
(-0.0765789 0.0145023 0)
(-0.0789419 0.0131468 0)
(-0.0810657 0.0116773 0)
(-0.0829329 0.0100996 0)
(-0.084527 0.00842052 0)
(-0.0858327 0.00664852 0)
(-0.0868364 0.0047935 0)
(-0.0875258 0.00286698 0)
(-0.0878908 0.000882103 0)
(-0.0879233 -0.00114639 0)
(-0.0876174 -0.0032022 0)
(-0.08697 -0.00526761 0)
(-0.0859805 -0.00732359 0)
(-0.0846513 -0.00935 0)
(-0.0829878 -0.0113258 0)
(-0.0809986 -0.0132295 0)
(-0.0786957 -0.015039 0)
(-0.0760942 -0.0167326 0)
(-0.0732127 -0.0182887 0)
(-0.0700731 -0.0196866 0)
(-0.0667003 -0.020907 0)
(-0.0631223 -0.0219319 0)
(-0.05937 -0.0227456 0)
(-0.0554768 -0.0233348 0)
(-0.051478 -0.023689 0)
(-0.0474109 -0.0238009 0)
(-0.043314 -0.0236667 0)
(-0.0392264 -0.0232866 0)
(-0.0351874 -0.0226646 0)
(-0.0312358 -0.021809 0)
(-0.0274093 -0.0207326 0)
(-0.0237436 -0.0194523 0)
(-0.0202722 -0.0179896 0)
(-0.0170251 -0.0163705 0)
(-0.0140287 -0.0146251 0)
(-0.0113049 -0.012788 0)
(-0.00887059 -0.0108981 0)
(-0.00673754 -0.00899819 0)
(-0.00491161 -0.00713563 0)
(-0.00339281 -0.00536182 0)
(-0.00217521 -0.00373262 0)
(-0.00124654 -0.00230847 0)
(-0.000587918 -0.00115439 0)
(-0.000181711 -0.000340133 0)
(-2.00338e-05 5.60227e-05 0)
(-7.65193e-05 0.000956559 0)
(-0.000517898 0.00310105 0)
(-0.00148037 0.00536474 0)
(-0.00287143 0.00766127 0)
(-0.00463879 0.00992488 0)
(-0.00675132 0.0121038 0)
(-0.00917669 0.0141587 0)
(-0.0118824 0.0160611 0)
(-0.0148373 0.0177915 0)
(-0.0180113 0.0193376 0)
(-0.021375 0.0206931 0)
(-0.0249001 0.0218556 0)
(-0.0285592 0.0228263 0)
(-0.0323255 0.023608 0)
(-0.036173 0.0242053 0)
(-0.0400766 0.024623 0)
(-0.0440116 0.0248662 0)
(-0.047954 0.0249399 0)
(-0.0518802 0.0248484 0)
(-0.0557671 0.0245954 0)
(-0.0595919 0.0241843 0)
(-0.0633321 0.0236175 0)
(-0.0669655 0.0228974 0)
(-0.0704702 0.0220259 0)
(-0.0738242 0.0210048 0)
(-0.0770064 0.0198364 0)
(-0.0799956 0.0185231 0)
(-0.0827713 0.0170681 0)
(-0.0853134 0.0154756 0)
(-0.0876026 0.0137508 0)
(-0.0896206 0.0119002 0)
(-0.0913499 0.00993208 0)
(-0.0927744 0.00785605 0)
(-0.0938795 0.00568364 0)
(-0.0946523 0.00342815 0)
(-0.0950815 0.00110475 0)
(-0.0951584 -0.00126958 0)
(-0.0948763 -0.00367609 0)
(-0.0942312 -0.00609439 0)
(-0.0932219 -0.00850259 0)
(-0.0918502 -0.0108775 0)
(-0.0901209 -0.013195 0)
(-0.0880425 -0.0154302 0)
(-0.0856264 -0.0175577 0)
(-0.0828878 -0.0195522 0)
(-0.0798454 -0.0213889 0)
(-0.0765214 -0.0230438 0)
(-0.0729414 -0.0244941 0)
(-0.0691341 -0.025719 0)
(-0.0651317 -0.0267 0)
(-0.0609687 -0.0274213 0)
(-0.0566824 -0.0278702 0)
(-0.0523119 -0.028038 0)
(-0.0478981 -0.0279197 0)
(-0.0434826 -0.0275149 0)
(-0.0391075 -0.0268277 0)
(-0.0348145 -0.0258673 0)
(-0.0306445 -0.0246477 0)
(-0.0266365 -0.0231882 0)
(-0.0228271 -0.021513 0)
(-0.0192498 -0.0196515 0)
(-0.0159344 -0.017638 0)
(-0.0129059 -0.015512 0)
(-0.0101846 -0.0133172 0)
(-0.00778521 -0.0111023 0)
(-0.00571656 -0.0089204 0)
(-0.00398157 -0.00682894 0)
(-0.00257707 -0.00488974 0)
(-0.00149339 -0.003169 0)
(-0.000713991 -0.00173702 0)
(-0.000225189 -0.000668076 0)
(-2.62521e-05 -4.38298e-05 0)
(-8.55591e-05 0.00123308 0)
(-0.000575664 0.0038814 0)
(-0.00164023 0.00660385 0)
(-0.00317309 0.00931736 0)
(-0.00511322 0.0119587 0)
(-0.00742382 0.0144783 0)
(-0.0100674 0.0168386 0)
(-0.013007 0.0190127 0)
(-0.0162077 0.0209824 0)
(-0.0196364 0.0227369 0)
(-0.0232612 0.0242707 0)
(-0.0270517 0.0255827 0)
(-0.0309787 0.0266749 0)
(-0.0350142 0.0275512 0)
(-0.0391309 0.0282168 0)
(-0.0433026 0.0286775 0)
(-0.0475038 0.028939 0)
(-0.0517095 0.0290066 0)
(-0.0558956 0.0288853 0)
(-0.060038 0.0285792 0)
(-0.0641132 0.0280918 0)
(-0.0680979 0.027426 0)
(-0.0719693 0.0265844 0)
(-0.0757046 0.0255691 0)
(-0.0792812 0.0243823 0)
(-0.0826771 0.0230265 0)
(-0.0858703 0.0215045 0)
(-0.0888395 0.0198202 0)
(-0.0915638 0.0179782 0)
(-0.094023 0.0159846 0)
(-0.0961979 0.013847 0)
(-0.0980703 0.0115745 0)
(-0.0996229 0.00917835 0)
(-0.10084 0.00667152 0)
(-0.101709 0.00406914 0)
(-0.102216 0.00138839 0)
(-0.102352 -0.00135149 0)
(-0.102109 -0.00412928 0)
(-0.101483 -0.00692187 0)
(-0.10047 -0.00970448 0)
(-0.0990735 -0.0124508 0)
(-0.0972958 -0.0151334 0)
(-0.095145 -0.017724 0)
(-0.0926321 -0.0201936 0)
(-0.089772 -0.0225134 0)
(-0.0865831 -0.024655 0)
(-0.0830876 -0.0265906 0)
(-0.0793116 -0.0282943 0)
(-0.0752844 -0.0297416 0)
(-0.071039 -0.0309111 0)
(-0.0666113 -0.0317842 0)
(-0.0620401 -0.0323458 0)
(-0.0573667 -0.0325852 0)
(-0.052634 -0.0324962 0)
(-0.0478863 -0.0320773 0)
(-0.0431687 -0.0313328 0)
(-0.0385261 -0.0302721 0)
(-0.0340026 -0.0289107 0)
(-0.0296409 -0.0272697 0)
(-0.0254812 -0.0253763 0)
(-0.0215608 -0.0232632 0)
(-0.0179131 -0.020969 0)
(-0.0145669 -0.0185378 0)
(-0.011546 -0.0160187 0)
(-0.00886858 -0.0134662 0)
(-0.00654688 -0.0109392 0)
(-0.00458692 -0.00850136 0)
(-0.00298857 -0.00622065 0)
(-0.00174486 -0.0041691 0)
(-0.000841556 -0.0024224 0)
(-0.00026872 -0.00105945 0)
(-3.23276e-05 -0.000165478 0)
(-9.42323e-05 0.00153845 0)
(-0.000631299 0.0047401 0)
(-0.00179451 0.00796307 0)
(-0.00346469 0.0111282 0)
(-0.0055725 0.0141755 0)
(-0.00807563 0.0170584 0)
(-0.0109316 0.0197419 0)
(-0.0140991 0.0222014 0)
(-0.0175395 0.0244208 0)
(-0.0212165 0.026391 0)
(-0.025096 0.0281084 0)
(-0.0291453 0.0295732 0)
(-0.0333336 0.0307888 0)
(-0.0376315 0.0317602 0)
(-0.0420106 0.0324937 0)
(-0.0464436 0.0329958 0)
(-0.0509044 0.0332732 0)
(-0.0553672 0.0333317 0)
(-0.059807 0.0331768 0)
(-0.0641993 0.032813 0)
(-0.0685199 0.0322443 0)
(-0.0727451 0.0314737 0)
(-0.0768512 0.0305041 0)
(-0.0808148 0.0293378 0)
(-0.0846129 0.0279774 0)
(-0.0882226 0.0264255 0)
(-0.0916214 0.0246856 0)
(-0.0947871 0.0227617 0)
(-0.0976982 0.0206592 0)
(-0.100334 0.0183851 0)
(-0.102673 0.0159476 0)
(-0.104698 0.0133572 0)
(-0.10639 0.0106263 0)
(-0.107732 0.00776953 0)
(-0.108709 0.00480367 0)
(-0.109309 0.00174793 0)
(-0.10952 -0.0013762 0)
(-0.109334 -0.00454502 0)
(-0.108744 -0.00773271 0)
(-0.107748 -0.0109115 0)
(-0.106344 -0.0140521 0)
(-0.104536 -0.0171234 0)
(-0.102331 -0.0200938 0)
(-0.0997382 -0.0229306 0)
(-0.0967727 -0.0256012 0)
(-0.0934521 -0.0280732 0)
(-0.0897984 -0.0303152 0)
(-0.0858377 -0.0322973 0)
(-0.0815998 -0.0339917 0)
(-0.0771183 -0.0353732 0)
(-0.0724304 -0.0364202 0)
(-0.0675764 -0.0371149 0)
(-0.0625993 -0.0374442 0)
(-0.0575446 -0.0374001 0)
(-0.0524592 -0.0369802 0)
(-0.0473913 -0.036188 0)
(-0.0423891 -0.0350335 0)
(-0.0375005 -0.033533 0)
(-0.032772 -0.0317096 0)
(-0.0282479 -0.0295931 0)
(-0.0239696 -0.0272196 0)
(-0.0199746 -0.024632 0)
(-0.016296 -0.0218791 0)
(-0.0129614 -0.0190154 0)
(-0.00999305 -0.0161013 0)
(-0.00740677 -0.013202 0)
(-0.00521206 -0.0103873 0)
(-0.00341201 -0.00773167 0)
(-0.00200247 -0.00531313 0)
(-0.000971491 -0.00321304 0)
(-0.000312674 -0.00151525 0)
(-3.83385e-05 -0.000308958 0)
(-0.000102547 0.00187155 0)
(-0.000684759 0.00567433 0)
(-0.00194297 0.00943829 0)
(-0.00374562 0.0130887 0)
(-0.00601543 0.0165695 0)
(-0.00870486 0.0198379 0)
(-0.0117666 0.0228621 0)
(-0.0151552 0.0256205 0)
(-0.0188282 0.0280998 0)
(-0.0227465 0.0302933 0)
(-0.0268734 0.0321994 0)
(-0.0311743 0.0338203 0)
(-0.0356167 0.035161 0)
(-0.0401698 0.0362281 0)
(-0.0448043 0.037029 0)
(-0.0494919 0.0375713 0)
(-0.0542056 0.0378624 0)
(-0.0589192 0.0379092 0)
(-0.063607 0.0377174 0)
(-0.0682441 0.0372921 0)
(-0.0728058 0.0366376 0)
(-0.0772678 0.0357573 0)
(-0.0816061 0.0346542 0)
(-0.0857967 0.0333309 0)
(-0.0898161 0.0317902 0)
(-0.0936408 0.030035 0)
(-0.0972477 0.0280691 0)
(-0.100614 0.025897 0)
(-0.103718 0.0235247 0)
(-0.106536 0.0209597 0)
(-0.10905 0.0182114 0)
(-0.111237 0.015291 0)
(-0.11308 0.0122124 0)
(-0.114561 0.00899145 0)
(-0.115663 0.00564685 0)
(-0.116372 0.00219969 0)
(-0.116676 -0.00132638 0)
(-0.116564 -0.0049052 0)
(-0.11603 -0.00850826 0)
(-0.115068 -0.0121048 0)
(-0.113677 -0.0156623 0)
(-0.111859 -0.0191464 0)
(-0.109618 -0.0225216 0)
(-0.106965 -0.0257515 0)
(-0.103911 -0.0287995 0)
(-0.100474 -0.0316292 0)
(-0.0966762 -0.034205 0)
(-0.0925428 -0.0364928 0)
(-0.0881039 -0.038461 0)
(-0.0833935 -0.0400805 0)
(-0.07845 -0.0413261 0)
(-0.0733149 -0.0421769 0)
(-0.0680333 -0.0426171 0)
(-0.0626528 -0.0426363 0)
(-0.0572233 -0.0422307 0)
(-0.0517962 -0.041403 0)
(-0.0464234 -0.040163 0)
(-0.0411566 -0.0385278 0)
(-0.0360468 -0.0365224 0)
(-0.0311426 -0.0341787 0)
(-0.0264899 -0.0315365 0)
(-0.022131 -0.0286427 0)
(-0.0181035 -0.025551 0)
(-0.0144396 -0.0223216 0)
(-0.0111658 -0.0190207 0)
(-0.00830195 -0.0157201 0)
(-0.00586135 -0.0124963 0)
(-0.00385054 -0.00943012 0)
(-0.00226832 -0.00660628 0)
(-0.00110498 -0.00411215 0)
(-0.000357524 -0.00203696 0)
(-4.43745e-05 -0.000474537 0)
(-0.000110504 0.00223126 0)
(-0.000735988 0.00668112 0)
(-0.00208535 0.0110251 0)
(-0.00401527 0.0151934 0)
(-0.00644092 0.0191346 0)
(-0.00930982 0.0228101 0)
(-0.0125701 0.0261921 0)
(-0.016172 0.0292628 0)
(-0.0200698 0.0320121 0)
(-0.0242215 0.0344362 0)
(-0.0285879 0.0365361 0)
(-0.0331325 0.0383165 0)
(-0.0378212 0.0397842 0)
(-0.0426219 0.0409476 0)
(-0.0475043 0.0418157 0)
(-0.0524393 0.0423971 0)
(-0.0573993 0.0427004 0)
(-0.0623574 0.0427331 0)
(-0.0672876 0.0425017 0)
(-0.0721646 0.0420118 0)
(-0.0769632 0.041268 0)
(-0.0816589 0.040274 0)
(-0.0862271 0.039033 0)
(-0.0906438 0.0375479 0)
(-0.0948848 0.0358215 0)
(-0.0989263 0.0338572 0)