/*--------------------------------*- C++ -*----------------------------------*\
  =========                 |
  \\      /  F ield         | OpenFOAM: The Open Source CFD Toolbox
   \\    /   O peration     | Website:  https://openfoam.org
    \\  /    A nd           | Version:  dev
     \\/     M anipulation  |
\*---------------------------------------------------------------------------*/
FoamFile
{
    format      ascii;
    class       volScalarField;
    location    "18";
    object      Ux;
}
// * * * * * * * * * * * * * * * * * * * * * * * * * * * * * * * * * * * * * //

dimensions      [0 1 -1 0 0 0 0];

internalField   nonuniform List<scalar> 
5184
(
1.24372e-05
4.52641e-05
8.02462e-05
9.57732e-05
8.18625e-05
3.61293e-05
-4.08759e-05
-0.000147136
-0.000279867
-0.000436012
-0.000612454
-0.000806165
-0.00101428
-0.00123414
-0.00146329
-0.00169947
-0.00194061
-0.00218481
-0.00243027
-0.00267532
-0.00291835
-0.00315781
-0.00339216
-0.00361989
-0.00383947
-0.00404936
-0.00424801
-0.00443385
-0.00460531
-0.0047608
-0.00489877
-0.0050177
-0.00511613
-0.00519268
-0.00524611
-0.00527529
-0.00527928
-0.00525735
-0.00520902
-0.00513403
-0.00503247
-0.0049047
-0.00475142
-0.0045737
-0.00437292
-0.00415084
-0.00390955
-0.00365148
-0.00337934
-0.00309614
-0.0028051
-0.00250966
-0.00221337
-0.00191987
-0.00163285
-0.00135593
-0.00109265
-0.000846383
-0.00062026
-0.000417134
-0.000239499
-8.94345e-05
3.14729e-05
0.000122208
0.000182436
0.000212658
0.000214453
0.000190865
0.000146912
9.06739e-05
3.65937e-05
6.22654e-06
2.0913e-05
6.56563e-05
9.45799e-05
7.25077e-05
-1.93257e-05
-0.000187716
-0.00043323
-0.000752653
-0.00114045
-0.00158984
-0.00209349
-0.00264397
-0.00323396
-0.0038565
-0.00450498
-0.00517321
-0.0058554
-0.00654612
-0.00724024
-0.00793287
-0.00861933
-0.00929507
-0.00995562
-0.0105966
-0.0112135
-0.011802
-0.0123578
-0.0128763
-0.0133532
-0.0137843
-0.0141651
-0.0144917
-0.0147602
-0.0149669
-0.0151085
-0.0151823
-0.0151859
-0.0151175
-0.0149759
-0.0147609
-0.0144727
-0.0141127
-0.0136828
-0.0131863
-0.0126269
-0.0120095
-0.01134
-0.0106249
-0.00987148
-0.00908797
-0.00828299
-0.00746572
-0.00664568
-0.00583258
-0.00503621
-0.00426621
-0.00353195
-0.00284234
-0.00220565
-0.00162936
-0.00111993
-0.000682667
-0.000321473
-3.86402e-05
0.000165458
0.000292737
0.00034793
0.000339287
0.000279274
0.000185715
8.62384e-05
1.9657e-05
1.76511e-05
4.12959e-05
1.9446e-05
-8.42464e-05
-0.000290498
-0.000608023
-0.00103806
-0.0015768
-0.00221707
-0.0029497
-0.00376443
-0.00465056
-0.00559737
-0.00659443
-0.00763168
-0.00869959
-0.00978908
-0.0108916
-0.0119988
-0.0131031
-0.0141967
-0.0152724
-0.0163228
-0.017341
-0.0183197
-0.0192521
-0.020131
-0.0209495
-0.0217008
-0.0223781
-0.0229748
-0.0234846
-0.0239017
-0.0242206
-0.0244364
-0.0245448
-0.0245425
-0.024427
-0.0241968
-0.0238515
-0.0233919
-0.0228203
-0.02214
-0.021356
-0.0204743
-0.0195027
-0.0184501
-0.0173266
-0.0161436
-0.0149136
-0.0136498
-0.0123662
-0.0110774
-0.00979819
-0.0085434
-0.00732774
-0.00616543
-0.00506999
-0.00405395
-0.00312857
-0.00230358
-0.00158686
-0.000984168
-0.000498723
-0.000130852
0.000122505
0.000268423
0.000318719
0.000290493
0.000206934
0.000102256
2.49371e-05
8.82864e-06
-7.06349e-06
-0.000107675
-0.000322422
-0.000669492
-0.00115726
-0.00178644
-0.00255229
-0.00344624
-0.00445728
-0.00557296
-0.00678007
-0.00806524
-0.00941522
-0.0108171
-0.0122585
-0.0137276
-0.0152129
-0.0167034
-0.0181888
-0.0196587
-0.0211033
-0.0225128
-0.0238774
-0.0251878
-0.0264345
-0.0276081
-0.0286994
-0.0296992
-0.0305988
-0.0313895
-0.0320631
-0.0326121
-0.0330295
-0.033309
-0.0334454
-0.0334344
-0.033273
-0.0329596
-0.032494
-0.0318775
-0.031113
-0.0302054
-0.0291611
-0.0279884
-0.0266973
-0.0252994
-0.023808
-0.022238
-0.0206055
-0.0189275
-0.0172223
-0.0155086
-0.0138055
-0.0121323
-0.0105077
-0.00895026
-0.00747727
-0.00610486
-0.00484754
-0.00371778
-0.00272569
-0.00187859
-0.00118063
-0.000632269
-0.000229833
3.51342e-05
0.000176495
0.000213936
0.000173578
9.2805e-05
2.39805e-05
-2.14049e-06
-6.7314e-05
-0.000264059
-0.000609514
-0.00111613
-0.00179008
-0.00263036
-0.00363061
-0.00478069
-0.00606791
-0.00747793
-0.00899552
-0.0106051
-0.0122912
-0.0140384
-0.015832
-0.0176577
-0.0195016
-0.0213504
-0.0231911
-0.0250111
-0.0267983
-0.0285404
-0.0302256
-0.0318421
-0.0333784
-0.0348229
-0.0361644
-0.0373917
-0.0384941
-0.0394614
-0.0402837
-0.0409519
-0.0414578
-0.0417941
-0.0419546
-0.0419344
-0.0417302
-0.0413403
-0.0407645
-0.0400048
-0.0390649
-0.0379508
-0.0366704
-0.0352336
-0.0336526
-0.0319415
-0.0301161
-0.0281942
-0.0261951
-0.0241392
-0.0220482
-0.0199444
-0.0178508
-0.01579
-0.0137848
-0.0118569
-0.0100272
-0.00831496
-0.00673738
-0.00530946
-0.0040433
-0.00294779
-0.00202806
-0.00128506
-0.000715057
-0.000309079
-5.23888e-05
7.58483e-05
0.000103087
6.72829e-05
1.96179e-05
-1.37047e-05
-0.000132791
-0.000435567
-0.000923972
-0.0016026
-0.00247399
-0.0035343
-0.00477483
-0.0061835
-0.0077458
-0.00944563
-0.0112659
-0.0131892
-0.0151981
-0.0172752
-0.0194036
-0.021567
-0.0237494
-0.0259354
-0.0281097
-0.0302579
-0.0323654
-0.0344181
-0.0364021
-0.0383036
-0.040109
-0.0418049
-0.0433783
-0.0448163
-0.0461065
-0.047237
-0.0481968
-0.0489753
-0.0495632
-0.0499524
-0.0501358
-0.0501083
-0.0498659
-0.0494071
-0.0487318
-0.0478425
-0.0467436
-0.0454419
-0.0439467
-0.0422696
-0.0404242
-0.0384269
-0.0362956
-0.0340508
-0.0317142
-0.0293094
-0.0268609
-0.0243943
-0.0219355
-0.0195107
-0.0171456
-0.0148652
-0.0126934
-0.0106521
-0.0087614
-0.00703839
-0.0054972
-0.0041483
-0.00299807
-0.00204829
-0.0012957
-0.000731548
-0.000341153
-0.000103593
8.7128e-06
3.2296e-05
1.3577e-05
-2.51832e-05
-0.000199879
-0.000613562
-0.00125174
-0.00210993
-0.00318597
-0.00447229
-0.00595718
-0.00762616
-0.00946269
-0.0114488
-0.0135658
-0.0157943
-0.0181153
-0.0205096
-0.0229587
-0.0254442
-0.0279483
-0.0304539
-0.0329438
-0.0354016
-0.037811
-0.040156
-0.0424208
-0.0445899
-0.0466479
-0.0485798
-0.0503708
-0.0520066
-0.0534732
-0.0547575
-0.055847
-0.0567303
-0.057397
-0.0578381
-0.0580459
-0.0580148
-0.0577407
-0.0572217
-0.0564581
-0.0554526
-0.0542103
-0.0527387
-0.0510482
-0.0491514
-0.0470638
-0.0448032
-0.0423896
-0.0398455
-0.037195
-0.0344641
-0.0316801
-0.0288712
-0.0260663
-0.0232943
-0.0205839
-0.017963
-0.0154582
-0.0130942
-0.0108935
-0.00887542
-0.00705622
-0.00544808
-0.00405887
-0.00289159
-0.00194397
-0.0012081
-0.000670059
-0.000309688
-0.0001002
-7.87878e-06
6.82281e-06
-3.63186e-05
-0.000266698
-0.000792934
-0.00158391
-0.00262546
-0.00391004
-0.00542567
-0.00715709
-0.009087
-0.0111965
-0.0134658
-0.0158742
-0.0184009
-0.0210252
-0.0237263
-0.026484
-0.0292786
-0.0320906
-0.0349012
-0.0376916
-0.0404438
-0.0431399
-0.0457622
-0.0482933
-0.0507161
-0.0530137
-0.0551695
-0.0571673
-0.0589915
-0.0606267
-0.0620586
-0.0632737
-0.0642593
-0.0650044
-0.065499
-0.0657351
-0.0657063
-0.0654084
-0.0648392
-0.0639992
-0.0628912
-0.0615206
-0.0598958
-0.0580277
-0.0559301
-0.0536195
-0.0511152
-0.048439
-0.045615
-0.0426694
-0.0396303
-0.0365275
-0.0333914
-0.0302538
-0.027146
-0.0240997
-0.0211454
-0.0183122
-0.0156277
-0.0131167
-0.010801
-0.00869895
-0.00682478
-0.00518811
-0.00379354
-0.00264025
-0.00172168
-0.00102529
-0.000532308
-0.000217422
-5.05778e-05
-1.14682e-07
-4.70181e-05
-0.000332273
-0.000970695
-0.00191487
-0.00314081
-0.00463515
-0.00638111
-0.00835942
-0.0105496
-0.0129303
-0.0154794
-0.0181745
-0.0209931
-0.0239129
-0.0269118
-0.0299683
-0.033061
-0.0361692
-0.0392725
-0.042351
-0.045385
-0.0483553
-0.0512428
-0.0540286
-0.0566942
-0.0592215
-0.0615924
-0.0637895
-0.0657958
-0.067595
-0.0691715
-0.0705107
-0.0715992
-0.0724249
-0.0729773
-0.0732476
-0.073229
-0.0729168
-0.0723086
-0.0714049
-0.0702083
-0.0687247
-0.0669626
-0.0649335
-0.0626522
-0.0601359
-0.0574051
-0.0544829
-0.0513949
-0.0481692
-0.0448357
-0.0414263
-0.0379739
-0.0345123
-0.0310758
-0.0276984
-0.0244134
-0.0212527
-0.0182463
-0.0154218
-0.0128035
-0.0104121
-0.00826408
-0.00637118
-0.00473995
-0.00337146
-0.00226095
-0.00139773
-0.000764896
-0.000339054
-9.42446e-05
-6.96553e-06
-5.72717e-05
-0.000396127
-0.00114512
-0.00224112
-0.00365041
-0.00535369
-0.00732906
-0.00955298
-0.0120015
-0.0146506
-0.0174758
-0.0204527
-0.0235574
-0.0267658
-0.0300547
-0.0334011
-0.0367826
-0.040177
-0.0435629
-0.0469191
-0.0502247
-0.0534591
-0.0566021
-0.0596337
-0.062534
-0.0652837
-0.0678637
-0.0702553
-0.0724404
-0.0744015
-0.0761223
-0.077587
-0.0787815
-0.0796926
-0.0803093
-0.0806219
-0.0806231
-0.0803077
-0.0796731
-0.0787191
-0.0774486
-0.0758672
-0.0739836
-0.0718097
-0.0693606
-0.0666543
-0.0637122
-0.0605583
-0.0572197
-0.0537258
-0.0501085
-0.0464013
-0.0426395
-0.0388592
-0.0350971
-0.0313898
-0.0277734
-0.0242825
-0.02095
-0.0178061
-0.014878
-0.0121891
-0.00975823
-0.00759974
-0.0057225
-0.00412979
-0.00281909
-0.00178193
-0.00100359
-0.000462888
-0.000138064
-1.36139e-05
-6.70973e-05
-0.000458035
-0.00131521
-0.00256045
-0.00415058
-0.00606034
-0.00826261
-0.0107294
-0.0134333
-0.016347
-0.019444
-0.0226978
-0.0260826
-0.0295732
-0.0331448
-0.0367734
-0.0404353
-0.0441075
-0.0477673
-0.0513925
-0.0549612
-0.0584517
-0.0618428
-0.0651133
-0.0682425
-0.0712099
-0.0739952
-0.0765789
-0.0789419
-0.0810657
-0.0829329
-0.084527
-0.0858327
-0.0868364
-0.0875258
-0.0878908
-0.0879233
-0.0876174
-0.08697
-0.0859805
-0.0846513
-0.0829878
-0.0809986
-0.0786957
-0.0760942
-0.0732127
-0.0700731
-0.0667003
-0.0631223
-0.05937
-0.0554768
-0.051478
-0.0474109
-0.043314
-0.0392264
-0.0351874
-0.0312358
-0.0274093
-0.0237436
-0.0202722
-0.0170251
-0.0140287
-0.0113049
-0.00887059
-0.00673754
-0.00491161
-0.00339281
-0.00217521
-0.00124654
-0.000587918
-0.000181711
-2.00338e-05
-7.65193e-05
-0.000517898
-0.00148037
-0.00287143
-0.00463879
-0.00675132
-0.00917669
-0.0118824
-0.0148373
-0.0180113
-0.021375
-0.0249001
-0.0285592
-0.0323255
-0.036173
-0.0400766
-0.0440116
-0.047954
-0.0518802
-0.0557671
-0.0595919
-0.0633321
-0.0669655
-0.0704702
-0.0738242
-0.0770064
-0.0799956
-0.0827713
-0.0853134
-0.0876026
-0.0896206
-0.0913499
-0.0927744
-0.0938795
-0.0946523
-0.0950815
-0.0951584
-0.0948763
-0.0942312
-0.0932219
-0.0918502
-0.0901209
-0.0880425
-0.0856264
-0.0828878
-0.0798454
-0.0765214
-0.0729414
-0.0691341
-0.0651317
-0.0609687
-0.0566824
-0.0523119
-0.0478981
-0.0434826
-0.0391075
-0.0348145
-0.0306445
-0.0266365
-0.0228271
-0.0192498
-0.0159344
-0.0129059
-0.0101846
-0.00778521
-0.00571656
-0.00398157
-0.00257707
-0.00149339
-0.000713991
-0.000225189
-2.62521e-05
-8.55591e-05
-0.000575664
-0.00164023
-0.00317309
-0.00511322
-0.00742382
-0.0100674
-0.013007
-0.0162077
-0.0196364
-0.0232612
-0.0270517
-0.0309787
-0.0350142
-0.0391309
-0.0433026
-0.0475038
-0.0517095
-0.0558956
-0.060038
-0.0641132
-0.0680979
-0.0719693
-0.0757046
-0.0792812
-0.0826771
-0.0858703
-0.0888395
-0.0915638
-0.094023
-0.0961979
-0.0980703
-0.0996229
-0.10084
-0.101709
-0.102216
-0.102352
-0.102109
-0.101483
-0.10047
-0.0990735
-0.0972958
-0.095145
-0.0926321
-0.089772
-0.0865831
-0.0830876
-0.0793116
-0.0752844
-0.071039
-0.0666113
-0.0620401
-0.0573667
-0.052634
-0.0478863
-0.0431687
-0.0385261
-0.0340026
-0.0296409
-0.0254812
-0.0215608
-0.0179131
-0.0145669
-0.011546
-0.00886858
-0.00654688
-0.00458692
-0.00298857
-0.00174486
-0.000841556
-0.00026872
-3.23276e-05
-9.42323e-05
-0.000631299
-0.00179451
-0.00346469
-0.0055725
-0.00807563
-0.0109316
-0.0140991
-0.0175395
-0.0212165
-0.025096
-0.0291453
-0.0333336
-0.0376315
-0.0420106
-0.0464436
-0.0509044
-0.0553672
-0.059807
-0.0641993
-0.0685199
-0.0727451
-0.0768512
-0.0808148
-0.0846129
-0.0882226
-0.0916214
-0.0947871
-0.0976982
-0.100334
-0.102673
-0.104698
-0.10639
-0.107732
-0.108709
-0.109309
-0.10952
-0.109334
-0.108744
-0.107748
-0.106344
-0.104536
-0.102331
-0.0997382
-0.0967727
-0.0934521
-0.0897984
-0.0858377
-0.0815998
-0.0771183
-0.0724304
-0.0675764
-0.0625993
-0.0575446
-0.0524592
-0.0473913
-0.0423891
-0.0375005
-0.032772
-0.0282479
-0.0239696
-0.0199746
-0.016296
-0.0129614
-0.00999305
-0.00740677
-0.00521206
-0.00341201
-0.00200247
-0.000971491
-0.000312674
-3.83385e-05
-0.000102547
-0.000684759
-0.00194297
-0.00374562
-0.00601543
-0.00870486
-0.0117666
-0.0151552
-0.0188282
-0.0227465
-0.0268734
-0.0311743
-0.0356167
-0.0401698
-0.0448043
-0.0494919
-0.0542056
-0.0589192
-0.063607
-0.0682441
-0.0728058
-0.0772678
-0.0816061
-0.0857967
-0.0898161
-0.0936408
-0.0972477
-0.100614
-0.103718
-0.106536
-0.10905
-0.111237
-0.11308
-0.114561
-0.115663
-0.116372
-0.116676
-0.116564
-0.11603
-0.115068
-0.113677
-0.111859
-0.109618
-0.106965
-0.103911
-0.100474
-0.0966762
-0.0925428
-0.0881039
-0.0833935
-0.07845
-0.0733149
-0.0680333
-0.0626528
-0.0572233
-0.0517962
-0.0464234
-0.0411566
-0.0360468
-0.0311426
-0.0264899
-0.022131
-0.0181035
-0.0144396
-0.0111658
-0.00830195
-0.00586135
-0.00385054
-0.00226832
-0.00110498
-0.000357524
-4.43745e-05
-0.000110504
-0.000735988
-0.00208535
-0.00401527
-0.00644092
-0.00930982
-0.0125701
-0.016172
-0.0200698
-0.0242215
-0.0285879
-0.0331325
-0.0378212
-0.0426219
-0.0475043
-0.0524393
-0.0573993
-0.0623574
-0.0672876
-0.0721646
-0.0769632
-0.0816589
-0.0862271
-0.0906438
-0.0948848
-0.0989263
-0.102745
-0.106316
-0.109619
-0.112629
-0.115326
-0.117688
-0.119695
-0.121329
-0.122572
-0.123407
-0.123823
-0.123806
-0.123348
-0.122442
-0.121084
-0.119276
-0.117021
-0.114325
-0.111201
-0.107666
-0.103739
-0.0994459
-0.0948165
-0.0898854
-0.0846914
-0.0792775
-0.0736905
-0.0679805
-0.0622003
-0.0564046
-0.0506493
-0.0449904
-0.0394834
-0.0341819
-0.029137
-0.0243959
-0.0200015
-0.0159909
-0.0123954
-0.00923929
-0.00654009
-0.00430801
-0.00254493
-0.00124342
-0.000403813
-5.05333e-05
-0.000118097
-0.000784903
-0.00222137
-0.00427302
-0.0068479
-0.00988882
-0.0133395
-0.0171464
-0.0212605
-0.0256369
-0.0302341
-0.0350137
-0.0399403
-0.0449804
-0.0501027
-0.0552776
-0.0604767
-0.0656729
-0.0708397
-0.0759514
-0.0809828
-0.085909
-0.0907053
-0.0953472
-0.0998104
-0.104071
-0.108104
-0.111886
-0.115395
-0.118605
-0.121496
-0.124044
-0.12623
-0.128032
-0.129432
-0.130413
-0.130959
-0.131058
-0.130697
-0.129869
-0.128568
-0.126792
-0.124543
-0.121827
-0.118654
-0.115038
-0.110999
-0.106561
-0.101753
-0.0966107
-0.0911726
-0.0854832
-0.0795909
-0.0735482
-0.0674109
-0.0612372
-0.0550871
-0.0490215
-0.0431006
-0.0373837
-0.0319272
-0.0267842
-0.022003
-0.0176265
-0.0136912
-0.0102265
-0.00725421
-0.0047887
-0.00283511
-0.00138836
-0.00045213
-5.69175e-05
-0.000125313
-0.000831401
-0.00235071
-0.0045182
-0.00723523
-0.0104402
-0.0140727
-0.0180755
-0.0223964
-0.026988
-0.0318065
-0.0368118
-0.041967
-0.0472376
-0.0525913
-0.057998
-0.0634287
-0.068856
-0.0742531
-0.0795942
-0.084854
-0.0900072
-0.0950293
-0.0998955
-0.104581
-0.109062
-0.113314
-0.117313
-0.121033
-0.124453
-0.127548
-0.130295
-0.132673
-0.134659
-0.136235
-0.13738
-0.138077
-0.138312
-0.138072
-0.137344
-0.136123
-0.134404
-0.132186
-0.129472
-0.126271
-0.122595
-0.118462
-0.113896
-0.108924
-0.103582
-0.0979077
-0.0919476
-0.0857514
-0.079374
-0.072874
-0.0663134
-0.0597566
-0.0532694
-0.0469175
-0.040766
-0.0348774
-0.0293112
-0.0241219
-0.0193586
-0.0150636
-0.0112718
-0.00801015
-0.00529726
-0.00314188
-0.00154144
-0.000503095
-6.36321e-05
-0.000132134
-0.000875358
-0.002473
-0.0047501
-0.00760173
-0.0109622
-0.0147672
-0.0189561
-0.0234738
-0.0282702
-0.0332998
-0.0385207
-0.0438945
-0.0493858
-0.0549617
-0.0605913
-0.0662454
-0.0718962
-0.0775168
-0.0830814
-0.0885644
-0.0939409
-0.099186
-0.104275
-0.109184
-0.113887
-0.11836
-0.122579
-0.12652
-0.130156
-0.133466
-0.136424
-0.139008
-0.141195
-0.142962
-0.144291
-0.145161
-0.145555
-0.145457
-0.144855
-0.143739
-0.142101
-0.139938
-0.137252
-0.134047
-0.130334
-0.126129
-0.121453
-0.116334
-0.110805
-0.104906
-0.0986821
-0.0921855
-0.0854729
-0.0786061
-0.0716508
-0.064676
-0.0577526
-0.0509524
-0.0443466
-0.0380046
-0.0319927
-0.0263724
-0.0211996
-0.0165232
-0.012384
-0.00881462
-0.00583855
-0.00346842
-0.00170439
-0.000557351
-7.07837e-05
-0.000138538
-0.000916629
-0.00258785
-0.00496795
-0.00794617
-0.011453
-0.0154206
-0.019785
-0.0244886
-0.0294789
-0.0347084
-0.0401338
-0.0457155
-0.0514171
-0.0572051
-0.063048
-0.0689163
-0.0747822
-0.0806187
-0.0863999
-0.0921004
-0.0976953
-0.10316
-0.10847
-0.1136
-0.118526
-0.123224
-0.127667
-0.131833
-0.135695
-0.139228
-0.142409
-0.145213
-0.147615
-0.149593
-0.151124
-0.152186
-0.152762
-0.152831
-0.15238
-0.151394
-0.149864
-0.147784
-0.145151
-0.141969
-0.138244
-0.13399
-0.129227
-0.12398
-0.118281
-0.11217
-0.105693
-0.0989017
-0.0918561
-0.0846204
-0.0772643
-0.0698614
-0.0624881
-0.0552225
-0.0481427
-0.0413254
-0.0348444
-0.0287689
-0.0231622
-0.0180807
-0.0135719
-0.00967455
-0.00641758
-0.00381798
-0.00187897
-0.000615552
-7.84796e-05
-0.000144501
-0.000955058
-0.00269481
-0.00517091
-0.00826722
-0.0119107
-0.0160303
-0.0205592
-0.025437
-0.0306093
-0.0360268
-0.0416449
-0.0474227
-0.0533232
-0.0593122
-0.0653578
-0.0714304
-0.0775019
-0.0835456
-0.0895357
-0.0954468
-0.101254
-0.106934
-0.112461
-0.117811
-0.12296
-0.127882
-0.132553
-0.136949
-0.141042
-0.144808
-0.148222
-0.151258
-0.15389
-0.156095
-0.157847
-0.159124
-0.159903
-0.160163
-0.159888
-0.159059
-0.157665
-0.155696
-0.153146
-0.150014
-0.146305
-0.14203
-0.137204
-0.131851
-0.126003
-0.119697
-0.112979
-0.105903
-0.0985298
-0.090926
-0.0831653
-0.0753261
-0.0674907
-0.0597436
-0.0521704
-0.0448556
-0.0378813
-0.0313252
-0.025259
-0.019747
-0.0148445
-0.0105969
-0.00703943
-0.00419388
-0.00206698
-0.000678362
-8.68283e-05
-0.000149994
-0.000990476
-0.00279343
-0.00535814
-0.00856357
-0.0123335
-0.0165939
-0.0212752
-0.0263149
-0.0316566
-0.0372494
-0.0430473
-0.0490087
-0.0550956
-0.0612735
-0.0675102
-0.0737759
-0.0800426
-0.0862837
-0.0924735
-0.0985872
-0.1046
-0.110489
-0.116228
-0.121795
-0.127164
-0.132311
-0.137211
-0.141839
-0.146169
-0.150175
-0.153831
-0.15711
-0.159986
-0.162433
-0.164424
-0.165934
-0.166939
-0.167415
-0.167341
-0.166697
-0.165468
-0.163639
-0.161202
-0.158152
-0.154489
-0.150221
-0.145361
-0.13993
-0.133956
-0.127476
-0.120535
-0.113188
-0.105495
-0.097527
-0.089361
-0.08108
-0.0727721
-0.0645289
-0.0564437
-0.0486096
-0.0411177
-0.0340549
-0.0275022
-0.0215328
-0.0162106
-0.0115888
-0.00770921
-0.00459944
-0.00227021
-0.00074645
-9.59389e-05
-0.000154989
-0.00102271
-0.00288324
-0.00552878
-0.00883386
-0.0127194
-0.0171088
-0.02193
-0.0271184
-0.032616
-0.0383704
-0.0443345
-0.0504658
-0.0567258
-0.0630794
-0.0694944
-0.0759409
-0.082391
-0.0888183
-0.0951974
-0.101504
-0.107714
-0.113803
-0.119749
-0.125526
-0.131112
-0.136482
-0.14161
-0.146472
-0.151041
-0.155292
-0.159197
-0.162729
-0.16586
-0.168563
-0.17081
-0.172572
-0.173824
-0.174538
-0.174692
-0.17426
-0.173225
-0.171568
-0.169275
-0.166339
-0.162756
-0.158529
-0.153666
-0.148187
-0.142115
-0.135487
-0.128345
-0.120744
-0.112745
-0.104422
-0.0958534
-0.0871283
-0.0783406
-0.0695888
-0.0609746
-0.0526002
-0.0445665
-0.0369705
-0.0299035
-0.0234486
-0.017679
-0.012657
-0.00843197
-0.00503799
-0.00249049
-0.000820486
-0.000105921
-0.000159456
-0.00105159
-0.00296379
-0.00568197
-0.00907677
-0.0130666
-0.0175725
-0.0225203
-0.0278436
-0.0334828
-0.0393843
-0.0454999
-0.0517866
-0.0582051
-0.0647202
-0.0712994
-0.077913
-0.0845333
-0.091134
-0.0976904
-0.104178
-0.110575
-0.116856
-0.122998
-0.12898
-0.134776
-0.140363
-0.145717
-0.150811
-0.155621
-0.160119
-0.164278
-0.16807
-0.171465
-0.174436
-0.176952
-0.178984
-0.180502
-0.181478
-0.181883
-0.181692
-0.18088
-0.179426
-0.177312
-0.174525
-0.171057
-0.166906
-0.162077
-0.156583
-0.150447
-0.143701
-0.136385
-0.128553
-0.120267
-0.111601
-0.102638
-0.0934714
-0.0842
-0.0749302
-0.0657722
-0.0568381
-0.0482391
-0.0400835
-0.0324737
-0.0255039
-0.0192582
-0.0138083
-0.00921273
-0.00551283
-0.00272961
-0.000901145
-0.000116885
-0.000163365
-0.00107694
-0.00303463
-0.0058169
-0.00929103
-0.0133733
-0.0179826
-0.0230432
-0.0284867
-0.0342525
-0.0402857
-0.0465374
-0.0529637
-0.0595251
-0.0661861
-0.0729142
-0.0796798
-0.0864555
-0.0932154
-0.0999352
-0.106591
-0.113161
-0.119622
-0.125952
-0.132127
-0.138125
-0.143923
-0.149496
-0.154819
-0.159866
-0.164611
-0.169026
-0.173082
-0.176749
-0.179997
-0.182794
-0.18511
-0.186913
-0.18817
-0.188851
-0.188927
-0.188368
-0.187149
-0.185248
-0.182647
-0.179332
-0.175296
-0.170539
-0.165071
-0.158908
-0.152078
-0.144621
-0.136587
-0.128038
-0.119049
-0.109706
-0.100104
-0.090349
-0.0805555
-0.0708421
-0.0613309
-0.0521448
-0.0434037
-0.0352226
-0.0277081
-0.020956
-0.0150492
-0.0100563
-0.0060272
-0.00298937
-0.000989097
-0.000128942
-0.000166688
-0.0010986
-0.00309535
-0.00593281
-0.00947547
-0.0136378
-0.0183371
-0.0234957
-0.0290443
-0.0349208
-0.0410695
-0.0474407
-0.05399
-0.0606776
-0.0674677
-0.074328
-0.0812291
-0.0881437
-0.0950467
-0.101914
-0.108723
-0.115452
-0.122079
-0.128582
-0.134939
-0.141128
-0.147126
-0.152909
-0.158454
-0.163733
-0.168722
-0.17339
-0.177711
-0.181652
-0.185183
-0.188272
-0.190884
-0.192986
-0.194543
-0.195522
-0.19589
-0.195613
-0.194661
-0.193008
-0.19063
-0.187508
-0.183629
-0.178988
-0.173587
-0.16744
-0.160569
-0.153009
-0.144808
-0.136028
-0.126741
-0.117036
-0.107012
-0.0967805
-0.0864624
-0.0761857
-0.0660834
-0.0562902
-0.0469392
-0.0381588
-0.0300693
-0.0227799
-0.0163859
-0.0109675
-0.0065843
-0.00327153
-0.00108501
-0.000142207
-0.000169401
-0.00111645
-0.00314559
-0.00602905
-0.00962908
-0.0138587
-0.0186338
-0.0238756
-0.0295133
-0.0354839
-0.0417311
-0.0482044
-0.054859
-0.0616548
-0.0685561
-0.0755305
-0.0825488
-0.0895844
-0.0966125
-0.10361
-0.110555
-0.117425
-0.124201
-0.130861
-0.137385
-0.14375
-0.149935
-0.155917
-0.161672
-0.167175
-0.172399
-0.177317
-0.181899
-0.186114
-0.189931
-0.193315
-0.196232
-0.198646
-0.200519
-0.201816
-0.202498
-0.20253
-0.201878
-0.200507
-0.198391
-0.195503
-0.191825
-0.187345
-0.18206
-0.175976
-0.16911
-0.161493
-0.153168
-0.144193
-0.134642
-0.124602
-0.114176
-0.10348
-0.0926425
-0.0817997
-0.0710961
-0.060679
-0.0506957
-0.0412891
-0.0325947
-0.0247365
-0.0178241
-0.0119507
-0.00718719
-0.00357784
-0.00118957
-0.000156794
-0.000171485
-0.00113037
-0.00318506
-0.00610509
-0.00975104
-0.0140349
-0.0188714
-0.0241806
-0.029891
-0.0359386
-0.0422664
-0.0488236
-0.0555648
-0.0624498
-0.0694428
-0.0765117
-0.0836276
-0.0907643
-0.0978976
-0.105005
-0.112066
-0.119059
-0.125964
-0.132763
-0.139434
-0.145958
-0.152314
-0.158479
-0.16443
-0.170143
-0.175592
-0.180749
-0.185586
-0.190071
-0.194171
-0.197852
-0.201079
-0.203812
-0.206014
-0.207644
-0.208663
-0.209029
-0.208705
-0.207651
-0.205835
-0.203224
-0.199793
-0.195524
-0.190405
-0.184436
-0.177628
-0.170005
-0.161605
-0.152482
-0.142707
-0.132367
-0.121567
-0.110427
-0.0990811
-0.0876754
-0.0763654
-0.0653117
-0.0546763
-0.0446185
-0.0352901
-0.0268318
-0.0193692
-0.0130102
-0.00783885
-0.00390999
-0.00130342
-0.00017282
-0.000172925
-0.00114027
-0.00321356
-0.00616055
-0.00984077
-0.0141654
-0.0190485
-0.0244092
-0.0301753
-0.0362822
-0.0426722
-0.049294
-0.0561022
-0.0630563
-0.0701205
-0.077263
-0.0844552
-0.0916714
-0.0988881
-0.106084
-0.113238
-0.120331
-0.127345
-0.13426
-0.141058
-0.14772
-0.154225
-0.160553
-0.166682
-0.172588
-0.178246
-0.183629
-0.188709
-0.193454
-0.197832
-0.201807
-0.205343
-0.2084
-0.210938
-0.212915
-0.214287
-0.21501
-0.215041
-0.214338
-0.212859
-0.210568
-0.207431
-0.203423
-0.198525
-0.192729
-0.186037
-0.178465
-0.170046
-0.160829
-0.150879
-0.140284
-0.129146
-0.117591
-0.105756
-0.0937979
-0.0818825
-0.0701843
-0.0588811
-0.0481496
-0.0381598
-0.0290706
-0.0210257
-0.0141499
-0.00854207
-0.00426964
-0.00142722
-0.000190405
-0.000173712
-0.00114612
-0.00323099
-0.00619527
-0.00989797
-0.0142499
-0.0191645
-0.0245605
-0.030365
-0.0365129
-0.042946
-0.0496128
-0.0564673
-0.0634693
-0.070583
-0.0777766
-0.0850222
-0.0922945
-0.0995709
-0.10683
-0.114054
-0.121222
-0.128319
-0.135326
-0.142226
-0.149001
-0.155632
-0.1621
-0.168384
-0.174462
-0.180309
-0.1859
-0.191206
-0.196197
-0.20084
-0.205101
-0.208942
-0.212322
-0.2152
-0.217531
-0.21927
-0.220369
-0.22078
-0.220456
-0.219351
-0.217421
-0.214627
-0.210933
-0.206313
-0.200749
-0.194236
-0.186781
-0.178408
-0.169158
-0.159092
-0.148294
-0.136865
-0.124932
-0.112637
-0.100145
-0.0876327
-0.0752884
-0.0633066
-0.0518825
-0.0412061
-0.0314565
-0.0227975
-0.0153731
-0.00929949
-0.00465836
-0.00156164
-0.000209671
-0.000173845
-0.00114793
-0.00323738
-0.0062093
-0.00992274
-0.0142884
-0.0192195
-0.0246344
-0.0304598
-0.03663
-0.0430867
-0.0497778
-0.0566575
-0.0636852
-0.0708253
-0.0780465
-0.0853211
-0.0926244
-0.0999346
-0.107232
-0.114497
-0.121714
-0.128866
-0.135937
-0.142911
-0.149771
-0.156501
-0.163082
-0.169494
-0.175717
-0.181728
-0.187503
-0.193014
-0.198232
-0.203125
-0.207657
-0.211793
-0.21549
-0.218705
-0.221394
-0.223508
-0.224996
-0.225808
-0.225891
-0.225194
-0.223666
-0.22126
-0.217934
-0.21365
-0.208383
-0.202117
-0.194848
-0.186591
-0.177379
-0.167265
-0.156327
-0.144664
-0.132401
-0.119686
-0.106688
-0.0935951
-0.0806105
-0.0679453
-0.0558144
-0.0444293
-0.0339916
-0.0246876
-0.016683
-0.0101135
-0.00507768
-0.00170729
-0.000230742
-0.000173334
-0.00114575
-0.00323292
-0.00620297
-0.00991555
-0.0142816
-0.0192142
-0.0246316
-0.0304601
-0.0366339
-0.0430942
-0.0497887
-0.0566714
-0.0637018
-0.0708444
-0.0780682
-0.0853459
-0.0926535
-0.0999699
-0.107276
-0.114555
-0.12179
-0.128967
-0.136071
-0.143088
-0.150002
-0.156798
-0.16346
-0.16997
-0.176308
-0.182455
-0.188385
-0.194075
-0.199495
-0.204614
-0.209399
-0.213813
-0.217815
-0.221361
-0.224405
-0.226896
-0.228783
-0.230012
-0.230524
-0.230264
-0.229176
-0.227204
-0.224297
-0.22041
-0.215506
-0.209557
-0.20255
-0.194487
-0.185391
-0.175307
-0.164302
-0.152472
-0.139939
-0.126853
-0.113388
-0.0997417
-0.0861312
-0.072785
-0.0599388
-0.0478272
-0.0366766
-0.0266981
-0.0180819
-0.0109862
-0.00552898
-0.00186481
-0.000253744
-0.000172198
-0.00113972
-0.00321794
-0.00617692
-0.00987736
-0.0142306
-0.01915
-0.0245537
-0.0303678
-0.0365263
-0.04297
-0.0496465
-0.0565097
-0.0635191
-0.0706392
-0.0778394
-0.0850929
-0.0923764
-0.0996696
-0.106955
-0.114215
-0.121437
-0.128606
-0.135709
-0.142734
-0.149667
-0.156495
-0.163202
-0.169775
-0.176194
-0.182441
-0.188495
-0.194331
-0.199923
-0.205242
-0.210254
-0.214924
-0.219212
-0.223075
-0.226465
-0.229332
-0.231621
-0.233275
-0.234234
-0.234438
-0.233822
-0.232326
-0.22989
-0.226459
-0.221983
-0.216426
-0.20976
-0.201975
-0.193082
-0.183112
-0.172124
-0.160206
-0.147475
-0.134079
-0.120198
-0.106037
-0.0918246
-0.0778084
-0.0642454
-0.0513949
-0.03951
-0.0288297
-0.0195716
-0.0119194
-0.00601355
-0.00203478
-0.000278805
-0.000170466
-0.00113004
-0.00319299
-0.00613213
-0.00980965
-0.0141376
-0.0190295
-0.0244037
-0.0301861
-0.0363104
-0.0427174
-0.0493544
-0.056175
-0.0631389
-0.0702107
-0.0773602
-0.084561
-0.0917906
-0.0990295
-0.106261
-0.11347
-0.120643
-0.127768
-0.134834
-0.14183
-0.148744
-0.155565
-0.16228
-0.168875
-0.175337
-0.181646
-0.187785
-0.193731
-0.19946
-0.204945
-0.210154
-0.215052
-0.219603
-0.223761
-0.227482
-0.230714
-0.233401
-0.235485
-0.236903
-0.237589
-0.237475
-0.236493
-0.234575
-0.231656
-0.227677
-0.222585
-0.216343
-0.208924
-0.200325
-0.190564
-0.179688
-0.167771
-0.154926
-0.141297
-0.127063
-0.112436
-0.0976581
-0.0829929
-0.0687197
-0.0551241
-0.0424884
-0.0310819
-0.021153
-0.0129144
-0.00653252
-0.00221778
-0.000306057
-0.000168184
-0.00111697
-0.00315882
-0.00606999
-0.00971452
-0.0140052
-0.0188561
-0.0241855
-0.0299195
-0.0359913
-0.0423414
-0.0489172
-0.055672
-0.0625654
-0.0695625
-0.0766332
-0.0837517
-0.0908961
-0.0980481
-0.105192
-0.112313
-0.119401
-0.126445
-0.133434
-0.140361
-0.147215
-0.153987
-0.160667
-0.167244
-0.173704
-0.180033
-0.186215
-0.19223
-0.198056
-0.203668
-0.209036
-0.21413
-0.218912
-0.22334
-0.227369
-0.230949
-0.234025
-0.236535
-0.238415
-0.239597
-0.240007
-0.239571
-0.238214
-0.235861
-0.232442
-0.227891
-0.222156
-0.215195
-0.206989
-0.197539
-0.186876
-0.175063
-0.1622
-0.148425
-0.133915
-0.118887
-0.103591
-0.0883093
-0.0733423
-0.0590033
-0.0456057
-0.0334525
-0.0228262
-0.0139723
-0.00708685
-0.00241432
-0.000335628
-0.000165408
-0.00110089
-0.00311641
-0.00599229
-0.00959469
-0.0138373
-0.0186345
-0.0239049
-0.0295742
-0.0355756
-0.0418492
-0.0483422
-0.0550078
-0.0618057
-0.0687009
-0.0756639
-0.0826695
-0.0896965
-0.0967274
-0.103748
-0.110745
-0.117709
-0.12463
-0.131502
-0.138317
-0.145068
-0.151747
-0.158346
-0.164858
-0.171271
-0.177574
-0.183752
-0.18979
-0.195667
-0.201363
-0.20685
-0.212098
-0.217074
-0.221739
-0.226048
-0.229953
-0.233398
-0.236323
-0.238663
-0.240346
-0.241295
-0.241431
-0.240672
-0.238933
-0.236134
-0.232196
-0.227051
-0.220641
-0.212929
-0.203899
-0.193561
-0.181964
-0.169192
-0.155372
-0.140678
-0.125326
-0.109576
-0.093722
-0.0780885
-0.0630168
-0.0488533
-0.0359376
-0.0245901
-0.0150934
-0.00767728
-0.00262489
-0.000367651
-0.000162213
-0.00108225
-0.00306702
-0.00590134
-0.00945366
-0.0136385
-0.0183707
-0.0235687
-0.0291582
-0.0350721
-0.0412502
-0.0476392
-0.0541923
-0.0608692
-0.0676353
-0.0744611
-0.0813222
-0.0881984
-0.095073
-0.101933
-0.108767
-0.115566
-0.122324
-0.129035
-0.135693
-0.142294
-0.148833
-0.155304
-0.161702
-0.168018
-0.174245
-0.18037
-0.186381
-0.192261
-0.197992
-0.20355
-0.208909
-0.214037
-0.218898
-0.223451
-0.22765
-0.231439
-0.234761
-0.237548
-0.239729
-0.241224
-0.24195
-0.241817
-0.240735
-0.23861
-0.235353
-0.230878
-0.225114
-0.218
-0.209501
-0.199607
-0.188347
-0.175786
-0.162038
-0.147266
-0.131684
-0.115555
-0.0991884
-0.0829283
-0.0671448
-0.0522194
-0.0385313
-0.0264427
-0.0162776
-0.00830432
-0.00284991
-0.000402255
-0.00015869
-0.00106162
-0.00301218
-0.00579996
-0.00929571
-0.0134147
-0.0180719
-0.0231858
-0.0286817
-0.034492
-0.0405562
-0.0468205
-0.0532382
-0.0597688
-0.0663779
-0.0730366
-0.0797212
-0.0864123
-0.0930943
-0.0997552
-0.106386
-0.112979
-0.11953
-0.126034
-0.132489
-0.138893
-0.145242
-0.151535
-0.157767
-0.163935
-0.170033
-0.176052
-0.181983
-0.187813
-0.193527
-0.199105
-0.204523