/*--------------------------------*- C++ -*----------------------------------*\
  =========                 |
  \\      /  F ield         | OpenFOAM: The Open Source CFD Toolbox
   \\    /   O peration     | Website:  https://openfoam.org
    \\  /    A nd           | Version:  dev
     \\/     M anipulation  |
\*---------------------------------------------------------------------------*/
FoamFile
{
    format      ascii;
    class       volScalarField;
    location    "18";
    object      Uy;
}
// * * * * * * * * * * * * * * * * * * * * * * * * * * * * * * * * * * * * * //

dimensions      [0 1 -1 0 0 0 0];

internalField   nonuniform List<scalar> 
5184
(
-1.25717e-05
-2.07537e-05
-1.71544e-05
-8.13989e-06
2.7019e-06
1.36304e-05
2.3842e-05
3.3029e-05
4.10744e-05
4.79827e-05
5.3815e-05
5.86558e-05
6.25972e-05
6.57305e-05
6.81405e-05
6.9902e-05
7.10795e-05
7.17257e-05
7.18814e-05
7.15766e-05
7.08299e-05
6.96515e-05
6.80447e-05
6.60064e-05
6.35296e-05
6.06049e-05
5.72218e-05
5.33708e-05
4.90444e-05
4.42395e-05
3.89589e-05
3.32118e-05
2.70153e-05
2.03956e-05
1.3388e-05
6.03811e-06
-1.59776e-06
-9.4535e-06
-1.74529e-05
-2.55099e-05
-3.35304e-05
-4.14132e-05
-4.90514e-05
-5.63338e-05
-6.31483e-05
-6.9383e-05
-7.49292e-05
-7.96841e-05
-8.35534e-05
-8.64536e-05
-8.83139e-05
-8.90792e-05
-8.87115e-05
-8.71909e-05
-8.45167e-05
-8.07082e-05
-7.58047e-05
-6.9865e-05
-6.29663e-05
-5.52044e-05
-4.66934e-05
-3.75657e-05
-2.79758e-05
-1.81058e-05
-8.18086e-06
1.50401e-06
1.05272e-05
1.82525e-05
2.36693e-05
2.50875e-05
1.98242e-05
6.24251e-06
-4.56551e-05
-6.53959e-05
-4.02892e-05
7.81582e-06
6.57689e-05
0.000125992
0.00018421
0.000238175
0.00028675
0.000329495
0.000366368
0.000397559
0.000423379
0.000444194
0.000460381
0.000472299
0.000480268
0.000484564
0.000485412
0.000482982
0.000477396
0.00046873
0.000457022
0.000442282
0.000424498
0.000403647
0.000379705
0.000352655
0.000322499
0.000289261
0.000253004
0.000213828
0.000171885
0.000127376
8.0561e-05
3.17577e-05
-1.86556e-05
-7.02414e-05
-0.000122506
-0.000174903
-0.000226839
-0.000277683
-0.000326775
-0.000373438
-0.000416988
-0.00045675
-0.000492074
-0.000522345
-0.000547003
-0.000565555
-0.000577588
-0.000582781
-0.000580921
-0.000571903
-0.000555743
-0.000532579
-0.000502673
-0.000466415
-0.000424318
-0.000377019
-0.000325287
-0.000270025
-0.00021229
-0.000153333
-9.46626e-05
-3.81553e-05
1.37369e-05
5.77123e-05
8.91846e-05
0.000101664
8.63883e-05
3.64523e-05
-8.10893e-05
-9.46015e-05
-1.87191e-05
0.000106206
0.000254734
0.000410458
0.000563081
0.000706473
0.000837192
0.000953535
0.00105491
0.00114141
0.00121354
0.00127205
0.00131773
0.00135143
0.0013739
0.00138581
0.00138774
0.00138012
0.00136329
0.00133745
0.00130276
0.00125926
0.00120697
0.00114588
0.00107598
0.000997276
0.000909845
0.000813821
0.000709435
0.000597031
0.000477081
0.0003502
0.000217152
7.88577e-05
-6.36044e-05
-0.000209001
-0.000355953
-0.000502944
-0.000648342
-0.000790417
-0.00092737
-0.00105736
-0.00117854
-0.0012891
-0.00138728
-0.00147143
-0.00154007
-0.00159187
-0.00162575
-0.00164085
-0.00163662
-0.0016128
-0.00156946
-0.00150699
-0.00142615
-0.00132803
-0.00121408
-0.00108609
-0.000946233
-0.000797078
-0.000641622
-0.000483393
-0.000326581
-0.000176265
-3.87546e-05
7.79464e-05
0.000163555
0.000204919
0.000185942
9.0268e-05
-9.74895e-05
-7.26483e-05
8.52511e-05
0.000318609
0.000590014
0.0008739
0.00115327
0.00141735
0.00165969
0.00187676
0.002067
0.00223018
0.00236684
0.00247803
0.00256501
0.00262911
0.00267162
0.00269369
0.00269628
0.0026802
0.00264604
0.00259422
0.00252503
0.0024386
0.00233504
0.00221437
0.00207666
0.00192202
0.00175065
0.00156291
0.00135931
0.00114059
0.00090772
0.000661942
0.000404765
0.000137985
-0.000136311
-0.00041576
-0.000697731
-0.00097935
-0.00125754
-0.00152904
-0.0017905
-0.00203846
-0.00226948
-0.0024802
-0.00266736
-0.00282791
-0.0029591
-0.00305848
-0.00312405
-0.00315426
-0.00314809
-0.00310509
-0.0030254
-0.00290982
-0.00275976
-0.00257731
-0.00236525
-0.00212699
-0.0018667
-0.00158925
-0.00130035
-0.00100666
-0.000715984
-0.000437579
-0.000182577
3.54346e-05
0.000199759
0.000290027
0.000281963
0.00014704
-8.41209e-05
2.14027e-05
0.000295847
0.000668072
0.00109037
0.0015289
0.00196026
0.00236901
0.00274545
0.00308396
0.00338178
0.00363808
0.00385332
0.00402876
0.00416604
0.00426698
0.00433338
0.00436688
0.0043689
0.00434061
0.00428293
0.0041965
0.0040818
0.00393911
0.00376864
0.00357053
0.00334497
0.00309224
0.00281279
0.00250727
0.00217662
0.00182213
0.00144543
0.00104858
0.000634038
0.000204732
-0.000235988
-0.000684341
-0.00113615
-0.00158686
-0.00203161
-0.00246531
-0.00288266
-0.00327828
-0.00364681
-0.00398298
-0.00428174
-0.00453835
-0.00474852
-0.00490848
-0.00501511
-0.00506603
-0.00505966
-0.00499532
-0.00487328
-0.00469477
-0.00446206
-0.00417848
-0.00384839
-0.00347723
-0.00307158
-0.00263915
-0.00218892
-0.00173129
-0.00127828
-0.00084392
-0.000444679
-0.000100089
0.000166543
0.000327517
0.000350127
0.000193771
-3.72362e-05
0.000197791
0.000627075
0.00116998
0.00177066
0.00238834
0.00299401
0.00356792
0.00409725
0.00457426
0.00499487
0.0053576
0.0056627
0.00591153
0.00610608
0.0062486
0.00634136
0.00638651
0.00638591
0.00634113
0.00625339
0.00612363
0.00595252
0.00574053
0.00548803
0.00519532
0.00486279
0.00449096
0.00408061
0.00363281
0.00314907
0.00263132
0.00208204
0.00150427
0.00090166
0.000278445
-0.000360517
-0.00100978
-0.00166336
-0.00231475
-0.00295704
-0.00358297
-0.00418506
-0.0047557
-0.00528731
-0.00577245
-0.006204
-0.00657531
-0.00688032
-0.00711373
-0.00727115
-0.00734922
-0.00734574
-0.00725974
-0.00709161
-0.00684313
-0.00651752
-0.0061195
-0.00565528
-0.00513264
-0.00456089
-0.00395099
-0.00331563
-0.00266938
-0.00202893
-0.00141346
-0.000845055
-0.000349376
4.36435e-05
0.000299102
0.000376231
0.000224031
4.43474e-05
0.000461499
0.00108683
0.0018337
0.00264037
0.0034607
0.00426111
0.00501819
0.00571639
0.00634603
0.00690181
0.00738156
0.00778532
0.0081145
0.00837137
0.0085586
0.00867892
0.00873492
0.00872891
0.00866285
0.00853829
0.00835646
0.00811825
0.00782436
0.00747533
0.00707172
0.00661414
0.00610346
0.00554086
0.00492794
0.00426685
0.00356036
0.00281192
0.00202571
0.00120672
0.000360716
-0.000505751
-0.00138536
-0.00227008
-0.00315124
-0.00401962
-0.00486559
-0.00567919
-0.00645035
-0.00716902
-0.00782539
-0.00841001
-0.00891409
-0.00932961
-0.00964957
-0.00986814
-0.00998086
-0.0099848
-0.00987866
-0.00966294
-0.00933997
-0.00891402
-0.00839134
-0.00778017
-0.0070908
-0.00633561
-0.00552907
-0.0046879
-0.00383117
-0.00298053
-0.00216055
-0.0013991
-0.000728007
-0.000183702
0.000192053
0.000351193
0.000234401
0.000160619
0.000814377
0.00167886
0.00266422
0.00370487
0.00475089
0.00576531
0.0067219
0.00760289
0.00839706
0.00909808
0.00970323
0.0102123
0.0106269
0.0109496
0.0111832
0.0113311
0.0113963
0.0113815
0.0112889
0.0111207
0.0108781
0.0105624
0.0101745
0.00971524
0.00918534
0.00858579
0.00791782
0.00718311
0.00638388
0.00552304
0.00460428
0.00363215
0.00261214
0.00155071
0.000455309
-0.000665643
-0.00180277
-0.00294581
-0.00408373
-0.00520481
-0.00629681
-0.00734712
-0.00834297
-0.00927166
-0.0101207
-0.0108783
-0.0115331
-0.012075
-0.0124952
-0.0127862
-0.0129423
-0.0129597
-0.0128368
-0.0125741
-0.0121745
-0.0116433
-0.0109884
-0.0102201
-0.00935153
-0.0083982
-0.00737836
-0.00631297
-0.00522584
-0.00414377
-0.00309686
-0.00211887
-0.0012477
-0.000526093
-2.21393e-06
0.000269462
0.00022318
0.00031094
0.00125632
0.00240412
0.00366337
0.00496645
0.00626113
0.00750823
0.0086796
0.00975597
0.010725
0.0115796
0.0123168
0.0129364
0.0134399
0.0138304
0.014111
0.0142856
0.0143576
0.01433
0.0142056
0.0139866
0.0136749
0.0132717
0.0127784
0.0121958
0.0115253
0.010768
0.00992558
0.00900037
0.00799524
0.00691395
0.00576121
0.00454278
0.00326555
0.00193758
0.00056813
-0.000832366
-0.00225233
-0.00367914
-0.0050992
-0.00649814
-0.00786093
-0.00917212
-0.0104161
-0.0115772
-0.0126403
-0.0135906
-0.0144144
-0.0150993
-0.0156343
-0.0160102
-0.0162199
-0.0162587
-0.0161242
-0.0158171
-0.0153408
-0.0147016
-0.0139091
-0.0129758
-0.0119176
-0.0107534
-0.0095053
-0.00819874
-0.00686238
-0.00552833
-0.00423232
-0.00301398
-0.00191726
-0.00099097
-0.000289206
0.00012794
0.000189721
0.000494402
0.00178609
0.00326172
0.00483077
0.00642508
0.00799144
0.00948961
0.0108904
0.0121738
0.0133269
0.0143423
0.015217
0.0159508
0.0165458
0.017005
0.0173324
0.0175321
0.0176079
0.0175633
0.0174015
0.017125
0.0167359
0.0162357
0.0156261
0.0149082
0.0140836
0.0131539
0.0121213
0.0109887
0.00975963
0.00843885
0.00703214
0.00554653
0.00399042
0.00237356
0.000707112
-0.000996362
-0.00272298
-0.0044576
-0.00618398
-0.00788492
-0.00954247
-0.0111382
-0.0126533
-0.0140693
-0.0153678
-0.0165313
-0.0175433
-0.0183888
-0.0190544
-0.0195292
-0.0198043
-0.0198738
-0.019735
-0.0193881
-0.018837
-0.0180891
-0.0171555
-0.0160511
-0.0147944
-0.0134079
-0.0119178
-0.0103539
-0.00874992
-0.00714341
-0.00557577
-0.00409254
-0.00274362
-0.0015837
-0.000672454
-7.49808e-05
0.000133946
0.000709968
0.00240177
0.00424955
0.00616444
0.00807894
0.00994006
0.0117075
0.0133521
0.0148536
0.0161992
0.0173818
0.0183985
0.0192495
0.0199374
0.0204657
0.0208389
0.0210616
0.021138
0.0210721
0.0208674
0.0205267
0.0200524
0.0194464
0.0187104
0.017846
0.016855
0.0157396
0.0145023
0.0131468
0.0116773
0.0100996
0.00842052
0.00664852
0.0047935
0.00286698
0.000882103
-0.00114639
-0.0032022
-0.00526761
-0.00732359
-0.00935
-0.0113258
-0.0132295
-0.015039
-0.0167326
-0.0182887
-0.0196866
-0.020907
-0.0219319
-0.0227456
-0.0233348
-0.023689
-0.0238009
-0.0236667
-0.0232866
-0.0226646
-0.021809
-0.0207326
-0.0194523
-0.0179896
-0.0163705
-0.0146251
-0.012788
-0.0108981
-0.00899819
-0.00713563
-0.00536182
-0.00373262
-0.00230847
-0.00115439
-0.000340133
5.60227e-05
0.000956559
0.00310105
0.00536474
0.00766127
0.00992488
0.0121038
0.0141587
0.0160611
0.0177915
0.0193376
0.0206931
0.0218556
0.0228263
0.023608
0.0242053
0.024623
0.0248662
0.0249399
0.0248484
0.0245954
0.0241843
0.0236175
0.0228974
0.0220259
0.0210048
0.0198364
0.0185231
0.0170681
0.0154756
0.0137508
0.0119002
0.00993208
0.00785605
0.00568364
0.00342815
0.00110475
-0.00126958
-0.00367609
-0.00609439
-0.00850259
-0.0108775
-0.013195
-0.0154302
-0.0175577
-0.0195522
-0.0213889
-0.0230438
-0.0244941
-0.025719
-0.0267
-0.0274213
-0.0278702
-0.028038
-0.0279197
-0.0275149
-0.0268277
-0.0258673
-0.0246477
-0.0231882
-0.021513
-0.0196515
-0.017638
-0.015512
-0.0133172
-0.0111023
-0.0089204
-0.00682894
-0.00488974
-0.003169
-0.00173702
-0.000668076
-4.38298e-05
0.00123308
0.0038814
0.00660385
0.00931736
0.0119587
0.0144783
0.0168386
0.0190127
0.0209824
0.0227369
0.0242707
0.0255827
0.0266749
0.0275512
0.0282168
0.0286775
0.028939
0.0290066
0.0288853
0.0285792
0.0280918
0.027426
0.0265844
0.0255691
0.0243823
0.0230265
0.0215045
0.0198202
0.0179782
0.0159846
0.013847
0.0115745
0.00917835
0.00667152
0.00406914
0.00138839
-0.00135149
-0.00412928
-0.00692187
-0.00970448
-0.0124508
-0.0151334
-0.017724
-0.0201936
-0.0225134
-0.024655
-0.0265906
-0.0282943
-0.0297416
-0.0309111
-0.0317842
-0.0323458
-0.0325852
-0.0324962
-0.0320773
-0.0313328
-0.0302721
-0.0289107
-0.0272697
-0.0253763
-0.0232632
-0.020969
-0.0185378
-0.0160187
-0.0134662
-0.0109392
-0.00850136
-0.00622065
-0.0041691
-0.0024224
-0.00105945
-0.000165478
0.00153845
0.0047401
0.00796307
0.0111282
0.0141755
0.0170584
0.0197419
0.0222014
0.0244208
0.026391
0.0281084
0.0295732
0.0307888
0.0317602
0.0324937
0.0329958
0.0332732
0.0333317
0.0331768
0.032813
0.0322443
0.0314737
0.0305041
0.0293378
0.0279774
0.0264255
0.0246856
0.0227617
0.0206592
0.0183851
0.0159476
0.0133572
0.0106263
0.00776953
0.00480367
0.00174793
-0.0013762
-0.00454502
-0.00773271
-0.0109115
-0.0140521
-0.0171234
-0.0200938
-0.0229306
-0.0256012
-0.0280732
-0.0303152
-0.0322973
-0.0339917
-0.0353732
-0.0364202
-0.0371149
-0.0374442
-0.0374001
-0.0369802
-0.036188
-0.0350335
-0.033533
-0.0317096
-0.0295931
-0.0272196
-0.024632
-0.0218791
-0.0190154
-0.0161013
-0.013202
-0.0103873
-0.00773167
-0.00531313
-0.00321304
-0.00151525
-0.000308958
0.00187155
0.00567433
0.00943829
0.0130887
0.0165695
0.0198379
0.0228621
0.0256205
0.0280998
0.0302933
0.0321994
0.0338203
0.035161
0.0362281
0.037029
0.0375713
0.0378624
0.0379092
0.0377174
0.0372921
0.0366376
0.0357573
0.0346542
0.0333309
0.0317902
0.030035
0.0280691
0.025897
0.0235247
0.0209597
0.0182114
0.015291
0.0122124
0.00899145
0.00564685
0.00219969
-0.00132638
-0.0049052
-0.00850826
-0.0121048
-0.0156623
-0.0191464
-0.0225216
-0.0257515
-0.0287995
-0.0316292
-0.034205
-0.0364928
-0.038461
-0.0400805
-0.0413261
-0.0421769
-0.0426171
-0.0426363
-0.0422307
-0.041403
-0.040163
-0.0385278
-0.0365224
-0.0341787
-0.0315365
-0.0286427
-0.025551
-0.0223216
-0.0190207
-0.0157201
-0.0124963
-0.00943012
-0.00660628
-0.00411215
-0.00203696
-0.000474537
0.00223126
0.00668112
0.0110251
0.0151934
0.0191346
0.0228101
0.0261921
0.0292628
0.0320121
0.0344362
0.0365361
0.0383165
0.0397842
0.0409476
0.0418157
0.0423971
0.0427004
0.0427331
0.0425017
0.0420118
0.041268
0.040274
0.039033
0.0375479
0.0358215
0.0338572
0.0316589
0.0292316
0.0265817
0.0237173
0.0206485
0.0173878
0.0139499
0.0103523
0.00661505
0.00276121
-0.00118346
-0.00519043
-0.00922853
-0.0132641
-0.0172613
-0.0211824
-0.0249881
-0.028638
-0.0320914
-0.0353076
-0.0382465
-0.0408696
-0.0431409
-0.045027
-0.0464988
-0.0475316
-0.0481064
-0.0482101
-0.0478368
-0.0469881
-0.0456731
-0.0439097
-0.0417238
-0.03915
-0.0362312
-0.0330184
-0.0295704
-0.0259531
-0.0222389
-0.0185064
-0.0148389
-0.0113246
-0.0080549
-0.00512385
-0.00262672
-0.000662752
0.00261643
0.00775738
0.0127189
0.0174365
0.021864
0.0259675
0.0297242
0.0331202
0.0361493
0.0388113
0.0411103
0.0430536
0.0446504
0.0459111
0.0468463
0.0474662
0.0477805
0.0477975
0.0475245
0.0469677
0.0461319
0.0450212
0.0436391
0.0419886
0.0400727
0.0378949
0.0354593
0.0327713
0.0298376
0.026667
0.0232702
0.0196604
0.0158534
0.0118679
0.00772557
0.0034511
-0.000927742
-0.00538014
-0.00987235
-0.0143678
-0.0188275
-0.0232101
-0.0274725
-0.0315704
-0.0354585
-0.0390916
-0.0424249
-0.0454152
-0.0480214
-0.0502057
-0.0519341
-0.0531779
-0.0539141
-0.0541265
-0.0538067
-0.0529541
-0.0515773
-0.0496938
-0.0473309
-0.0445251
-0.0413225
-0.0377782
-0.033956
-0.0299277
-0.0257723
-0.0215753
-0.0174278
-0.0134252
-0.0096666
-0.00625334
-0.00328742
-0.000874434
0.00302586
0.00889987
0.0145146
0.0198117
0.0247503
0.0293022
0.0334497
0.0371837
0.0405024
0.0434096
0.0459129
0.0480226
0.0497508
0.05111
0.0521128
0.0527711
0.0530957
0.053096
0.0527802
0.0521549
0.0512255
0.0499964
0.0484712
0.046653
0.044545
0.0421508
0.0394748
0.0365223
0.0333006
0.0298186
0.0260877
0.0221218
0.0179376
0.0135548
0.00899644
0.00428876
-0.000538621
-0.00545273
-0.0104173
-0.0153931
-0.0203378
-0.0252066
-0.0299526
-0.0345271
-0.0388805
-0.0429626
-0.0467237
-0.0501152
-0.0530909
-0.0556076
-0.0576264
-0.0591134
-0.0600414
-0.0603902
-0.0601479
-0.0593119
-0.0578889
-0.0558963
-0.0533616
-0.0503235
-0.0468308
-0.0429427
-0.0387281
-0.0342649
-0.0296389
-0.0249433
-0.020277
-0.0157436
-0.0114505
-0.00750696
-0.00402274
-0.00111073
0.0034583
0.0101052
0.0164072
0.0223122
0.0277858
0.0328055
0.0373594
0.0414438
0.0450617
0.0482212
0.0509341
0.053214
0.055076
0.0565353
0.0576066
0.0583035
0.0586384
0.0586218
0.0582627
0.0575684
0.0565448
0.0551965
0.0535274
0.0515406
0.0492396
0.0466277
0.0437095
0.0404906
0.0369782
0.0331816
0.0291125
0.0247854
0.0202176
0.0154298
0.0104461
0.0052941
5.17581e-06
-0.00538576
-0.0108401
-0.0163159
-0.0217678
-0.0271475
-0.0324042
-0.0374849
-0.0423352
-0.0468999
-0.051124
-0.0549533
-0.0583357
-0.0612222
-0.0635681
-0.0653342
-0.0664877
-0.0670041
-0.0668673
-0.0660715
-0.0646214
-0.062533
-0.0598344
-0.0565653
-0.0527774
-0.0485338
-0.0439086
-0.038986
-0.033859
-0.0286288
-0.0234026
-0.0182933
-0.0134171
-0.00889231
-0.00483717
-0.00137311
0.00391241
0.0113696
0.018391
0.0249312
0.0309622
0.0364683
0.0414435
0.0458901
0.0498164
0.0532355
0.0561632
0.0586172
0.0606158
0.0621771
0.0633182
0.0640547
0.0644004
0.0643673
0.0639653
0.0632024
0.0620849
0.0606179
0.0588053
0.0566505
0.0541567
0.0513276
0.0481673
0.0446816
0.0408777
0.0367651
0.0323556
0.0276639
0.0227081
0.0175094
0.0120929
0.00648724
0.000725304
-0.00515621
-0.0111166
-0.0171113
-0.0230919
-0.0290069
-0.0348014
-0.0404182
-0.045798
-0.0508803
-0.0556044
-0.0599101
-0.0637391
-0.0670358
-0.0697492
-0.0718337
-0.0732506
-0.0739696
-0.0739701
-0.073242
-0.0717872
-0.06962
-0.0667678
-0.0632713
-0.0591847
-0.0545749
-0.0495212
-0.0441142
-0.0384545
-0.0326518
-0.0268228
-0.0210897
-0.0155788
-0.0104183
-0.00573612
-0.00166338
0.00438681
0.0126895
0.0204602
0.0276609
0.0342706
0.0402805
0.0456914
0.0505116
0.0547554
0.0584409
0.0615888
0.0642209
0.0663592
0.0680247
0.0692373
0.0700147
0.0703725
0.070324
0.0698803
0.06905
0.0678402
0.066256
0.0643017
0.0619806
0.059296
0.0562513
0.0528507
0.0490997
0.0450054
0.0405772
0.035827
0.0307697
0.0254234
0.0198099
0.0139549
0.00788812
0.00164346
-0.00474078
-0.011222
-0.0177532
-0.0242833
-0.0307574
-0.0371167
-0.0432997
-0.0492422
-0.0548781
-0.0601408
-0.0649637
-0.0692815
-0.0730319
-0.0761564
-0.0786024
-0.0803243
-0.0812854
-0.0814592
-0.0808306
-0.0793976
-0.077172
-0.0741799
-0.0704625
-0.0660758
-0.0610904
-0.0555908
-0.0496742
-0.0434494
-0.0370349
-0.0305574
-0.0241498
-0.0179493
-0.012095
-0.00672585
-0.00198368
0.00488
0.0140606
0.0226087
0.0304935
0.0377018
0.044232
0.0500919
0.0552966
0.0598664
0.0638252
0.0671986
0.0700129
0.072294
0.0740664
0.0753526
0.0761727
0.0765444
0.0764824
0.0759989
0.0751034
0.0738035
0.0721049
0.0700117
0.0675276
0.0646555
0.0613986
0.0577611
0.053748
0.0493663
0.0446249
0.0395358
0.0341136
0.0283765
0.0223464
0.0160495
0.0095161
0.002781
-0.00411623
-0.0111313
-0.0182152
-0.0253142
-0.0323702
-0.0393207
-0.0460998
-0.0526383
-0.0588646
-0.0647058
-0.0700883
-0.0749398
-0.07919
-0.0827727
-0.0856272
-0.0877001
-0.0889471
-0.0893347
-0.088842
-0.0874619
-0.0852026
-0.0820882
-0.0781595
-0.0734739
-0.0681054
-0.0621436
-0.0556924
-0.0488691
-0.0418019
-0.0346283
-0.0274927
-0.0205442
-0.0139341
-0.00781353
-0.0023365
0.00539041
0.0154789
0.0248298
0.0334206
0.0412458
0.0483115
0.054633
0.0602324
0.0651366
0.0693752
0.0729793
0.0759801
0.0784074
0.0802894
0.0816516
0.0825169
0.0829048
0.0828317
0.082311
0.0813533
0.0799667
0.0781573
0.0759294
0.0732865
0.0702315
0.0667675
0.062898
0.0586278
0.0539633
0.0489133
0.043489
0.0377048
0.0315788
0.0251327
0.0183927
0.0113895
0.00415847
-0.00325985
-0.0108198
-0.0184706
-0.0261562
-0.0338155
-0.0413825
-0.048787
-0.0559547
-0.0628085
-0.0692687
-0.0752548
-0.0806866
-0.0854857
-0.0895768
-0.0928906
-0.0953647
-0.096946
-0.0975931
-0.0972778
-0.0959867
-0.0937232
-0.0905085
-0.086382
-0.081402
-0.0756453
-0.0692064
-0.0621963
-0.054741
-0.046979
-0.0390593
-0.0311391
-0.0233805
-0.0159484
-0.00900722
-0.00272465
0.00591638
0.0169396
0.0271167
0.0364333
0.0448922
0.0525075
0.0593023
0.065306
0.0705522
0.0750769
0.0789169
0.0821082
0.0846852
0.0866798
0.088121
0.089034
0.0894409
0.0893597
0.0888051
0.0877889
0.0863197
0.0844041
0.0820465
0.0792505
0.0760187
0.0723538
0.0682588
0.0637382
0.0587976
0.0534452
0.0476915
0.0415506
0.0350398
0.0281805
0.0209987
0.013525
0.00579516
-0.00214984
-0.0102633
-0.018493
-0.0267808
-0.0350629
-0.0432701
-0.0513279
-0.0591573
-0.0666752
-0.0737955
-0.0804302
-0.0864907
-0.0918898
-0.0965428
-0.10037
-0.1033
-0.105269
-0.106227
-0.106135
-0.104975
-0.102742
-0.0994544
-0.0951483
-0.0898822
-0.0837353
-0.0768068
-0.0692145
-0.0610936
-0.0525936
-0.043876
-0.0351116
-0.0264771
-0.0181521
-0.0103159
-0.00315131
0.00645615
0.0184382
0.0294622
0.0395225
0.0486302
0.0568079
0.0640866
0.0705033
0.0760988
0.0809156
0.0849963
0.0883822
0.0911123
0.0932228
0.0947457
0.0957096
0.0961385
0.0960525
0.095468
0.0943976
0.0928507
0.0908342
0.0883531
0.0854106
0.0820091
0.0781509
0.0738386
0.0690757
0.0638673
0.0582208
0.0521458
0.0456554
0.0387663
0.0314993
0.0238796
0.0159375
0.00770852
-0.00076596
-0.00943875
-0.0182565
-0.0271594
-0.0360814
-0.0449502
-0.0536876
-0.0622097
-0.0704276
-0.0782487
-0.0855773
-0.0923161
-0.0983683
-0.103639
-0.108038
-0.111483
-0.113898
-0.115222
-0.115408
-0.114425
-0.112265
-0.108937
-0.104474
-0.0989354
-0.0924001
-0.0849721
-0.0767761
-0.0679566
-0.0586747
-0.0491055
-0.0394344
-0.0298542
-0.0205607
-0.0117494
-0.00361999
0.00700788
0.0199697
0.0318587
0.0426784
0.0524484
0.0611998
0.068972
0.0758098
0.0817613
0.0868756
0.0912016
0.094786
0.0976727
0.099902
0.10151
0.102528
0.102982
0.102895
0.102285
0.101165
0.0995456
0.0974346
0.0948367
0.0917552
0.0881922
0.0841496
0.0796293
0.074634
0.0691679
0.0632373
0.0568509
0.0500207
0.0427623
0.0350954
0.0270444
0.0186388
0.00991363
0.000910013
-0.00832469
-0.0177364
-0.0272643
-0.0368403
-0.0463896
-0.0558302
-0.0650738
-0.0740261
-0.0825877
-0.0906551
-0.0981222
-0.104882
-0.110829
-0.115861
-0.119883
-0.122807
-0.12456
-0.125081
-0.124332
-0.122291
-0.118962
-0.114373
-0.10858
-0.101663
-0.0937291
-0.0849103
-0.0753603
-0.0652526
-0.0547764
-0.0441335
-0.0335337
-0.0231909
-0.0133185
-0.00413455
0.00756967
0.0215289
0.0342985
0.045891
0.0563349
0.0656701
0.0739443
0.0812103
0.0875237
0.0929405
0.0975159
0.101302
0.104349
0.1067
0.108396
0.109471
0.109954
0.10987
0.109238
0.108074
0.106388
0.10419
0.101482
0.0982701
0.0945549
0.0903377
0.0856199
0.0804034
0.0746912
0.0684884
0.0618026
0.0546444
0.047028
0.0389718
0.0304989
0.0216378
0.0124226
0.00289361
-0.00690207
-0.0169102
-0.0270692
-0.0373097
-0.0475546
-0.0577189
-0.0677101
-0.0774287
-0.0867687
-0.0956188
-0.103864
-0.111387
-0.11807
-0.123799
-0.128464
-0.131965
-0.134214
-0.135137
-0.134681
-0.132815
-0.129532
-0.124854
-0.118831
-0.111545
-0.103104
-0.0936462
-0.0833357
-0.0723583
-0.0609187
-0.0492359
-0.0375388
-0.0260607
-0.0150349
-0.00469918
0.00813952
0.0231105
0.0367735
0.0491501
0.0602778
0.0702052
0.0789886
0.086689
0.0933694
0.0990932
0.103922
0.107914
0.111123
0.113599
0.115385
0.11652
0.117036
0.116958
0.11631
0.115107
0.113361
0.111081
0.108272
0.104938
0.101081
0.0966998
0.0917961
0.0863707
0.0804254
0.073964
0.0669926
0.0595203
0.0515596
0.0431274
0.0342452
0.0249398
0.015244
0.00519706
-0.00515475
-0.0157576
-0.0265498
-0.037461
-0.0484126
-0.0593171
-0.0700782
-0.0805916
-0.0907451
-0.10042
-0.109492
-0.117832
-0.125312
-0.131804
-0.137183
-0.141333
-0.144151
-0.145547
-0.145454
-0.143825
-0.140643
-0.13592
-0.129701
-0.122064
-0.113119
-0.103012
-0.0919131
-0.0800233
-0.0675631
-0.0547703
-0.0418941
-0.0291894
-0.0169109
-0.00531843
0.00871541
0.0247091
0.0392754
0.0524451
0.0642645
0.0747911
0.0840898
0.0922296
0.0992814
0.105316
0.110401
0.1146
0.117975
0.120578
0.122458
0.123655
0.124206
0.12414
0.123479
0.122242
0.120442
0.118088
0.115186
0.11174
0.10775
0.103217
0.0981399
0.092519
0.0863549
0.07965
0.0724086
0.0646381
0.0563492
0.0475569
0.0382806
0.0285454
0.0183822
0.0078287
-0.00307021
-0.0142617
-0.0256843
-0.0372678
-0.0489324
-0.0605888
-0.0721376
-0.0834702
-0.0944687
-0.105007
-0.114951
-0.124163
-0.132501
-0.139822
-0.145987
-0.150864
-0.154329
-0.156277
-0.156621
-0.155301
-0.152284
-0.14757
-0.141196
-0.133234
-0.123797
-0.113033
-0.101123
-0.0882794
-0.0747414
-0.0607662
-0.0466254
-0.0325972
-0.0189599
-0.00599719
0.00929526
0.0263193
0.041796
0.0557653
0.0682824
0.0794136
0.0892322
0.0978155
0.105242
0.11159
0.116933
0.121343
0.124885
0.127617
0.129592
0.130854
0.131444
0.131391
0.130722
0.129456
0.127608
0.125187
0.122201
0.118651
0.11454
0.109866
0.104629
0.0988273
0.0924599
0.0855277
0.0780335
0.0699827
0.0613839
0.0522499
0.0425979
0.0324507
0.021837
0.0107923
-0.00064022
-0.0124093
-0.0244548
-0.0367067
-0.0490852
-0.0614995
-0.0738484
-0.0860194
-0.0978895
-0.109326
-0.120186
-0.130321
-0.139576
-0.147794
-0.154819
-0.1605
-0.164696
-0.167281
-0.168147
-0.167216
-0.164436
-0.159794
-0.153315
-0.145066
-0.135155
-0.123733
-0.110992
-0.0971577
-0.0824851
-0.0672538
-0.0517594
-0.0363054
-0.0211959
-0.00674067
0.00987701
0.0279354
0.0443268
0.0591
0.0723189
0.0840584
0.0944002
0.10343
0.111234
0.117896
0.1235
0.128121
0.131831
0.134693
0.136765
0.138094
0.138724
0.138688
0.138014
0.136724
0.134834
0.132353
0.12929
0.125647
0.121425
0.116623
0.111239
0.105271
0.0987161
0.0915742
0.0838458
0.0755343
0.066646
0.0571912
0.0471846
0.0366465
0.0256028
0.0140866
0.00213857
-0.0101922
-0.0228473
-0.035758
-0.048845
-0.0620175
-0.0751724
-0.0881948
-0.100957
-0.113321
-0.125135
-0.136241
-0.14647
-0.155651
-0.163611
-0.170179
-0.175193
-0.178504
-0.179984
-0.17953
-0.177071
-0.172575
-0.166053
-0.157561
-0.147204
-0.135134
-0.121549
-0.106688
-0.0908261
-0.0742641
-0.0573238
-0.0403363
-0.0236339
-0.00755444
0.0104586
0.0295521
0.0468596
0.0624385
0.0763613
0.0887111
0.099578
0.109055
0.117237
0.124216
0.130081
0.134914
0.138792
0.141784
0.143953
0.14535
0.146021
0.146004
0.145329
0.144018
0.14209
0.139556
0.136424
0.132696
0.128374
0.123456
0.117939
0.11182
0.105095
0.0977618
0.0898191
0.081268
0.0721124
0.06236
0.0520228
0.041118
0.0296687
0.0177048
0.00526403
-0.00760719
-0.0208529
-0.0344067
-0.0481904
-0.0621139
-0.0760739
-0.0899535
-0.103622
-0.116936
-0.129736
-0.141855
-0.153112
-0.16332
-0.172288
-0.179826
-0.185749
-0.189883
-0.192074
-0.192195
-0.19015
-0.185886
-0.179394
-0.170717
-0.159952
-0.14725
-0.132816
-0.1169
-0.0997953
-0.0818279
-0.0633468
-0.0447131
-0.0262895
-0.00844439
0.011038
0.031164
0.0493863
0.0657705
0.0803973
0.0933577
0.10475
0.114675
0.123236
0.13053
0.136655
0.141698
0.145744
0.148866
0.151131
0.152595
0.153309
0.153312
0.152637
0.151309
0.149347
0.146765
0.14357
0.139767
0.135355
0.130332
0.124696
0.118442
0.111564
0.104059
0.0959222
0.0871538
0.0777549
0.0677303
0.0570889
0.0458447
0.0340176
0.0216339
0.00872803
-0.00465709
-0.0184687
-0.0326431
-0.0471047
-0.0617648
-0.0765209
-0.0912557
-0.105836
-0.120114
-0.133926
-0.147094
-0.159426
-0.170721
-0.18077
-0.18936
-0.196283
-0.20134
-0.204348
-0.20515
-0.203623
-0.199687
-0.193311
-0.184519
-0.173398
-0.160093
-0.144812
-0.127818
-0.109423
-0.089976
-0.0698571
-0.0494594
-0.0291787
-0.00941671
0.0116133
0.0327659
0.051899
0.0690859
0.0844148
0.0979845
0.109901
0.120273
0.12921
0.136818
0.143201
0.148453
0.152664
0.155914
0.158273
0.159803
0.160558
0.160581
0.159907
0.158564
0.156572
0.153946
0.150695
0.146823
0.142331
0.137216
0.131474
0.1251
0.118086
0.110428
0.102119
0.0931571
0.0835402
0.0732704
0.0623536
0.0508002
0.0386264
0.0258549
0.0125161
-0.00135106
-0.0156977
-0.0304638
-0.045577
-0.0609515
-0.0764865
-0.0920653
-0.107555
-0.122803
-0.137643
-0.151888
-0.165336
-0.177771
-0.188967
-0.19869
-0.206707
-0.21279
-0.216724
-0.218322
-0.217428
-0.21393
-0.207768
-0.198946
-0.187532
-0.173665
-0.157552
-0.139466
-0.119736
-0.0987383
-0.0768834
-0.0545996
-0.0323186
-0.0104779
0.0121826
0.0343532
0.0543906
0.0723753
0.0884025
0.102578
0.115016
0.125832
0.135142
0.143061
0.149698
0.155156
0.159528
0.162901
0.165352
0.166945
0.167739
0.16778
0.167106
0.165749
0.163729
0.161063
0.157761
0.153828
0.149264
0.144067
0.138232
0.131752
0.12462
0.116829
0.10837
0.0992381
0.0894297
0.0789434
0.0677819
0.055952
0.0434659
0.0303423
0.0166072
0.00229495
-0.01255
-0.0278721
-0.0436033
-0.0596616
-0.0759493
-0.0923518
-0.108737
-0.124952
-0.140825
-0.156165
-0.170761
-0.184383
-0.196787
-0.20772
-0.216922
-0.224134
-0.22911
-0.231626
-0.231489
-0.22855
-0.222717
-0.213964
-0.202338
-0.187963
-0.171045
-0.151861
-0.13076
-0.108144
-0.0844542
-0.0601582
-0.0357264
-0.0116349
0.0127444
0.0359213
0.0568542
0.0756299
0.0923499
0.107127
0.120081
0.131336
0.141015
0.14924
0.156126
0.161783
0.166312
0.169804
0.17234
0.173992
0.174821
0.174877
0.174202
0.172828
0.170781
0.168077
0.164728
0.160739
0.156111
0.150842
0.144926
0.138356
0.131122
0.123217
0.11463
0.105353
0.0953803
0.0847075
0.0733337
0.0612621
0.0485009
0.0350642
0.0209735
0.00625805
-0.00904277
-0.0248787
-0.0411869
-0.0578901
-0.0748951
-0.092091
-0.109348
-0.126514
-0.143416
-0.159858
-0.175622
-0.190467
-0.204134
-0.216347
-0.226821
-0.235266
-0.241401
-0.244962
-0.245715
-0.24347
-0.238094
-0.229526
-0.217783
-0.202973
-0.18529
-0.165018
-0.142518
-0.118219
-0.0925974
-0.06616
-0.0394197
-0.0128946
0.0132972
0.0374665
0.0592842
0.0788421
0.0962474
0.111619
0.125083
0.136771
0.146813
0.155336
0.162465
0.168314
0.172991
0.176594
0.17921
0.180913
0.181771
0.181837
0.181157
0.179765
0.17769
0.174948
0.171554
0.167514
0.162829
0.157496
0.15151
0.144863
0.137545
0.129544
0.12085
0.111454
0.101344
0.0905158
0.0789635
0.066687
0.0536901
0.0399826
0.0255806
0.0105083
-0.00520064
-0.021502
-0.0383388
-0.0556399
-0.0733177
-0.0912665
-0.10936
-0.12745
-0.145363
-0.162903
-0.179844
-0.195937
-0.210909
-0.224464
-0.236291
-0.24607
-0.253481
-0.258219
-0.260004
-0.258598
-0.253822
-0.245571
-0.233827
-0.218671
-0.200282
-0.178942
-0.155026
-0.128988
-0.10134
-0.0726296
-0.0434168
-0.0142645
0.0138397
0.0389857
0.0616755
0.0820053
0.100087
0.116045
0.130011
0.142123
0.152518
0.161332
0.168693
0.174725
0.179542
0.183246
0.185932
0.187679
0.188557
0.188627
0.187936
0.186521
0.184414
0.181634
0.178196
0.174108
0.16937
0.163982
0.157936
0.151224
0.143836
0.135759
0.126981
0.117489
0.107271
0.0963178
0.0846217
0.0721783
0.0589872
0.0450533
0.0303878
0.015009
-0.00105552
-0.017768
-0.0350784
-0.0529223
-0.0712194
-0.0898702
-0.108755
-0.127729
-0.146623
-0.16524
-0.183354
-0.200707
-0.217013
-0.231961
-0.245214
-0.256421
-0.265224
-0.271273
-0.274237
-0.273826
-0.269807
-0.262024
-0.250413
-0.235019
-0.216001
-0.193633
-0.168298
-0.140473
-0.110706
-0.079591
-0.0477356
-0.0157521
0.0143711
0.0404766
0.0640246
0.0851146
0.103862
0.120396
0.134854
0.147381
0.158118
0.16721
0.174793
0.180996
0.185939
0.189734
0.192477
0.194256
0.195146
0.19521
0.1945
0.193057
0.190913
0.188092
0.184609
0.180473
0.175687
0.170249
0.164152
0.157388
0.149945
0.141809
0.132967
0.123403
0.113105
0.102059
0.0902545
0.0776832
0.0643408
0.0502272
0.0353484
0.0197168
0.00335356
-0.0137106
-0.0314332
-0.0497577
-0.0686117
-0.087904
-0.107522
-0.127328