/*--------------------------------*- C++ -*----------------------------------*\
  =========                 |
  \\      /  F ield         | OpenFOAM: The Open Source CFD Toolbox
   \\    /   O peration     | Website:  https://openfoam.org
    \\  /    A nd           | Version:  dev
     \\/     M anipulation  |
\*---------------------------------------------------------------------------*/
FoamFile
{
    format      ascii;
    class       volScalarField;
    location    "1.35";
    object      p;
}
// * * * * * * * * * * * * * * * * * * * * * * * * * * * * * * * * * * * * * //

dimensions      [0 2 -2 0 0 0 0];

internalField   nonuniform List<scalar> 
400
(
-5.47189e-09
-0.000397563
-0.000696313
-0.000778841
-0.000587117
-0.000111896
0.000630943
0.00161421
0.00280295
0.00415249
0.00560527
0.00708859
0.00851482
0.00978574
0.010802
0.0114789
0.0117689
0.0116896
0.0113441
0.010904
0.000378832
-2.87995e-05
-0.000251109
-0.000259537
-4.42668e-05
0.000404848
0.00108204
0.00196959
0.00304023
0.0042556
0.00556411
0.0069006
0.00818615
0.00933424
0.0102595
0.0108919
0.0111968
0.0111909
0.0109251
0.0104773
0.000675254
0.000152931
-8.51203e-05
-7.86645e-05
0.000138009
0.000568539
0.00120963
0.00204837
0.00306333
0.00422179
0.00547724
0.00676796
0.00801809
0.0091422
0.0100543
0.0106823
0.0109885
0.0109821
0.0106759
0.0100934
0.000765199
9.65319e-05
-0.000197912
-0.000206755
7.77462e-08
0.000418645
0.00104549
0.00187076
0.00287794
0.00403947
0.00531268
0.00663765
0.00793617
0.00911644
0.0100816
0.0107457
0.0110582
0.011018
0.0106145
0.00984775
0.000556931
-0.000251043
-0.000608447
-0.000640103
-0.000443864
-2.94018e-05
0.000600163
0.00143831
0.00247382
0.00368441
0.00503079
0.0064555
0.00787341
0.00918131
0.0102637
0.0110115
0.011353
0.0112745
0.0107517
0.00978195
-1.18059e-05
-0.000954957
-0.00137675
-0.00143207
-0.00124277
-0.000822791
-0.000173964
0.000701518
0.00179881
0.00310193
0.00457462
0.00616843
0.00778349
0.00930223
0.0105825
0.0114805
0.0118914
0.0117816
0.0111148
0.0098986
-0.000990153
-0.00207591
-0.00256514
-0.00264314
-0.00245637
-0.00202277
-0.00134198
-0.000410393
0.000775667
0.00221095
0.00387208
0.00569333
0.0075899
0.00942051
0.0110059
0.0121515
0.0127001
0.0125812
0.011735
0.0101842
-0.00243107
-0.00367839
-0.00424105
-0.00434107
-0.00415455
-0.00370453
-0.00298784
-0.00199315
-0.000705174
0.000884383
0.00276428
0.00488648
0.00715889
0.00942427
0.0114602
0.0130009
0.0138052
0.0137316
0.0126627
0.0106292
-0.00440154
-0.0058402
-0.00648511
-0.00660741
-0.0064227
-0.00596174
-0.00521834
-0.0041714
-0.00279019
-0.00104666
0.00107027
0.00353639
0.00627217
0.00911367
0.0117941
0.0139538
0.0152202
0.0153164
0.0139911
0.0112485
-0.0069898
-0.00865972
-0.00939613
-0.00953962
-0.00936123
-0.0089041
-0.00815942
-0.00709483
-0.00566073
-0.00380292
-0.00147657
0.00133436
0.00459019
0.00814841
0.0117159
0.014825
0.0169087
0.0174436
0.0158871
0.0121192
-0.0103143
-0.0122648
-0.0130957
-0.0132503
-0.0130802
-0.0126477
-0.0119426
-0.010921
-0.00951325
-0.00763498
-0.0051972
-0.00212162
0.00163085
0.00599498
0.0107095
0.0152204
0.0187052
0.0202195
0.0186308
0.01346
-0.0145405
-0.0168268
-0.0177333
-0.0178631
-0.0176867
-0.0172944
-0.0166758
-0.015777
-0.0145108
-0.012765
-0.0104027
-0.00726362
-0.00318679
0.00193019
0.00797854
0.0144262
0.0201924
0.0236811
0.0226565
0.0157945
-0.019916
-0.022585
-0.0234916
-0.0235003
-0.0232594
-0.0228942
-0.0223917
-0.02169
-0.0206923
-0.0192699
-0.0172481
-0.0143819
-0.0103437
-0.00477287
0.0025705
0.0114265
0.0206241
0.0277166
0.028608
0.0202846
-0.0268478
-0.0298903
-0.0305876
-0.0302542
-0.0298005
-0.0293807
-0.0289662
-0.0284857
-0.0278421
-0.0269089
-0.0254982
-0.0232981
-0.0198005
-0.0143372
-0.00608647
0.00535067
0.0191685
0.032137
0.0374858
0.0293382
-0.0360777
-0.0392779
-0.0392478
-0.0381153
-0.0371436
-0.0364681
-0.0360079
-0.0356684
-0.0353549
-0.0349583
-0.0343025
-0.0330473
-0.0305509
-0.0257503
-0.0171912
-0.00341587
0.0158437
0.0372191
0.0510166
0.0473263
-0.0490775
-0.0515727
-0.0496014
-0.0468066
-0.0447851
-0.0434968
-0.0427287
-0.0423269
-0.04218
-0.0421864
-0.0421803
-0.0418035
-0.0403108
-0.0362999
-0.0276874
-0.0118689
0.013155
0.0450672
0.0724283
0.0807992
-0.0689847
-0.0679948
-0.061467
-0.0555605
-0.051691
-0.0492927
-0.0478824
-0.0471698
-0.0469669
-0.0471254
-0.0474342
-0.0474609
-0.0463151
-0.0423239
-0.0327962
-0.0143028
0.0172005
0.061432
0.108317
0.139861
-0.103688
-0.0898553
-0.0738288
-0.0627572
-0.0560413
-0.0520596
-0.0498322
-0.0487609
-0.0484572
-0.0486312
-0.0489411
-0.0487892
-0.0470532
-0.0417009
-0.029451
-0.00577305
0.0346638
0.0946297
0.17081
0.247722
-0.177917
-0.115538
-0.0798903
-0.062207
-0.0529257
-0.0480514
-0.0458512
-0.0452177
-0.0454348
-0.0460289
-0.0465185
-0.0461371
-0.0435196
-0.0361734
-0.0203828
0.00973884
0.0621624
0.145799
0.269735
0.444225
-0.345282
-0.136651
-0.060715
-0.0414688
-0.0349407
-0.0326449
-0.033064
-0.0348644
-0.0370849
-0.0391948
-0.0407226
-0.0409034
-0.0383889
-0.03091
-0.0141618
0.0185413
0.0785465
0.186978
0.380883
0.711085
)
;

boundaryField
{
    movingWall
    {
        type            zeroGradient;
    }
    fixedWalls
    {
        type            zeroGradient;
    }
    frontAndBack
    {
        type            empty;
    }
}


// ************************************************************************* //
