/*--------------------------------*- C++ -*----------------------------------*\
  =========                 |
  \\      /  F ield         | OpenFOAM: The Open Source CFD Toolbox
   \\    /   O peration     | Website:  https://openfoam.org
    \\  /    A nd           | Version:  dev
     \\/     M anipulation  |
\*---------------------------------------------------------------------------*/
FoamFile
{
    format      ascii;
    class       surfaceScalarField;
    location    "1.35";
    object      phi;
}
// * * * * * * * * * * * * * * * * * * * * * * * * * * * * * * * * * * * * * //

dimensions      [0 3 -1 0 0 0 0];

internalField   nonuniform List<scalar> 
760
(
-1.61944e-07
1.61974e-07
-3.98765e-06
3.82572e-06
-1.08682e-05
6.88055e-06
-1.92808e-05
8.4126e-06
-2.80532e-05
8.77248e-06
-3.63876e-05
8.3343e-06
-4.37418e-05
7.35419e-06
-4.97174e-05
5.9756e-06
-5.39813e-05
4.2639e-06
-5.62323e-05
2.25105e-06
-5.62063e-05
-2.60457e-08
-5.37139e-05
-2.49238e-06
-4.87042e-05
-5.00974e-06
-4.13487e-05
-7.35551e-06
-3.21337e-05
-9.21501e-06
-2.19389e-05
-1.01948e-05
-1.20651e-05
-9.87376e-06
-4.17375e-06
-7.89137e-06
-1.85497e-08
-4.15518e-06
-1.85224e-08
-3.86849e-06
4.03047e-06
-1.53692e-05
1.53265e-05
-3.22818e-05
2.37931e-05
-5.20609e-05
2.81917e-05
-7.24659e-05
2.91775e-05
-9.17776e-05
2.76459e-05
-0.000108727
2.43038e-05
-0.000122351
1.95996e-05
-0.000131869
1.37821e-05
-0.000136626
7.00773e-06
-0.000136102
-5.49737e-07
-0.000129973
-8.6217e-06
-0.000118243
-1.67399e-05
-0.00010139
-2.4208e-05
-8.05324e-05
-3.00731e-05
-5.75403e-05
-3.31869e-05
-3.50295e-05
-3.23845e-05
-1.6115e-05
-2.68058e-05
-3.79593e-06
-1.64742e-05
-3.81442e-06
-7.38939e-06
1.14199e-05
-2.53919e-05
3.3329e-05
-5.02285e-05
4.86297e-05
-7.84562e-05
5.64193e-05
-0.000107189
5.79103e-05
-0.00013419
5.46464e-05
-0.000157771
4.78852e-05
-0.000176632
3.84612e-05
-0.000189723
2.68721e-05
-0.00019617
1.3455e-05
-0.000195292
-1.42762e-06
-0.00018668
-1.72338e-05
-0.00017035
-3.30696e-05
-0.000146944
-4.76147e-05
-0.000117933
-5.90837e-05
-8.57719e-05
-6.53478e-05
-5.38779e-05
-6.42784e-05
-2.63317e-05
-5.4352e-05
-7.24046e-06
-3.55655e-05
-1.10549e-05
-1.00126e-05
2.14325e-05
-3.33659e-05
5.66823e-05
-6.47272e-05
7.9991e-05
-9.97543e-05
9.14464e-05
-0.000135035
9.31913e-05
-0.000168
8.76109e-05
-0.000196728
7.6613e-05
-0.000219734
6.14668e-05
-0.000235801
4.29391e-05
-0.000243898
2.15528e-05
-0.000243187
-2.139e-06
-0.000233106
-2.73152e-05
-0.000213567
-5.26087e-05
-0.000185202
-7.59792e-05
-0.000149649
-9.4637e-05
-0.000109775
-0.000105221
-6.97155e-05
-0.000104338
-3.45648e-05
-8.95027e-05
-9.70142e-06
-6.04288e-05
-2.07563e-05
-1.20809e-05
3.35134e-05
-4.00142e-05
8.46156e-05
-7.70965e-05
0.000117073
-0.000118104
0.000132454
-0.000159139
0.000134226
-0.00019738
0.000125852
-0.000230774
0.000110007
-0.000257737
8.84301e-05
-0.000276943
6.21444e-05
-0.000287206
3.18156e-05
-0.000287487
-1.85753e-06
-0.000276943
-3.78591e-05
-0.000255222
-7.43298e-05
-0.000222751
-0.00010845
-0.000181161
-0.000136227
-0.000133672
-0.00015271
-8.52451e-05
-0.000152766
-4.22816e-05
-0.000132466
-1.17604e-05
-9.095e-05
-3.25167e-05
-1.39687e-05
4.74821e-05
-4.62467e-05
0.000116894
-8.88565e-05
0.000159683
-0.0001357
0.000179297
-0.000182407
0.000180933
-0.000225956
0.000169401
-0.000264223
0.000148274
-0.000295587
0.000119794
-0.000318644
8.52015e-05
-0.000332035
4.52063e-05
-0.00033448
5.8756e-07
-0.000324652
-4.76871e-05
-0.000301748
-9.72341e-05
-0.000265716
-0.000144482
-0.000217951
-0.000183992
-0.000161938
-0.000208723
-0.00010365
-0.000211054
-5.12865e-05
-0.00018483
-1.4046e-05
-0.000128191
-4.65627e-05
-1.59724e-05
6.34545e-05
-5.28589e-05
0.00015378
-0.000101337
0.000208161
-0.000154386
0.000232347
-0.00020717
0.000233717
-0.000256508
0.00021874
-0.000300278
0.000192043
-0.00033689
0.000156407
-0.000364913
0.000113224
-0.00038284
6.31338e-05
-0.000388929
6.67597e-06
-0.00038145
-5.51653e-05
-0.000358712
-0.000119973
-0.000319829
-0.000183365
-0.000265563
-0.000238257
-0.000199426
-0.000274861
-0.00012855
-0.00028193
-6.36326e-05
-0.000249747
-1.72012e-05
-0.000174622
-6.37638e-05
-1.83205e-05
8.1775e-05
-6.04877e-05
0.000195947
-0.000115583
0.000263256
-0.000175548
0.000292313
-0.000235073
0.000293241
-0.000290886
0.000274553
-0.000340963
0.00024212
-0.00038385
0.000199294
-0.000418178
0.000147552
-0.000442322
8.72771e-05
-0.00045419
1.85446e-05
-0.00045127
-5.80849e-05
-0.00043079
-0.000140453
-0.000390474
-0.000223681
-0.000329783
-0.000298948
-0.000251677
-0.000352966
-0.000164374
-0.000369234
-8.19317e-05
-0.000332189
-2.20354e-05
-0.000234518
-8.57993e-05
-2.12063e-05
0.000102981
-6.96618e-05
0.000244403
-0.000132409
0.000326003
-0.00020016
0.000360063
-0.000267125
0.000360206
-0.000330043
0.000337471
-0.000387132
0.000299209
-0.000437238
0.000249401
-0.000479213
0.000189527
-0.000511457
0.00011952
-0.000531577
3.86647e-05
-0.000536232
-5.34296e-05
-0.000521221
-0.000155465
-0.00048222
-0.000262682
-0.000416381
-0.000364787
-0.000324993
-0.000444354
-0.000216726
-0.0004775
-0.000109786
-0.000439129
-2.97428e-05
-0.000314562
-0.000115542
-2.48415e-05
0.000127823
-8.09052e-05
0.000300467
-0.000152515
0.000397613
-0.000228878
0.000436426
-0.000303745
0.000435074
-0.000374018
0.000407743
-0.000438357
0.000363548
-0.000496129
0.000307173
-0.00054665
0.000240049
-0.000588599
0.00016147
-0.000619497
6.95625e-05
-0.000635289
-3.76379e-05
-0.000630151
-0.000160602
-0.000597057
-0.000295776
-0.000529556
-0.000432288
-0.000425434
-0.000548476
-0.00029215
-0.000610785
-0.000152088
-0.000579191
-4.21704e-05
-0.000424479
-0.000157712
-2.95315e-05
0.000157354
-9.48721e-05
0.000365807
-0.000176606
0.000479346
-0.000262097
0.000521918
-0.000344715
0.000517692
-0.000421746
0.000484774
-0.000492549
0.000434351
-0.000557281
0.000371904
-0.000616034
0.000298801
-0.000668139
0.000213576
-0.000711454
0.000112877
-0.000741606
-7.48578e-06
-0.000751342
-0.000150866
-0.000730605
-0.000316513
-0.000668095
-0.000494798
-0.000555662
-0.000660908
-0.00039634
-0.000770107
-0.000214716
-0.000760815
-6.20955e-05
-0.000577099
-0.000219808
-3.57939e-05
0.000193148
-0.000112517
0.000442531
-0.000205486
0.000572315
-0.000299872
0.000616303
-0.000388883
0.000606704
-0.000470532
0.000566423
-0.000545177
0.000508996
-0.000614046
0.000440773
-0.000678337
0.000363093
-0.000738488
0.000273726
-0.000793313
0.000167702
-0.000838895
3.80958e-05
-0.000867409
-0.000122352
-0.000866271
-0.000317651
-0.000818864
-0.000542205
-0.000708735
-0.000771037
-0.000529694
-0.000949148
-0.000302839
-0.00098767
-9.33965e-05
-0.000786542
-0.000313204
-4.45681e-05
0.000237716
-0.000135321
0.000533284
-0.000240035
0.00067703
-0.000341519
0.000717787
-0.000433391
0.000698575
-0.000514923
0.000647956
-0.000587836
0.000581909
-0.000654688
0.000507624
-0.000718051
0.000426456
-0.000779878
0.000335553
-0.000840649
0.000228473
-0.000898062
9.55087e-05
-0.000945288
-7.51268e-05
-0.00096918
-0.000293759
-0.000949117
-0.000562268
-0.000859491
-0.000860663
-0.000679615
-0.00112902
-0.000416657
-0.00125063
-0.000140687
-0.00106251
-0.000453891
-5.76211e-05
0.000295337
-0.000165565
0.000641228
-0.000280858
0.000792323
-0.000384511
0.000821441
-0.000471881
0.000785945
-0.000544438
0.000720512
-0.000605751
0.000643222
-0.000659932
0.000561806
-0.000711053
0.000477578
-0.000762779
0.000387279
-0.000817778
0.000283473
-0.000876595
0.000154325
-0.000935419
-1.63021e-05
-0.000984174
-0.000245004
-0.00100208
-0.000544365
-0.000957013
-0.000905728
-0.000810903
-0.00127513
-0.000543421
-0.00151811
-0.000207082
-0.00139885
-0.000660973
-7.83358e-05
0.000373673
-0.000206542
0.000769433
-0.000326936
0.000912717
-0.000421563
0.000916067
-0.000490461
0.000854843
-0.000538938
0.000768989
-0.000573166
0.000677449
-0.000599028
0.000587668
-0.000621993
0.000500542
-0.000647209
0.000412495
-0.000679469
0.000315733
-0.000722732
0.000197588
-0.00077841
3.93761e-05
-0.000842969
-0.000180446
-0.000902132
-0.000485201
-0.000924776
-0.000883084
-0.000858979
-0.00134093
-0.00064632
-0.00173077
-0.000287655
-0.00175752
-0.000948628
-0.000112987
0.00048666
-0.000261654
0.0009181
-0.000370911
0.00102197
-0.000432942
0.000978098
-0.000458387
0.000880288
-0.000458991
0.000769593
-0.000444462
0.00066292
-0.000422504
0.000565711
-0.000399474
0.000477513
-0.000381165
0.000394186
-0.000373511
0.000308078
-0.00038306
0.000207137
-0.00041715
7.34665e-05
-0.000480674
-0.000116922
-0.000572614
-0.000393261
-0.000674688
-0.00078101
-0.000734
-0.00128162
-0.000656342
-0.00180843
-0.000357979
-0.00205588
-0.00130661
-0.000171517
0.000658177
-0.000326293
0.00107288
-0.000382097
0.00107778
-0.000365094
0.000961096
-0.000306185
0.000821379
-0.000225914
0.000689323
-0.000137304
0.000574309
-4.87386e-05
0.000477145
3.40193e-05
0.000394755
0.000106228
0.000321977
0.000162637
0.000251669
0.000196078
0.000173697
0.000196085
7.34594e-05
0.000148949
-6.97865e-05
4.06768e-05
-0.000284989
-0.000131898
-0.000608435
-0.000339853
-0.00107366
-0.000478252
-0.00167003
-0.000366686
-0.00216745
-0.00167329
-0.000260554
0.000918731
-0.000342214
0.00115454
-0.000244909
0.000980474
-7.09054e-05
0.000787092
0.000124042
0.000626432
0.000316048
0.000497316
0.000494674
0.000395684
0.000655404
0.000316415
0.000796435
0.000253724
0.000916556
0.000201857
0.00101341
0.000154817
0.00108167
0.000105433
0.0011109
4.4226e-05
0.00108378
-4.26609e-05
0.000974913
-0.000176124
0.000753477
-0.000386999
0.000408413
-0.000728599
1.14835e-05
-0.0012731
-0.000216949
-0.00193901
-0.00189024
-0.000248801
0.00116753
1.36459e-05
0.00089209
0.000433476
0.000560643
0.000825166
0.000395402
0.00116216
0.000289435
0.00144658
0.000212899
0.00168407
0.000158198
0.0018811
0.000119378
0.00204369
9.11326e-05
0.00217618
6.93732e-05
0.00228025
5.07462e-05
0.00235368
3.20029e-05
0.00238795
9.95061e-06
0.00236856
-2.32654e-05
0.00226564
-7.3203e-05
0.00203365
-0.000155007
0.00161202
-0.000306969
0.000969095
-0.000630179
0.000270513
-0.00124043
-0.00161973
0.00116753
0.00205962
0.00262026
0.00301567
0.0033051
0.003518
0.0036762
0.00379558
0.00388671
0.00395608
0.00400683
0.00403883
0.00404878
0.00402552
0.00395231
0.00379731
0.00349034
0.00286016
0.00161973
)
;

boundaryField
{
    movingWall
    {
        type            calculated;
        value           uniform 0;
    }
    fixedWalls
    {
        type            calculated;
        value           uniform 0;
    }
    frontAndBack
    {
        type            empty;
    }
}


// ************************************************************************* //
