/*--------------------------------*- C++ -*----------------------------------*\
  =========                 |
  \\      /  F ield         | OpenFOAM: The Open Source CFD Toolbox
   \\    /   O peration     | Website:  https://openfoam.org
    \\  /    A nd           | Version:  dev
     \\/     M anipulation  |
\*---------------------------------------------------------------------------*/
FoamFile
{
    format      ascii;
    class       volVectorField;
    location    "1.35";
    object      U;
}
// * * * * * * * * * * * * * * * * * * * * * * * * * * * * * * * * * * * * * //

dimensions      [0 1 -1 0 0 0 0];

internalField   nonuniform List<vector> 
400
(
(8.07851e-05 -8.35968e-05 0)
(-0.000254974 0.000206964 0)
(-0.00139592 0.000464017 0)
(-0.00297924 0.000591868 0)
(-0.00473697 0.000623793 0)
(-0.00647591 0.000595305 0)
(-0.00806519 0.00052862 0)
(-0.00941383 0.000434702 0)
(-0.0104507 0.000317321 0)
(-0.0111132 0.000177326 0)
(-0.0113439 1.60515e-05 0)
(-0.0110956 -0.000162267 0)
(-0.0103418 -0.000347708 0)
(-0.00909106 -0.000523497 0)
(-0.00740628 -0.000664794 0)
(-0.00542268 -0.000739263 0)
(-0.00335984 -0.000710432 0)
(-0.00151489 -0.000543929 0)
(-0.000234552 -0.000229511 0)
(0.000109509 9.96948e-05 0)
(-0.00021084 0.000249866 0)
(-0.00160565 0.0015782 0)
(-0.004559 0.00263482 0)
(-0.00835895 0.00318405 0)
(-0.0124711 0.00331641 0)
(-0.0165111 0.00315219 0)
(-0.0201883 0.00278077 0)
(-0.0232851 0.00225535 0)
(-0.0256312 0.00160266 0)
(-0.0270844 0.000837638 0)
(-0.0275257 -2.29593e-05 0)
(-0.0268667 -0.000949127 0)
(-0.0250694 -0.00188802 0)
(-0.0221752 -0.00275722 0)
(-0.0183374 -0.0034421 0)
(-0.0138528 -0.00380197 0)
(-0.0091716 -0.00369027 0)
(-0.00486876 -0.00299182 0)
(-0.0016232 -0.00170348 0)
(-0.000178363 -0.000209528 0)
(-0.00049593 0.00142118 0)
(-0.00284271 0.00458303 0)
(-0.007289 0.00688142 0)
(-0.0127807 0.00807389 0)
(-0.0186037 0.00832935 0)
(-0.0242694 0.00788165 0)
(-0.0293978 0.00692104 0)
(-0.0336966 0.00557189 0)
(-0.0369355 0.00390638 0)
(-0.0389242 0.00197214 0)
(-0.0395054 -0.000179467 0)
(-0.0385646 -0.00246823 0)
(-0.0360548 -0.00476364 0)
(-0.0320323 -0.00687028 0)
(-0.0267002 -0.00852403 0)
(-0.0204485 -0.00940954 0)
(-0.013864 -0.009211 0)
(-0.00769231 -0.00770244 0)
(-0.00285279 -0.00489686 0)
(-0.000447622 -0.00136216 0)
(-0.000698282 0.00319094 0)
(-0.00380317 0.00878018 0)
(-0.00948853 0.0125812 0)
(-0.0163591 0.0144907 0)
(-0.0235402 0.0148254 0)
(-0.0304715 0.0139668 0)
(-0.0367218 0.012226 0)
(-0.0419584 0.00981106 0)
(-0.0459172 0.00684808 0)
(-0.048376 0.00342384 0)
(-0.0491459 -0.00036932 0)
(-0.0480806 -0.00439348 0)
(-0.0451052 -0.0084246 0)
(-0.0402619 -0.0121306 0)
(-0.0337657 -0.0150631 0)
(-0.0260616 -0.0166871 0)
(-0.0178459 -0.0164683 0)
(-0.0100307 -0.0140237 0)
(-0.00379273 -0.00933613 0)
(-0.000618819 -0.00308052 0)
(-0.000848105 0.00541201 0)
(-0.00458184 0.0139322 0)
(-0.0113475 0.0194516 0)
(-0.019431 0.0221202 0)
(-0.0278047 0.0224808 0)
(-0.0358484 0.021106 0)
(-0.0430988 0.0184478 0)
(-0.0492029 0.0148053 0)
(-0.0538773 0.0103585 0)
(-0.0568747 0.00522942 0)
(-0.0579712 -0.000454334 0)
(-0.0569713 -0.00650183 0)
(-0.0537425 -0.0125923 0)
(-0.0482755 -0.0182416 0)
(-0.0407576 -0.0227821 0)
(-0.0316619 -0.0254032 0)
(-0.0217966 -0.0252793 0)
(-0.0122831 -0.0217967 0)
(-0.0046249 -0.0148532 0)
(-0.000739573 -0.0052241 0)
(-0.000980212 0.00801712 0)
(-0.0053011 0.019951 0)
(-0.0131033 0.0274158 0)
(-0.0223648 0.0308983 0)
(-0.0319067 0.0312459 0)
(-0.0410547 0.0292721 0)
(-0.0493256 0.0255944 0)
(-0.0563595 0.0206093 0)
(-0.0618644 0.0145453 0)
(-0.0655702 0.0075451 0)
(-0.0672116 -0.000246794 0)
(-0.0665204 -0.00859312 0)
(-0.0632682 -0.0170955 0)
(-0.0573443 -0.0251053 0)
(-0.0488543 -0.0316912 0)
(-0.0382614 -0.0356822 0)
(-0.0264911 -0.0358449 0)
(-0.0149426 -0.0312167 0)
(-0.00557298 -0.0215473 0)
(-0.00086097 -0.00777725 0)
(-0.00112061 0.0110017 0)
(-0.00606451 0.0268461 0)
(-0.0149665 0.036499 0)
(-0.0254787 0.0408623 0)
(-0.0362649 0.0411702 0)
(-0.0466027 0.0385344 0)
(-0.0560017 0.0337662 0)
(-0.0641101 0.0273661 0)
(-0.0706407 0.0196007 0)
(-0.0753078 0.010612 0)
(-0.0777885 0.000531457 0)
(-0.0777284 -0.0103987 0)
(-0.0747658 -0.0217209 0)
(-0.0686101 -0.0326236 0)
(-0.0592031 -0.0418645 0)
(-0.0469259 -0.0477959 0)
(-0.0327995 -0.0485949 0)
(-0.0185795 -0.0427523 0)
(-0.006883 -0.0297613 0)
(-0.00103006 -0.0108446 0)
(-0.00128858 0.0144134 0)
(-0.00695413 0.0347144 0)
(-0.0171061 0.0468155 0)
(-0.0290193 0.0521272 0)
(-0.0411861 0.0523693 0)
(-0.0528446 0.0490192 0)
(-0.0635157 0.0431164 0)
(-0.0728769 0.035272 0)
(-0.080666 0.0257768 0)
(-0.0865961 0.014742 0)
(-0.0903012 0.00224098 0)
(-0.091317 -0.011544 0)
(-0.0890947 -0.0261419 0)
(-0.0830861 -0.040608 0)
(-0.0729425 -0.0533533 0)
(-0.0588243 -0.0621087 0)
(-0.0417592 -0.0641895 0)
(-0.0239146 -0.0571999 0)
(-0.00887149 -0.0401459 0)
(-0.00130476 -0.0146695 0)
(-0.00150074 0.0183408 0)
(-0.00803987 0.0437264 0)
(-0.0196601 0.0585489 0)
(-0.0331717 0.0648592 0)
(-0.0468735 0.0649901 0)
(-0.0599797 0.0608702 0)
(-0.072049 0.0538091 0)
(-0.0828205 0.044537 0)
(-0.0920893 0.0333535 0)
(-0.0995997 0.0203001 0)
(-0.104965 0.0053297 0)
(-0.107614 -0.0115104 0)
(-0.106777 -0.0298426 0)
(-0.101549 -0.0486689 0)
(-0.0911219 -0.0660602 0)
(-0.0752064 -0.0789756 0)
(-0.0546232 -0.0834896 0)
(-0.0319116 -0.0757458 0)
(-0.0119997 -0.0537648 0)
(-0.00177716 -0.0196883 0)
(-0.001777 0.0229114 0)
(-0.00939634 0.0541157 0)
(-0.0227583 0.0719295 0)
(-0.0380814 0.079238 0)
(-0.0534434 0.0791626 0)
(-0.0680597 0.0741919 0)
(-0.0815658 0.0659572 0)
(-0.0938048 0.0553212 0)
(-0.104676 0.0425779 0)
(-0.114007 0.0276593 0)
(-0.121438 0.0103251 0)
(-0.126332 -0.00962601 0)
(-0.127693 -0.0320616 0)
(-0.124188 -0.0560946 0)
(-0.114353 -0.0795579 0)
(-0.0971298 -0.0985437 0)
(-0.0727312 -0.107424 0)
(-0.0438003 -0.0999794 0)
(-0.0169568 -0.0722335 0)
(-0.00260883 -0.0266344 0)
(-0.00214952 0.0283014 0)
(-0.0111264 0.06618 0)
(-0.0265516 0.0872115 0)
(-0.0438748 0.0954128 0)
(-0.0609263 0.0949376 0)
(-0.076966 0.0889733 0)
(-0.0917582 0.0795336 0)
(-0.105302 0.067631 0)
(-0.117658 0.0535462 0)
(-0.128804 0.037068 0)
(-0.138493 0.0176901 0)
(-0.146105 -0.00517114 0)
(-0.15049 -0.0318328 0)
(-0.149882 -0.0617882 0)
(-0.142024 -0.0928907 0)
(-0.124723 -0.120433 0)
(-0.0969816 -0.136656 0)
(-0.0608776 -0.131735 0)
(-0.0247158 -0.0978296 0)
(-0.00408452 -0.0367036 0)
(-0.00267801 0.0347657 0)
(-0.0133953 0.0802957 0)
(-0.0312423 0.104646 0)
(-0.0506627 0.113437 0)
(-0.0692316 0.112196 0)
(-0.0863289 0.104976 0)
(-0.101916 0.0942373 0)
(-0.116206 0.0811592 0)
(-0.129478 0.066011 0)
(-0.141935 0.048423 0)
(-0.153549 0.0275693 0)
(-0.163863 0.00235921 0)
(-0.171743 -0.0282086 0)
(-0.175142 -0.064366 0)
(-0.171039 -0.104447 0)
(-0.155861 -0.143318 0)
(-0.126689 -0.170945 0)
(-0.0838603 -0.172539 0)
(-0.0364786 -0.133413 0)
(-0.00668784 -0.0517815 0)
(-0.00347936 0.0426994 0)
(-0.0164858 0.0969407 0)
(-0.0371122 0.124423 0)
(-0.0585027 0.133152 0)
(-0.0780306 0.1305 0)
(-0.0953356 0.121567 0)
(-0.110672 0.109301 0)
(-0.124521 0.0950622 0)
(-0.13743 0.0791161 0)
(-0.149891 0.0609463 0)
(-0.162199 0.0393996 0)
(-0.174243 0.0128081 0)
(-0.185181 -0.0207096 0)
(-0.193056 -0.062505 0)
(-0.194445 -0.112031 0)
(-0.184499 -0.164516 0)
(-0.157849 -0.208174 0)
(-0.111567 -0.222403 0)
(-0.0532931 -0.181817 0)
(-0.0111636 -0.0746665 0)
(-0.00478808 0.0527608 0)
(-0.0208908 0.116714 0)
(-0.0445293 0.14654 0)
(-0.0672543 0.153971 0)
(-0.0864599 0.148844 0)
(-0.102314 0.137458 0)
(-0.115507 0.123242 0)
(-0.126853 0.107706 0)
(-0.137195 0.0911223 0)
(-0.147335 0.0728651 0)
(-0.157955 0.0515132 0)
(-0.169445 0.0248671 0)
(-0.181575 -0.00988381 0)
(-0.193055 -0.0555174 0)
(-0.200837 -0.113241 0)
(-0.199511 -0.179846 0)
(-0.181376 -0.24332 0)
(-0.13896 -0.277933 0)
(-0.0749 -0.244209 0)
(-0.0183869 -0.109013 0)
(-0.00707646 0.0661107 0)
(-0.0274627 0.1403 0)
(-0.0538548 0.170481 0)
(-0.0761466 0.174448 0)
(-0.092404 0.165238 0)
(-0.103836 0.150355 0)
(-0.111799 0.133576 0)
(-0.117524 0.116471 0)
(-0.122151 0.0992806 0)
(-0.126747 0.0813144 0)
(-0.132332 0.0610044 0)
(-0.139827 0.0358138 0)
(-0.149861 0.00220187 0)
(-0.162364 -0.0440207 0)
(-0.175686 -0.106228 0)
(-0.185347 -0.184109 0)
(-0.182565 -0.268077 0)
(-0.155247 -0.330435 0)
(-0.0973658 -0.317216 0)
(-0.0285733 -0.158574 0)
(-0.0112515 0.0849141 0)
(-0.0375506 0.16824 0)
(-0.064905 0.1945 0)
(-0.0824888 0.191507 0)
(-0.0907282 0.176059 0)
(-0.0927656 0.15651 0)
(-0.0909267 0.136625 0)
(-0.0869239 0.117789 0)
(-0.0821339 0.100092 0)
(-0.0777467 0.0827707 0)
(-0.0749184 0.0642428 0)
(-0.0749082 0.0419419 0)
(-0.079133 0.0120859 0)
(-0.0889378 -0.0303302 0)
(-0.104914 -0.09072 0)
(-0.125394 -0.17256 0)
(-0.143148 -0.271949 0)
(-0.143634 -0.365298 0)
(-0.110307 -0.389746 0)
(-0.0392988 -0.225834 0)
(-0.0187662 0.113604 0)
(-0.0524569 0.199804 0)
(-0.074373 0.213636 0)
(-0.0776205 0.198694 0)
(-0.0687895 0.174886 0)
(-0.0539897 0.150167 0)
(-0.0365529 0.12748 0)
(-0.018478 0.107557 0)
(-0.00109669 0.0900865 0)
(0.0145979 0.074148 0)
(0.0276594 0.0582453 0)
(0.0368972 0.0401049 0)
(0.0405818 0.0163564 0)
(0.036328 -0.01779 0)
(0.0213234 -0.0686276 0)
(-0.00684362 -0.143061 0)
(-0.0459056 -0.24501 0)
(-0.0841298 -0.363373 0)
(-0.096692 -0.440137 0)
(-0.0427874 -0.308185 0)
(-0.0302287 0.161421 0)
(-0.0683237 0.228283 0)
(-0.0643135 0.213219 0)
(-0.0340724 0.181857 0)
(0.00472118 0.150563 0)
(0.0442939 0.123179 0)
(0.0817627 0.100495 0)
(0.115879 0.08208 0)
(0.146121 0.0670107 0)
(0.172266 0.0541749 0)
(0.194023 0.0422528 0)
(0.210698 0.0295149 0)
(0.220778 0.013532 0)
(0.221619 -0.00923004 0)
(0.2091 -0.0438811 0)
(0.177491 -0.0981671 0)
(0.121975 -0.182742 0)
(0.0434424 -0.305682 0)
(-0.0347986 -0.433406 0)
(-0.0226644 -0.380646 0)
(-0.0268148 0.230979 0)
(-0.0385222 0.22833 0)
(0.0408592 0.167564 0)
(0.126761 0.125422 0)
(0.200815 0.0954694 0)
(0.262974 0.0728967 0)
(0.314981 0.0559995 0)
(0.358217 0.0434467 0)
(0.393951 0.033971 0)
(0.423256 0.0264836 0)
(0.44678 0.0200011 0)
(0.464527 0.013476 0)
(0.475464 0.005614 0)
(0.47746 -0.00522484 0)
(0.466323 -0.0217742 0)
(0.434908 -0.0487589 0)
(0.372847 -0.0963833 0)
(0.266191 -0.187171 0)
(0.115078 -0.327696 0)
(0.0613766 -0.366455 0)
(0.262029 0.13909 0)
(0.326925 0.120271 0)
(0.46066 0.078963 0)
(0.565909 0.0525334 0)
(0.636114 0.03595 0)
(0.685169 0.0248118 0)
(0.721373 0.0172457 0)
(0.748638 0.0121434 0)
(0.769343 0.00867051 0)
(0.785126 0.00621165 0)
(0.796953 0.00430344 0)
(0.80514 0.00255292 0)
(0.809298 0.000544445 0)
(0.808107 -0.00203223 0)
(0.798768 -0.00593352 0)
(0.776458 -0.0123678 0)
(0.731874 -0.0240203 0)
(0.645895 -0.0497191 0)
(0.473339 -0.110473 0)
(0.340412 -0.156107 0)
)
;

boundaryField
{
    movingWall
    {
        type            fixedValue;
        value           uniform (1 0 0);
    }
    fixedWalls
    {
        type            noSlip;
    }
    frontAndBack
    {
        type            empty;
    }
}


// ************************************************************************* //
