/*--------------------------------*- C++ -*----------------------------------*\
  =========                 |
  \\      /  F ield         | OpenFOAM: The Open Source CFD Toolbox
   \\    /   O peration     | Website:  https://openfoam.org
    \\  /    A nd           | Version:  dev
     \\/     M anipulation  |
\*---------------------------------------------------------------------------*/
FoamFile
{
    format      ascii;
    class       volScalarField;
    location    "1.35";
    object      Ux;
}
// * * * * * * * * * * * * * * * * * * * * * * * * * * * * * * * * * * * * * //

dimensions      [0 1 -1 0 0 0 0];

internalField   nonuniform List<scalar> 
400
(
8.07851e-05
-0.000254974
-0.00139592
-0.00297924
-0.00473697
-0.00647591
-0.00806519
-0.00941383
-0.0104507
-0.0111132
-0.0113439
-0.0110956
-0.0103418
-0.00909106
-0.00740628
-0.00542268
-0.00335984
-0.00151489
-0.000234552
0.000109509
-0.00021084
-0.00160565
-0.004559
-0.00835895
-0.0124711
-0.0165111
-0.0201883
-0.0232851
-0.0256312
-0.0270844
-0.0275257
-0.0268667
-0.0250694
-0.0221752
-0.0183374
-0.0138528
-0.0091716
-0.00486876
-0.0016232
-0.000178363
-0.00049593
-0.00284271
-0.007289
-0.0127807
-0.0186037
-0.0242694
-0.0293978
-0.0336966
-0.0369355
-0.0389242
-0.0395054
-0.0385646
-0.0360548
-0.0320323
-0.0267002
-0.0204485
-0.013864
-0.00769231
-0.00285279
-0.000447622
-0.000698282
-0.00380317
-0.00948853
-0.0163591
-0.0235402
-0.0304715
-0.0367218
-0.0419584
-0.0459172
-0.048376
-0.0491459
-0.0480806
-0.0451052
-0.0402619
-0.0337657
-0.0260616
-0.0178459
-0.0100307
-0.00379273
-0.000618819
-0.000848105
-0.00458184
-0.0113475
-0.019431
-0.0278047
-0.0358484
-0.0430988
-0.0492029
-0.0538773
-0.0568747
-0.0579712
-0.0569713
-0.0537425
-0.0482755
-0.0407576
-0.0316619
-0.0217966
-0.0122831
-0.0046249
-0.000739573
-0.000980212
-0.0053011
-0.0131033
-0.0223648
-0.0319067
-0.0410547
-0.0493256
-0.0563595
-0.0618644
-0.0655702
-0.0672116
-0.0665204
-0.0632682
-0.0573443
-0.0488543
-0.0382614
-0.0264911
-0.0149426
-0.00557298
-0.00086097
-0.00112061
-0.00606451
-0.0149665
-0.0254787
-0.0362649
-0.0466027
-0.0560017
-0.0641101
-0.0706407
-0.0753078
-0.0777885
-0.0777284
-0.0747658
-0.0686101
-0.0592031
-0.0469259
-0.0327995
-0.0185795
-0.006883
-0.00103006
-0.00128858
-0.00695413
-0.0171061
-0.0290193
-0.0411861
-0.0528446
-0.0635157
-0.0728769
-0.080666
-0.0865961
-0.0903012
-0.091317
-0.0890947
-0.0830861
-0.0729425
-0.0588243
-0.0417592
-0.0239146
-0.00887149
-0.00130476
-0.00150074
-0.00803987
-0.0196601
-0.0331717
-0.0468735
-0.0599797
-0.072049
-0.0828205
-0.0920893
-0.0995997
-0.104965
-0.107614
-0.106777
-0.101549
-0.0911219
-0.0752064
-0.0546232
-0.0319116
-0.0119997
-0.00177716
-0.001777
-0.00939634
-0.0227583
-0.0380814
-0.0534434
-0.0680597
-0.0815658
-0.0938048
-0.104676
-0.114007
-0.121438
-0.126332
-0.127693
-0.124188
-0.114353
-0.0971298
-0.0727312
-0.0438003
-0.0169568
-0.00260883
-0.00214952
-0.0111264
-0.0265516
-0.0438748
-0.0609263
-0.076966
-0.0917582
-0.105302
-0.117658
-0.128804
-0.138493
-0.146105
-0.15049
-0.149882
-0.142024
-0.124723
-0.0969816
-0.0608776
-0.0247158
-0.00408452
-0.00267801
-0.0133953
-0.0312423
-0.0506627
-0.0692316
-0.0863289
-0.101916
-0.116206
-0.129478
-0.141935
-0.153549
-0.163863
-0.171743
-0.175142
-0.171039
-0.155861
-0.126689
-0.0838603
-0.0364786
-0.00668784
-0.00347936
-0.0164858
-0.0371122
-0.0585027
-0.0780306
-0.0953356
-0.110672
-0.124521
-0.13743
-0.149891
-0.162199
-0.174243
-0.185181
-0.193056
-0.194445
-0.184499
-0.157849
-0.111567
-0.0532931
-0.0111636
-0.00478808
-0.0208908
-0.0445293
-0.0672543
-0.0864599
-0.102314
-0.115507
-0.126853
-0.137195
-0.147335
-0.157955
-0.169445
-0.181575
-0.193055
-0.200837
-0.199511
-0.181376
-0.13896
-0.0749
-0.0183869
-0.00707646
-0.0274627
-0.0538548
-0.0761466
-0.092404
-0.103836
-0.111799
-0.117524
-0.122151
-0.126747
-0.132332
-0.139827
-0.149861
-0.162364
-0.175686
-0.185347
-0.182565
-0.155247
-0.0973658
-0.0285733
-0.0112515
-0.0375506
-0.064905
-0.0824888
-0.0907282
-0.0927656
-0.0909267
-0.0869239
-0.0821339
-0.0777467
-0.0749184
-0.0749082
-0.079133
-0.0889378
-0.104914
-0.125394
-0.143148
-0.143634
-0.110307
-0.0392988
-0.0187662
-0.0524569
-0.074373
-0.0776205
-0.0687895
-0.0539897
-0.0365529
-0.018478
-0.00109669
0.0145979
0.0276594
0.0368972
0.0405818
0.036328
0.0213234
-0.00684362
-0.0459056
-0.0841298
-0.096692
-0.0427874
-0.0302287
-0.0683237
-0.0643135
-0.0340724
0.00472118
0.0442939
0.0817627
0.115879
0.146121
0.172266
0.194023
0.210698
0.220778
0.221619
0.2091
0.177491
0.121975
0.0434424
-0.0347986
-0.0226644
-0.0268148
-0.0385222
0.0408592
0.126761
0.200815
0.262974
0.314981
0.358217
0.393951
0.423256
0.44678
0.464527
0.475464
0.47746
0.466323
0.434908
0.372847
0.266191
0.115078
0.0613766
0.262029
0.326925
0.46066
0.565909
0.636114
0.685169
0.721373
0.748638
0.769343
0.785126
0.796953
0.80514
0.809298
0.808107
0.798768
0.776458
0.731874
0.645895
0.473339
0.340412
)
;

boundaryField
{
    movingWall
    {
        type            calculated;
        value           uniform 1;
    }
    fixedWalls
    {
        type            calculated;
        value           uniform 0;
    }
    frontAndBack
    {
        type            empty;
    }
}


// ************************************************************************* //
