/*--------------------------------*- C++ -*----------------------------------*\
  =========                 |
  \\      /  F ield         | OpenFOAM: The Open Source CFD Toolbox
   \\    /   O peration     | Website:  https://openfoam.org
    \\  /    A nd           | Version:  dev
     \\/     M anipulation  |
\*---------------------------------------------------------------------------*/
FoamFile
{
    format      ascii;
    class       volScalarField;
    location    "1.35";
    object      Uy;
}
// * * * * * * * * * * * * * * * * * * * * * * * * * * * * * * * * * * * * * //

dimensions      [0 1 -1 0 0 0 0];

internalField   nonuniform List<scalar> 
400
(
-8.35968e-05
0.000206964
0.000464017
0.000591868
0.000623793
0.000595305
0.00052862
0.000434702
0.000317321
0.000177326
1.60515e-05
-0.000162267
-0.000347708
-0.000523497
-0.000664794
-0.000739263
-0.000710432
-0.000543929
-0.000229511
9.96948e-05
0.000249866
0.0015782
0.00263482
0.00318405
0.00331641
0.00315219
0.00278077
0.00225535
0.00160266
0.000837638
-2.29593e-05
-0.000949127
-0.00188802
-0.00275722
-0.0034421
-0.00380197
-0.00369027
-0.00299182
-0.00170348
-0.000209528
0.00142118
0.00458303
0.00688142
0.00807389
0.00832935
0.00788165
0.00692104
0.00557189
0.00390638
0.00197214
-0.000179467
-0.00246823
-0.00476364
-0.00687028
-0.00852403
-0.00940954
-0.009211
-0.00770244
-0.00489686
-0.00136216
0.00319094
0.00878018
0.0125812
0.0144907
0.0148254
0.0139668
0.012226
0.00981106
0.00684808
0.00342384
-0.00036932
-0.00439348
-0.0084246
-0.0121306
-0.0150631
-0.0166871
-0.0164683
-0.0140237
-0.00933613
-0.00308052
0.00541201
0.0139322
0.0194516
0.0221202
0.0224808
0.021106
0.0184478
0.0148053
0.0103585
0.00522942
-0.000454334
-0.00650183
-0.0125923
-0.0182416
-0.0227821
-0.0254032
-0.0252793
-0.0217967
-0.0148532
-0.0052241
0.00801712
0.019951
0.0274158
0.0308983
0.0312459
0.0292721
0.0255944
0.0206093
0.0145453
0.0075451
-0.000246794
-0.00859312
-0.0170955
-0.0251053
-0.0316912
-0.0356822
-0.0358449
-0.0312167
-0.0215473
-0.00777725
0.0110017
0.0268461
0.036499
0.0408623
0.0411702
0.0385344
0.0337662
0.0273661
0.0196007
0.010612
0.000531457
-0.0103987
-0.0217209
-0.0326236
-0.0418645
-0.0477959
-0.0485949
-0.0427523
-0.0297613
-0.0108446
0.0144134
0.0347144
0.0468155
0.0521272
0.0523693
0.0490192
0.0431164
0.035272
0.0257768
0.014742
0.00224098
-0.011544
-0.0261419
-0.040608
-0.0533533
-0.0621087
-0.0641895
-0.0571999
-0.0401459
-0.0146695
0.0183408
0.0437264
0.0585489
0.0648592
0.0649901
0.0608702
0.0538091
0.044537
0.0333535
0.0203001
0.0053297
-0.0115104
-0.0298426
-0.0486689
-0.0660602
-0.0789756
-0.0834896
-0.0757458
-0.0537648
-0.0196883
0.0229114
0.0541157
0.0719295
0.079238
0.0791626
0.0741919
0.0659572
0.0553212
0.0425779
0.0276593
0.0103251
-0.00962601
-0.0320616
-0.0560946
-0.0795579
-0.0985437
-0.107424
-0.0999794
-0.0722335
-0.0266344
0.0283014
0.06618
0.0872115
0.0954128
0.0949376
0.0889733
0.0795336
0.067631
0.0535462
0.037068
0.0176901
-0.00517114
-0.0318328
-0.0617882
-0.0928907
-0.120433
-0.136656
-0.131735
-0.0978296
-0.0367036
0.0347657
0.0802957
0.104646
0.113437
0.112196
0.104976
0.0942373
0.0811592
0.066011
0.048423
0.0275693
0.00235921
-0.0282086
-0.064366
-0.104447
-0.143318
-0.170945
-0.172539
-0.133413
-0.0517815
0.0426994
0.0969407
0.124423
0.133152
0.1305
0.121567
0.109301
0.0950622
0.0791161
0.0609463
0.0393996
0.0128081
-0.0207096
-0.062505
-0.112031
-0.164516
-0.208174
-0.222403
-0.181817
-0.0746665
0.0527608
0.116714
0.14654
0.153971
0.148844
0.137458
0.123242
0.107706
0.0911223
0.0728651
0.0515132
0.0248671
-0.00988381
-0.0555174
-0.113241
-0.179846
-0.24332
-0.277933
-0.244209
-0.109013
0.0661107
0.1403
0.170481
0.174448
0.165238
0.150355
0.133576
0.116471
0.0992806
0.0813144
0.0610044
0.0358138
0.00220187
-0.0440207
-0.106228
-0.184109
-0.268077
-0.330435
-0.317216
-0.158574
0.0849141
0.16824
0.1945
0.191507
0.176059
0.15651
0.136625
0.117789
0.100092
0.0827707
0.0642428
0.0419419
0.0120859
-0.0303302
-0.09072
-0.17256
-0.271949
-0.365298
-0.389746
-0.225834
0.113604
0.199804
0.213636
0.198694
0.174886
0.150167
0.12748
0.107557
0.0900865
0.074148
0.0582453
0.0401049
0.0163564
-0.01779
-0.0686276
-0.143061
-0.24501
-0.363373
-0.440137
-0.308185
0.161421
0.228283
0.213219
0.181857
0.150563
0.123179
0.100495
0.08208
0.0670107
0.0541749
0.0422528
0.0295149
0.013532
-0.00923004
-0.0438811
-0.0981671
-0.182742
-0.305682
-0.433406
-0.380646
0.230979
0.22833
0.167564
0.125422
0.0954694
0.0728967
0.0559995
0.0434467
0.033971
0.0264836
0.0200011
0.013476
0.005614
-0.00522484
-0.0217742
-0.0487589
-0.0963833
-0.187171
-0.327696
-0.366455
0.13909
0.120271
0.078963
0.0525334
0.03595
0.0248118
0.0172457
0.0121434
0.00867051
0.00621165
0.00430344
0.00255292
0.000544445
-0.00203223
-0.00593352
-0.0123678
-0.0240203
-0.0497191
-0.110473
-0.156107
)
;

boundaryField
{
    movingWall
    {
        type            calculated;
        value           uniform 0;
    }
    fixedWalls
    {
        type            calculated;
        value           uniform 0;
    }
    frontAndBack
    {
        type            empty;
    }
}


// ************************************************************************* //
