/*--------------------------------*- C++ -*----------------------------------*\
  =========                 |
  \\      /  F ield         | OpenFOAM: The Open Source CFD Toolbox
   \\    /   O peration     | Website:  https://openfoam.org
    \\  /    A nd           | Version:  dev
     \\/     M anipulation  |
\*---------------------------------------------------------------------------*/
FoamFile
{
    format      ascii;
    class       volScalarField;
    location    "4.95";
    object      p;
}
// * * * * * * * * * * * * * * * * * * * * * * * * * * * * * * * * * * * * * //

dimensions      [0 2 -2 0 0 0 0];

internalField   nonuniform List<scalar> 
400
(
-8.84222e-10
-0.000547301
-0.00113274
-0.00154829
-0.00168856
-0.0015087
-0.000994494
-0.000147169
0.00101475
0.00244358
0.00404969
0.00569437
0.00720009
0.00837493
0.00905667
0.00916408
0.00873993
0.00796647
0.00713039
0.0066145
0.000538621
-3.0053e-05
-0.000478605
-0.000745139
-0.000800252
-0.000614951
-0.000174962
0.000523034
0.00146872
0.00262768
0.00393044
0.00527068
0.00650338
0.00747397
0.00805153
0.00817133
0.00786849
0.00728458
0.00662707
0.00610513
0.00115608
0.000375798
-9.89039e-05
-0.000328855
-0.000366995
-0.000206632
0.000161932
0.00074669
0.0015493
0.00255215
0.00370469
0.00491557
0.00605327
0.0069668
0.0075201
0.00763619
0.00733442
0.00673564
0.00599512
0.00524815
0.00159794
0.000542845
-3.30085e-05
-0.000291571
-0.00036086
-0.000255043
3.18862e-05
0.000515101
0.00121213
0.0021254
0.00322313
0.00442668
0.00560253
0.00658284
0.00720033
0.00734059
0.00699339
0.00626627
0.00529109
0.00418171
0.0016565
0.00033069
-0.000364349
-0.000681016
-0.000813768
-0.000792964
-0.000612312
-0.000245173
0.000346816
0.00119166
0.00228126
0.00355527
0.00487365
0.00604131
0.00683917
0.007088
0.00672361
0.00583206
0.00453557
0.00295845
0.00115523
-0.000416885
-0.00123417
-0.00163084
-0.00185948
-0.00196213
-0.00192809
-0.00171461
-0.00125637
-0.000490443
0.000612023
0.00201126
0.00357645
0.00507956
0.00622877
0.0067435
0.00646394
0.00542675
0.00374075
0.00156595
-5.60813e-05
-0.00184128
-0.00277898
-0.00327757
-0.0036407
-0.00391941
-0.00409605
-0.00410792
-0.00385595
-0.00323038
-0.00214738
-0.000602395
0.0013029
0.00331657
0.00505817
0.00609903
0.00611688
0.00503734
0.00291931
-2.75217e-05
-0.00210295
-0.00406212
-0.00511639
-0.00574097
-0.00628524
-0.00680953
-0.00728965
-0.00764155
-0.00772643
-0.00737431
-0.00642332
-0.00478048
-0.00248543
0.000218959
0.00286404
0.00482355
0.00551593
0.00464141
0.00211176
-0.00182611
-0.00508009
-0.00717057
-0.00833525
-0.00910878
-0.00988384
-0.0107343
-0.0116342
-0.0124809
-0.0130933
-0.0132286
-0.0126183
-0.0110357
-0.00839465
-0.00486515
-0.000968853
0.00243925
0.00440055
0.00420636
0.00142061
-0.00375016
-0.00904168
-0.0112209
-0.0124818
-0.0134135
-0.0144551
-0.0157039
-0.0171419
-0.018656
-0.0200261
-0.0209295
-0.0209666
-0.0197287
-0.0169289
-0.0125622
-0.00711298
-0.00164052
0.00241751
0.0036948
0.00105595
-0.00555025
-0.013996
-0.0162271
-0.017549
-0.0186089
-0.0199074
-0.0215826
-0.0236392
-0.0259662
-0.0283138
-0.0302814
-0.0313262
-0.0308204
-0.0282045
-0.023178
-0.0160386
-0.00792869
-0.000781614
0.00311557
0.00140804
-0.00666175
-0.0199144
-0.0221733
-0.0234752
-0.0245536
-0.0260094
-0.0280483
-0.0307149
-0.0339136
-0.0373768
-0.0406354
-0.0430089
-0.0436445
-0.0416359
-0.0363112
-0.0275964
-0.0164886
-0.00527014
0.00268384
0.00317636
-0.00596143
-0.0267691
-0.0290451
-0.0301557
-0.0310063
-0.0323793
-0.0345841
-0.0377198
-0.0417125
-0.0462825
-0.0509018
-0.0547636
-0.0567983
-0.0557735
-0.0505727
-0.0406083
-0.0264529
-0.0104046
0.00314153
0.00761199
-0.0013878
-0.0346274
-0.0368927
-0.0374659
-0.0376317
-0.038499
-0.0405181
-0.0438408
-0.0484042
-0.0539057
-0.0597543
-0.0650261
-0.0684587
-0.0685274
-0.0636863
-0.0527788
-0.0357272
-0.0144068
0.00616598
0.0169032
0.0105436
-0.0438641
-0.0459367
-0.0452804
-0.0440065
-0.043753
-0.0451096
-0.0482429
-0.0530598
-0.0591978
-0.0659755
-0.0723424
-0.0768561
-0.0777395
-0.0730643
-0.0611583
-0.0412173
-0.0143201
0.0146062
0.0345047
0.0350112
-0.0556355
-0.0567396
-0.0534617
-0.0496147
-0.0474839
-0.0476678
-0.050241
-0.0550003
-0.0614572
-0.0687869
-0.0757791
-0.0807977
-0.0818253
-0.0766026
-0.0630132
-0.039603
-0.00650256
0.0323563
0.0650461
0.0785241
-0.073019
-0.070507
-0.0619058
-0.0539522
-0.0491557
-0.0477409
-0.049499
-0.0539898
-0.0605074
-0.0680256
-0.0751288
-0.079959
-0.0802428
-0.0733759
-0.0567915
-0.0284462
0.0124165
0.0638398
0.114188
0.150037
-0.104562
-0.0892857
-0.0705502
-0.0566487
-0.0484459
-0.0451736
-0.0460621
-0.0502496
-0.0567063
-0.0641535
-0.0709565
-0.0750346
-0.0738494
-0.0643971
-0.0435701
-0.00836628
0.0434019
0.111366
0.189165
0.269767
-0.176738
-0.113203
-0.074432
-0.0534
-0.0422675
-0.0378705
-0.0386221
-0.0430895
-0.0498606
-0.057445
-0.0640804
-0.0675756
-0.0652396
-0.0536287
-0.0292125
0.0125288
0.076749
0.169021
0.296462
0.471311
-0.344445
-0.134462
-0.0552158
-0.0322421
-0.0234039
-0.0211156
-0.0240136
-0.0304534
-0.0388078
-0.047572
-0.0550538
-0.0591466
-0.0572908
-0.0464942
-0.0220985
0.0211706
0.0922342
0.209123
0.406965
0.737782
)
;

boundaryField
{
    movingWall
    {
        type            zeroGradient;
    }
    fixedWalls
    {
        type            zeroGradient;
    }
    frontAndBack
    {
        type            empty;
    }
}


// ************************************************************************* //
