/*--------------------------------*- C++ -*----------------------------------*\
  =========                 |
  \\      /  F ield         | OpenFOAM: The Open Source CFD Toolbox
   \\    /   O peration     | Website:  https://openfoam.org
    \\  /    A nd           | Version:  dev
     \\/     M anipulation  |
\*---------------------------------------------------------------------------*/
FoamFile
{
    format      ascii;
    class       surfaceScalarField;
    location    "4.95";
    object      phi;
}
// * * * * * * * * * * * * * * * * * * * * * * * * * * * * * * * * * * * * * //

dimensions      [0 3 -1 0 0 0 0];

internalField   nonuniform List<scalar> 
760
(
8.74444e-07
-8.7441e-07
-2.99161e-06
3.86605e-06
-1.14217e-05
8.43016e-06
-2.2795e-05
1.13732e-05
-3.56199e-05
1.2825e-05
-4.86978e-05
1.30778e-05
-6.1006e-05
1.23082e-05
-7.15615e-05
1.05555e-05
-7.93487e-05
7.78716e-06
-8.33582e-05
4.0095e-06
-8.27297e-05
-6.28499e-07
-7.70031e-05
-5.72655e-06
-6.63604e-05
-1.06426e-05
-5.18316e-05
-1.45288e-05
-3.53121e-05
-1.65195e-05
-1.93355e-05
-1.59767e-05
-6.57398e-06
-1.27615e-05
8.71855e-07
-7.44583e-06
2.39415e-06
-1.52231e-06
2.39417e-06
-3.98557e-06
3.11115e-06
-1.8297e-05
1.81775e-05
-4.14396e-05
3.15728e-05
-7.04839e-05
4.04176e-05
-0.000102449
4.47904e-05
-0.000134614
4.52422e-05
-0.000164467
4.21616e-05
-0.000189587
3.56757e-05
-0.000207604
2.58032e-05
-0.00021633
1.27363e-05
-0.000214103
-2.8554e-06
-0.000200146
-1.96837e-05
-0.000175114
-3.56751e-05
-0.000141333
-4.83092e-05
-0.000102811
-5.50415e-05
-6.47595e-05
-5.40285e-05
-3.26099e-05
-4.49111e-05
-1.06601e-05
-2.93957e-05
-6.87513e-07
-1.14949e-05
1.70668e-06
-9.65735e-06
1.27685e-05
-3.50549e-05
4.3575e-05
-7.21275e-05
6.86454e-05
-0.000116634
8.4924e-05
-0.000164551
9.27075e-05
-0.000212174
9.28649e-05
-0.000256014
8.60022e-05
-0.000292686
7.23474e-05
-0.00031891
5.20278e-05
-0.000331723
2.55485e-05
-0.000328869
-5.70865e-06
-0.000309324
-3.9229e-05
-0.000273865
-7.11341e-05
-0.000225462
-9.67121e-05
-0.000169336
-0.000111168
-0.000112458
-0.000110906
-6.23686e-05
-9.50003e-05
-2.5439e-05
-6.63253e-05
-5.0037e-06
-3.19301e-05
-3.29702e-06
-1.4875e-05
2.76436e-05
-5.08891e-05
7.95891e-05
-0.000101135
0.000118892
-0.000159839
0.000143628
-0.000222058
0.000154926
-0.000283407
0.000154214
-0.000339783
0.000142379
-0.000387179
0.000119743
-0.000421672
8.65211e-05
-0.000439641
4.35174e-05
-0.000438199
-7.15052e-06
-0.000415741
-6.16872e-05
-0.00037268
-0.000114195
-0.000312002
-0.00015739
-0.000239581
-0.000183588
-0.000163875
-0.000186612
-9.47215e-05
-0.000164154
-4.12321e-05
-0.000119815
-9.33656e-06
-6.38256e-05
-1.26336e-05
-1.9526e-05
4.71696e-05
-6.53159e-05
0.000125379
-0.000127772
0.000181348
-0.000199608
0.000215464
-0.000275074
0.000230392
-0.000349324
0.000228464
-0.000417908
0.000210963
-0.000476446
0.000178281
-0.000520531
0.000130606
-0.000545886
6.88721e-05
-0.000548808
-4.22859e-06
-0.000526656
-8.3839e-05
-0.000478873
-0.000161978
-0.000407762
-0.000228501
-0.000319287
-0.000272063
-0.000223239
-0.00028266
-0.000132235
-0.000255158
-5.92141e-05
-0.000192836
-1.39465e-05
-0.000109093
-2.65801e-05
-2.36044e-05
7.0774e-05
-7.81186e-05
0.000179893
-0.000151592
0.000254822
-0.000235401
0.000299273
-0.000323152
0.000318142
-0.000409743
0.000315056
-0.000490612
0.000291832
-0.000561219
0.000248888
-0.000616815
0.000186202
-0.000652475
0.000104532
-0.000663403
6.69972e-06
-0.000645601
-0.000101641
-0.00059679
-0.00021079
-0.000517752
-0.000307539
-0.000413743
-0.000376072
-0.000295476
-0.000400928
-0.000178733
-0.000371901
-8.16351e-05
-0.000289934
-1.96071e-05
-0.000171121
-4.61871e-05
-2.70476e-05
9.78216e-05
-8.90093e-05
0.000241855
-0.000171987
0.000337799
-0.000266263
0.000393549
-0.000364996
0.000416875
-0.00046304
0.000413099
-0.00055595
0.000384742
-0.000639268
0.000332205
-0.000708093
0.000255028
-0.000756948
0.000153386
-0.000779893
2.96448e-05
-0.00077123
-0.000110303
-0.000726347
-0.000255672
-0.000643537
-0.000390349
-0.000526149
-0.000493461
-0.000384792
-0.000542284
-0.000238254
-0.000518439
-0.000111184
-0.000417004
-2.72714e-05
-0.000255034
-7.34586e-05
-2.97364e-05
0.000127558
-9.75866e-05
0.000309705
-0.000188118
0.000428331
-0.000290762
0.000496192
-0.000398421
0.000524535
-0.000506111
0.00052079
-0.000609755
0.000488385
-0.000705259
0.000427709
-0.000787882
0.00033765
-0.000851871
0.000217376
-0.000890393
6.81666e-05
-0.000895946
-0.00010475
-0.000861254
-0.000290364
-0.000781166
-0.000470437
-0.000655556
-0.00061907
-0.000493035
-0.000704806
-0.000314096
-0.000697377
-0.000150648
-0.000580453
-3.80304e-05
-0.000367651
-0.000111489
-3.15451e-05
0.000159103
-0.000103442
0.000381602
-0.000199075
0.000523964
-0.000307201
0.000604318
-0.000420625
0.000637958
-0.000534713
0.000634877
-0.000646013
0.000599685
-0.000751143
0.000532839
-0.000845956
0.000432464
-0.000924958
0.000296377
-0.000980959
0.000124168
-0.00100512
-8.05922e-05
-0.00098758
-0.000307901
-0.000919142
-0.000538875
-0.000794533
-0.000743679
-0.000617591
-0.000881748
-0.000407522
-0.000907446
-0.000202536
-0.000785439
-5.3144e-05
-0.000517043
-0.000164633
-3.24431e-05
0.000191546
-0.000106402
0.000455561
-0.000204242
0.000621805
-0.000314106
0.000714182
-0.000428805
0.000752657
-0.000544234
0.000750307
-0.000657828
0.000713279
-0.000767294
0.000642305
-0.000869631
0.0005348
-0.000960336
0.000387083
-0.00103278
0.000196609
-0.00107775
-3.56241e-05
-0.00108365
-0.000302002
-0.00103732
-0.000585198
-0.00092714
-0.000853861
-0.000748985
-0.0010599
-0.000515903
-0.00114053
-0.000268398
-0.00103294
-7.40875e-05
-0.000711353
-0.000238721
-3.26491e-05
0.000224195
-0.00010689
0.000529801
-0.000203838
0.000718752
-0.000310922
0.000821266
-0.00042106
0.000862795
-0.000530876
0.000860122
-0.000638962
0.000821366
-0.000744506
0.000747849
-0.000846219
0.000636513
-0.000941426
0.00048229
-0.00102521
0.00028039
-0.00108942
2.85899e-05
-0.0011223
-0.00026912
-0.00110796
-0.00059954
-0.00102837
-0.000933451
-0.000868904
-0.00121937
-0.000630374
-0.00137906
-0.000347556
-0.00131576
-0.000102516
-0.000956393
-0.000341237
-3.2854e-05
0.000257049
-0.000106404
0.000603351
-0.000199559
0.000811908
-0.000298803
0.000920511
-0.000397379
0.000961371
-0.000492967
0.000955711
-0.000585648
0.000914046
-0.000676444
0.000838646
-0.000766267
0.000726335
-0.000855002
0.000571025
-0.000940526
0.000365914
-0.00101757
0.000105636
-0.00107602
-0.000210674
-0.00109984
-0.000575719
-0.0010664
-0.00096689
-0.000949984
-0.00133579
-0.000733689
-0.00159535
-0.000435066
-0.00161439
-0.000139961
-0.0012515
-0.000481198
-3.45645e-05
0.000291614
-0.00010811
0.000676896
-0.000195215
0.000899013
-0.000281222
0.00100652
-0.00036031
0.00104046
-0.000431858
0.00102726
-0.00049789
0.000980079
-0.000561583
0.000902339
-0.00062634
0.000791092
-0.000695028
0.000639713
-0.000769089
0.000439975
-0.000847297
0.000183844
-0.000923634
-0.000134337
-0.000985007
-0.000514346
-0.00100803
-0.000943864
-0.000958573
-0.00138525
-0.000799622
-0.0017543
-0.00051925
-0.00189476
-0.000186906
-0.00158384
-0.000668104
-4.06875e-05
0.000332301
-0.000117557
0.000753765
-0.000197091
0.000978547
-0.00026389
0.00107332
-0.000314565
0.00109113
-0.000351379
0.00106407
-0.00037896
0.00100766
-0.000402911
0.00092629
-0.000429163
0.000817344
-0.000463523
0.000674073
-0.000511093
0.000487545
-0.000575264
0.000248015
-0.000655723
-5.38769e-05
-0.000745495
-0.000424574
-0.000825725
-0.000863634
-0.00086016
-0.00135081
-0.00079476
-0.0018197
-0.000579601
-0.00210992
-0.000240737
-0.00192271
-0.000908841
-5.65401e-05
0.000388841
-0.000143311
0.000840536
-0.000213237
0.00104847
-0.000252705
0.00111279
-0.000263937
0.00110237
-0.000253978
0.00105411
-0.000230932
0.000984614
-0.000203011
0.000898369
-0.000178439
0.000792772
-0.00016546
0.000661095
-0.000172254
0.000494338
-0.000206419
0.00028218
-0.000273773
1.34773e-05
-0.000375387
-0.00032296
-0.000502199
-0.000736821
-0.000624811
-0.0012282
-0.000681918
-0.0017626
-0.000585588
-0.00220625
-0.000292189
-0.0022161
-0.00120103
-9.12114e-05
0.000480053
-0.000196014
0.000945339
-0.000248579
0.00110104
-0.000245655
0.00110986
-0.000200965
0.00105768
-0.000128904
0.000982052
-4.18546e-05
0.000897564
4.94762e-05
0.000807039
0.000135232
0.000707016
0.000205608
0.000590718
0.000250445
0.000449501
0.000259086
0.000273538
0.000220666
5.18974e-05
0.000126051
-0.000228345
-2.82389e-05
-0.000582531
-0.000228591
-0.00102785
-0.000422736
-0.00156845
-0.000495874
-0.00213311
-0.000320953
-0.00239103
-0.00152198
-0.000157449
0.000637502
-0.000277992
0.00106588
-0.000284194
0.00110724
-0.000205848
0.00103151
-7.72389e-05
0.000929067
7.79831e-05
0.00082683
0.000243693
0.000731854
0.000407974
0.000642758
0.000560784
0.000554206
0.000692367
0.000459136
0.000792156
0.000349712
0.000848135
0.000217559
0.000846329
5.37035e-05
0.00077163
-0.000153647
0.000608962
-0.000419863
0.000352007
-0.000770893
2.89215e-05
-0.00124537
-0.000256018
-0.00184817
-0.000293116
-0.00235393
-0.0018151
-0.000260715
0.000898216
-0.000329533
0.0011347
-0.000202942
0.000980649
1.54176e-05
0.000813154
0.000266997
0.000677488
0.000524835
0.000568992
0.000775112
0.000481577
0.00100924
0.000408633
0.00122038
0.000343067
0.00140138
0.000278135
0.00154345
0.000207637
0.00163528
0.000125726
0.00166224
2.67456e-05
0.00160695
-9.83545e-05
0.00144618
-0.000259096
0.00115449
-0.000479197
0.000719757
-0.000810634
0.000212116
-0.00134053
-0.000126597
-0.00201521
-0.0019417
-0.000260854
0.00115907
-6.11041e-06
0.000879958
0.000419688
0.00055485
0.000832878
0.000399965
0.00120606
0.000304308
0.00153878
0.000236275
0.00183307
0.000187278
0.00209097
0.00015074
0.00231309
0.000120942
0.00249765
9.35782e-05
0.00263988
6.54091e-05
0.00273158
3.40223e-05
0.00275984
-1.51773e-06
0.00271106
-4.95724e-05
0.00255901
-0.000107045
0.00226853
-0.000188712
0.00178819
-0.000330299
0.00108748
-0.000639815
0.000317235
-0.00124497
-0.00162446
0.00115907
0.00203903
0.00259388
0.00299384
0.00329815
0.00353443
0.0037217
0.00387244
0.00399338
0.00408696
0.00415237
0.00418639
0.00418488
0.0041353
0.00402826
0.00383955
0.00350925
0.00286943
0.00162446
)
;

boundaryField
{
    movingWall
    {
        type            calculated;
        value           uniform 0;
    }
    fixedWalls
    {
        type            calculated;
        value           uniform 0;
    }
    frontAndBack
    {
        type            empty;
    }
}


// ************************************************************************* //
