/*--------------------------------*- C++ -*----------------------------------*\
  =========                 |
  \\      /  F ield         | OpenFOAM: The Open Source CFD Toolbox
   \\    /   O peration     | Website:  https://openfoam.org
    \\  /    A nd           | Version:  dev
     \\/     M anipulation  |
\*---------------------------------------------------------------------------*/
FoamFile
{
    format      ascii;
    class       volVectorField;
    location    "4.95";
    object      U;
}
// * * * * * * * * * * * * * * * * * * * * * * * * * * * * * * * * * * * * * //

dimensions      [0 1 -1 0 0 0 0];

internalField   nonuniform List<vector> 
400
(
(0.000201233 -0.000202576 0)
(-3.79311e-06 0.000138066 0)
(-0.00128813 0.000505851 0)
(-0.00333241 0.000739926 0)
(-0.0058078 0.000855916 0)
(-0.00844716 0.000885406 0)
(-0.0110312 0.000846388 0)
(-0.0133618 0.000741841 0)
(-0.015239 0.000565987 0)
(-0.0164559 0.000314304 0)
(-0.0168185 -6.33984e-06 0)
(-0.0161853 -0.00037118 0)
(-0.0145207 -0.00073004 0)
(-0.0119429 -0.00101617 0)
(-0.0087492 -0.00115879 0)
(-0.0053967 -0.00110405 0)
(-0.00242697 -0.000837993 0)
(-0.000337512 -0.000405641 0)
(0.000553244 6.7491e-05 0)
(0.000336969 0.000319532 0)
(-0.000146039 -7.36951e-06 0)
(-0.00174932 0.00168594 0)
(-0.0056077 0.003303 0)
(-0.0109864 0.00437391 0)
(-0.0172252 0.00491194 0)
(-0.0237633 0.00500074 0)
(-0.0300841 0.00469605 0)
(-0.0356962 0.00401268 0)
(-0.0401172 0.00294485 0)
(-0.0428809 0.00150335 0)
(-0.0435851 -0.000245783 0)
(-0.0419662 -0.00215374 0)
(-0.0379963 -0.0039798 0)
(-0.0319678 -0.0054191 0)
(-0.024525 -0.00616237 0)
(-0.0166211 -0.00598518 0)
(-0.00937015 -0.00484456 0)
(-0.00380092 -0.00295233 0)
(-0.00058844 -0.000824244 0)
(0.000186763 0.000584686 0)
(-0.000595373 0.0013668 0)
(-0.00377625 0.00566297 0)
(-0.0102081 0.00935035 0)
(-0.0186101 0.0117881 0)
(-0.0280476 0.0129866 0)
(-0.0377787 0.0130781 0)
(-0.0470956 0.0121586 0)
(-0.055311 0.0102627 0)
(-0.0617523 0.00740356 0)
(-0.0657804 0.00364687 0)
(-0.0668518 -0.000812509 0)
(-0.0646142 -0.00559708 0)
(-0.0590216 -0.0101392 0)
(-0.0504398 -0.0137387 0)
(-0.039697 -0.0156932 0)
(-0.0280491 -0.0154919 0)
(-0.0170088 -0.0130307 0)
(-0.00803455 -0.00877268 0)
(-0.00222424 -0.00380855 0)
(-0.000109261 3.54926e-05 0)
(-0.000999318 0.00384168 0)
(-0.00567868 0.0118535 0)
(-0.0145772 0.0181593 0)
(-0.0257977 0.0222109 0)
(-0.0381293 0.0241159 0)
(-0.0506976 0.0240879 0)
(-0.0626745 0.0222713 0)
(-0.0732496 0.0187215 0)
(-0.0816234 0.0134755 0)
(-0.0870257 0.00666769 0)
(-0.0887819 -0.0013528 0)
(-0.0864148 -0.00994248 0)
(-0.0797774 -0.0181439 0)
(-0.0691906 -0.0247731 0)
(-0.0555389 -0.0286176 0)
(-0.040287 -0.0287492 0)
(-0.0253297 -0.024894 0)
(-0.0126405 -0.0177298 0)
(-0.00392269 -0.00897621 0)
(-0.000373918 -0.00137986 0)
(-0.00134994 0.00730273 0)
(-0.0073926 0.0200787 0)
(-0.0185784 0.0294847 0)
(-0.0324101 0.0353231 0)
(-0.0474143 0.0379374 0)
(-0.0626189 0.0376853 0)
(-0.0771269 0.0347775 0)
(-0.0900599 0.0292874 0)
(-0.100535 0.0212624 0)
(-0.107672 0.0108872 0)
(-0.110645 -0.00135361 0)
(-0.108791 -0.0145543 0)
(-0.101751 -0.0273553 0)
(-0.0896627 -0.0380207 0)
(-0.0733307 -0.0446892 0)
(-0.054344 -0.0458124 0)
(-0.0350051 -0.0407299 0)
(-0.0179646 -0.0301923 0)
(-0.00579795 -0.0165616 0)
(-0.000622973 -0.00366726 0)
(-0.00165189 0.0116394 0)
(-0.00890075 0.0301605 0)
(-0.0221412 0.043139 0)
(-0.0383395 0.0509473 0)
(-0.0557948 0.0543078 0)
(-0.0734723 0.0537976 0)
(-0.0904513 0.0497197 0)
(-0.105834 0.0421581 0)
(-0.118693 0.0311402 0)
(-0.128051 0.0168524 0)
(-0.132914 -0.000144512 0)
(-0.132367 -0.0187368 0)
(-0.125732 -0.0371835 0)
(-0.112802 -0.0531439 0)
(-0.0941242 -0.0639435 0)
(-0.0712737 -0.0671227 0)
(-0.0469394 -0.0612732 0)
(-0.0246213 -0.046934 0)
(-0.00813181 -0.0270836 0)
(-0.000918722 -0.00694882 0)
(-0.00190313 0.0167325 0)
(-0.0101746 0.0418711 0)
(-0.0251781 0.0588627 0)
(-0.0434289 0.0688365 0)
(-0.0630445 0.0730287 0)
(-0.0829646 0.0723148 0)
(-0.10229 0.067121 0)
(-0.120151 0.0575319 0)
(-0.135623 0.0435116 0)
(-0.147665 0.0251748 0)
(-0.155116 0.0030625 0)
(-0.156777 -0.0216141 0)
(-0.151558 -0.0467985 0)
(-0.138745 -0.0695404 0)
(-0.118404 -0.0861976 0)
(-0.0918552 -0.0930426 0)
(-0.0620155 -0.087384 0)
(-0.0333229 -0.0690256 0)
(-0.0112805 -0.0413901 0)
(-0.00134079 -0.0115237 0)
(-0.00209543 0.0224434 0)
(-0.0111698 0.0549278 0)
(-0.0275727 0.0763126 0)
(-0.0474583 0.0886381 0)
(-0.0688088 0.0937785 0)
(-0.0905743 0.092989 0)
(-0.111922 0.0868546 0)
(-0.132066 0.0754542 0)
(-0.150143 0.0586411 0)
(-0.16511 0.0363715 0)
(-0.175696 0.00904123 0)
(-0.180436 -0.022189 0)
(-0.177791 -0.0550928 0)
(-0.166419 -0.0861929 0)
(-0.145658 -0.110803 0)
(-0.116203 -0.123573 0)
(-0.0808245 -0.119829 0)
(-0.0447593 -0.0977558 0)
(-0.0156532 -0.060687 0)
(-0.00198846 -0.017899 0)
(-0.00221992 0.0286072 0)
(-0.0118425 0.0689886 0)
(-0.0292056 0.0950493 0)
(-0.0501812 0.10986 0)
(-0.0726532 0.116048 0)
(-0.0956125 0.115334 0)
(-0.118336 0.108509 0)
(-0.140181 0.0956502 0)
(-0.160426 0.0764646 0)
(-0.178123 0.0506666 0)
(-0.192001 0.0183737 0)
(-0.200436 -0.0194842 0)
(-0.201505 -0.0607357 0)
(-0.193203 -0.101589 0)
(-0.173923 -0.136404 0)
(-0.143295 -0.157982 0)
(-0.103301 -0.158901 0)
(-0.0594367 -0.134401 0)
(-0.0217059 -0.086504 0)
(-0.00299603 -0.0268202 0)
(-0.0022773 0.0350388 0)
(-0.0121832 0.083662 0)
(-0.0300153 0.114533 0)
(-0.0514094 0.13184 0)
(-0.0741722 0.13908 0)
(-0.0973604 0.138534 0)
(-0.120403 0.13126 0)
(-0.142864 0.117363 0)
(-0.164253 0.0963927 0)
(-0.183847 0.0677665 0)
(-0.200542 0.0312097 0)
(-0.212748 -0.0127716 0)
(-0.218354 -0.0623464 0)
(-0.214803 -0.113764 0)
(-0.199467 -0.16077 0)
(-0.170496 -0.194394 0)
(-0.12825 -0.203858 0)
(-0.0774074 -0.179778 0)
(-0.02992 -0.120556 0)
(-0.00455839 -0.039313 0)
(-0.00229361 0.0415662 0)
(-0.0122691 0.0985536 0)
(-0.0300887 0.134152 0)
(-0.0511358 0.153746 0)
(-0.0731466 0.161841 0)
(-0.0952736 0.16139 0)
(-0.117145 0.153798 0)
(-0.138594 0.139252 0)
(-0.159456 0.11717 0)
(-0.179368 0.086667 0)
(-0.197592 0.0470119 0)
(-0.212839 -0.00187356 0)
(-0.223117 -0.058812 0)
(-0.22562 -0.120558 0)
(-0.216854 -0.180861 0)
(-0.193294 -0.229522 0)
(-0.15285 -0.252302 0)
(-0.0978431 -0.233531 0)
(-0.0407094 -0.16442 0)
(-0.00696021 -0.056732 0)
(-0.00234469 0.0480991 0)
(-0.0123358 0.113359 0)
(-0.0297746 0.153285 0)
(-0.0496764 0.174611 0)
(-0.0697166 0.183041 0)
(-0.0892061 0.182339 0)
(-0.108039 0.174345 0)
(-0.126385 0.1594 0)
(-0.144483 0.136857 0)
(-0.162446 0.105574 0)
(-0.180085 0.0643729 0)
(-0.19669 0.01251 0)
(-0.210759 -0.0497268 0)
(-0.219696 -0.120116 0)
(-0.219619 -0.193247 0)
(-0.205523 -0.258761 0)
(-0.172381 -0.299716 0)
(-0.118508 -0.293233 0)
(-0.0541797 -0.218914 0)
(-0.0105869 -0.0807837 0)
(-0.00259779 0.0547554 0)
(-0.0128791 0.128014 0)
(-0.029809 0.171401 0)
(-0.0477926 0.193385 0)
(-0.0645035 0.201186 0)
(-0.0795578 0.199528 0)
(-0.0932296 0.190767 0)
(-0.106098 0.175461 0)
(-0.118861 0.152977 0)
(-0.132175 0.122011 0)
(-0.146501 0.0810236 0)
(-0.161902 0.0286431 0)
(-0.177714 -0.0358221 0)
(-0.192109 -0.111582 0)
(-0.201538 -0.194934 0)
(-0.200247 -0.276855 0)
(-0.180464 -0.339529 0)
(-0.13535 -0.353564 0)
(-0.0696546 -0.283045 0)
(-0.0158616 -0.11342 0)
(-0.00338934 0.0620782 0)
(-0.0148051 0.142884 0)
(-0.0314328 0.188127 0)
(-0.0467193 0.208959 0)
(-0.0585567 0.214614 0)
(-0.0671738 0.210914 0)
(-0.0734148 0.200743 0)
(-0.0783551 0.184894 0)
(-0.0831744 0.162805 0)
(-0.0890629 0.133113 0)
(-0.0971294 0.0940602 0)
(-0.108255 0.0438062 0)
(-0.122813 -0.0192213 0)
(-0.1402 -0.0957623 0)
(-0.158049 -0.184447 0)
(-0.171075 -0.279171 0)
(-0.169892 -0.364034 0)
(-0.142467 -0.406113 0)
(-0.0849531 -0.35264 0)
(-0.0229954 -0.156384 0)
(-0.00536674 0.0714185 0)
(-0.019642 0.158974 0)
(-0.0364024 0.203207 0)
(-0.0478865 0.220046 0)
(-0.0528296 0.221429 0)
(-0.0526402 0.214283 0)
(-0.0490063 0.201892 0)
(-0.0435887 0.185195 0)
(-0.0380348 0.163691 0)
(-0.0339866 0.136026 0)
(-0.0330819 0.100371 0)
(-0.0369079 0.0546553 0)
(-0.0468449 -0.003268 0)
(-0.0636996 -0.0753778 0)
(-0.0869593 -0.162712 0)
(-0.113251 -0.263226 0)
(-0.133644 -0.36612 0)
(-0.132437 -0.440283 0)
(-0.0955493 -0.419323 0)
(-0.0313656 -0.210377 0)
(-0.00968767 0.0856405 0)
(-0.0296765 0.177992 0)
(-0.0464398 0.216117 0)
(-0.0515935 0.224753 0)
(-0.0462978 0.219181 0)
(-0.0340405 0.207078 0)
(-0.0176446 0.191741 0)
(0.0006082 0.174002 0)
(0.0186893 0.153303 0)
(0.0346647 0.128306 0)
(0.0465746 0.0972301 0)
(0.0523632 0.0580092 0)
(0.0498825 0.00833934 0)
(0.0370837 -0.0543885 0)
(0.0124462 -0.132991 0)
(-0.0236632 -0.229581 0)
(-0.0654015 -0.341026 0)
(-0.0966388 -0.44498 0)
(-0.0939726 -0.470644 0)
(-0.0383757 -0.27447 0)
(-0.0180273 0.110552 0)
(-0.0471034 0.201415 0)
(-0.0600862 0.224256 0)
(-0.0520562 0.218956 0)
(-0.0301446 0.203684 0)
(-0.000878941 0.185641 0)
(0.0318042 0.167309 0)
(0.0652393 0.148948 0)
(0.0973169 0.129724 0)
(0.12612 0.108267 0)
(0.149673 0.0829204 0)
(0.165776 0.0518359 0)
(0.171858 0.0129358 0)
(0.165074 -0.0363261 0)
(0.142304 -0.0993563 0)
(0.100807 -0.181181 0)
(0.0411923 -0.286973 0)
(-0.0249964 -0.409704 0)
(-0.0698041 -0.490265 0)
(-0.0378838 -0.344255 0)
(-0.0308205 0.156996 0)
(-0.0677726 0.22501 0)
(-0.0591185 0.21556 0)
(-0.0215275 0.190977 0)
(0.0272596 0.166021 0)
(0.0790638 0.143784 0)
(0.130338 0.124615 0)
(0.17907 0.107723 0)
(0.223832 0.0918363 0)
(0.263303 0.0755581 0)
(0.295953 0.0574727 0)
(0.319846 0.0361427 0)
(0.332395 0.0100275 0)
(0.330563 -0.0227818 0)
(0.310343 -0.0650294 0)
(0.266763 -0.122219 0)
(0.195259 -0.205202 0)
(0.096551 -0.325907 0)
(-0.00758019 -0.455339 0)
(-0.016238 -0.398177 0)
(-0.0282011 0.227735 0)
(-0.0418678 0.224065 0)
(0.0373915 0.165665 0)
(0.125766 0.127029 0)
(0.205422 0.100563 0)
(0.276015 0.080917 0)
(0.338606 0.0660653 0)
(0.393747 0.0544599 0)
(0.441714 0.0446694 0)
(0.482427 0.0354913 0)
(0.515267 0.0259258 0)
(0.539005 0.0151006 0)
(0.551477 0.00217852 0)
(0.550257 -0.0135009 0)
(0.531349 -0.0336923 0)
(0.489045 -0.0617211 0)
(0.414899 -0.107027 0)
(0.29597 -0.193711 0)
(0.131553 -0.33309 0)
(0.0664646 -0.370154 0)
(0.261129 0.138141 0)
(0.324054 0.118507 0)
(0.456038 0.0775055 0)
(0.560896 0.0519066 0)
(0.632861 0.0362808 0)
(0.68572 0.0260048 0)
(0.727231 0.0190695 0)
(0.76064 0.0142828 0)
(0.787588 0.010762 0)
(0.808922 0.00786951 0)
(0.824811 0.00514786 0)
(0.834859 0.00226726 0)
(0.838203 -0.00107598 0)
(0.833419 -0.00481035 0)
(0.818067 -0.00958161 0)
(0.788787 -0.0162502 0)
(0.738073 -0.0272905 0)
(0.6483 -0.0517423 0)
(0.474088 -0.111466 0)
(0.340766 -0.156281 0)
)
;

boundaryField
{
    movingWall
    {
        type            fixedValue;
        value           uniform (1 0 0);
    }
    fixedWalls
    {
        type            noSlip;
    }
    frontAndBack
    {
        type            empty;
    }
}


// ************************************************************************* //
