/*--------------------------------*- C++ -*----------------------------------*\
  =========                 |
  \\      /  F ield         | OpenFOAM: The Open Source CFD Toolbox
   \\    /   O peration     | Website:  https://openfoam.org
    \\  /    A nd           | Version:  dev
     \\/     M anipulation  |
\*---------------------------------------------------------------------------*/
FoamFile
{
    format      ascii;
    class       volScalarField;
    location    "4.95";
    object      Ux;
}
// * * * * * * * * * * * * * * * * * * * * * * * * * * * * * * * * * * * * * //

dimensions      [0 1 -1 0 0 0 0];

internalField   nonuniform List<scalar> 
400
(
0.000201233
-3.79311e-06
-0.00128813
-0.00333241
-0.0058078
-0.00844716
-0.0110312
-0.0133618
-0.015239
-0.0164559
-0.0168185
-0.0161853
-0.0145207
-0.0119429
-0.0087492
-0.0053967
-0.00242697
-0.000337512
0.000553244
0.000336969
-0.000146039
-0.00174932
-0.0056077
-0.0109864
-0.0172252
-0.0237633
-0.0300841
-0.0356962
-0.0401172
-0.0428809
-0.0435851
-0.0419662
-0.0379963
-0.0319678
-0.024525
-0.0166211
-0.00937015
-0.00380092
-0.00058844
0.000186763
-0.000595373
-0.00377625
-0.0102081
-0.0186101
-0.0280476
-0.0377787
-0.0470956
-0.055311
-0.0617523
-0.0657804
-0.0668518
-0.0646142
-0.0590216
-0.0504398
-0.039697
-0.0280491
-0.0170088
-0.00803455
-0.00222424
-0.000109261
-0.000999318
-0.00567868
-0.0145772
-0.0257977
-0.0381293
-0.0506976
-0.0626745
-0.0732496
-0.0816234
-0.0870257
-0.0887819
-0.0864148
-0.0797774
-0.0691906
-0.0555389
-0.040287
-0.0253297
-0.0126405
-0.00392269
-0.000373918
-0.00134994
-0.0073926
-0.0185784
-0.0324101
-0.0474143
-0.0626189
-0.0771269
-0.0900599
-0.100535
-0.107672
-0.110645
-0.108791
-0.101751
-0.0896627
-0.0733307
-0.054344
-0.0350051
-0.0179646
-0.00579795
-0.000622973
-0.00165189
-0.00890075
-0.0221412
-0.0383395
-0.0557948
-0.0734723
-0.0904513
-0.105834
-0.118693
-0.128051
-0.132914
-0.132367
-0.125732
-0.112802
-0.0941242
-0.0712737
-0.0469394
-0.0246213
-0.00813181
-0.000918722
-0.00190313
-0.0101746
-0.0251781
-0.0434289
-0.0630445
-0.0829646
-0.10229
-0.120151
-0.135623
-0.147665
-0.155116
-0.156777
-0.151558
-0.138745
-0.118404
-0.0918552
-0.0620155
-0.0333229
-0.0112805
-0.00134079
-0.00209543
-0.0111698
-0.0275727
-0.0474583
-0.0688088
-0.0905743
-0.111922
-0.132066
-0.150143
-0.16511
-0.175696
-0.180436
-0.177791
-0.166419
-0.145658
-0.116203
-0.0808245
-0.0447593
-0.0156532
-0.00198846
-0.00221992
-0.0118425
-0.0292056
-0.0501812
-0.0726532
-0.0956125
-0.118336
-0.140181
-0.160426
-0.178123
-0.192001
-0.200436
-0.201505
-0.193203
-0.173923
-0.143295
-0.103301
-0.0594367
-0.0217059
-0.00299603
-0.0022773
-0.0121832
-0.0300153
-0.0514094
-0.0741722
-0.0973604
-0.120403
-0.142864
-0.164253
-0.183847
-0.200542
-0.212748
-0.218354
-0.214803
-0.199467
-0.170496
-0.12825
-0.0774074
-0.02992
-0.00455839
-0.00229361
-0.0122691
-0.0300887
-0.0511358
-0.0731466
-0.0952736
-0.117145
-0.138594
-0.159456
-0.179368
-0.197592
-0.212839
-0.223117
-0.22562
-0.216854
-0.193294
-0.15285
-0.0978431
-0.0407094
-0.00696021
-0.00234469
-0.0123358
-0.0297746
-0.0496764
-0.0697166
-0.0892061
-0.108039
-0.126385
-0.144483
-0.162446
-0.180085
-0.19669
-0.210759
-0.219696
-0.219619
-0.205523
-0.172381
-0.118508
-0.0541797
-0.0105869
-0.00259779
-0.0128791
-0.029809
-0.0477926
-0.0645035
-0.0795578
-0.0932296
-0.106098
-0.118861
-0.132175
-0.146501
-0.161902
-0.177714
-0.192109
-0.201538
-0.200247
-0.180464
-0.13535
-0.0696546
-0.0158616
-0.00338934
-0.0148051
-0.0314328
-0.0467193
-0.0585567
-0.0671738
-0.0734148
-0.0783551
-0.0831744
-0.0890629
-0.0971294
-0.108255
-0.122813
-0.1402
-0.158049
-0.171075
-0.169892
-0.142467
-0.0849531
-0.0229954
-0.00536674
-0.019642
-0.0364024
-0.0478865
-0.0528296
-0.0526402
-0.0490063
-0.0435887
-0.0380348
-0.0339866
-0.0330819
-0.0369079
-0.0468449
-0.0636996
-0.0869593
-0.113251
-0.133644
-0.132437
-0.0955493
-0.0313656
-0.00968767
-0.0296765
-0.0464398
-0.0515935
-0.0462978
-0.0340405
-0.0176446
0.0006082
0.0186893
0.0346647
0.0465746
0.0523632
0.0498825
0.0370837
0.0124462
-0.0236632
-0.0654015
-0.0966388
-0.0939726
-0.0383757
-0.0180273
-0.0471034
-0.0600862
-0.0520562
-0.0301446
-0.000878941
0.0318042
0.0652393
0.0973169
0.12612
0.149673
0.165776
0.171858
0.165074
0.142304
0.100807
0.0411923
-0.0249964
-0.0698041
-0.0378838
-0.0308205
-0.0677726
-0.0591185
-0.0215275
0.0272596
0.0790638
0.130338
0.17907
0.223832
0.263303
0.295953
0.319846
0.332395
0.330563
0.310343
0.266763
0.195259
0.096551
-0.00758019
-0.016238
-0.0282011
-0.0418678
0.0373915
0.125766
0.205422
0.276015
0.338606
0.393747
0.441714
0.482427
0.515267
0.539005
0.551477
0.550257
0.531349
0.489045
0.414899
0.29597
0.131553
0.0664646
0.261129
0.324054
0.456038
0.560896
0.632861
0.68572
0.727231
0.76064
0.787588
0.808922
0.824811
0.834859
0.838203
0.833419
0.818067
0.788787
0.738073
0.6483
0.474088
0.340766
)
;

boundaryField
{
    movingWall
    {
        type            calculated;
        value           uniform 1;
    }
    fixedWalls
    {
        type            calculated;
        value           uniform 0;
    }
    frontAndBack
    {
        type            empty;
    }
}


// ************************************************************************* //
