/*--------------------------------*- C++ -*----------------------------------*\
  =========                 |
  \\      /  F ield         | OpenFOAM: The Open Source CFD Toolbox
   \\    /   O peration     | Website:  https://openfoam.org
    \\  /    A nd           | Version:  dev
     \\/     M anipulation  |
\*---------------------------------------------------------------------------*/
FoamFile
{
    format      ascii;
    class       volScalarField;
    location    "4.95";
    object      Uy;
}
// * * * * * * * * * * * * * * * * * * * * * * * * * * * * * * * * * * * * * //

dimensions      [0 1 -1 0 0 0 0];

internalField   nonuniform List<scalar> 
400
(
-0.000202576
0.000138066
0.000505851
0.000739926
0.000855916
0.000885406
0.000846388
0.000741841
0.000565987
0.000314304
-6.33984e-06
-0.00037118
-0.00073004
-0.00101617
-0.00115879
-0.00110405
-0.000837993
-0.000405641
6.7491e-05
0.000319532
-7.36951e-06
0.00168594
0.003303
0.00437391
0.00491194
0.00500074
0.00469605
0.00401268
0.00294485
0.00150335
-0.000245783
-0.00215374
-0.0039798
-0.0054191
-0.00616237
-0.00598518
-0.00484456
-0.00295233
-0.000824244
0.000584686
0.0013668
0.00566297
0.00935035
0.0117881
0.0129866
0.0130781
0.0121586
0.0102627
0.00740356
0.00364687
-0.000812509
-0.00559708
-0.0101392
-0.0137387
-0.0156932
-0.0154919
-0.0130307
-0.00877268
-0.00380855
3.54926e-05
0.00384168
0.0118535
0.0181593
0.0222109
0.0241159
0.0240879
0.0222713
0.0187215
0.0134755
0.00666769
-0.0013528
-0.00994248
-0.0181439
-0.0247731
-0.0286176
-0.0287492
-0.024894
-0.0177298
-0.00897621
-0.00137986
0.00730273
0.0200787
0.0294847
0.0353231
0.0379374
0.0376853
0.0347775
0.0292874
0.0212624
0.0108872
-0.00135361
-0.0145543
-0.0273553
-0.0380207
-0.0446892
-0.0458124
-0.0407299
-0.0301923
-0.0165616
-0.00366726
0.0116394
0.0301605
0.043139
0.0509473
0.0543078
0.0537976
0.0497197
0.0421581
0.0311402
0.0168524
-0.000144512
-0.0187368
-0.0371835
-0.0531439
-0.0639435
-0.0671227
-0.0612732
-0.046934
-0.0270836
-0.00694882
0.0167325
0.0418711
0.0588627
0.0688365
0.0730287
0.0723148
0.067121
0.0575319
0.0435116
0.0251748
0.0030625
-0.0216141
-0.0467985
-0.0695404
-0.0861976
-0.0930426
-0.087384
-0.0690256
-0.0413901
-0.0115237
0.0224434
0.0549278
0.0763126
0.0886381
0.0937785
0.092989
0.0868546
0.0754542
0.0586411
0.0363715
0.00904123
-0.022189
-0.0550928
-0.0861929
-0.110803
-0.123573
-0.119829
-0.0977558
-0.060687
-0.017899
0.0286072
0.0689886
0.0950493
0.10986
0.116048
0.115334
0.108509
0.0956502
0.0764646
0.0506666
0.0183737
-0.0194842
-0.0607357
-0.101589
-0.136404
-0.157982
-0.158901
-0.134401
-0.086504
-0.0268202
0.0350388
0.083662
0.114533
0.13184
0.13908
0.138534
0.13126
0.117363
0.0963927
0.0677665
0.0312097
-0.0127716
-0.0623464
-0.113764
-0.16077
-0.194394
-0.203858
-0.179778
-0.120556
-0.039313
0.0415662
0.0985536
0.134152
0.153746
0.161841
0.16139
0.153798
0.139252
0.11717
0.086667
0.0470119
-0.00187356
-0.058812
-0.120558
-0.180861
-0.229522
-0.252302
-0.233531
-0.16442
-0.056732
0.0480991
0.113359
0.153285
0.174611
0.183041
0.182339
0.174345
0.1594
0.136857
0.105574
0.0643729
0.01251
-0.0497268
-0.120116
-0.193247
-0.258761
-0.299716
-0.293233
-0.218914
-0.0807837
0.0547554
0.128014
0.171401
0.193385
0.201186
0.199528
0.190767
0.175461
0.152977
0.122011
0.0810236
0.0286431
-0.0358221
-0.111582
-0.194934
-0.276855
-0.339529
-0.353564
-0.283045
-0.11342
0.0620782
0.142884
0.188127
0.208959
0.214614
0.210914
0.200743
0.184894
0.162805
0.133113
0.0940602
0.0438062
-0.0192213
-0.0957623
-0.184447
-0.279171
-0.364034
-0.406113
-0.35264
-0.156384
0.0714185
0.158974
0.203207
0.220046
0.221429
0.214283
0.201892
0.185195
0.163691
0.136026
0.100371
0.0546553
-0.003268
-0.0753778
-0.162712
-0.263226
-0.36612
-0.440283
-0.419323
-0.210377
0.0856405
0.177992
0.216117
0.224753
0.219181
0.207078
0.191741
0.174002
0.153303
0.128306
0.0972301
0.0580092
0.00833934
-0.0543885
-0.132991
-0.229581
-0.341026
-0.44498
-0.470644
-0.27447
0.110552
0.201415
0.224256
0.218956
0.203684
0.185641
0.167309
0.148948
0.129724
0.108267
0.0829204
0.0518359
0.0129358
-0.0363261
-0.0993563
-0.181181
-0.286973
-0.409704
-0.490265
-0.344255
0.156996
0.22501
0.21556
0.190977
0.166021
0.143784
0.124615
0.107723
0.0918363
0.0755581
0.0574727
0.0361427
0.0100275
-0.0227818
-0.0650294
-0.122219
-0.205202
-0.325907
-0.455339
-0.398177
0.227735
0.224065
0.165665
0.127029
0.100563
0.080917
0.0660653
0.0544599
0.0446694
0.0354913
0.0259258
0.0151006
0.00217852
-0.0135009
-0.0336923
-0.0617211
-0.107027
-0.193711
-0.33309
-0.370154
0.138141
0.118507
0.0775055
0.0519066
0.0362808
0.0260048
0.0190695
0.0142828
0.010762
0.00786951
0.00514786
0.00226726
-0.00107598
-0.00481035
-0.00958161
-0.0162502
-0.0272905
-0.0517423
-0.111466
-0.156281
)
;

boundaryField
{
    movingWall
    {
        type            calculated;
        value           uniform 0;
    }
    fixedWalls
    {
        type            calculated;
        value           uniform 0;
    }
    frontAndBack
    {
        type            empty;
    }
}


// ************************************************************************* //
