/*--------------------------------*- C++ -*----------------------------------*\
  =========                 |
  \\      /  F ield         | OpenFOAM: The Open Source CFD Toolbox
   \\    /   O peration     | Website:  https://openfoam.org
    \\  /    A nd           | Version:  dev
     \\/     M anipulation  |
\*---------------------------------------------------------------------------*/
FoamFile
{
    format      ascii;
    class       volScalarField;
    location    "33.75";
    object      p;
}
// * * * * * * * * * * * * * * * * * * * * * * * * * * * * * * * * * * * * * //

dimensions      [0 2 -2 0 0 0 0];

internalField   nonuniform List<scalar> 
5184
(
1.31941e-06
-1.03314e-05
-9.62252e-05
-0.000249112
-0.000448534
-0.000677218
-0.000920931
-0.0011677
-0.00140838
-0.00163581
-0.00184458
-0.00203067
-0.00219114
-0.00232388
-0.00242744
-0.0025008
-0.0025433
-0.0025545
-0.00253412
-0.00248199
-0.00239802
-0.0022822
-0.00213457
-0.00195527
-0.00174455
-0.00150277
-0.00123049
-0.00092845
-0.000597648
-0.000239354
0.00014485
0.000553037
0.000982914
0.00143181
0.00189666
0.00237402
0.00286007
0.00335064
0.00384126
0.00432719
0.00480348
0.00526506
0.00570681
0.00612365
0.00651061
0.00686299
0.00717643
0.00744699
0.0076713
0.00784663
0.00797097
0.0080431
0.0080627
0.00803031
0.00794745
0.00781654
0.007641
0.00742512
0.00717413
0.00689409
0.00659184
0.00627502
0.00595192
0.00563151
0.00532334
0.0050375
0.00478449
0.00457492
0.00441877
0.0043245
0.00429759
0.00432489
1.47519e-05
2.26744e-06
-7.23264e-05
-0.000200093
-0.000365361
-0.000555656
-0.000760045
-0.000968918
-0.00117435
-0.00136994
-0.00155065
-0.00171257
-0.00185273
-0.00196889
-0.00205942
-0.00212313
-0.00215915
-0.00216689
-0.00214591
-0.00209593
-0.00201677
-0.00190833
-0.00177063
-0.00160378
-0.00140799
-0.00118364
-0.000931257
-0.000651571
-0.00034554
-1.4384e-05
0.000340393
0.000716975
0.00111321
0.00152661
0.00195433
0.00239318
0.00283966
0.00328993
0.0037399
0.00418525
0.00462148
0.00504399
0.00544815
0.00582935
0.00618315
0.00650532
0.00679196
0.00703958
0.0072452
0.00740643
0.00752156
0.00758959
0.00761033
0.00758439
0.00751325
0.00739925
0.00724556
0.00705619
0.00683595
0.00659039
0.00632576
0.00604893
0.00576735
0.00548895
0.00522203
0.00497515
0.004757
0.00457595
0.0044393
0.00435299
0.00432443
0.00435206
0.000101423
7.67107e-05
1.3754e-06
-0.00011617
-0.000263894
-0.00043216
-0.000612257
-0.000796345
-0.000977721
-0.00115082
-0.00131115
-0.0014551
-0.00157986
-0.00168329
-0.00176372
-0.00181991
-0.00185095
-0.00185615
-0.001835
-0.00178715
-0.00171234
-0.00161044
-0.0014814
-0.00132529
-0.00114231
-0.000932767
-0.000697165
-0.000436182
-0.000150715
0.000158095
0.000488835
0.000839805
0.00120899
0.00159407
0.00199238
0.00240097
0.00281654
0.00323556
0.00365421
0.00406848
0.0044742
0.00486711
0.0052429
0.00559734
0.00592631
0.00622592
0.00649258
0.0067231
0.00691476
0.00706539
0.00717346
0.00723813
0.00725926
0.00723753
0.00717435
0.00707198
0.00693341
0.00676243
0.00656353
0.00634185
0.00610316
0.00585377
0.00560044
0.00535029
0.00511068
0.00488905
0.00469291
0.0045293
0.00440427
0.00432304
0.00429524
0.00432589
0.000256478
0.000205082
0.000117282
-1.6767e-06
-0.000144126
-0.000302288
-0.000469036
-0.000637997
-0.000803628
-0.000961238
-0.00110695
-0.00123764
-0.00135078
-0.00144444
-0.00151706
-0.00156749
-0.00159481
-0.00159833
-0.00157753
-0.00153201
-0.00146148
-0.00136576
-0.00124475
-0.00109848
-0.000927073
-0.000730798
-0.00051008
-0.000265526
2.05252e-06
0.00029161
0.000601845
0.00093118
0.00127774
0.00163936
0.00201355
0.00239753
0.00278823
0.0031823
0.00357617
0.00396605
0.00434802
0.00471803
0.00507205
0.00540606
0.00571617
0.00599871
0.0062503
0.00646792
0.00664901
0.00679155
0.00689411
0.00695591
0.00697687
0.00695765
0.00689965
0.006805
0.00667658
0.00651797
0.00633342
0.00612776
0.00590638
0.00567512
0.00544021
0.00520812
0.0049855
0.00477904
0.00459533
0.00444067
0.00432049
0.00423985
0.0042088
0.00423406
0.000461248
0.000372659
0.000264067
0.000136363
-8.00218e-06
-0.000162863
-0.000322448
-0.000481754
-0.000636367
-0.000782488
-0.000916931
-0.00103708
-0.00114084
-0.00122651
-0.00129278
-0.00133858
-0.00136309
-0.00136566
-0.00134578
-0.00130304
-0.00123711
-0.00114778
-0.00103491
-0.000898453
-0.000738469
-0.000555152
-0.00034884
-0.000120046
0.000130523
0.000401935
0.000693015
0.00100232
0.00132812
0.00166841
0.00202086
0.00238287
0.00275156
0.00312375
0.00349607
0.00386493
0.00422657
0.00457717
0.00491285
0.00522977
0.0055242
0.00579263
0.00603179
0.00623881
0.00641121
0.00654705
0.00664497
0.0067042
0.0067247
0.00670708
0.00665268
0.00656358
0.00644251
0.00629288
0.00611873
0.00592461
0.00571558
0.0054971
0.00527492
0.00505499
0.00484336
0.00464605
0.00446897
0.00431775
0.00419736
0.00411257
0.00407217
0.004082
0.000699569
0.000567556
0.000432397
0.000290357
0.000138426
-1.86239e-05
-0.000176185
-0.000330514
-0.000478273
-0.000616536
-0.000742826
-0.000855096
-0.000951678
-0.00103122
-0.00109265
-0.00113509
-0.00115783
-0.00116029
-0.001142
-0.00110256
-0.00104164
-0.000958973
-0.000854369
-0.000727718
-0.000579006
-0.000408332
-0.000215936
-2.21604e-06
0.000232238
0.000486625
0.000759904
0.00105078
0.00135767
0.00167873
0.00201179
0.00235441
0.00270387
0.00305717
0.00341108
0.00376217
0.00410683
0.00444137
0.00476204
0.00506511
0.00534697
0.00560417
0.00583354
0.00603224
0.00619785
0.00632846
0.0064227
0.00647983
0.00649974
0.00648304
0.00643099
0.00634556
0.00622939
0.00608574
0.00591843
0.00573183
0.00553069
0.00532015
0.00510557
0.00489247
0.00468639
0.00449281
0.00431707
0.00416421
0.00403882
0.00394528
0.00389009
0.00387701
0.000957654
0.000778902
0.000613371
0.000452834
0.000288917
0.00012523
-3.46057e-05
-0.000187987
-0.00033258
-0.000466293
-0.000587353
-0.000694287
-0.000785894
-0.000861192
-0.000919383
-0.000959806
-0.000981905
-0.000985203
-0.000969277
-0.000933752
-0.00087829
-0.000802599
-0.000706432
-0.000589608
-0.000452022
-0.000293674
-0.000114688
8.46613e-05
0.000303919
0.000542422
0.00079928
0.00107334
0.00136319
0.00166713
0.00198314
0.00230894
0.00264195
0.00297932
0.00331794
0.00365449
0.00398548
0.0043073
0.00461628
0.00490875
0.00518115
0.00543004
0.00565228
0.00584503
0.00600586
0.00613283
0.00622455
0.00628021
0.00629967
0.00628345
0.00623275
0.00614944
0.00603605
0.0058957
0.00573208
0.00554933
0.00535201
0.00514498
0.00493329
0.00472211
0.00451656
0.00432172
0.00414242
0.00398326
0.00384845
0.00374205
0.00366773
0.00362672
0.00122338
0.000996558
0.000798397
0.000616507
0.0004374
0.000263719
9.82525e-05
-5.74263e-05
-0.000201907
-0.000333891
-0.000452281
-0.000556178
-0.000644848
-0.000717694
-0.000774218
-0.000813989
-0.000836621
-0.000841752
-0.000829031
-0.000798115
-0.000748665
-0.000680356
-0.000592887
-0.000485998
-0.000359488
-0.000213245
-4.72671e-05
0.000138307
0.000343166
0.0005668
0.000808471
0.00106719
0.00134169
0.00163043
0.00193154
0.00224289
0.00256202
0.00288619
0.00321241
0.00353744
0.00385786
0.0041701
0.00447053
0.0047555
0.00502141
0.00526484
0.00548259
0.00567176
0.00582988
0.00595491
0.0060454
0.00610045
0.00611984
0.00610399
0.00605401
0.00597167
0.00585939
0.00572018
0.00555757
0.00537558
0.00517858
0.00497121
0.0047583
0.00454473
0.00433533
0.00413482
0.00394767
0.00377806
0.00363
0.00350721
0.00341043
0.00333825
0.00148648
0.00121137
0.000979417
0.000774341
0.000577821
0.000391695
0.000218045
5.75122e-05
-8.93446e-05
-0.000221966
-0.000339901
-0.000442802
-0.000530402
-0.000602485
-0.000658858
-0.00069933
-0.000723691
-0.000731705
-0.000723098
-0.000697561
-0.000654757
-0.000594327
-0.000515911
-0.000419165
-0.000303784
-0.000169534
-1.6277e-05
0.000155993
0.000347122
0.000556758
0.000784326
0.001029
0.00128967
0.00156495
0.00185313
0.00215219
0.0024598
0.00277332
0.00308983
0.00340616
0.00371893
0.00402458
0.00431946
0.0045999
0.00486226
0.00510302
0.00531891
0.00550694
0.00566449
0.00578945
0.0058802
0.00593576
0.00595575
0.0059405
0.00589098
0.00580888
0.00569649
0.00555671
0.00539297
0.00520916
0.00500951
0.00479851
0.00458081
0.00436109
0.00414398
0.00393393
0.00373514
0.00355149
0.00338685
0.00324474
0.00312298
0.00301765
0.00173799
0.00141509
0.00114894
0.000919608
0.000704213
0.000503908
0.000320169
0.000152795
1.55706e-06
-0.000133675
-0.000253057
-0.000356772
-0.000445002
-0.000517903
-0.000575584
-0.000618091
-0.000645392
-0.000657376
-0.000653847
-0.000634531
-0.000599088
-0.000547123
-0.000478212
-0.000391918
-0.000287826
-0.00016557
-2.48672e-05
0.000134445
0.000312375
0.000508742
0.00072314
0.000954911
0.00120312
0.00146651
0.00174353
0.00203229
0.00233056
0.00263579
0.00294513
0.00325543
0.00356333
0.00386526
0.00415752
0.00443637
0.00469807
0.00493899
0.00515573
0.00534513
0.00550444
0.00563136
0.00572412
0.00578156
0.00580316
0.00578908
0.00574017
0.00565798
0.0055447
0.00540311
0.00523656
0.00504881
0.00484402
0.00462658
0.00440101
0.00417187
0.00394364
0.00372065
0.00350689
0.00330604
0.00312194
0.00295805
0.0028094
0.00266969
0.00196995
0.00160021
0.00129998
0.0010459
0.000810753
0.000595105
0.000399904
0.000224174
6.69617e-05
-7.25072e-05
-0.000194961
-0.000301084
-0.000391485
-0.000466678
-0.000527062
-0.000572913
-0.000604371
-0.000621443
-0.000624008
-0.000611822
-0.000584536
-0.000541716
-0.000482861
-0.00040744
-0.000314913
-0.000204777
-7.65944e-05
6.99641e-05
0.00023508
0.000418751
0.000620749
0.000840591
0.00107751
0.00133041
0.00159788
0.00187815
0.00216909
0.00246824
0.00277278
0.0030796
0.00338532
0.00368631
0.00397882
0.00425899
0.00452295
0.00476692
0.00498731
0.00518077
0.00534434
0.0054755
0.00557228
0.00563331
0.00565785
0.00564591
0.00559815
0.00551598
0.00540145
0.00525727
0.00508666
0.00489334
0.00468138
0.00445511
0.00421902
0.00397761
0.00373529
0.00349632
0.00326463
0.00304378
0.00283773
0.00264994
0.00247288
0.00229796
0.00217524
0.00175985
0.00142602
0.00114713
0.000891795
0.000660087
0.000452475
0.000267267
0.000102833
-4.22042e-05
-0.00016911
-0.00027904
-0.000373007
-0.000451864
-0.000516285
-0.00056676
-0.000603593
-0.0006269
-0.000636625
-0.000632546
-0.000614299
-0.000581397
-0.000533261
-0.00046925
-0.000388696
-0.000290945
-0.000175396
-4.15434e-05
0.000110978
0.000282352
0.000472539
0.00068124
0.000907859
0.00115147
0.0014108
0.00168421
0.00196967
0.00226478
0.00256677
0.00287253
0.00317864
0.00348143
0.00377703
0.00406144
0.00433064
0.00458064
0.00480762
0.00500801
0.00517857
0.00531654
0.00541967
0.00548632
0.00551555
0.00550709
0.00546145
0.00537984
0.00526418
0.00511705
0.00494161
0.00474151
0.00452078
0.00428374
0.00403489
0.00377872
0.00351969
0.00326206
0.00300979
0.00276645
0.00253618
0.00232264
0.00211581
0.00190502
0.00234729
0.00188763
0.00152095
0.00121747
0.000941868
0.000693733
0.000473102
0.000277609
0.000104991
-4.66964e-05
-0.000179224
-0.000294192
-0.000392993
-0.000476794
-0.000546529
-0.000602886
-0.000646316
-0.000677035
-0.000695037
-0.000700113
-0.000691872
-0.000669767
-0.000633128
-0.000581197
-0.000513166
-0.000428219
-0.000325582
-0.000204563
-6.4602e-05
9.46831e-05
0.000273451
0.000471597
0.000688707
0.00092403
0.00117644
0.00144443
0.00172606
0.00201901
0.00232055
0.00262755
0.00293656
0.00324383
0.00354535
0.00383697
0.00411445
0.00437359
0.00461029
0.00482069
0.00500125
0.00514888
0.00526103
0.00533575
0.0053718
0.00536864
0.00532654
0.00524649
0.00513027
0.00498032
0.00479971
0.00459205
0.00436137
0.00411202
0.00384852
0.00357547
0.00329742
0.00301874
0.00274349
0.00247537
0.00221881
0.00197778
0.0017399
0.00149252
0.00248002
0.00197759
0.00157898
0.00125138
0.000955683
0.000691024
0.00045703
0.000250701
6.91669e-05
-9.00489e-05
-0.000229197
-0.000350292
-0.000455084
-0.000545036
-0.000621315
-0.000684794
-0.000736053
-0.000775392
-0.000802844
-0.000818199
-0.000821027
-0.00081071
-0.000786475
-0.000747436
-0.000692634
-0.000621083
-0.00053182
-0.000423957
-0.000296727
-0.000149536
1.79848e-05
0.000205935
0.0004141
0.000641907
0.000888396
0.00115219
0.00143146
0.00172397
0.002027
0.00233744
0.00265177
0.00296614
0.00327641
0.00357825
0.00386718
0.00413871
0.00438846
0.0046122
0.00480607
0.00496659
0.00509082
0.00517647
0.00522193
0.00522635
0.00518969
0.00511272
0.00499699
0.00484482
0.00465918
0.00444364
0.00420225
0.00393941
0.00365975
0.00336801
0.00306891
0.00276702
0.0024666
0.00217155
0.00188675
0.00161652
0.00134627
0.00106138
0.00256772
0.00202411
0.00159463
0.00124356
0.000928134
0.00064706
0.000399569
0.000182048
-8.94861e-06
-0.000176409
-0.000323034
-0.000451233
-0.000563088
-0.000660334
-0.000744356
-0.000816189
-0.000876526
-0.000925734
-0.000963872
-0.000990713
-0.00100578
-0.00100836
-0.000997577
-0.0009724
-0.000931708
-0.000874332
-0.000799111
-0.000704943
-0.000590842
-0.000455989
-0.00029979
-0.000121923
7.76081e-05
0.000298428
0.000539751
0.000800349
0.00107852
0.0013721
0.00167841
0.00199434
0.00231632
0.0026404
0.00296227
0.00327738
0.00358102
0.00386838
0.00413472
0.00437545
0.00458626
0.00476326
0.00490308
0.00500298
0.00506094
0.00507573
0.00504696
0.00497509
0.00486146
0.00470818
0.00451813
0.00429485
0.0040424
0.0037653
0.0034683
0.00315636
0.00283444
0.00250739
0.00217975
0.00185574
0.00154075
0.00123961
0.000935504
0.00061192
0.00260497
0.00202186
0.00156269
0.00118893
0.000854299
0.00055708
0.000296116
6.72029e-05
-0.000133662
-0.000309955
-0.000464807
-0.000601
-0.000720923
-0.000826565
-0.000919508
-0.00100093
-0.00107162
-0.001132
-0.00118213
-0.00122176
-0.00125034
-0.00126707
-0.00127094
-0.00126077
-0.00123526
-0.00119305
-0.00113276
-0.00105306
-0.000952746
-0.000830739
-0.000686207
-0.000518589
-0.00032766
-0.000113577
0.000123068
0.000381216
0.000659304
0.000955253
0.00126646
0.00158979
0.00192165
0.00225795
0.00259426
0.00292578
0.0032475
0.0035543
0.00384103
0.00410267
0.00433444
0.00453195
0.00469132
0.00480931
0.0048834
0.00491192
0.00489405
0.00482992
0.00472053
0.00456781
0.00437451
0.00414411
0.00388073
0.00358897
0.00327382
0.00294047
0.00259419
0.0022402
0.00188341
0.00152846
0.00118132
0.000847446
0.000507821
0.000144
0.00258661
0.00196578
0.0014782
0.00108265
0.000729448
0.000416477
0.000142187
-9.82043e-05
-0.000309237
-0.000494856
-0.000658605
-0.000803615
-0.000932568
-0.00104768
-0.00115072
-0.00124299
-0.00132535
-0.00139825
-0.00146176
-0.00151558
-0.00155908
-0.00159136
-0.00161125
-0.00161742
-0.00160837
-0.00158254
-0.00153833
-0.00147416
-0.00138855
-0.00128019
-0.00114798
-0.000991085
-0.000809036
-0.000601751
-0.0003696
-0.000113451
0.000165294
0.000464673
0.000782153
0.00111463
0.00145845
0.00180946
0.00216301
0.0025141
0.00285741
0.00318744
0.00349862
0.00378542
0.00404254
0.00426503
0.00444843
0.00458891
0.00468337
0.0047296
0.00472629
0.00467313
0.00457078
0.0044209
0.00422608
0.00398972
0.00371598
0.00340963
0.00307585
0.00272016
0.00234822
0.00196568
0.00157791
0.00119004
0.000808759
0.000440204
6.31353e-05
-0.000342871
0.00250775
0.00185106
0.00133645
0.000920081
0.000549053
0.000220816
-6.65625e-05
-0.000318431
-0.000539851
-0.000735223
-0.000908483
-0.00106309
-0.00120201
-0.00132767
-0.00144199
-0.00154638
-0.00164177
-0.00172863
-0.00180701
-0.00187654
-0.0019365
-0.00198587
-0.00202334
-0.00204738
-0.00205631
-0.00204834
-0.0020216
-0.00197429
-0.00190464
-0.00181105
-0.00169213
-0.00154679
-0.00137425
-0.00117417
-0.000946673
-0.000692403
-0.000412573
-0.000108996
0.000215895
0.000559038
0.000916761
0.00128481
0.00165838
0.00203224
0.00240073
0.00275796
0.00309787
0.00341443
0.00370172
0.00395416
0.00416661
0.00433457
0.00445428
0.00452288
0.00453848
0.00450025
0.00440842
0.00426433
0.00407033
0.00382976
0.00354679
0.00322634
0.00287387
0.00249524
0.00209656
0.00168401
0.0012635
0.00084074
0.00042323
1.78845e-05
-0.000398836
-0.000849414
0.00236373
0.00167315
0.00113297
0.000696842
0.000308798
-3.41434e-05
-0.000334306
-0.000597589
-0.000829564
-0.00103507
-0.00121842
-0.0013834
-0.00153321
-0.00167048
-0.00179729
-0.00191512
-0.00202497
-0.0021273
-0.00222212
-0.002309
-0.00238712
-0.00245531
-0.0025121
-0.00255579
-0.00258445
-0.00259606
-0.00258851
-0.0025597
-0.00250758
-0.00243024
-0.00232598
-0.00219338
-0.00203137
-0.00183929
-0.001617
-0.00136486
-0.00108388
-0.000775667
-0.000442536
-8.7466e-05
0.000285876
0.000673163
0.00106945
0.00146924
0.00186658
0.00225512
0.00262834
0.00297957
0.00330226
0.0035901
0.00383721
0.00403829
0.00418883
0.00428521
0.00432484
0.00430627
0.00422922
0.00409459
0.00390449
0.0036621
0.00337161
0.00303807
0.00266725
0.00226542
0.00183919
0.00139534
0.000940405
0.000480767
2.48378e-05
-0.000419592
-0.000878479
-0.00137648
0.00215013
0.00142775
0.000863531
0.000408783
4.59938e-06
-0.00035243
-0.000665021
-0.000939615
-0.00118228
-0.00139827
-0.00159228
-0.00176837
-0.00193
-0.00207999
-0.00222052
-0.00235318
-0.00247898
-0.00259838
-0.00271133
-0.00281734
-0.00291546
-0.00300438
-0.00308245
-0.00314776
-0.00319818
-0.0032314
-0.00324505
-0.00323673
-0.00320407
-0.00314484
-0.00305699
-0.00293875
-0.00278871
-0.00260587
-0.00238975
-0.00214044
-0.00185864
-0.00154576
-0.00120391
-0.000835973
-0.000445562
-3.70439e-05
0.000384505
0.00081336
0.00124322
0.00166734
0.0020786
0.00246975
0.00283349
0.00316272
0.00345069
0.00369123
0.00387893
0.0040093
0.00407892
0.0040856
0.00402843
0.00390779
0.00372543
0.00348434
0.00318869
0.00284367
0.00245534
0.00203042
0.00157611
0.00109983
0.00060887
0.000110349
-0.000386298
-0.000872305
-0.00137619
-0.00192494
0.0018628
0.00111081
0.000524196
5.20198e-05
-0.000367376
-0.000737834
-0.00106246
-0.00134824
-0.0016017
-0.00182852
-0.00203374
-0.00222171
-0.00239612
-0.00255994
-0.00271548
-0.00286439
-0.0030077
-0.00314586
-0.00327877
-0.00340582
-0.00352595
-0.00363769
-0.00373922
-0.00382839
-0.00390284
-0.00396
-0.00399719
-0.0040117
-0.00400083
-0.00396197
-0.00389271
-0.0037909
-0.00365473
-0.00348284
-0.00327437
-0.00302903
-0.00274724
-0.00243009
-0.00207948
-0.00169811
-0.00128951
-0.000858049
-0.000408893
5.20235e-05
0.00051808
0.000982072
0.00143634
0.00187293
0.00228378
0.00266088
0.00299654
0.00328359
0.00351558
0.00368701
0.0037935
0.00383197
0.00380072
0.00369952
0.00352964
0.0032938
0.00299609
0.00264183
0.00223737
0.00178993
0.00130732
0.00079772
0.000269221
-0.000270199
-0.000809972
-0.00134025
-0.00189231
-0.00249562
0.00149787
0.000718589
0.000111295
-0.000377055
-0.000810689
-0.00119388
-0.00153014
-0.00182694
-0.0020913
-0.0023293
-0.00254629
-0.00274691
-0.00293506
-0.00311387
-0.00328575
-0.0034524
-0.00361488
-0.00377359
-0.00392836
-0.00407851
-0.00422282
-0.00435968
-0.00448704
-0.00460257
-0.00470361
-0.00478734
-0.00485077
-0.00489082
-0.00490444
-0.00488865
-0.00484062
-0.00475779
-0.00463792
-0.0044792
-0.00428035
-0.0040407
-0.00376024
-0.00343975
-0.00308082
-0.00268592
-0.00225843
-0.00180266
-0.00132383
-0.000828051
-0.000322243
0.000185949
0.000688287
0.0011761
0.00164046
0.00207242
0.00246322
0.00280456
0.00308881
0.0033093
0.00346052
0.00353833
0.00354009
0.0034648
0.00331313
0.00308743
0.00279163
0.00243111
0.00201255
0.00154364
0.0010329
0.000489334
-7.80822e-05
-0.000660409
-0.00124582
-0.00182326
-0.002427
-0.00308917
0.00105178
0.000247652
-0.000378526
-0.000881744
-0.0013286
-0.00172381
-0.00207125
-0.00237893
-0.00265429
-0.0029038
-0.00313314
-0.00334721
-0.0035501
-0.00374509
-0.00393468
-0.00412063
-0.00430398
-0.00448512
-0.00466381
-0.00483923
-0.00501007
-0.00517451
-0.00533032
-0.00547492
-0.00560541
-0.00571865
-0.00581133
-0.00588002
-0.00592127
-0.00593169
-0.00590801
-0.00584721
-0.00574657
-0.00560381
-0.00541716
-0.00518546
-0.00490827
-0.00458594
-0.00421969
-0.00381169
-0.0033651
-0.0028841
-0.00237391
-0.00184076
-0.00129184
-0.000735206
-0.000179694
0.000365282
0.000889901
0.00138416
0.00183815
0.00224228
0.00258762
0.00286613
0.00307099
0.00319681
0.00323981
0.00319805
0.00307144
0.0028618
0.00257282
0.0022099
0.00177998
0.00129128
0.000753036
0.000175153
-0.00043239
-0.00105959
-0.00169323
-0.00232093
-0.00298017
-0.003706
0.0005213
-0.000305108
-0.000948293
-0.00146502
-0.00192406
-0.00233053
-0.00268872
-0.0030071
-0.00329357
-0.00355494
-0.00379721
-0.00402553
-0.00424417
-0.00445656
-0.00466528
-0.00487213
-0.00507815
-0.00528369
-0.00548843
-0.00569145
-0.00589129
-0.00608597
-0.00627304
-0.00644969
-0.00661273
-0.00675873
-0.00688403
-0.00698482
-0.00705725
-0.00709748
-0.00710176
-0.00706656
-0.00698866
-0.00686522
-0.00669394
-0.00647311
-0.00620175
-0.00587973
-0.00550781
-0.00508777
-0.00462245
-0.00411584
-0.00357308
-0.00300044
-0.00240533
-0.00179622
-0.00118248
-0.000574309
1.7538e-05
0.000581942
0.00110771
0.00158386
0.00199996
0.00234645
0.00261497
0.00279864
0.00289236
0.00289299
0.0027995
0.00261304
0.00233691
0.00197641
0.00153873
0.00103259
0.00046801
-0.000144148
-0.000792804
-0.00146678
-0.00215129
-0.00283251
-0.00355141
-0.00434619
-9.64198e-05
-0.000942428
-0.00160067
-0.0021295
-0.00259964
-0.00301661
-0.0033851
-0.00371402
-0.00401168
-0.00428527
-0.00454107
-0.00478445
-0.00501988
-0.00525091
-0.0054802
-0.00570959
-0.00594012
-0.0061721
-0.00640512
-0.00663817
-0.00686963
-0.00709735
-0.00731869
-0.00753056
-0.00772953
-0.00791183
-0.00807344
-0.00821017
-0.00831773
-0.0083918
-0.00842814
-0.00842266
-0.00837157
-0.00827143
-0.00811933
-0.00791294
-0.00765069
-0.00733183
-0.00695659
-0.00652625
-0.00604327
-0.00551131
-0.00493534
-0.00432162
-0.00367769
-0.00301235
-0.00233554
-0.00165817
-0.000991993
-0.000349306
0.000257324
0.000815383
0.00131277
0.00173819
0.0020815
0.00233412
0.00248934
0.00254259
0.00249167
0.00233682
0.00208077
0.00172866
0.00128779
0.000767397
0.000178275
-0.000467653
-0.00115812
-0.00188063
-0.00261868
-0.00335684
-0.00413987
-0.00500937
-0.000803831
-0.00166665
-0.00233793
-0.00287743
-0.00335756
-0.00378426
-0.00416257
-0.00450185
-0.00481081
-0.00509696
-0.00536686
-0.00562613
-0.00587938
-0.0061303
-0.00638163
-0.00663523
-0.00689215
-0.00715264
-0.00741624
-0.00768182
-0.00794763
-0.00821134
-0.00847009
-0.00872058
-0.00895906
-0.00918145
-0.00938337
-0.00956022
-0.00970725
-0.00981964
-0.00989261
-0.00992149
-0.00990184
-0.00982961
-0.00970116
-0.00951349
-0.00926433
-0.00895224
-0.0085768
-0.00813871
-0.00763989
-0.0070836
-0.00647451
-0.00581875
-0.00512392
-0.00439908
-0.00365464
-0.00290226
-0.00215466
-0.00142537
-0.000728412
-7.79768e-05
0.000512
0.00102826
0.00145865
0.00179261
0.00202151
0.00213907
0.00214163
0.00202827
0.00180096
0.00146445
0.00102609
0.000495568
-0.000115523
-0.000794151
-0.00152674
-0.00229937
-0.00309362
-0.00389225
-0.00474417
-0.00569463
-0.00160295
-0.00247971
-0.00316195
-0.00371064
-0.00419964
-0.00463526
-0.00502291
-0.00537237
-0.0056927
-0.00599175
-0.00627633
-0.00655228
-0.00682438
-0.00709642
-0.00737123
-0.00765071
-0.00793589
-0.008227
-0.00852351
-0.00882418
-0.00912713
-0.00942986
-0.00972932
-0.0100219
-0.0103037
-0.0105702
-0.0108167
-0.0110382
-0.0112294
-0.011385
-0.0114996
-0.0115679
-0.0115849
-0.0115458
-0.0114461
-0.0112822
-0.0110508
-0.0107499
-0.0103783
-0.00993579
-0.00942382
-0.00884506
-0.00820375
-0.00750578
-0.00675868
-0.00597167
-0.00515556
-0.0043227
-0.00348676
-0.00266252
-0.00186554
-0.0011118
-0.00041724
0.000202693
0.000733581
0.00116255
0.00147876
0.00167387
0.00174241
0.00168202
0.00149362
0.00118137
0.000752514
0.000217087
-0.000412509
-0.00112208
-0.00189666
-0.00272071
-0.00357373
-0.00443647
-0.00536229
-0.00640043
-0.00249532
-0.00338307
-0.00407416
-0.00463054
-0.00512726
-0.00557098
-0.00596748
-0.00632691
-0.00665868
-0.00697093
-0.00727073
-0.00756411
-0.00785603
-0.00815039
-0.00845009
-0.00875707
-0.00907237
-0.00939618
-0.00972791
-0.0100662
-0.0104092
-0.010754
-0.0110975
-0.0114359
-0.0117649
-0.0120797
-0.0123752
-0.012646
-0.0128864
-0.0130904
-0.0132521
-0.0133656
-0.0134249
-0.0134247
-0.0133596
-0.013225
-0.013017
-0.0127325
-0.0123694
-0.0119268
-0.0114053
-0.0108069
-0.0101352
-0.00939576
-0.00859589
-0.00774482
-0.00685368
-0.0059354
-0.00500456
-0.0040772
-0.00317044
-0.00230216
-0.00149048
-0.000753228
-0.000107386
0.000431552
0.000850165
0.00113767
0.0012864
0.00129219
0.00115456
0.000876814
0.000465893
-6.79384e-05
-0.000711524
-0.00144948
-0.00226531
-0.00314175
-0.00405597
-0.00498647
-0.00599147
-0.00712444
-0.00348201
-0.00437775
-0.00507553
-0.00563809
-0.00614137
-0.00659238
-0.00699721
-0.00736636
-0.00770959
-0.00803529
-0.00835079
-0.0086623
-0.00897495
-0.00929275
-0.00961866
-0.00995469
-0.0103019
-0.0106604
-0.0110296
-0.0114081
-0.0117938
-0.0121838
-0.0125748
-0.0129626
-0.0133428
-0.0137102
-0.0140594
-0.0143845
-0.0146792
-0.0149371
-0.0151517
-0.0153162
-0.0154242
-0.0154691
-0.0154449
-0.0153461
-0.0151676
-0.0149055
-0.0145567
-0.0141193
-0.0135928
-0.0129786
-0.0122794
-0.0115003
-0.0106482
-0.00973211
-0.00876344
-0.00775555
-0.00672385
-0.00568558
-0.00465945
-0.00366532
-0.00272359
-0.00185473
-0.00107853
-0.000413457
0.000124092
0.000520463
0.000765363
0.000852357
0.0007792
0.000547985
0.000165065
-0.000359231
-0.00101108
-0.00177387
-0.00262952
-0.00355887
-0.00453649
-0.0055384
-0.00662805
-0.00786344
-0.00456356
-0.00546427
-0.0061666
-0.00673381
-0.00724248
-0.00769992
-0.00811253
-0.00849114
-0.00884578
-0.00918512
-0.00951671
-0.00984696
-0.0101811
-0.0105233
-0.0108767
-0.0112432
-0.0116239
-0.012019
-0.0124279
-0.012849
-0.0132801
-0.0137183
-0.01416
-0.0146009
-0.0150362
-0.0154606
-0.0158681
-0.0162525
-0.016607
-0.0169246
-0.017198
-0.01742
-0.017583
-0.0176799
-0.0177035
-0.0176474
-0.0175055
-0.0172726
-0.0169446
-0.0165184
-0.0159927
-0.0153675
-0.0146449
-0.013829
-0.0129262
-0.0119454
-0.0108978
-0.00979707
-0.00865938
-0.00750306
-0.00634841
-0.00521725
-0.00413243
-0.00311721
-0.00219448
-0.00138602
-0.000711631
-0.000188299
0.000170549
0.000355714
0.000362693
0.000191947
-0.000151094
-0.000656288
-0.00130927
-0.00209224
-0.00298543
-0.00396762
-0.00501052
-0.00608743
-0.00726736
-0.00861316
-0.00573997
-0.00664265
-0.00734739
-0.00791775
-0.00843064
-0.00889365
-0.00931346
-0.00970118
-0.0100671
-0.0104202
-0.0107681
-0.0111176
-0.0114739
-0.0118414
-0.0122232
-0.0126213
-0.0130371
-0.0134705
-0.0139209
-0.0143868
-0.0148659
-0.0153551
-0.0158507
-0.0163482
-0.0168426
-0.0173282
-0.0177987
-0.0182474
-0.0186671
-0.0190502
-0.0193887
-0.0196746
-0.0198996
-0.0200555
-0.0201343
-0.0201284
-0.0200306
-0.0198344
-0.0195345
-0.0191268
-0.0186083
-0.0179782
-0.0172373
-0.0163888
-0.0154384
-0.0143943
-0.0132675
-0.012072
-0.0108242
-0.00954365
-0.00825201
-0.00697312
-0.00573232
-0.0045558
-0.00346983
-0.00249985
-0.00166946
-0.000999532
-0.000507157
-0.000204884
-0.000100035
-0.000194297
-0.000483599
-0.000958305
-0.0016037
-0.00240088
-0.00332832
-0.00436258
-0.00547226
-0.00662756
-0.00790351
-0.0093681
-0.00701074
-0.00791244
-0.00861748
-0.0091895
-0.00970544
-0.0101731
-0.0105995
-0.010996
-0.011373
-0.0117397
-0.0121041
-0.012473
-0.0128519
-0.0132453
-0.0136563
-0.0140872
-0.0145391
-0.0150122
-0.0155059
-0.0160186
-0.0165479
-0.0170908
-0.0176432
-0.0182006
-0.0187578
-0.0193087
-0.0198467
-0.0203647
-0.0208549
-0.0213092
-0.0217191
-0.0220755
-0.0223695
-0.0225918
-0.0227335
-0.0227856
-0.0227399
-0.0225886
-0.022325
-0.0219435
-0.0214399
-0.0208119
-0.0200591
-0.0191835
-0.0181897
-0.0170853
-0.0158806
-0.0145896
-0.0132291
-0.0118192
-0.0103832
-0.00894665
-0.00753744
-0.00618485
-0.00491869
-0.00376838
-0.00276182
-0.00192423
-0.00127702
-0.000836722
-0.000614133
-0.000613703
-0.000833253
-0.00126408
-0.0018914
-0.0026953
-0.00365252
-0.00473725
-0.00591464
-0.00715151
-0.00852929
-0.0101214
-0.00837479
-0.00927267
-0.009976
-0.0105482
-0.0110661
-0.0115375
-0.0119698
-0.0123744
-0.0127622
-0.0131424
-0.0135232
-0.0139116
-0.0143132
-0.0147327
-0.0151735
-0.0156377
-0.0161266
-0.0166406
-0.0171789
-0.01774
-0.0183215
-0.0189202
-0.0195321
-0.0201524
-0.0207757
-0.0213957
-0.0220055
-0.0225975
-0.0231635
-0.0236947
-0.0241819
-0.0246155
-0.0249855
-0.0252817
-0.025494
-0.0256124
-0.0256272
-0.0255294
-0.0253107
-0.0249641
-0.0244839
-0.0238661
-0.0231089
-0.0222129
-0.0211815
-0.0200211
-0.0187414
-0.0173559
-0.0158815
-0.0143389
-0.0127523
-0.0111493
-0.00956019
-0.00801723
-0.00655403
-0.00520429
-0.0040006
-0.00297311
-0.00214815
-0.00154699
-0.00118463
-0.00106902
-0.00120051
-0.00157187
-0.00216864
-0.00297009
-0.00395125
-0.00508382
-0.00632921
-0.00765049
-0.00913588
-0.0108644
-0.00983053
-0.0107219
-0.0114216
-0.0119926
-0.0125113
-0.0129856
-0.013423
-0.0138352
-0.0142331
-0.0146263
-0.0150232
-0.0154308
-0.015855
-0.0163007
-0.0167712
-0.017269
-0.0177954
-0.0183509
-0.0189347
-0.0195454
-0.0201805
-0.0208369
-0.0215105
-0.0221963
-0.0228887
-0.0235813
-0.0242667
-0.024937
-0.0255836
-0.0261971
-0.0267676
-0.0272847
-0.0277375
-0.0281149
-0.0284057
-0.0285986
-0.0286826
-0.0286472
-0.0284826
-0.0281802
-0.0277325
-0.0271339
-0.0263809
-0.0254725
-0.0244105
-0.0232001
-0.0218499
-0.0203726
-0.018785
-0.0171079
-0.0153664
-0.0135897
-0.0118103
-0.0100636
-0.00838708
-0.00681888
-0.00539669
-0.00415611
-0.00312913
-0.00234246
-0.00181619
-0.00156257
-0.0015853
-0.00187927
-0.00243081
-0.00321873
-0.00421644
-0.00539304
-0.00670591
-0.00811398
-0.00971267
-0.011587
-0.0113759
-0.0122583
-0.0129525
-0.0135211
-0.0140394
-0.0145156
-0.0149573
-0.0153763
-0.0157837
-0.0161892
-0.0166014
-0.0170276
-0.017474
-0.0179452
-0.0184452
-0.0189764
-0.0195402
-0.0201373
-0.020767
-0.0214279
-0.0221177
-0.0228331
-0.0235699
-0.0243232
-0.0250872
-0.0258552
-0.0266196
-0.0273722
-0.0281037
-0.0288044
-0.0294636
-0.0300702
-0.0306124
-0.0310782
-0.0314551
-0.0317306
-0.0318924
-0.0319285
-0.0318274
-0.0315787
-0.0311733
-0.0306037
-0.0298644
-0.0289527
-0.0278686
-0.0266157
-0.0252012
-0.0236367
-0.0219383
-0.020127
-0.0182282
-0.0162723
-0.014294
-0.0123316
-0.0104264
-0.00862128
-0.00695923
-0.00548187
-0.00422748
-0.00322909
-0.00251275
-0.002096
-0.00198678
-0.00218292
-0.00267222
-0.00343343
-0.00443851
-0.00565396
-0.00703283
-0.00852951
-0.010247
-0.0122765
-0.0130082
-0.0138794
-0.0145667
-0.0151316
-0.0156485
-0.0161257
-0.0165707
-0.0169955
-0.0174114
-0.0178282
-0.0182548
-0.0186985
-0.0191659
-0.0196618
-0.0201903
-0.020754
-0.0213546
-0.0219928
-0.0226682
-0.0233793
-0.024124