/*--------------------------------*- C++ -*----------------------------------*\
  =========                 |
  \\      /  F ield         | OpenFOAM: The Open Source CFD Toolbox
   \\    /   O peration     | Website:  https://openfoam.org
    \\  /    A nd           | Version:  dev
     \\/     M anipulation  |
\*---------------------------------------------------------------------------*/
FoamFile
{
    format      ascii;
    class       volVectorField;
    location    "33.75";
    object      U;
}
// * * * * * * * * * * * * * * * * * * * * * * * * * * * * * * * * * * * * * //

dimensions      [0 1 -1 0 0 0 0];

internalField   nonuniform List<vector> 
5184
(
(1.23645e-05 -1.26719e-05 0)
(4.52288e-05 -2.08681e-05 0)
(8.03677e-05 -1.72402e-05 0)
(9.6017e-05 -8.19352e-06 0)
(8.2187e-05 2.6702e-06 0)
(3.64898e-05 1.36188e-05 0)
(-4.05291e-05 2.38475e-05 0)
(-0.000146851 3.30505e-05 0)
(-0.000279685 4.11083e-05 0)
(-0.000435972 4.80267e-05 0)
(-0.000612592 5.38677e-05 0)
(-0.00080651 5.87162e-05 0)
(-0.00101486 6.26643e-05 0)
(-0.00123497 6.58032e-05 0)
(-0.00146439 6.82178e-05 0)
(-0.00170085 6.99837e-05 0)
(-0.00194229 7.1165e-05 0)
(-0.00218679 7.18142e-05 0)
(-0.00243256 7.1972e-05 0)
(-0.00267793 7.16681e-05 0)
(-0.00292128 7.09217e-05 0)
(-0.00316106 6.97435e-05 0)
(-0.00339573 6.81362e-05 0)
(-0.00362377 6.60969e-05 0)
(-0.00384365 6.36184e-05 0)
(-0.00405384 6.06911e-05 0)
(-0.00425278 5.73043e-05 0)
(-0.00443888 5.34485e-05 0)
(-0.00461058 4.91165e-05 0)
(-0.0047663 4.43054e-05 0)
(-0.00490447 3.90175e-05 0)
(-0.00502358 3.32622e-05 0)
(-0.00512215 2.70567e-05 0)
(-0.00519882 2.04269e-05 0)
(-0.00525232 1.34087e-05 0)
(-0.00528153 6.04759e-06 0)
(-0.00528553 -1.60015e-06 0)
(-0.00526356 -9.46808e-06 0)
(-0.00521514 -1.74797e-05 0)
(-0.00514004 -2.5549e-05 0)
(-0.00503831 -3.35818e-05 0)
(-0.00491033 -4.14764e-05 0)
(-0.00475682 -4.91257e-05 0)
(-0.00457882 -5.64187e-05 0)
(-0.00437774 -6.32426e-05 0)
(-0.00415532 -6.94855e-05 0)
(-0.00391368 -7.50386e-05 0)
(-0.00365523 -7.9799e-05 0)
(-0.0033827 -8.36721e-05 0)
(-0.00309909 -8.65743e-05 0)
(-0.00280765 -8.84351e-05 0)
(-0.0025118 -8.91989e-05 0)
(-0.00221511 -8.88275e-05 0)
(-0.00192124 -8.73012e-05 0)
(-0.00163385 -8.46196e-05 0)
(-0.0013566 -8.08024e-05 0)
(-0.00109301 -7.58889e-05 0)
(-0.000846468 -6.99377e-05 0)
(-0.000620109 -6.30265e-05 0)
(-0.000416788 -5.52511e-05 0)
(-0.000239004 -4.67255e-05 0)
(-8.88328e-05 -3.7583e-05 0)
(3.21359e-05 -2.79788e-05 0)
(0.000122889 -1.80955e-05 0)
(0.000183094 -8.15814e-06 0)
(0.000213255 1.53887e-06 0)
(0.000214957 1.05715e-05 0)
(0.000191253 1.83021e-05 0)
(0.000147172 2.37186e-05 0)
(9.08078e-05 2.51302e-05 0)
(3.66301e-05 1.98518e-05 0)
(6.22596e-06 6.24563e-06 0)
(2.08714e-05 -4.58319e-05 0)
(6.56766e-05 -6.56775e-05 0)
(9.4773e-05 -4.05444e-05 0)
(7.28698e-05 7.64099e-06 0)
(-1.88701e-05 6.56845e-05 0)
(-0.000187266 0.000125999 0)
(-0.000432901 0.000184305 0)
(-0.000752561 0.000238354 0)
(-0.0011407 0.000287006 0)
(-0.00159053 0.000329818 0)
(-0.00209472 0.00036675 0)
(-0.0026458 0.000397993 0)
(-0.00323647 0.000423858 0)
(-0.00385975 0.000444711 0)
(-0.00450901 0.00046093 0)
(-0.00517807 0.000472874 0)
(-0.00586112 0.000480865 0)
(-0.00655273 0.000485178 0)
(-0.00724774 0.000486038 0)
(-0.00794129 0.000483615 0)
(-0.00862866 0.00047803 0)
(-0.00930532 0.000469361 0)
(-0.00996677 0.000457645 0)
(-0.0106086 0.000442893 0)
(-0.0112264 0.000425091 0)
(-0.0118158 0.000404217 0)
(-0.0123723 0.000380247 0)
(-0.0128916 0.000353163 0)
(-0.0133692 0.000322966 0)
(-0.0138008 0.000289682 0)
(-0.0141822 0.000253372 0)
(-0.0145093 0.000214139 0)
(-0.0147781 0.000172133 0)
(-0.0149851 0.000127556 0)
(-0.0151269 8.06696e-05 0)
(-0.0152008 3.17912e-05 0)
(-0.0152044 -1.86998e-05 0)
(-0.0151358 -7.03651e-05 0)
(-0.014994 -0.00012271 0)
(-0.0147786 -0.000175186 0)
(-0.0144899 -0.0002272 0)
(-0.0141293 -0.000278119 0)
(-0.0136988 -0.000327283 0)
(-0.0132014 -0.000374011 0)
(-0.0126412 -0.000417621 0)
(-0.0120229 -0.000457435 0)
(-0.0113524 -0.000492802 0)
(-0.0106362 -0.000523107 0)
(-0.0098817 -0.000547788 0)
(-0.00909706 -0.000566352 0)
(-0.00829096 -0.000578386 0)
(-0.00747256 -0.00058357 0)
(-0.00665142 -0.000581688 0)
(-0.00583726 -0.000572637 0)
(-0.00503987 -0.000556433 0)
(-0.00426891 -0.000533215 0)
(-0.00353378 -0.000503247 0)
(-0.00284339 -0.000466918 0)
(-0.00220602 -0.000424744 0)
(-0.00162916 -0.000377364 0)
(-0.00111927 -0.000325546 0)
(-0.000681654 -0.000270196 0)
(-0.000320232 -0.000212376 0)
(-3.72837e-05 -0.000153337 0)
(0.000166826 -9.45913e-05 0)
(0.000294019 -3.80149e-05 0)
(0.000349042 1.39315e-05 0)
(0.000340169 5.79409e-05 0)
(0.000279896 8.94194e-05 0)
(0.000186076 0.000101872 0)
(8.63788e-05 8.65322e-05 0)
(1.96809e-05 3.64953e-05 0)
(1.76489e-05 -8.12918e-05 0)
(4.13653e-05 -9.50195e-05 0)
(1.96477e-05 -1.91249e-05 0)
(-8.39482e-05 0.00010594 0)
(-0.000290207 0.000254666 0)
(-0.000607877 0.000410607 0)
(-0.00103822 0.00056345 0)
(-0.00157742 0.000707058 0)
(-0.00221832 0.00083798 0)
(-0.00295173 0.000954508 0)
(-0.00376736 0.00105605 0)
(-0.00465451 0.00114269 0)
(-0.00560245 0.00121496 0)
(-0.00660072 0.00127357 0)
(-0.00763927 0.00131934 0)
(-0.00870853 0.00135311 0)
(-0.00979943 0.00137564 0)
(-0.0109033 0.0013876 0)
(-0.0120121 0.00138955 0)
(-0.0131178 0.00138195 0)
(-0.0142129 0.00136512 0)
(-0.01529 0.00133927 0)
(-0.0163419 0.00130455 0)
(-0.0173615 0.00126101 0)
(-0.0183416 0.00120866 0)
(-0.0192753 0.0011475 0)
(-0.0201555 0.00107751 0)
(-0.0209751 0.000998702 0)
(-0.0217275 0.00091115 0)
(-0.0224057 0.000814989 0)
(-0.0230033 0.000710449 0)
(-0.0235138 0.000597877 0)
(-0.0239315 0.000477746 0)
(-0.0242508 0.000350671 0)
(-0.0244668 0.000217418 0)
(-0.0245753 7.89107e-05 0)
(-0.024573 -6.3771e-05 0)
(-0.0244572 -0.000209391 0)
(-0.0242265 -0.000356567 0)
(-0.0238806 -0.000503781 0)
(-0.0234203 -0.000649395 0)
(-0.0228477 -0.000791679 0)
(-0.0221664 -0.00092883 0)
(-0.0213811 -0.001059 0)
(-0.020498 -0.00118035 0)
(-0.0195249 -0.00129105 0)
(-0.0184707 -0.00138934 0)
(-0.0173456 -0.00147359 0)
(-0.0161609 -0.00154229 0)
(-0.0149291 -0.00159413 0)
(-0.0136635 -0.00162801 0)
(-0.0123781 -0.00164308 0)
(-0.0110876 -0.00163879 0)
(-0.00980667 -0.00161488 0)
(-0.00855027 -0.00157142 0)
(-0.00733309 -0.00150882 0)
(-0.00616938 -0.00142781 0)
(-0.00507268 -0.0013295 0)
(-0.00405552 -0.00121533 0)
(-0.00312918 -0.00108712 0)
(-0.00230341 -0.000947035 0)
(-0.00158608 -0.000797646 0)
(-0.000982951 -0.000641959 0)
(-0.000497239 -0.000483507 0)
(-0.000129257 -0.00032649 0)
(0.000124065 -0.000175996 0)
(0.00026982 -3.83414e-05 0)
(0.000319857 7.84559e-05 0)
(0.000291317 0.000164097 0)
(0.000207432 0.000205414 0)
(0.000102467 0.0001863 0)
(2.498e-05 9.04052e-05 0)
(8.84616e-06 -9.77453e-05 0)
(-6.98917e-06 -7.31466e-05 0)
(-0.000107548 8.47885e-05 0)
(-0.000322329 0.000318376 0)
(-0.000669578 0.000590118 0)
(-0.0011577 0.000874388 0)
(-0.00178744 0.00115415 0)
(-0.00255404 0.00141863 0)
(-0.00344894 0.00166134 0)
(-0.00446112 0.00187875 0)
(-0.0055781 0.00206931 0)
(-0.00678667 0.00223276 0)
(-0.00807342 0.00236966 0)
(-0.0094251 0.00248105 0)
(-0.0108288 0.0025682 0)
(-0.0122721 0.00263245 0)
(-0.0137431 0.00267506 0)
(-0.0152303 0.0026972 0)
(-0.0167229 0.00269985 0)
(-0.0182103 0.00268379 0)
(-0.0196822 0.00264962 0)
(-0.0211288 0.00259777 0)
(-0.0225402 0.00252851 0)
(-0.0239068 0.002442 0)
(-0.025219 0.00233831 0)
(-0.0264675 0.0022175 0)
(-0.0276427 0.00207961 0)
(-0.0287355 0.00192475 0)
(-0.0297368 0.00175314 0)
(-0.0306376 0.00156512 0)
(-0.0314293 0.00136122 0)
(-0.0321039 0.00114217 0)
(-0.0326537 0.000908949 0)
(-0.0330715 0.000662794 0)
(-0.0333513 0.000405219 0)
(-0.0334878 0.000138028 0)
(-0.0334766 -0.000136692 0)
(-0.0333149 -0.000416569 0)
(-0.0330009 -0.000698968 0)
(-0.0325344 -0.000981012 0)
(-0.0319168 -0.00125961 0)
(-0.0311511 -0.00153151 0)
(-0.030242 -0.00179334 0)
(-0.0291961 -0.00204164 0)
(-0.0280215 -0.00227298 0)
(-0.0267284 -0.00248397 0)
(-0.0253283 -0.00267135 0)
(-0.0238348 -0.00283208 0)
(-0.0222625 -0.00296338 0)
(-0.0206275 -0.00306283 0)
(-0.0189472 -0.00312841 0)
(-0.0172396 -0.00315857 0)
(-0.0155236 -0.00315229 0)
(-0.0138183 -0.00310912 0)
(-0.0121428 -0.00302922 0)
(-0.0105162 -0.00291337 0)
(-0.00895687 -0.00276299 0)
(-0.00748214 -0.0025802 0)
(-0.0061082 -0.00236774 0)
(-0.00484954 -0.00212907 0)
(-0.00371866 -0.00186835 0)
(-0.00272567 -0.00159046 0)
(-0.00187789 -0.00130114 0)
(-0.00117946 -0.00100704 0)
(-0.000630841 -0.000715977 0)
(-0.000228331 -0.00043724 0)
(3.65462e-05 -0.000181967 0)
(0.000177688 3.62313e-05 0)
(0.000214824 0.000200638 0)
(0.000174127 0.000290855 0)
(9.30444e-05 0.000282588 0)
(2.40315e-05 0.0001473 0)
(-2.12164e-06 -8.44163e-05 0)
(-6.72802e-05 2.08922e-05 0)
(-0.000264092 0.000295459 0)
(-0.000609755 0.000668052 0)
(-0.00111677 0.00109086 0)
(-0.00179134 0.00152998 0)
(-0.00263248 0.00196195 0)
(-0.00363381 0.00237131 0)
(-0.00478522 0.00274833 0)
(-0.00607397 0.00308738 0)
(-0.00748571 0.00338568 0)
(-0.00900521 0.00364241 0)
(-0.0106169 0.00385803 0)
(-0.0123051 0.00403378 0)
(-0.0140546 0.00417133 0)
(-0.0158507 0.00427248 0)
(-0.0176788 0.00433904 0)
(-0.0195252 0.00437266 0)
(-0.0213765 0.00437475 0)
(-0.0232197 0.00434648 0)
(-0.0250423 0.00428877 0)
(-0.0268319 0.00420228 0)
(-0.0285765 0.00408746 0)
(-0.030264 0.00394461 0)
(-0.0318829 0.00377393 0)
(-0.0334213 0.00357556 0)
(-0.0348678 0.0033497 0)
(-0.0362111 0.00309662 0)
(-0.0374402 0.00281676 0)
(-0.0385441 0.00251078 0)
(-0.0395127 0.00217964 0)
(-0.0403361 0.00182461 0)
(-0.0410052 0.00144733 0)
(-0.0415116 0.00104986 0)
(-0.0418482 0.000634685 0)
(-0.0420087 0.000204716 0)
(-0.0419883 -0.000236683 0)
(-0.0417837 -0.000685722 0)
(-0.0413929 -0.00113821 0)
(-0.0408161 -0.0015896 0)
(-0.040055 -0.00203501 0)
(-0.0391136 -0.00246934 0)
(-0.0379976 -0.00288728 0)
(-0.0367151 -0.00328344 0)
(-0.0352761 -0.00365246 0)
(-0.0336926 -0.00398906 0)
(-0.0319788 -0.00428817 0)
(-0.0301507 -0.00454505 0)
(-0.028226 -0.00475541 0)
(-0.0262239 -0.00491548 0)
(-0.0241651 -0.00502213 0)
(-0.0220712 -0.00507298 0)
(-0.0199646 -0.00506644 0)
(-0.0178681 -0.00500185 0)
(-0.0158047 -0.00487947 0)
(-0.0137969 -0.00470054 0)
(-0.0118667 -0.00446735 0)
(-0.0100348 -0.00418322 0)
(-0.00832054 -0.00385252 0)
(-0.00674124 -0.00348073 0)
(-0.00531184 -0.00307441 0)
(-0.00404447 -0.0026413 0)
(-0.002948 -0.0021904 0)
(-0.00202757 -0.00173212 0)
(-0.00128412 -0.00127851 0)
(-0.000713886 -0.000843628 0)
(-0.000307873 -0.000443956 0)
(-5.13082e-05 -9.90592e-05 0)
(7.66852e-05 0.000167727 0)
(0.000103618 0.000328667 0)
(6.75188e-05 0.000351021 0)
(1.9669e-05 0.00019416 0)
(-1.36935e-05 -3.7534e-05 0)
(-0.000132831 0.000197368 0)
(-0.000435826 0.000626925 0)
(-0.000924653 0.00117039 0)
(-0.00160395 0.00177181 0)
(-0.00247627 0.00239031 0)
(-0.00353777 0.00299685 0)
(-0.00477977 0.00357161 0)
(-0.00619016 0.00410176 0)
(-0.00775442 0.00457952 0)
(-0.00945642 0.00500081 0)
(-0.0112791 0.00536415 0)
(-0.013205 0.00566977 0)
(-0.0152165 0.00591905 0)
(-0.0172964 0.00611396 0)
(-0.0194277 0.00625677 0)
(-0.0215941 0.00634976 0)
(-0.0237795 0.00639506 0)
(-0.0259685 0.00639454 0)
(-0.0281459 0.00634977 0)
(-0.030297 0.00626198 0)
(-0.0324074 0.0061321 0)
(-0.034463 0.0059608 0)
(-0.0364498 0.00574856 0)
(-0.038354 0.00549573 0)
(-0.0401619 0.00520263 0)
(-0.0418602 0.00486963 0)
(-0.0434358 0.00449727 0)
(-0.0448758 0.00408631 0)
(-0.0461677 0.00363785 0)
(-0.0472997 0.00315337 0)
(-0.0482607 0.00263482 0)
(-0.0490401 0.00208469 0)
(-0.0496287 0.00150603 0)
(-0.0500182 0.000902487 0)
(-0.0502017 0.000278309 0)
(-0.0501738 -0.000361636 0)
(-0.0499308 -0.00101189 0)
(-0.049471 -0.00166646 0)
(-0.0487944 -0.00231882 0)
(-0.0479035 -0.00296205 0)
(-0.0468026 -0.00358889 0)
(-0.0454988 -0.00419182 0)
(-0.0440012 -0.00476324 0)
(-0.0423214 -0.00529554 0)
(-0.0404731 -0.00578129 0)
(-0.0384727 -0.00621336 0)
(-0.0363383 -0.00658506 0)
(-0.0340901 -0.00689034 0)
(-0.0317501 -0.00712391 0)
(-0.0293418 -0.00728136 0)
(-0.0268899 -0.00735933 0)
(-0.0244199 -0.00735562 0)
(-0.0219578 -0.00726927 0)
(-0.0195298 -0.00710067 0)
(-0.0171617 -0.00685161 0)
(-0.0148785 -0.00652532 0)
(-0.012704 -0.00612652 0)
(-0.0106604 -0.00566146 0)
(-0.0087675 -0.00513792 0)
(-0.00704265 -0.00456523 0)
(-0.00549992 -0.00395438 0)
(-0.00414977 -0.00331807 0)
(-0.00299857 -0.00267091 0)
(-0.00204809 -0.00202961 0)
(-0.00129507 -0.00141338 0)
(-0.000730725 -0.000844349 0)
(-0.000340321 -0.00034821 0)
(-0.000102901 4.50627e-05 0)
(9.17276e-06 0.000300528 0)
(3.25068e-05 0.00037737 0)
(1.36237e-05 0.000224543 0)
(-2.51855e-05 4.40957e-05 0)
(-0.000200015 0.000461287 0)
(-0.000614095 0.00108711 0)
(-0.00125294 0.00183479 0)
(-0.0021121 0.00264248 0)
(-0.00318941 0.00346392 0)
(-0.0044773 0.00426547 0)
(-0.00596406 0.00502369 0)
(-0.00763519 0.00572296 0)
(-0.00947414 0.00635358 0)
(-0.0114629 0.00691026 0)
(-0.0135827 0.00739081 0)
(-0.0158143 0.00779525 0)
(-0.0181384 0.00812501 0)
(-0.0205361 0.00838236 0)
(-0.0229885 0.00856996 0)
(-0.0254775 0.00869056 0)
(-0.0279852 0.00874674 0)
(-0.0304942 0.00874082 0)
(-0.0329877 0.00867475 0)
(-0.0354489 0.00855009 0)
(-0.0378617 0.00836807 0)
(-0.04021 0.00812958 0)
(-0.042478 0.00783531 0)
(-0.0446501 0.00748582 0)
(-0.046711 0.00708164 0)
(-0.0486456 0.00662341 0)
(-0.0504391 0.00611198 0)
(-0.052077 0.00554853 0)
(-0.0535456 0.00493468 0)
(-0.0548315 0.00427258 0)
(-0.0559224 0.003565 0)
(-0.0568067 0.00281539 0)
(-0.0574741 0.00202796 0)
(-0.0579154 0.0012077 0)
(-0.0581233 0.000360391 0)
(-0.0580917 -0.000507407 0)
(-0.0578168 -0.00138835 0)
(-0.0572967 -0.00227441 0)
(-0.0565316 -0.00315687 0)
(-0.0555243 -0.00402652 0)
(-0.0542798 -0.00487369 0)
(-0.0528057 -0.00568843 0)
(-0.0511124 -0.00646063 0)
(-0.0492126 -0.00718025 0)
(-0.0471217 -0.00783742 0)
(-0.0448575 -0.00842273 0)
(-0.0424403 -0.00892734 0)
(-0.0398924 -0.00934324 0)
(-0.0372381 -0.00966341 0)
(-0.0345033 -0.00988203 0)
(-0.0317153 -0.00999463 0)
(-0.0289026 -0.00999828 0)
(-0.0260938 -0.00989169 0)
(-0.0233181 -0.00967535 0)
(-0.0206043 -0.00935163 0)
(-0.0179801 -0.00892478 0)
(-0.0154722 -0.00840108 0)
(-0.0131054 -0.0077888 0)
(-0.0109022 -0.00709825 0)
(-0.00888188 -0.00634182 0)
(-0.00706077 -0.00553402 0)
(-0.00545106 -0.0046916 0)
(-0.00406059 -0.00383366 0)
(-0.00289235 -0.00298189 0)
(-0.00194407 -0.00216088 0)
(-0.0012078 -0.00139859 0)
(-0.000669582 -0.000726843 0)
(-0.000309212 -0.000182151 0)
(-9.98514e-05 0.000193681 0)
(-7.70779e-06 0.000352531 0)
(6.86261e-06 0.000235018 0)
(-3.63403e-05 0.000160468 0)
(-0.000266948 0.000814521 0)
(-0.000793775 0.00167979 0)
(-0.00158569 0.00266627 0)
(-0.00262853 0.00370826 0)
(-0.00391474 0.00475572 0)
(-0.00543236 0.0057716 0)
(-0.00716608 0.00672962 0)
(-0.0090986 0.00761197 0)
(-0.011211 0.00840738 0)
(-0.0134834 0.00910952 0)
(-0.0158952 0.00971566 0)
(-0.0184254 0.0102256 0)
(-0.0210533 0.0106409 0)
(-0.0237583 0.0109641 0)
(-0.0265199 0.0111983 0)
(-0.0293185 0.0113465 0)
(-0.0321345 0.0114119 0)
(-0.034949 0.0113971 0)
(-0.0377434 0.0113046 0)
(-0.0404995 0.0111361 0)
(-0.0431994 0.0108933 0)
(-0.0458254 0.0105772 0)
(-0.04836 0.0101888 0)
(-0.0507862 0.00972885 0)
(-0.053087 0.00919819 0)
(-0.0552458 0.00859776 0)
(-0.0572463 0.00792879 0)
(-0.0590729 0.00719296 0)
(-0.0607102 0.0063925 0)
(-0.0621439 0.00553032 0)
(-0.0633604 0.00461013 0)
(-0.0643471 0.00363649 0)
(-0.0650929 0.00261489 0)
(-0.0655878 0.00155182 0)
(-0.0658238 0.000454721 0)
(-0.0657945 -0.000667947 0)
(-0.0654957 -0.0018068 0)
(-0.0649252 -0.00295155 0)
(-0.0640835 -0.00409115 0)
(-0.0629734 -0.00521386 0)
(-0.0616004 -0.0063074 0)
(-0.0599728 -0.00735916 0)
(-0.0581015 -0.00835636 0)
(-0.0560005 -0.00928624 0)
(-0.0536863 -0.0101364 0)
(-0.0511782 -0.0108948 0)
(-0.0484979 -0.0115503 0)
(-0.0456697 -0.0120927 0)
(-0.0427198 -0.0125131 0)
(-0.0396764 -0.0128042 0)
(-0.0365691 -0.0129602 0)
(-0.0334287 -0.0129773 0)
(-0.0302868 -0.0128538 0)
(-0.027175 -0.0125904 0)
(-0.0241247 -0.0121898 0)
(-0.0211666 -0.0116575 0)
(-0.0183299 -0.0110013 0)
(-0.0156422 -0.0102316 0)
(-0.0131282 -0.00936155 0)
(-0.0108099 -0.00840666 0)
(-0.00870559 -0.00738522 0)
(-0.00682949 -0.00631825 0)
(-0.00519124 -0.00522958 0)
(-0.00379542 -0.00414606 0)
(-0.00264121 -0.00309785 0)
(-0.001722 -0.00211874 0)
(-0.00102525 -0.0012467 0)
(-0.000532102 -0.000524542 0)
(-0.000217214 -4.81097e-07 0)
(-5.04578e-05 0.000270937 0)
(-8.31783e-08 0.000223878 0)
(-4.70617e-05 0.000310946 0)
(-0.000332648 0.00125698 0)
(-0.000971869 0.00240594 0)
(-0.00191727 0.0036667 0)
(-0.00314483 0.00497149 0)
(-0.00464121 0.00626797 0)
(-0.00638957 0.00751688 0)
(-0.00837064 0.00869001 0)
(-0.0105639 0.00976802 0)
(-0.012948 0.0107385 0)
(-0.0155007 0.0115945 0)
(-0.0181996 0.0123329 0)
(-0.0210223 0.0129535 0)
(-0.0239463 0.0134579 0)
(-0.0269495 0.013849 0)
(-0.0300103 0.0141303 0)
(-0.0331075 0.0143052 0)
(-0.0362201 0.0143774 0)
(-0.0393279 0.0143499 0)
(-0.0424108 0.0142254 0)
(-0.0454492 0.0140062 0)
(-0.0484236 0.013694 0)
(-0.0513152 0.0132903 0)
(-0.0541049 0.0127963 0)
(-0.0567742 0.0122129 0)
(-0.059305 0.0115413 0)
(-0.0616791 0.0107829 0)
(-0.0638791 0.00993921 0)
(-0.065888 0.00901257 0)
(-0.0676895 0.00800588 0)
(-0.0692678 0.00692291 0)
(-0.0706086 0.00576836 0)
(-0.0716982 0.00454803 0)
(-0.0725247 0.0032688 0)
(-0.0730773 0.00193877 0)
(-0.0733475 0.000567207 0)
(-0.0733283 -0.000835427 0)
(-0.073015 -0.00225754 0)
(-0.0724055 -0.00368647 0)
(-0.0714998 -0.00510861 0)
(-0.0703009 -0.00650956 0)
(-0.0688146 -0.00787427 0)
(-0.0670495 -0.00918726 0)
(-0.065017 -0.0104329 0)
(-0.062732 -0.0115955 0)
(-0.0602117 -0.0126598 0)
(-0.0574767 -0.0136112 0)
(-0.05455 -0.014436 0)
(-0.0514574 -0.0151215 0)
(-0.048227 -0.0156569 0)
(-0.0448887 -0.0160329 0)
(-0.0414745 -0.0162424 0)
(-0.0380173 -0.0162807 0)
(-0.034551 -0.0161456 0)
(-0.03111 -0.0158376 0)
(-0.0277282 -0.0153602 0)
(-0.0244389 -0.0147197 0)
(-0.0212743 -0.0139256 0)
(-0.0182643 -0.0129906 0)
(-0.0154364 -0.0119306 0)
(-0.0128151 -0.0107645 0)
(-0.010421 -0.00951445 0)
(-0.00827069 -0.00820594 0)
(-0.00637586 -0.00686769 0)
(-0.00474308 -0.00553185 0)
(-0.00337338 -0.00423421 0)
(-0.00226198 -0.00301446 0)
(-0.00139818 -0.00191663 0)
(-0.000764996 -0.000989577 0)
(-0.000339008 -0.000287486 0)
(-9.41835e-05 0.000129476 0)
(-6.94342e-06 0.000190471 0)
(-5.73375e-05 0.000494627 0)
(-0.000396631 0.00178743 0)
(-0.00114664 0.00326467 0)
(-0.00224416 0.00483568 0)
(-0.00365544 0.00643213 0)
(-0.00536115 0.00800071 0)
(-0.00733937 0.00950107 0)
(-0.00956651 0.010904 0)
(-0.0120186 0.0121894 0)
(-0.0146716 0.0133442 0)
(-0.0175009 0.0143612 0)
(-0.0204822 0.0152373 0)
(-0.0235913 0.0159723 0)
(-0.0268045 0.0165683 0)
(-0.0300982 0.0170283 0)
(-0.0334495 0.0173563 0)
(-0.0368358 0.0175564 0)
(-0.0402352 0.0176323 0)
(-0.0436259 0.0175878 0)
(-0.0469869 0.0174259 0)
(-0.0502972 0.017149 0)
(-0.0535362 0.0167593 0)
(-0.0566836 0.0162585 0)
(-0.0597194 0.0156479 0)
(-0.0626238 0.014929 0)
(-0.0653772 0.0141031 0)
(-0.0679606 0.013172 0)
(-0.0703553 0.0121378 0)
(-0.0725432 0.0110034 0)
(-0.0745068 0.00977243 0)
(-0.0762296 0.00844957 0)
(-0.0776959 0.00704064 0)
(-0.0788915 0.00555271 0)
(-0.0798034 0.00399416 0)
(-0.0804203 0.00237479 0)
(-0.0807327 0.000705786 0)
(-0.0807333 -0.00100028 0)
(-0.0804167 -0.00272949 0)
(-0.0797805 -0.00446668 0)
(-0.0788245 -0.00619557 0)
(-0.0775515 -0.00789894 0)
(-0.0759671 -0.0095588 0)
(-0.0740803 -0.0111567 0)
(-0.0719027 -0.0126738 0)
(-0.0694496 -0.0140916 0)
(-0.0667391 -0.0153917 0)
(-0.0637923 -0.0165565 0)
(-0.0606337 -0.0175695 0)
(-0.0572901 -0.0184158 0)
(-0.0537911 -0.0190819 0)
(-0.0501686 -0.0195568 0)
(-0.0464562 -0.0198318 0)
(-0.0426892 -0.0199009 0)
(-0.0389037 -0.0197613 0)
(-0.0351366 -0.0194133 0)
(-0.0314245 -0.0188609 0)
(-0.0278034 -0.0181114 0)
(-0.0243082 -0.017176 0)
(-0.0209716 -0.0160696 0)
(-0.0178239 -0.0148108 0)
(-0.0148924 -0.0134221 0)
(-0.0122004 -0.0119296 0)
(-0.00976688 -0.0103634 0)
(-0.00760611 -0.00875714 0)
(-0.00572697 -0.00714846 0)
(-0.00413276 -0.00557884 0)
(-0.00282089 -0.00409388 0)
(-0.0017829 -0.00274356 0)
(-0.00100402 -0.00158264 0)
(-0.000463017 -0.000670878 0)
(-0.000138067 -7.34682e-05 0)
(-1.36021e-05 0.000134716 0)
(-6.71852e-05 0.000710478 0)
(-0.000458672 0.00240396 0)
(-0.00131708 0.00425391 0)
(-0.00256415 0.00617127 0)
(-0.00415663 0.0080884 0)
(-0.00606924 0.00995218 0)
(-0.0082748 0.0117223 0)
(-0.0107453 0.0133693 0)
(-0.0134532 0.0148731 0)
(-0.0163713 0.0162208 0)
(-0.0194729 0.0174052 0)
(-0.0227315 0.0184235 0)
(-0.0261214 0.0192759 0)
(-0.0296172 0.0199648 0)
(-0.0331941 0.0204941 0)
(-0.036828 0.0208679 0)
(-0.0404953 0.021091 0)
(-0.0441728 0.0211676 0)
(-0.0478379 0.0211017 0)
(-0.0514683 0.0208967 0)
(-0.055042 0.0205555 0)
(-0.0585375 0.0200805 0)
(-0.0619333 0.0194736 0)
(-0.0652084 0.0187365 0)
(-0.0683418 0.0178708 0)
(-0.0713132 0.0168783 0)
(-0.0741022 0.0157611 0)
(-0.0766892 0.0145219 0)
(-0.0790551 0.0131641 0)
(-0.0811815 0.0116924 0)
(-0.0830508 0.0101121 0)
(-0.0846465 0.00843044 0)
(-0.0859534 0.00665566 0)
(-0.0869578 0.00479774 0)
(-0.0876475 0.00286823 0)
(-0.0880123 0.000880312 0)
(-0.088044 -0.00115125 0)
(-0.0877369 -0.00321014 0)
(-0.0870878 -0.00527858 0)
(-0.0860961 -0.00733753 0)
(-0.0847642 -0.00936681 0)
(-0.0830976 -0.0113454 0)
(-0.0811049 -0.0132516 0)
(-0.0787981 -0.0150635 0)
(-0.0761924 -0.0167592 0)
(-0.0733063 -0.0183171 0)
(-0.0701618 -0.0197166 0)
(-0.0667839 -0.0209382 0)
(-0.0632006 -0.0219641 0)
(-0.0594429 -0.0227784 0)
(-0.0555441 -0.0233679 0)
(-0.0515397 -0.0237219 0)
(-0.047467 -0.0238333 0)
(-0.0433645 -0.0236983 0)
(-0.0392714 -0.023317 0)
(-0.0352271 -0.0226935 0)
(-0.0312705 -0.0218361 0)
(-0.0274392 -0.0207576 0)
(-0.023769 -0.019475 0)
(-0.0202934 -0.0180098 0)
(-0.0170424 -0.016388 0)
(-0.0140425 -0.01464 0)
(-0.0113156 -0.0128002 0)
(-0.00887872 -0.0109075 0)
(-0.00674343 -0.00900511 0)
(-0.00491567 -0.00714018 0)
(-0.00339543 -0.00536429 0)
(-0.00217675 -0.00373336 0)
(-0.00124733 -0.00230792 0)
(-0.000588232 -0.0011531 0)
(-0.000181781 -0.000338734 0)
(-2.00324e-05 5.67816e-05 0)
(-7.66289e-05 0.000957421 0)
(-0.000518666 0.00310427 0)
(-0.0014826 0.00537075 0)
(-0.00287579 0.00767035 0)
(-0.00464587 0.00993713 0)
(-0.00676165 0.0121192 0)
(-0.00919076 0.0141771 0)
(-0.0119007 0.0160824 0)
(-0.0148601 0.0178154 0)
(-0.0180389 0.0193639 0)
(-0.0214077 0.0207215 0)
(-0.0249382 0.0218858 0)
(-0.0286028 0.022858 0)
(-0.0323747 0.023641 0)
(-0.036228 0.0242391 0)
(-0.0401373 0.0246575 0)
(-0.0440781 0.0249012 0)
(-0.0480262 0.024975 0)
(-0.0519581 0.0248834 0)
(-0.0558506 0.0246301 0)
(-0.0596809 0.0242183 0)
(-0.0634264 0.0236507 0)
(-0.0670648 0.0229294 0)
(-0.0705742 0.0220565 0)
(-0.0739328 0.0210339 0)
(-0.0771192 0.0198636 0)
(-0.0801123 0.0185482 0)
(-0.0828914 0.0170909 0)
(-0.0854366 0.0154958 0)
(-0.0877284 0.0137682 0)
(-0.0897486 0.0119147 0)
(-0.0914796 0.00994346 0)
(-0.0929054 0.00786417 0)
(-0.0940113 0.00568836 0)
(-0.0947843 0.00342939 0)
(-0.0952133 0.00110244 0)
(-0.0952893 -0.00127546 0)
(-0.0950059 -0.00368554 0)
(-0.094359 -0.00610737 0)
(-0.0933474 -0.00851903 0)
(-0.0919728 -0.0108973 0)
(-0.0902404 -0.013218 0)
(-0.0881582 -0.0154561 0)
(-0.085738 -0.0175863 0)
(-0.0829949 -0.0195833 0)
(-0.0799477 -0.0214222 0)
(-0.0766186 -0.0230789 0)
(-0.0730331 -0.0245307 0)
(-0.0692203 -0.0257568 0)
(-0.065212 -0.0267385 0)
(-0.0610431 -0.0274601 0)
(-0.0567508 -0.0279089 0)
(-0.0523744 -0.0280762 0)
(-0.0479546 -0.0279569 0)
(-0.0435332 -0.0275508 0)
(-0.0391524 -0.026862 0)
(-0.0348539 -0.0258995 0)
(-0.0306787 -0.0246776 0)
(-0.0266657 -0.0232154 0)
(-0.0228517 -0.0215374 0)
(-0.0192702 -0.0196729 0)
(-0.0159508 -0.0176564 0)
(-0.0129189 -0.0155272 0)
(-0.0101946 -0.0133293 0)
(-0.00779257 -0.0111114 0)
(-0.00572177 -0.00892675 0)
(-0.00398503 -0.00683281 0)
(-0.00257919 -0.00489152 0)
(-0.00149454 -0.00316916 0)
(-0.000714493 -0.00173616 0)
(-0.000225325 -0.000666884 0)
(-2.6261e-05 -4.31163e-05 0)
(-8.56902e-05 0.00123436 0)
(-0.000576563 0.00388582 0)
(-0.00164281 0.00661179 0)
(-0.0031781 0.00932903 0)
(-0.00512132 0.0119742 0)
(-0.00743557 0.0144974 0)
(-0.0100833 0.0168612 0)
(-0.0130276 0.0190386 0)
(-0.0162333 0.0210113 0)
(-0.0196673 0.0227684 0)
(-0.0232977 0.0243045 0)
(-0.027094 0.0256186 0)
(-0.031027 0.0267124 0)
(-0.0350686 0.02759 0)
(-0.0391915 0.0282567 0)
(-0.0433694 0.028718 0)
(-0.0475767 0.0289799 0)
(-0.0517886 0.0290476 0)
(-0.0559807 0.0289261 0)
(-0.060129 0.0286195 0)
(-0.06421 0.0281313 0)
(-0.0682003 0.0274645 0)
(-0.072077 0.0266215 0)
(-0.0758173 0.0256045 0)
(-0.0793987 0.0244158 0)
(-0.082799 0.0230578 0)
(-0.0859962 0.0215333 0)
(-0.088969 0.0198463 0)
(-0.0916965 0.0180013 0)
(-0.0941585 0.0160045 0)
(-0.0963357 0.0138635 0)
(-0.0982098 0.0115874 0)
(-0.0997638 0.00918747 0)
(-0.100982 0.00667674 0)
(-0.10185 0.00407035 0)
(-0.102357 0.00138553 0)
(-0.102492 -0.00135846 0)
(-0.102248 -0.00414034 0)
(-0.10162 -0.00693697 0)
(-0.100605 -0.00972352 0)
(-0.0992056 -0.0124737 0)
(-0.0974245 -0.0151599 0)
(-0.0952698 -0.0177539 0)
(-0.0927527 -0.0202267 0)
(-0.0898879 -0.0225493 0)
(-0.0866939 -0.0246934 0)
(-0.0831931 -0.0266312 0)
(-0.0794114 -0.0283366 0)
(-0.0753783 -0.0297853 0)
(-0.0711268 -0.0309556 0)
(-0.0666928 -0.0318291 0)
(-0.0621154 -0.0323907 0)
(-0.0574356 -0.0326296 0)
(-0.0526965 -0.0325395 0)
(-0.0479426 -0.0321193 0)
(-0.0432189 -0.0313729 0)
(-0.0385703 -0.0303099 0)
(-0.0340412 -0.0289459 0)
(-0.0296741 -0.027302 0)
(-0.0255093 -0.0254054 0)
(-0.0215842 -0.0232889 0)
(-0.0179322 -0.0209912 0)
(-0.0145821 -0.0185564 0)
(-0.0115578 -0.0160338 0)
(-0.00887744 -0.0134778 0)
(-0.00655325 -0.0109476 0)
(-0.00459125 -0.00850691 0)
(-0.00299129 -0.0062237 0)
(-0.00174638 -0.00417017 0)
(-0.000842248 -0.00242212 0)
(-0.000268923 -0.00105856 0)
(-3.23463e-05 -0.000164844 0)
(-9.43843e-05 0.00154021 0)
(-0.000632324 0.0047459 0)
(-0.00179743 0.0079732 0)
(-0.00347034 0.0111428 0)
(-0.00558157 0.0141945 0)
(-0.00808876 0.0170816 0)
(-0.0109493 0.0197691 0)
(-0.0141219 0.0222323 0)
(-0.0175678 0.0244551 0)
(-0.0212506 0.0264283 0)
(-0.0251361 0.0281482 0)
(-0.0291917 0.0296152 0)
(-0.0333864 0.0308325 0)
(-0.0376908 0.0318054 0)
(-0.0420765 0.0325399 0)
(-0.0465162 0.0330428 0)
(-0.0509835 0.0333205 0)
(-0.0554527 0.033379 0)
(-0.0598989 0.0332237 0)
(-0.0642975 0.0328593 0)
(-0.0686242 0.0322896 0)
(-0.0728552 0.0315177 0)
(-0.0769668 0.0305465 0)
(-0.0809357 0.0293783 0)
(-0.0847388 0.0280156 0)
(-0.0883531 0.0264611 0)
(-0.091756 0.0247183 0)
(-0.0949255 0.0227912 0)
(-0.0978399 0.0206854 0)
(-0.100478 0.0184075 0)
(-0.10282 0.0159662 0)
(-0.104847 0.0133717 0)
(-0.10654 0.0106365 0)
(-0.107883 0.00777524 0)
(-0.10886 0.00480484 0)
(-0.10946 0.00174449 0)
(-0.10967 -0.00138429 0)
(-0.109483 -0.00455774 0)
(-0.108891 -0.00775001 0)
(-0.107892 -0.0109333 0)
(-0.106485 -0.0140781 0)
(-0.104674 -0.0171536 0)
(-0.102464 -0.0201278 0)
(-0.0998674 -0.0229682 0)
(-0.096897 -0.025642 0)
(-0.0935711 -0.0281169 0)
(-0.0899119 -0.0303614 0)
(-0.0859453 -0.0323455 0)
(-0.0817012 -0.0340414 0)
(-0.0772134 -0.035424 0)
(-0.072519 -0.0364715 0)
(-0.0676583 -0.0371662 0)
(-0.0626746 -0.0374951 0)
(-0.0576131 -0.03745 0)
(-0.0525212 -0.0370285 0)
(-0.0474467 -0.0362343 0)
(-0.0424382 -0.0350773 0)
(-0.0375435 -0.033574 0)
(-0.0328091 -0.0317474 0)
(-0.0282796 -0.0296273 0)
(-0.0239961 -0.0272501 0)
(-0.0199964 -0.0246585 0)
(-0.0163135 -0.0219015 0)
(-0.0129751 -0.0190339 0)
(-0.0100034 -0.0161159 0)
(-0.00741431 -0.0132128 0)
(-0.00521725 -0.0103948 0)
(-0.00341532 -0.00773625 0)
(-0.00200436 -0.00531531 0)
(-0.000972376 -0.00321349 0)
(-0.000312944 -0.00151476 0)
(-3.83667e-05 -0.000308438 0)
(-0.000102719 0.00187386 0)
(-0.000685906 0.00568167 0)
(-0.00194622 0.00945086 0)
(-0.00375188 0.0131065 0)
(-0.00602545 0.0165925 0)
(-0.00871931 0.0198656 0)
(-0.0117861 0.0228944 0)
(-0.0151801 0.0256569 0)
(-0.018859 0.02814 0)
(-0.0227836 0.0303367 0)
(-0.026917 0.0322456 0)
(-0.0312246 0.0338689 0)
(-0.0356738 0.0352115 0)
(-0.0402339 0.0362801 0)
(-0.0448753 0.037082 0)
(-0.0495699 0.037625 0)
(-0.0542905 0.0379164 0)
(-0.0590109 0.0379631 0)
(-0.0637054 0.0377708 0)
(-0.068349 0.0373447 0)
(-0.0729171 0.036689 0)
(-0.0773851 0.0358071 0)
(-0.0817292 0.0347021 0)
(-0.0859253 0.0333765 0)
(-0.0899498 0.0318332 0)
(-0.0937792 0.0300751 0)
(-0.0973904 0.0281059 0)
(-0.100761 0.0259302 0)
(-0.103868 0.023554 0)
(-0.106689 0.0209848 0)
(-0.109205 0.0182321 0)
(-0.111394 0.0153071 0)
(-0.113239 0.0122236 0)
(-0.11472 0.00899768 0)
(-0.115822 0.00564798 0)
(-0.116531 0.00219565 0)
(-0.116834 -0.00133562 0)
(-0.116721 -0.00491963 0)
(-0.116185 -0.00852779 0)
(-0.115221 -0.0121294 0)
(-0.113827 -0.0156917 0)
(-0.112005 -0.0191804 0)
(-0.10976 -0.0225599 0)
(-0.107102 -0.0257938 0)
(-0.104043 -0.0288455 0)
(-0.100601 -0.0316784 0)
(-0.0967975 -0.034257 0)
(-0.092658 -0.0365472 0)
(-0.0882127 -0.0385171 0)
(-0.0834957 -0.0401379 0)
(-0.0785454 -0.0413842 0)
(-0.0734034 -0.0422351 0)
(-0.0681147 -0.0426748 0)
(-0.0627272 -0.042693 0)
(-0.0572908 -0.0422858 0)
(-0.0518568 -0.0414559 0)
(-0.0464772 -0.0402132 0)
(-0.041204 -0.038575 0)
(-0.0360878 -0.036566 0)
(-0.0311777 -0.0342184 0)
(-0.0265195 -0.0315721 0)
(-0.0221555 -0.0286739 0)
(-0.0181233 -0.0255777 0)
(-0.0144552 -0.0223438 0)
(-0.0111777 -0.0190385 0)
(-0.00831067 -0.0157337 0)
(-0.00586741 -0.012506 0)
(-0.00385446 -0.00943647 0)
(-0.00227058 -0.00660978 0)
(-0.00110606 -0.00411349 0)
(-0.00035786 -0.00203696 0)
(-4.44123e-05 -0.000474166 0)
(-0.000110694 0.00223418 0)
(-0.000737248 0.00669017 0)
(-0.00208891 0.0110404 0)
(-0.0040221 0.0152147 0)
(-0.00645183 0.0191618 0)
(-0.00932551 0.0228427 0)
(-0.0125911 0.0262299 0)
(-0.0161989 0.0293051 0)
(-0.0201031 0.0320585 0)
(-0.0242614 0.0344862 0)
(-0.0286347 0.0365891 0)
(-0.0331864 0.038372 0)
(-0.0378823 0.0398418 0)
(-0.0426903 0.0410068 0)
(-0.04758 0.0418758 0)
(-0.0525223 0.0424579 0)
(-0.0574895 0.0427614 0)
(-0.0624548 0.0427939 0)
(-0.067392 0.0425619 0)
(-0.0722757 0.0420709 0)
(-0.0770809 0.0413257 0)
(-0.0817828 0.0403298 0)
(-0.086357 0.0390866 0)
(-0.0907793 0.0375989 0)