/*--------------------------------*- C++ -*----------------------------------*\
  =========                 |
  \\      /  F ield         | OpenFOAM: The Open Source CFD Toolbox
   \\    /   O peration     | Website:  https://openfoam.org
    \\  /    A nd           | Version:  dev
     \\/     M anipulation  |
\*---------------------------------------------------------------------------*/
FoamFile
{
    format      ascii;
    class       surfaceScalarField;
    location    "36.9";
    object      phi;
}
// * * * * * * * * * * * * * * * * * * * * * * * * * * * * * * * * * * * * * //

dimensions      [0 3 -1 0 0 0 0];

internalField   nonuniform List<scalar> 
10224
(
3.38104e-08
-3.48826e-08
8.78825e-08
-5.40724e-08
1.24456e-07
-3.65736e-08
1.25429e-07
-9.72566e-10
8.38033e-08
4.16261e-08
-1.6938e-09
8.54973e-08
-1.29235e-07
1.27541e-07
-2.95517e-07
1.66282e-07
-4.96479e-07
2.00961e-07
-7.27817e-07
2.31338e-07
-9.85261e-07
2.57444e-07
-1.26472e-06
2.79457e-07
-1.56235e-06
2.9763e-07
-1.8746e-06
3.12248e-07
-2.19819e-06
3.23593e-07
-2.53013e-06
3.31934e-07
-2.86763e-06
3.37507e-07
-3.20815e-06
3.40512e-07
-3.54926e-06
3.41112e-07
-3.88869e-06
3.39428e-07
-4.22424e-06
3.35546e-07
-4.55376e-06
3.29518e-07
-4.87513e-06
3.2137e-07
-5.18623e-06
3.11104e-07
-5.48494e-06
2.98708e-07
-5.7691e-06
2.84161e-07
-6.03654e-06
2.67441e-07
-6.28507e-06
2.48531e-07
-6.5125e-06
2.27427e-07
-6.71664e-06
2.04142e-07
-6.89536e-06
1.78716e-07
-7.04658e-06
1.51215e-07
-7.16832e-06
1.21742e-07
-7.25876e-06
9.04367e-08
-7.31624e-06
5.7479e-08
-7.33933e-06
2.30919e-08
-7.32687e-06
-1.2459e-08
-7.27801e-06
-4.88649e-08
-7.19223e-06
-8.57766e-08
-7.06942e-06
-1.22807e-07
-6.90989e-06
-1.59534e-07
-6.71438e-06
-1.95509e-07
-6.48412e-06
-2.30263e-07
-6.22081e-06
-2.63311e-07
-5.92664e-06
-2.94165e-07
-5.6043e-06
-3.22345e-07
-5.25691e-06
-3.47384e-07
-4.88807e-06
-3.68843e-07
-4.50175e-06
-3.86319e-07
-4.10229e-06
-3.9946e-07
-3.69433e-06
-4.07969e-07
-3.28271e-06
-4.11616e-07
-2.87247e-06
-4.10246e-07
-2.46868e-06
-4.03783e-07
-2.07645e-06
-3.92238e-07
-1.70074e-06
-3.75706e-07
-1.34637e-06
-3.54373e-07
-1.01785e-06
-3.28512e-07
-7.19367e-07
-2.98487e-07
-4.54622e-07
-2.64746e-07
-2.26796e-07
-2.27826e-07
-3.84356e-08
-1.88361e-07
1.08653e-07
-1.4709e-07
2.13535e-07
-1.04882e-07
2.76323e-07
-6.27883e-08
2.98451e-07
-2.21276e-08
2.83098e-07
1.53525e-08
2.35864e-07
4.72343e-08
1.65812e-07
7.00523e-08
8.72429e-08
7.85723e-08
2.25433e-08
6.47055e-08
2.25479e-08
5.39267e-08
-8.88095e-08
1.12474e-07
-1.12619e-07
1.18304e-07
-4.24025e-08
3.9008e-08
7.83232e-08
-1.41824e-07
2.22458e-07
-4.29518e-07
3.73191e-07
-8.22313e-07
5.20335e-07
-1.31406e-06
6.58029e-07
-1.8962e-06
7.83096e-07
-2.55891e-06
8.94047e-07
-3.29191e-06
9.90449e-07
-4.08496e-06
1.07251e-06
-4.92814e-06
1.1408e-06
-5.81199e-06
1.1961e-06
-6.72762e-06
1.23923e-06
-7.66672e-06
1.27103e-06
-8.62146e-06
1.29225e-06
-9.58451e-06
1.30356e-06
-1.05489e-05
1.3055e-06
-1.1508e-05
1.29851e-06
-1.24553e-05
1.2829e-06
-1.33847e-05
1.25887e-06
-1.42899e-05
1.22654e-06
-1.51647e-05
1.18596e-06
-1.60031e-05
1.13713e-06
-1.6799e-05
1.08002e-06
-1.75462e-05
1.01462e-06
-1.82386e-05
9.40908e-07
-1.88701e-05
8.58943e-07
-1.94348e-05
7.68835e-07
-1.99269e-05
6.70787e-07
-2.03407e-05
5.65111e-07
-2.06712e-05
4.5224e-07
-2.09136e-05
3.32744e-07
-2.10634e-05
2.07336e-07
-2.11172e-05
7.68819e-08
-2.10721e-05
-5.76032e-08
-2.0926e-05
-1.94954e-07
-2.06779e-05
-3.33862e-07
-2.03278e-05
-4.72889e-07
-1.98769e-05
-6.10484e-07
-1.93274e-05
-7.44998e-07
-1.86829e-05
-8.74716e-07
-1.79483e-05
-9.97881e-07
-1.71298e-05
-1.11273e-06
-1.62346e-05
-1.21752e-06
-1.52714e-05
-1.31058e-06
-1.42499e-05
-1.39033e-06
-1.31809e-05
-1.45535e-06
-1.2076e-05
-1.50435e-06
-1.09477e-05
-1.53631e-06
-9.80887e-06
-1.5504e-06
-8.67302e-06
-1.54609e-06
-7.55368e-06
-1.52313e-06
-6.46434e-06
-1.48157e-06
-5.41826e-06
-1.42179e-06
-4.42813e-06
-1.3445e-06
-3.50591e-06
-1.25073e-06
-2.66255e-06
-1.14185e-06
-1.90773e-06
-1.01957e-06
-1.24964e-06
-8.85921e-07
-6.94665e-07
-7.43332e-07
-2.47124e-07
-5.94632e-07
9.11439e-08
-4.43151e-07
3.21219e-07
-2.92865e-07
4.47705e-07
-1.48613e-07
4.79603e-07
-1.65435e-08
4.31395e-07
9.54424e-08
3.24534e-07
1.76911e-07
1.8904e-07
2.14057e-07
6.43904e-08
1.89346e-07
8.69429e-08
3.73662e-08
-1.26176e-07
4.3371e-08
-1.18623e-07
-4.32131e-08
4.4182e-08
-2.58678e-07
2.93789e-07
-6.22648e-07
5.86427e-07
-1.14224e-06
8.92786e-07
-1.81573e-06
1.19382e-06
-2.63545e-06
1.47775e-06
-3.59004e-06
1.73769e-06
-4.66598e-06
1.96998e-06
-5.84867e-06
2.17314e-06
-7.12325e-06
2.34708e-06
-8.47498e-06
2.49254e-06
-9.88964e-06
2.61075e-06
-1.13536e-05
2.70318e-06
-1.28539e-05
2.77132e-06
-1.43782e-05
2.81661e-06
-1.5915e-05
2.84031e-06
-1.7453e-05
2.8435e-06
-1.89815e-05
2.82704e-06
-2.04902e-05
2.79157e-06
-2.19688e-05
2.73754e-06
-2.34075e-05
2.66523e-06
-2.47964e-05
2.5748e-06
-2.61256e-05
2.4663e-06
-2.73853e-05
2.33976e-06
-2.85659e-05
2.19521e-06
-2.96577e-05
2.03274e-06
-3.06513e-05
1.85252e-06
-3.15374e-05
1.65491e-06
-3.2307e-05
1.44043e-06
-3.29517e-05
1.20982e-06
-3.34636e-05
9.64096e-07
-3.38354e-05
7.04546e-07
-3.40608e-05
4.32756e-07
-3.41346e-05
1.50621e-07
-3.40525e-05
-1.39657e-07
-3.38119e-05
-4.35568e-07
-3.34114e-05
-7.34317e-07
-3.28515e-05
-1.03285e-06
-3.21341e-05
-1.32787e-06
-3.12632e-05
-1.61592e-06
-3.02445e-05
-1.8934e-06
-2.90858e-05
-2.15661e-06
-2.77966e-05
-2.40189e-06
-2.63885e-05
-2.62561e-06
-2.48748e-05
-2.82428e-06
-2.32705e-05
-2.99465e-06
-2.15921e-05
-3.13373e-06
-1.98575e-05
-3.23892e-06
-1.80858e-05
-3.30807e-06
-1.62967e-05
-3.3395e-06
-1.45107e-05
-3.33212e-06
-1.27484e-05
-3.28543e-06
-1.10303e-05
-3.19959e-06
-9.3767e-06
-3.07543e-06
-7.80675e-06
-2.91446e-06
-6.33858e-06
-2.7189e-06
-4.98876e-06
-2.49168e-06
-3.77186e-06
-2.23646e-06
-2.70014e-06
-1.95764e-06
-1.78306e-06
-1.66041e-06
-1.02686e-06
-1.35084e-06
-4.33995e-07
-1.03602e-06
-2.55952e-09
-7.24302e-07
2.74534e-07
-4.25708e-07
4.10356e-07
-1.52366e-07
4.2516e-07
8.06423e-08
3.47585e-07
2.54492e-07
2.15845e-07
3.45799e-07
7.86702e-08
3.26515e-07
1.65615e-07
1.9253e-09
-1.281e-07
-7.8918e-08
-3.778e-08
-2.97625e-07
2.62889e-07
-6.87934e-07
6.84098e-07
-1.26817e-06
1.16667e-06
-2.04462e-06
1.66923e-06
-3.01449e-06
2.16369e-06
-4.16851e-06
2.63178e-06
-5.4931e-06
3.06227e-06
-6.97192e-06
3.4488e-06
-8.58713e-06
3.78835e-06
-1.03202e-05
4.08019e-06
-1.21527e-05
4.32502e-06
-1.40664e-05
4.52445e-06
-1.60437e-05
4.6805e-06
-1.80678e-05
4.79536e-06
-2.01224e-05
4.87117e-06
-2.21919e-05
4.90988e-06
-2.42616e-05
4.91316e-06
-2.63169e-05
4.88236e-06
-2.83439e-05
4.81855e-06
-3.03288e-05
4.72246e-06
-3.22582e-05
4.59461e-06
-3.41187e-05
4.43531e-06
-3.58972e-05
4.24475e-06
-3.75805e-05
4.02307e-06
-3.91557e-05
3.77043e-06
-4.06101e-05
3.48711e-06
-4.19311e-05
3.17355e-06
-4.31066e-05
2.83046e-06
-4.41251e-05
2.45886e-06
-4.49754e-05
2.06014e-06
-4.56474e-05
1.63613e-06
-4.6132e-05
1.18911e-06
-4.64211e-05
7.21853e-07
-4.65081e-05
2.37647e-07
-4.6388e-05
-2.59725e-07
-4.60576e-05
-7.65988e-07
-4.55155e-05
-1.2764e-06
-4.47626e-05
-1.78579e-06
-4.38018e-05
-2.28865e-06
-4.26386e-05
-2.77915e-06
-4.12807e-05
-3.25127e-06
-3.97385e-05
-3.69887e-06
-3.80245e-05
-4.11584e-06
-3.6154e-05
-4.49614e-06
-3.41443e-05
-4.83401e-06
-3.20149e-05
-5.12404e-06
-2.97873e-05
-5.36131e-06
-2.74847e-05
-5.54153e-06
-2.51316e-05
-5.66111e-06
-2.27538e-05
-5.71734e-06
-2.03775e-05
-5.7084e-06
-1.80294e-05
-5.63352e-06
-1.5736e-05
-5.49297e-06
-1.35233e-05
-5.28818e-06
-1.1416e-05
-5.02173e-06
-9.43753e-06
-4.69738e-06
-7.60912e-06
-4.32008e-06
-5.94954e-06
-3.89604e-06
-4.47448e-06
-3.4327e-06
-3.19606e-06
-2.93883e-06
-2.12223e-06
-2.42467e-06
-1.25619e-06
-1.90206e-06
-5.95684e-07
-1.38481e-06
-1.3227e-07
-8.89125e-07
1.49565e-07
-4.34203e-07
2.73294e-07
-4.30884e-08
2.71395e-07
2.56393e-07
1.86383e-07
4.30815e-07
7.22421e-08
4.40654e-07
2.37858e-07
-4.20448e-08
-8.60552e-08
-2.30031e-07
1.50206e-07
-6.06593e-07
6.39451e-07
-1.19833e-06
1.27584e-06
-2.019e-06
1.98733e-06
-3.07176e-06
2.722e-06
-4.35145e-06
3.44337e-06
-5.84663e-06
4.12696e-06
-7.54142e-06
4.75707e-06
-9.41703e-06
5.3244e-06
-1.14529e-05
5.82421e-06
-1.36276e-05
6.25487e-06
-1.59195e-05
6.6169e-06
-1.83071e-05
6.91209e-06
-2.07696e-05
7.14299e-06
-2.32866e-05
7.31242e-06
-2.58387e-05
7.42322e-06
-2.84068e-05
7.47801e-06
-3.09728e-05
7.47909e-06
-3.35188e-05
7.42836e-06
-3.60275e-05
7.3273e-06
-3.84821e-05
7.17702e-06
-4.08658e-05
6.9783e-06
-4.31621e-05
6.73168e-06
-4.53549e-05
6.43753e-06
-4.7428e-05
6.09619e-06
-4.93657e-05
5.70805e-06
-5.11522e-05
5.27366e-06
-5.27725e-05
4.79386e-06
-5.42119e-05
4.26989e-06
-5.54565e-05
3.70341e-06
-5.64931e-05
3.09669e-06
-5.73095e-05
2.45258e-06
-5.7895e-05
1.77463e-06
-5.82403e-05
1.06709e-06
-5.83376e-05
3.34954e-07
-5.81812e-05
-4.1607e-07
-5.77676e-05
-1.17956e-06
-5.70956e-05
-1.94844e-06
-5.61664e-05
-2.71502e-06
-5.49839e-05
-3.47111e-06
-5.3555e-05
-4.20811e-06
-5.18891e-05
-4.91712e-06
-4.99989e-05
-5.58912e-06
-4.78996e-05
-6.21509e-06
-4.56095e-05
-6.78621e-06
-4.31495e-05
-7.294e-06
-4.0543e-05
-7.73054e-06
-3.78157e-05
-8.08863e-06
-3.49953e-05
-8.36197e-06
-3.2111e-05
-8.54535e-06
-2.91936e-05
-8.63477e-06
-2.62744e-05
-8.6276e-06
-2.33852e-05
-8.52272e-06
-2.05576e-05
-8.32056e-06
-1.78226e-05
-8.02325e-06
-1.52097e-05
-7.63461e-06
-1.27468e-05
-7.16024e-06
-1.04594e-05
-6.60751e-06
-8.3698e-06
-5.98562e-06
-6.49687e-06
-5.30562e-06
-4.85519e-06
-4.58052e-06
-3.45448e-06
-3.82538e-06
-2.29896e-06
-3.05758e-06
-1.38666e-06
-2.2971e-06
-7.08739e-07
-1.56705e-06
-2.48708e-07
-8.94235e-07
1.82955e-08
-3.10095e-07
1.26341e-07
1.48346e-07
1.19589e-07
4.37568e-07
5.36883e-08
5.06555e-07
2.91547e-07
-8.94413e-08
3.38637e-09
-3.95384e-07
4.56149e-07
-9.45226e-07
1.18929e-06
-1.75556e-06
2.08617e-06
-2.83319e-06
3.06496e-06
-4.17636e-06
4.06517e-06
-5.77623e-06
5.04324e-06
-7.6184e-06
5.96913e-06
-9.6844e-06
6.82307e-06
-1.19529e-05
7.59294e-06
-1.44009e-05
8.27221e-06
-1.70044e-05
8.85834e-06
-1.9739e-05
9.35152e-06
-2.25806e-05
9.75369e-06
-2.55055e-05
1.00678e-05
-2.84903e-05
1.02973e-05
-3.15127e-05
1.04456e-05
-3.45508e-05
1.05161e-05
-3.75834e-05
1.05116e-05
-4.05896e-05
1.04346e-05
-4.35494e-05
1.02871e-05
-4.64428e-05
1.00704e-05
-4.92503e-05
9.78581e-06
-5.19527e-05
9.43402e-06
-5.45308e-05
9.01567e-06
-5.6966e-05
8.53137e-06
-5.92398e-05
7.98182e-06
-6.13341e-05
7.36799e-06
-6.32314e-05
6.69122e-06
-6.49149e-05
5.95339e-06
-6.63686e-05
5.15703e-06
-6.75773e-05
4.30542e-06
-6.85274e-05
3.4027e-06
-6.92067e-05
2.45389e-06
-6.96046e-05
1.46499e-06
-6.97126e-05
4.42969e-07
-6.95244e-05
-6.04225e-07
-6.90363e-05
-1.66771e-06
-6.8247e-05
-2.73773e-06
-6.71583e-05
-3.80373e-06
-6.57749e-05
-4.85448e-06
-6.41048e-05
-5.87823e-06
-6.21591e-05
-6.86284e-06
-5.99522e-05
-7.79602e-06
-5.75018e-05
-8.6655e-06
-5.48287e-05
-9.45927e-06
-5.19569e-05
-1.01658e-05
-4.8913e-05
-1.07744e-05
-4.57264e-05
-1.12753e-05
-4.24285e-05
-1.16598e-05
-3.90529e-05
-1.19209e-05
-3.56345e-05
-1.20532e-05
-3.2209e-05
-1.20531e-05
-2.88126e-05
-1.1919e-05
-2.54816e-05
-1.16516e-05
-2.22511e-05
-1.12537e-05
-1.91552e-05
-1.07306e-05
-1.62256e-05
-1.00898e-05
-1.34917e-05
-9.34147e-06
-1.09791e-05
-8.49816e-06
-8.70976e-06
-7.57498e-06
-6.70066e-06
-6.58962e-06
-4.9635e-06
-5.56254e-06
-3.50394e-06
-4.51714e-06
-2.32093e-06
-3.48011e-06
-1.4061e-06
-2.48188e-06
-7.43132e-07
-1.5572e-06
-3.07178e-07
-7.46051e-07
-6.42473e-08
-9.45877e-08
2.94325e-08
3.43888e-07
2.83382e-08
5.0765e-07
3.19886e-07
-1.3766e-07
1.41046e-07
-5.66399e-07
8.84887e-07
-1.29769e-06
1.92058e-06
-2.33663e-06
3.12511e-06
-3.68153e-06
4.40987e-06
-5.32433e-06
5.70797e-06
-7.25141e-06
6.97032e-06
-9.44466e-06
8.16237e-06
-1.18825e-05
9.26092e-06
-1.4541e-05
1.02514e-05
-1.73945e-05
1.11257e-05
-2.04167e-05
1.18805e-05
-2.35807e-05
1.25156e-05
-2.68601e-05
1.30331e-05
-3.02286e-05
1.34363e-05
-3.36606e-05
1.37292e-05
-3.71308e-05
1.39159e-05
-4.06151e-05
1.40003e-05
-4.40894e-05
1.3986e-05
-4.75306e-05
1.38758e-05
-5.09157e-05
1.36722e-05
-5.42224e-05
1.33771e-05
-5.74285e-05
1.29919e-05
-6.05122e-05
1.25178e-05
-6.34522e-05
1.19556e-05
-6.62271e-05
1.13063e-05
-6.88163e-05
1.0571e-05
-7.11995e-05
9.75116e-06
-7.3357e-05
8.84875e-06
-7.52701e-05
7.86645e-06
-7.69208e-05
6.80777e-06
-7.82926e-05
5.67721e-06
-7.93702e-05
4.48033e-06
-8.01402e-05
3.22389e-06
-8.05911e-05
1.91583e-06
-8.07135e-05
5.65363e-07
-8.05006e-05
-8.17094e-07
-7.99484e-05
-2.21992e-06
-7.90557e-05
-3.63039e-06
-7.78247e-05
-5.03478e-06
-7.62606e-05
-6.41852e-06
-7.43725e-05
-7.7664e-06
-7.21726e-05
-9.06272e-06
-6.9677e-05
-1.02916e-05
-6.69053e-05
-1.14372e-05
-6.38806e-05
-1.2484e-05
-6.06292e-05
-1.34172e-05
-5.71807e-05
-1.42229e-05
-5.35676e-05
-1.48884e-05
-4.98246e-05
-1.54027e-05
-4.59889e-05
-1.57567e-05
-4.2099e-05
-1.59431e-05
-3.81947e-05
-1.59574e-05
-3.43162e-05
-1.57976e-05
-3.05035e-05
-1.54643e-05
-2.67961e-05
-1.49611e-05
-2.32318e-05
-1.42949e-05
-1.98463e-05
-1.34753e-05
-1.66723e-05
-1.25154e-05
-1.3739e-05
-1.14315e-05
-1.10712e-05
-1.02428e-05
-8.68847e-06
-8.97232e-06
-6.60487e-06
-7.64614e-06
-4.8279e-06
-6.29411e-06
-3.35805e-06
-4.94997e-06
-2.18821e-06
-3.65172e-06
-1.30316e-06
-2.44225e-06
-6.7917e-07
-1.37004e-06
-2.83581e-07
-4.90179e-07
-7.45202e-08
1.34826e-07
-5.6017e-10
4.33689e-07
3.19325e-07
-1.85453e-07
3.265e-07
-7.38182e-07
1.43762e-06
-1.6542e-06
2.8366e-06
-2.92653e-06
4.39744e-06
-4.54408e-06
6.02742e-06
-6.49155e-06
7.65543e-06
-8.74969e-06
9.22846e-06
-1.1296e-05
1.07087e-05
-1.41053e-05
1.20703e-05
-1.71507e-05
1.32968e-05
-2.0404e-05
1.4379e-05
-2.38363e-05
1.53129e-05
-2.74188e-05
1.60981e-05
-3.11226e-05
1.67369e-05
-3.49192e-05
1.7233e-05
-3.87809e-05
1.75909e-05
-4.26803e-05
1.78153e-05
-4.65909e-05
1.79109e-05
-5.04864e-05
1.78815e-05
-5.43414e-05
1.77307e-05
-5.81306e-05
1.74615e-05
-6.18295e-05
1.7076e-05
-6.54137e-05
1.65761e-05
-6.88591e-05
1.59632e-05
-7.21421e-05
1.52386e-05
-7.52393e-05
1.44036e-05
-7.81281e-05
1.34597e-05
-8.0786e-05
1.24091e-05
-8.31918e-05
1.12545e-05
-8.53247e-05
9.99934e-06
-8.71652e-05
8.64835e-06
-8.86954e-05
7.20736e-06
-8.98986e-05
5.68355e-06
-9.07602e-05
4.08554e-06
-9.12678e-05
2.42343e-06
-9.14113e-05
7.08859e-07
-9.11834e-05
-1.04505e-06
-9.05796e-05
-2.82372e-06
-8.95987e-05
-4.61122e-06
-8.82431e-05
-6.39043e-06
-8.65185e-05
-8.14316e-06
-8.44344e-05
-9.85047e-06
-8.20043e-05
-1.14928e-05
-7.92454e-05
-1.30505e-05
-7.61788e-05
-1.45037e-05
-7.28295e-05
-1.58333e-05
-6.9226e-05
-1.70208e-05
-6.54001e-05
-1.80488e-05
-6.1387e-05
-1.89015e-05
-5.72244e-05
-1.95653e-05
-5.29526e-05
-2.00285e-05
-4.86134e-05
-2.02823e-05
-4.42502e-05
-2.03207e-05
-3.99068e-05
-2.0141e-05
-3.56271e-05
-1.9744e-05
-3.14541e-05
-1.91341e-05
-2.74295e-05
-1.83194e-05
-2.35928e-05
-1.73121e-05
-1.99801e-05
-1.61281e-05
-1.6624e-05
-1.47875e-05
-1.35525e-05
-1.33143e-05
-1.07882e-05
-1.17367e-05
-8.34747e-06
-1.00868e-05
-6.24036e-06
-8.40122e-06
-4.46944e-06
-6.72089e-06
-3.02953e-06
-5.09163e-06
-1.90732e-06
-3.56446e-06
-1.08101e-06
-2.19635e-06
-5.2024e-07
-1.05095e-06
-1.86034e-07
-1.99381e-07
-3.10496e-08
2.78703e-07
2.88274e-07
-2.3218e-07
5.58679e-07
-9.07974e-07
2.11341e-06
-2.00877e-06
3.9374e-06
-3.51551e-06
5.90418e-06
-5.40732e-06
7.91923e-06
-7.66104e-06
9.90915e-06
-1.02512e-05
1.18186e-05
-1.31504e-05
1.36078e-05
-1.63295e-05
1.52493e-05
-1.97582e-05
1.67255e-05
-2.34056e-05
1.80264e-05
-2.72405e-05
1.91477e-05
-3.12316e-05
2.00892e-05
-3.53483e-05
2.08535e-05
-3.95599e-05
2.14446e-05
-4.38367e-05
2.18677e-05
-4.81496e-05
2.21282e-05
-5.24698e-05
2.22311e-05
-5.67693e-05
2.2181e-05
-6.10207e-05
2.19821e-05
-6.51967e-05
2.16375e-05
-6.92707e-05
2.115e-05
-7.32165e-05
2.05218e-05
-7.70079e-05
1.97546e-05
-8.06194e-05
1.88501e-05
-8.4026e-05
1.78101e-05
-8.72028e-05
1.66366e-05
-9.0126e-05
1.53323e-05
-9.27723e-05
1.39008e-05
-9.51196e-05
1.23467e-05
-9.71469e-05
1.06757e-05
-9.88348e-05
8.89526e-06
-0.000100166
7.01426e-06
-0.000101123
5.04332e-06
-0.000101695
2.99486e-06
-0.000101869
8.83075e-07
-0.000101638
-1.27602e-06
-0.000100997
-3.4647e-06
-9.99446e-05
-5.66366e-06
-9.84829e-05
-7.85213e-06
-9.66179e-05
-1.00081e-05
-9.43596e-05
-1.21088e-05
-9.1722e-05
-1.41304e-05
-8.87233e-05
-1.60492e-05
-8.53858e-05
-1.78413e-05
-8.17358e-05
-1.94833e-05
-7.78036e-05
-2.0953e-05
-7.3623e-05
-2.22293e-05
-6.92315e-05
-2.32931e-05
-6.46693e-05
-2.41275e-05
-5.99795e-05
-2.47183e-05
-5.52071e-05
-2.50547e-05
-5.03986e-05
-2.51292e-05
-4.56012e-05
-2.49383e-05
-4.08626e-05
-2.44826e-05
-3.62294e-05
-2.37672e-05
-3.17471e-05
-2.28017e-05
-2.74587e-05
-2.16005e-05
-2.34042e-05
-2.01826e-05
-1.96197e-05
-1.8572e-05
-1.61365e-05
-1.67975e-05
-1.29805e-05
-1.48927e-05
-1.01711e-05
-1.28961e-05
-7.72128e-06
-1.08511e-05
-5.63613e-06
-8.80605e-06
-3.91309e-06
-6.81467e-06
-2.54136e-06
-4.9362e-06
-1.50179e-06
-3.23592e-06
-7.66923e-07
-1.78582e-06
-3.01293e-07
-6.65013e-07
-6.20274e-08
3.94357e-08
2.26245e-07
-2.7756e-07
8.36239e-07
-1.07424e-06
2.91009e-06
-2.35775e-06
5.22091e-06
-4.09727e-06
7.6437e-06
-6.26206e-06
1.0084e-05
-8.82084e-06
1.24679e-05
-1.17416e-05
1.47394e-05
-1.49914e-05
1.68577e-05
-1.8537e-05
1.87949e-05
-2.23446e-05
2.0533e-05
-2.63802e-05
2.2062e-05
-3.06102e-05
2.33777e-05
-3.50011e-05
2.44802e-05
-3.95203e-05
2.53726e-05
-4.41354e-05
2.60597e-05
-4.88148e-05
2.65471e-05
-5.35276e-05
2.6841e-05
-5.82435e-05
2.6947e-05
-6.29327e-05
2.68703e-05
-6.7566e-05
2.66154e-05
-7.21146e-05
2.61861e-05
-7.65501e-05
2.55855e-05
-8.08445e-05
2.48161e-05
-8.497e-05
2.38801e-05
-8.88994e-05
2.27795e-05
-9.2606e-05
2.15166e-05
-9.60633e-05
2.00939e-05
-9.9246e-05
1.8515e-05
-0.000102129
1.6784e-05
-0.000104689
1.49069e-05
-0.000106904
1.28905e-05
-0.000108753
1.0744e-05
-0.000110217
8.4779e-06
-0.000111278
6.10504e-06
-0.000111924
3.64022e-06
-0.000112141
1.10036e-06
-0.000111921
-1.49553e-06
-0.00011126
-4.12647e-06
-0.000110154
-6.76958e-06
-0.000108606
-9.40032e-06
-0.000106621
-1.19927e-05
-0.00010421
-1.45197e-05
-0.000101387
-1.69533e-05
-9.8171e-05
-1.92653e-05
-9.45846e-05
-2.14276e-05
-9.06554e-05
-2.34125e-05
-8.6415e-05
-2.51934e-05
-8.1899e-05
-2.67454e-05
-7.71466e-05
-2.80455e-05
-7.22005e-05
-2.90735e-05
-6.71062e-05
-2.98126e-05
-6.19116e-05
-3.02493e-05
-5.66662e-05
-3.03746e-05
-5.14208e-05
-3.01837e-05
-4.62263e-05
-2.96771e-05
-4.11333e-05
-2.88603e-05
-3.61908e-05
-2.77442e-05
-3.1446e-05
-2.63453e-05
-2.69426e-05
-2.4686e-05
-2.27206e-05
-2.2794e-05
-1.8815e-05
-2.07031e-05
-1.52554e-05
-1.84524e-05
-1.20647e-05
-1.60868e-05
-9.25903e-06
-1.36568e-05
-6.84686e-06
-1.12182e-05
-4.82867e-06
-8.83285e-06
-3.19672e-06
-6.56814e-06
-1.935e-06
-4.49765e-06
-1.01939e-06
-2.70143e-06
-4.18182e-07
-1.26622e-06
-9.29395e-08
-2.85809e-07
1.33304e-07
-3.2148e-07
1.15772e-06
-1.23612e-06
3.82473e-06
-2.6989e-06
6.68369e-06
-4.66769e-06
9.61249e-06
-7.10202e-06
1.25183e-05
-9.96243e-06
1.53283e-05
-1.32101e-05
1.7987e-05
-1.68066e-05
2.04542e-05
-2.0714e-05
2.27023e-05
-2.48948e-05
2.47139e-05
-2.93122e-05
2.64793e-05
-3.39297e-05
2.79952e-05
-3.87119e-05
2.92624e-05
-4.3624e-05
3.02847e-05
-4.86321e-05
3.10677e-05
-5.37029e-05
3.1618e-05
-5.8804e-05
3.19421e-05
-6.39036e-05
3.20465e-05
-6.89705e-05
3.19371e-05
-7.39739e-05
3.16188e-05
-7.88836e-05
3.10958e-05
-8.36697e-05
3.03717e-05
-8.83027e-05
2.94492e-05
-9.27535e-05
2.83309e-05
-9.69934e-05
2.70194e-05
-0.000100994
2.55172e-05
-0.000104728
2.38276e-05
-0.000108168
2.19548e-05
-0.000111287
1.9904e-05
-0.000114062
1.76819e-05
-0.000116469
1.5297e-05
-0.000118485
1.27599e-05
-0.00012009
1.00831e-05
-0.000121267
7.28152e-06
-0.000121999
4.37248e-06
-0.000122274
1.37567e-06
-0.000122083
-1.68684e-06
-0.000121419
-4.79066e-06
-0.000120279
-7.90926e-06
-0.000118665
-1.10142e-05
-0.000116582
-1.40753e-05
-0.000114041
-1.70612e-05
-0.000111055
-1.99395e-05
-0.000107643
-2.26773e-05
-0.000103829
-2.52419e-05
-9.96401e-05
-2.7601e-05
-9.511e-05
-2.97235e-05
-9.02753e-05
-3.15801e-05
-8.51768e-05
-3.3144e-05
-7.98591e-05
-3.43912e-05
-7.43701e-05
-3.53016e-05
-6.87603e-05
-3.58591e-05
-6.30825e-05
-3.60524e-05
-5.73905e-05
-3.58757e-05
-5.17389e-05
-3.53287e-05
-4.61821e-05
-3.44171e-05
-4.07732e-05
-3.31531e-05
-3.55633e-05
-3.15552e-05
-3.06005e-05
-2.96488e-05
-2.59289e-05
-2.74657e-05
-2.15877e-05
-2.50443e-05
-1.76104e-05
-2.24297e-05
-1.40242e-05
-1.96731e-05
-1.08488e-05
-1.68321e-05
-8.09655e-06
-1.39705e-05
-5.77144e-06
-1.1158e-05
-3.86927e-06
-8.47032e-06
-2.37751e-06
-5.98941e-06
-1.27565e-06
-3.80329e-06
-5.35773e-07
-2.0061e-06
-1.23583e-07
-6.98002e-07
9.72001e-09
-3.639e-07
1.52162e-06
-1.39314e-06
4.85397e-06
-3.0308e-06
8.32135e-06
-5.22399e-06
1.18057e-05
-7.92278e-06
1.52171e-05
-1.10796e-05
1.84852e-05
-1.46488e-05
2.15562e-05
-1.85862e-05
2.43917e-05
-2.28494e-05
2.69655e-05
-2.73969e-05
2.92613e-05
-3.21886e-05
3.12711e-05
-3.71857e-05
3.29924e-05
-4.23506e-05
3.44272e-05
-4.76464e-05
3.55806e-05
-5.30377e-05
3.6459e-05
-5.84898e-05
3.707e-05
-6.39688e-05
3.74211e-05
-6.94416e-05
3.75194e-05
-7.48758e-05
3.73713e-05
-8.02394e-05
3.69824e-05
-8.55008e-05
3.63573e-05
-9.06291e-05
3.54999e-05
-9.55934e-05
3.44135e-05
-0.000100363
3.31009e-05
-0.000104909
3.15649e-05
-0.000109201
2.98089e-05
-0.000113209
2.78365e-05
-0.000116907
2.56526e-05
-0.000120266
2.32633e-05
-0.000123261
2.06766e-05
-0.000125866
1.79022e-05
-0.000128059
1.49523e-05
-0.000129817
1.18413e-05
-0.000131122
8.58633e-06
-0.000131957
5.20718e-06
-0.000132307
1.72635e-06
-0.000132163
-1.83095e-06
-0.000131517
-5.4369e-06
-0.000130365
-9.06124e-06
-0.000128708
-1.26715e-05
-0.00012655
-1.62333e-05
-0.0001239
-1.97106e-05
-0.000120773
-2.30666e-05
-0.000117187
-2.62634e-05
-0.000113165
-2.92634e-05
-0.000108737
-3.20295e-05
-0.000103935
-3.45259e-05
-9.87962e-05
-3.67185e-05
-9.33642e-05
-3.8576e-05
-8.76849e-05
-4.00705e-05
-8.18084e-05
-4.11781e-05
-7.57878e-05
-4.18797e-05
-6.96786e-05
-4.21616e-05
-6.35382e-05
-4.20161e-05
-5.74249e-05
-4.1442e-05
-5.1397e-05
-4.0445e-05
-4.55118e-05
-3.90382e-05
-3.9825e-05
-3.72421e-05
-3.43891e-05
-3.50847e-05
-2.92528e-05
-3.26019e-05
-2.44602e-05
-2.9837e-05
-2.00492e-05
-2.68406e-05
-1.60515e-05
-2.36708e-05
-1.24913e-05
-2.03923e-05
-9.38502e-06
-1.70768e-05
-6.74077e-06
-1.38022e-05
-4.55822e-06
-1.06529e-05
-2.82867e-06
-7.71896e-06
-1.53533e-06
-5.09664e-06
-6.53959e-07
-2.88747e-06
-1.53983e-07
-1.19798e-06
-1.44264e-07
-4.04804e-07
1.92642e-06
-1.54501e-06
5.99417e-06
-3.35252e-06
1.01289e-05
-5.76424e-06
1.42174e-05
-8.72112e-06
1.8174e-05
-1.21677e-05
2.19317e-05
-1.60514e-05
2.544e-05
-2.03227e-05
2.8663e-05
-2.49342e-05
3.15769e-05
-2.98405e-05
3.41677e-05
-3.49986e-05
3.64291e-05
-4.03668e-05
3.83606e-05
-4.59053e-05
3.99658e-05
-5.15756e-05
4.1251e-05
-5.73407e-05
4.22241e-05
-6.31644e-05
4.28938e-05
-6.90118e-05
4.32684e-05
-7.48485e-05
4.33561e-05
-8.0641e-05
4.31638e-05
-8.63563e-05
4.26977e-05
-9.1962e-05
4.19629e-05
-9.74257e-05
4.09637e-05
-0.000102716
3.97036e-05
-0.000107801
3.81859e-05
-0.00011265
3.64138e-05
-0.000117232
3.43909e-05
-0.000121517
3.21216e-05
-0.000125476
2.96115e-05
-0.00012908
2.68674e-05
-0.000132302
2.38985e-05
-0.000135115
2.07158e-05
-0.000137496
1.73331e-05
-0.000139421
1.37665e-05
-0.000140871
1.00355e-05
-0.000141826
6.16224e-06
-0.000142271
2.17205e-06
-0.000142195
-1.90674e-06
-0.00014159
-6.04287e-06
-0.000140448
-1.02023e-05
-0.000138772
-1.43485e-05
-0.000136562
-1.84426e-05
-0.000133829
-2.24442e-05
-0.000130584
-2.63113e-05
-0.000126846
-3.00013e-05
-0.000122638
-3.34714e-05
-0.000117988
-3.66792e-05
-0.00011293
-3.95838e-05
-0.000107503
-4.21461e-05
-0.000101749
-4.43299e-05
-9.57165e-05
-4.61028e-05
-8.94578e-05
-4.74367e-05
-8.30285e-05
-4.83091e-05
-7.64869e-05
-4.87032e-05
-6.98938e-05
-4.86091e-05
-6.33114e-05
-4.80244e-05
-5.68022e-05
-4.69542e-05
-5.04282e-05
-4.54123e-05
-4.42496e-05
-4.34206e-05
-3.83241e-05
-4.10102e-05
-3.27057e-05
-3.82204e-05
-2.74433e-05
-3.50993e-05
-2.25804e-05
-3.17036e-05
-1.81534e-05
-2.80978e-05
-1.41915e-05
-2.43541e-05
-1.07159e-05
-2.05524e-05
-7.73925e-06
-1.67789e-05
-5.26542e-06
-1.31267e-05
-3.28975e-06
-9.69463e-06
-1.79924e-06
-6.58715e-06
-7.73208e-07
-3.9135e-06
-1.84317e-07
-1.78687e-06
-3.28582e-07
-4.44181e-07
2.3706e-06
-1.69149e-06
7.24148e-06
-3.66335e-06
1.21007e-05
-6.28693e-06
1.6841e-05
-9.4945e-06
2.13816e-05
-1.32229e-05
2.56601e-05
-1.74131e-05
2.96302e-05
-2.20097e-05
3.32596e-05
-2.69607e-05
3.65279e-05
-3.22171e-05
3.94241e-05
-3.77323e-05
4.19444e-05
-4.34624e-05
4.40906e-05
-4.93652e-05
4.58686e-05
-5.54006e-05
4.72864e-05
-6.153e-05
4.83535e-05
-6.7716e-05
4.90798e-05
-7.39226e-05
4.9475e-05
-8.01146e-05
4.9548e-05
-8.62574e-05
4.93066e-05
-9.23171e-05
4.87575e-05
-9.82606e-05
4.79063e-05
-0.000104055
4.67577e-05
-0.000109667
4.53156e-05
-0.000115064
4.35836e-05
-0.000120216
4.15652e-05
-0.000125089
3.92644e-05
-0.000129654
3.66862e-05
-0.000133879
3.38367e-05
-0.000137735
3.07237e-05
-0.000141194
2.73573e-05
-0.000144228
2.37497e-05
-0.000146811
1.99162e-05
-0.00014892
1.58749e-05
-0.000150531
1.16472e-05
-0.000151627
7.25771e-06
-0.000152189
2.73446e-06
-0.000152205
-1.89111e-06
-0.000151663
-6.58432e-06
-0.000150558
-1.13074e-05
-0.000148887
-1.60196e-05
-0.000146652
-2.06778e-05
-0.00014386
-2.52367e-05
-0.000140522
-2.96494e-05
-0.000136655
-3.3868e-05
-0.000132282
-3.78443e-05
-0.000127431
-4.15306e-05
-0.000122134
-4.48802e-05
-0.000116432
-4.78486e-05
-0.000110367
-5.03944e-05
-0.00010399
-5.24801e-05
-9.73537e-05
-5.4073e-05
-9.05165e-05
-5.51462e-05
-8.354e-05
-5.56798e-05
-7.64882e-05
-5.56609e-05
-6.94275e-05
-5.50851e-05
-6.24247e-05
-5.3957e-05
-5.55468e-05
-5.22902e-05
-4.88593e-05
-5.01081e-05
-4.24254e-05
-4.74441e-05
-3.63047e-05
-4.43411e-05
-3.0552e-05
-4.0852e-05
-2.52164e-05
-3.70392e-05
-2.03401e-05
-3.2974e-05
-1.59578e-05
-2.87364e-05
-1.20959e-05
-2.44143e-05
-8.772e-06
-2.01028e-05
-5.99463e-06
-1.59041e-05
-3.76337e-06
-1.19259e-05
-2.06906e-06
-8.28146e-06
-8.94391e-07
-5.08817e-06
-2.14863e-07
-2.4664e-06
-5.43446e-07
-4.82011e-07
2.85261e-06
-1.8324e-06
8.59187e-06
-3.96266e-06
1.4231e-05
-6.79081e-06
1.96691e-05
-1.02408e-05
2.48315e-05
-1.42421e-05
2.96614e-05
-1.87293e-05
3.41173e-05
-2.36416e-05
3.81719e-05
-2.89223e-05
4.18087e-05
-3.45187e-05
4.50205e-05
-4.03812e-05
4.78068e-05
-4.6463e-05
5.01725e-05
-5.27201e-05
5.21257e-05
-5.91107e-05
5.36769e-05
-6.55947e-05
5.48375e-05
-7.21337e-05
5.56188e-05
-7.86906e-05
5.6032e-05
-8.52294e-05
5.60868e-05
-9.17149e-05
5.57921e-05
-9.81125e-05
5.51551e-05
-0.000104388
5.4182e-05
-0.000110508
5.28778e-05
-0.000116439
5.12468e-05
-0.000122149
4.92928e-05
-0.000127603
4.70198e-05
-0.000132771
4.4432e-05
-0.00013762
4.15349e-05
-0.000142118
3.83351e-05
-0.000146235
3.48412e-05
-0.000149942
3.10641e-05
-0.00015321
2.70174e-05
-0.000156011
2.27176e-05
-0.000158321
1.81845e-05
-0.000160115
1.34415e-05
-0.000161373
8.51547e-06
-0.000162076
3.43714e-06
-0.000162208
-1.7591e-06
-0.000161757
-7.03519e-06
-0.000160714
-1.23496e-05
-0.000159076
-1.76576e-05
-0.000156843
-2.29115e-05
-0.000154018
-2.80612e-05
-0.000150613
-3.30547e-05
-0.000146642
-3.78387e-05
-0.000142127
-4.23593e-05
-0.000137095
-4.65628e-05
-0.000131578
-5.03969e-05
-0.000125616
-5.3811e-05
-0.000119252
-5.67578e-05
-0.000112538
-5.91942e-05
-0.000105529
-6.10823e-05
-9.82847e-05
-6.23905e-05
-9.08699e-05
-6.30945e-05
-8.33525e-05
-6.31783e-05
-7.58028e-05
-6.26348e-05
-6.82926e-05
-6.14672e-05
-6.08941e-05
-5.96887e-05
-5.36785e-05
-5.73237e-05
-4.67152e-05
-5.44074e-05
-4.00699e-05
-5.09863e-05
-3.3804e-05
-4.7118e-05
-2.79728e-05
-4.28704e-05
-2.2625e-05
-3.83219e-05
-1.78013e-05
-3.35601e-05
-1.3534e-05
-2.86816e-05
-9.84604e-06
-2.37908e-05
-6.75109e-06
-1.8999e-05
-4.25319e-06
-1.44238e-05
-2.34706e-06
-1.01876e-05
-1.01866e-06
-6.41658e-06
-2.45967e-07
-3.23909e-06
-7.89414e-07
-5.18256e-07
3.37087e-06
-1.9675e-06
1.00411e-05
-4.24987e-06
1.65133e-05
-7.27467e-06
2.26939e-05
-1.0958e-05
2.85149e-05
-1.52223e-05
3.39257e-05
-1.99961e-05
3.88911e-05
-2.52132e-05
4.33891e-05
-3.08128e-05
4.74083e-05
-3.67382e-05
5.09458e-05
-4.29368e-05
5.40054e-05
-4.93594e-05
5.65951e-05
-5.59601e-05
5.87264e-05
-6.26952e-05
6.04121e-05
-6.95237e-05
6.16659e-05
-7.6406e-05
6.25011e-05
-8.33042e-05
6.29302e-05
-9.01816e-05
6.29642e-05
-9.70023e-05
6.26128e-05
-0.000103731
6.18841e-05
-0.000110334
6.07848e-05
-0.000116777
5.93202e-05
-0.000123025
5.7495e-05
-0.000129045
5.53132e-05
-0.000134804
5.2779e-05
-0.000140269
4.98971e-05
-0.000145408
4.66732e-05
-0.000150187
4.31144e-05
-0.000154576
3.92299e-05
-0.000158543
3.50315e-05
-0.00016206
3.05337e-05
-0.000165096
2.57543e-05
-0.000167626
2.07146e-05
-0.000169625
1.54398e-05
-0.000171068
9.95891e-06
-0.000171936
4.30521e-06
-0.000172211
-1.48409e-06
-0.000171879
-7.36768e-06
-0.000170928
-1.33004e-05
-0.000169352
-1.92334e-05
-0.000167149
-2.51146e-05
-0.000164321
-3.08891e-05
-0.000160876
-3.64995e-05
-0.000156828
-4.18869e-05
-0.000152196
-4.69916e-05
-0.000147005
-5.17536e-05
-0.000141287
-5.61143e-05
-0.000135082
-6.00166e-05
-0.000128433
-6.3407e-05
-0.000121391
-6.62359e-05
-0.000114014
-6.84596e-05
-0.000106363
-7.00409e-05
-9.85071e-05
-7.09506e-05
-9.05168e-05
-7.11686e-05
-8.24671e-05
-7.06846e-05
-7.44348e-05
-6.94995e-05
-6.64977e-05
-6.76258e-05
-5.87335e-05
-6.50879e-05
-5.12179e-05
-6.1923e-05
-4.40237e-05
-5.81805e-05
-3.72193e-05
-5.39224e-05
-3.08674e-05
-4.92224e-05
-2.50234e-05
-4.41659e-05
-1.97349e-05
-3.88485e-05
-1.50407e-05
-3.33758e-05
-1.09698e-05
-2.78617e-05
-7.54113e-06
-2.24277e-05
-4.7636e-06
-1.72013e-05
-2.63597e-06
-1.23152e-05
-1.14737e-06
-7.90518e-06
-2.78022e-07
-4.10844e-06
-1.06744e-06
-5.52862e-07
3.92373e-06
-2.09655e-06
1.15848e-05
-4.52433e-06
1.89411e-05
-7.73733e-06
2.59069e-05
-1.16442e-05
3.24217e-05
-1.61607e-05
3.84422e-05
-2.12096e-05
4.394e-05
-2.67199e-05
4.88993e-05
-3.26262e-05
5.33146e-05
-3.88684e-05
5.7188e-05
-4.5391e-05
6.0528e-05
-5.21425e-05
6.33467e-05
-5.90751e-05
6.56589e-05
-6.61436e-05
6.74807e-05
-7.33057e-05
6.8828e-05
-8.05211e-05
6.97165e-05
-8.77511e-05
7.01602e-05
-9.49584e-05
7.01715e-05
-0.000102107
6.97612e-05