/*--------------------------------*- C++ -*----------------------------------*\
  =========                 |
  \\      /  F ield         | OpenFOAM: The Open Source CFD Toolbox
   \\    /   O peration     | Website:  https://openfoam.org
    \\  /    A nd           | Version:  dev
     \\/     M anipulation  |
\*---------------------------------------------------------------------------*/
FoamFile
{
    format      ascii;
    class       volVectorField;
    location    "36.9";
    object      U;
}
// * * * * * * * * * * * * * * * * * * * * * * * * * * * * * * * * * * * * * //

dimensions      [0 1 -1 0 0 0 0];

internalField   nonuniform List<vector> 
5184
(
(1.2326e-05 -1.2713e-05 0)
(4.51744e-05 -2.08943e-05 0)
(8.03514e-05 -1.72528e-05 0)
(9.60216e-05 -8.19956e-06 0)
(8.21991e-05 2.66754e-06 0)
(3.65034e-05 1.36179e-05 0)
(-4.05186e-05 2.38476e-05 0)
(-0.000146848 3.30516e-05 0)
(-0.000279691 4.11107e-05 0)
(-0.00043599 4.80303e-05 0)
(-0.000612625 5.38722e-05 0)
(-0.00080656 5.87212e-05 0)
(-0.00101493 6.26697e-05 0)
(-0.00123506 6.58091e-05 0)
(-0.0014645 6.82242e-05 0)
(-0.00170099 6.99903e-05 0)
(-0.00194245 7.11717e-05 0)
(-0.00218698 7.18209e-05 0)
(-0.00243278 7.19787e-05 0)
(-0.00267817 7.16748e-05 0)
(-0.00292155 7.09284e-05 0)
(-0.00316135 6.97501e-05 0)
(-0.00339604 6.81428e-05 0)
(-0.00362411 6.61034e-05 0)
(-0.00384401 6.36247e-05 0)
(-0.00405422 6.06971e-05 0)
(-0.00425318 5.73099e-05 0)
(-0.00443931 5.34536e-05 0)
(-0.00461102 4.91211e-05 0)
(-0.00476676 4.43093e-05 0)
(-0.00490494 3.90208e-05 0)
(-0.00502406 3.32649e-05 0)
(-0.00512264 2.70586e-05 0)
(-0.00519931 2.04281e-05 0)
(-0.00525282 1.3409e-05 0)
(-0.00528203 6.04707e-06 0)
(-0.00528602 -1.60156e-06 0)
(-0.00526405 -9.47043e-06 0)
(-0.00521562 -1.7483e-05 0)
(-0.0051405 -2.55533e-05 0)
(-0.00503876 -3.35871e-05 0)
(-0.00491077 -4.14826e-05 0)
(-0.00475723 -4.91326e-05 0)
(-0.00457921 -5.64262e-05 0)
(-0.0043781 -6.32506e-05 0)
(-0.00415566 -6.9494e-05 0)
(-0.00391399 -7.50476e-05 0)
(-0.0036555 -7.98084e-05 0)
(-0.00338294 -8.36818e-05 0)
(-0.0030993 -8.6584e-05 0)
(-0.00280783 -8.84445e-05 0)
(-0.00251195 -8.9208e-05 0)
(-0.00221523 -8.88362e-05 0)
(-0.00192133 -8.73095e-05 0)
(-0.00163392 -8.46275e-05 0)
(-0.00135664 -8.08096e-05 0)
(-0.00109303 -7.58951e-05 0)
(-0.000846464 -6.99429e-05 0)
(-0.000620088 -6.30305e-05 0)
(-0.000416754 -5.52542e-05 0)
(-0.000238959 -4.67279e-05 0)
(-8.87811e-05 -3.75846e-05 0)
(3.21911e-05 -2.79793e-05 0)
(0.000122944 -1.80946e-05 0)
(0.000183146 -8.15581e-06 0)
(0.0002133 1.5421e-06 0)
(0.000214995 1.0575e-05 0)
(0.000191281 1.8306e-05 0)
(0.00014719 2.37231e-05 0)
(9.08181e-05 2.51339e-05 0)
(3.66347e-05 1.98526e-05 0)
(6.2274e-06 6.2441e-06 0)
(2.08509e-05 -4.58978e-05 0)
(6.56457e-05 -6.57307e-05 0)
(9.47633e-05 -4.05767e-05 0)
(7.28752e-05 7.62281e-06 0)
(-1.88608e-05 6.56773e-05 0)
(-0.000187262 0.000126001 0)
(-0.000432912 0.000184314 0)
(-0.000752594 0.00023837 0)
(-0.00114076 0.000287028 0)
(-0.00159064 0.000329846 0)
(-0.00209487 0.000366783 0)
(-0.002646 0.00039803 0)
(-0.00323673 0.000423898 0)
(-0.00386007 0.000444754 0)
(-0.0045094 0.000460975 0)
(-0.00517853 0.000472921 0)
(-0.00586165 0.000480913 0)
(-0.00655333 0.000485227 0)
(-0.00724842 0.000486086 0)
(-0.00794204 0.000483663 0)
(-0.00862949 0.000478078 0)
(-0.00930621 0.000469408 0)
(-0.00996774 0.000457692 0)
(-0.0106096 0.000442938 0)
(-0.0112275 0.000425134 0)
(-0.0118169 0.000404259 0)
(-0.0123735 0.000380285 0)
(-0.0128928 0.000353198 0)
(-0.0133705 0.000322997 0)
(-0.0138022 0.000289709 0)
(-0.0141836 0.000253395 0)
(-0.0145107 0.000214157 0)
(-0.0147796 0.000172145 0)
(-0.0149866 0.000127564 0)
(-0.0151284 8.0671e-05 0)
(-0.0152023 3.17866e-05 0)
(-0.0152058 -1.87105e-05 0)
(-0.0151372 -7.0382e-05 0)
(-0.0149954 -0.000122733 0)
(-0.01478 -0.000175215 0)
(-0.0144913 -0.000227235 0)
(-0.0141306 -0.00027816 0)
(-0.0137 -0.000327328 0)
(-0.0132026 -0.000374061 0)
(-0.0126423 -0.000417674 0)
(-0.0120239 -0.000457492 0)
(-0.0113533 -0.000492862 0)
(-0.010637 -0.000523168 0)
(-0.00988246 -0.000547851 0)
(-0.00909773 -0.000566416 0)
(-0.00829154 -0.000578449 0)
(-0.00747306 -0.000583632 0)
(-0.00665182 -0.000581747 0)
(-0.00583758 -0.000572694 0)
(-0.00504012 -0.000556486 0)
(-0.00426909 -0.000533264 0)
(-0.0035339 -0.00050329 0)
(-0.00284345 -0.000466956 0)
(-0.00220603 -0.000424775 0)
(-0.00162912 -0.000377389 0)
(-0.0011192 -0.000325565 0)
(-0.000681566 -0.000270208 0)
(-0.000320128 -0.000212382 0)
(-3.71729e-05 -0.000153336 0)
(0.000166934 -9.45838e-05 0)
(0.000294116 -3.80022e-05 0)
(0.000349125 1.39466e-05 0)
(0.000340236 5.79574e-05 0)
(0.000279942 8.94372e-05 0)
(0.000186101 0.000101889 0)
(8.63889e-05 8.65418e-05 0)
(1.96836e-05 3.64955e-05 0)
(1.76425e-05 -8.13327e-05 0)
(4.13546e-05 -9.50715e-05 0)
(1.96423e-05 -1.91666e-05 0)
(-8.39514e-05 0.000105915 0)
(-0.000290218 0.000254661 0)
(-0.000607907 0.000410623 0)
(-0.00103828 0.000563486 0)
(-0.00157753 0.000707112 0)
(-0.00221849 0.00083805 0)
(-0.00295196 0.000954594 0)
(-0.00376767 0.00105615 0)
(-0.00465491 0.0011428 0)
(-0.00560295 0.00121508 0)
(-0.00660132 0.00127369 0)
(-0.00763998 0.00131948 0)
(-0.00870935 0.00135325 0)
(-0.00980036 0.00137578 0)
(-0.0109044 0.00138774 0)
(-0.0120133 0.0013897 0)
(-0.0131191 0.00138209 0)
(-0.0142143 0.00136526 0)
(-0.0152916 0.00133941 0)
(-0.0163436 0.00130468 0)
(-0.0173633 0.00126114 0)
(-0.0183435 0.00120879 0)
(-0.0192772 0.00114762 0)
(-0.0201575 0.00107762 0)
(-0.0209773 0.000998801 0)
(-0.0217297 0.000911238 0)
(-0.022408 0.000815065 0)
(-0.0230056 0.000710513 0)
(-0.0235162 0.000597927 0)
(-0.0239339 0.000477781 0)
(-0.0242532 0.00035069 0)
(-0.0244692 0.000217421 0)
(-0.0245778 7.88963e-05 0)
(-0.0245754 -6.38028e-05 0)
(-0.0244596 -0.00020944 0)
(-0.0242289 -0.000356633 0)
(-0.0238829 -0.000503863 0)
(-0.0234225 -0.000649494 0)
(-0.0228498 -0.000791793 0)
(-0.0221684 -0.000928958 0)
(-0.021383 -0.00105914 0)
(-0.0204998 -0.0011805 0)
(-0.0195266 -0.00129121 0)
(-0.0184723 -0.00138951 0)
(-0.017347 -0.00147377 0)
(-0.0161622 -0.00154247 0)
(-0.0149302 -0.00159431 0)
(-0.0136645 -0.00162818 0)
(-0.012379 -0.00164325 0)
(-0.0110883 -0.00163896 0)
(-0.00980727 -0.00161504 0)
(-0.00855075 -0.00157157 0)
(-0.00733346 -0.00150895 0)
(-0.00616965 -0.00142793 0)
(-0.00507285 -0.0013296 0)
(-0.00405561 -0.00121542 0)
(-0.0031292 -0.00108719 0)
(-0.00230337 -0.000947092 0)
(-0.00158601 -0.000797685 0)
(-0.000982843 -0.000641981 0)
(-0.000497114 -0.000483513 0)
(-0.000129129 -0.000326481 0)
(0.000124184 -0.000175973 0)
(0.000269923 -3.83083e-05 0)
(0.000319943 7.8494e-05 0)
(0.00029138 0.000164136 0)
(0.000207468 0.00020545 0)
(0.000102481 0.000186326 0)
(2.49826e-05 9.0413e-05 0)
(8.84478e-06 -9.77766e-05 0)
(-6.99373e-06 -7.31961e-05 0)
(-0.000107558 8.47482e-05 0)
(-0.000322352 0.000318359 0)
(-0.000669624 0.000590132 0)
(-0.00115778 0.000874437 0)
(-0.00178758 0.00115424 0)
(-0.00255424 0.00141875 0)
(-0.00344923 0.00166149 0)
(-0.00446151 0.00187893 0)
(-0.0055786 0.00206951 0)
(-0.0067873 0.00223298 0)
(-0.00807418 0.0023699 0)
(-0.009426 0.0024813 0)
(-0.0108299 0.00256847 0)
(-0.0122733 0.00263272 0)
(-0.0137444 0.00267534 0)
(-0.0152318 0.00269748 0)
(-0.0167246 0.00270013 0)
(-0.0182121 0.00268407 0)
(-0.0196843 0.0026499 0)
(-0.021131 0.00259804 0)
(-0.0225425 0.00252878 0)
(-0.0239093 0.00244226 0)
(-0.0252216 0.00233856 0)
(-0.0264702 0.00221773 0)
(-0.0276456 0.00207982 0)
(-0.0287385 0.00192494 0)
(-0.0297398 0.00175331 0)
(-0.0306407 0.00156527 0)
(-0.0314326 0.00136134 0)
(-0.0321072 0.00114226 0)
(-0.032657 0.000909014 0)
(-0.0330749 0.000662828 0)
(-0.0333547 0.000405222 0)
(-0.0334911 0.000137998 0)
(-0.03348 -0.000136755 0)
(-0.0333182 -0.000416666 0)
(-0.0330041 -0.000699098 0)
(-0.0325376 -0.000981174 0)
(-0.0319199 -0.0012598 0)
(-0.031154 -0.00153174 0)
(-0.0302448 -0.00179359 0)
(-0.0291987 -0.00204191 0)
(-0.028024 -0.00227327 0)
(-0.0267307 -0.00248428 0)
(-0.0253305 -0.00267167 0)
(-0.0238368 -0.00283241 0)
(-0.0222643 -0.00296372 0)
(-0.0206292 -0.00306317 0)
(-0.0189486 -0.00312875 0)
(-0.0172409 -0.0031589 0)
(-0.0155247 -0.00315261 0)
(-0.0138192 -0.00310943 0)
(-0.0121436 -0.00302951 0)
(-0.0105168 -0.00291363 0)
(-0.00895732 -0.00276323 0)
(-0.00748247 -0.00258041 0)
(-0.00610841 -0.00236792 0)
(-0.00484966 -0.00212923 0)
(-0.0037187 -0.00186847 0)
(-0.00272564 -0.00159055 0)
(-0.00187782 -0.00130119 0)
(-0.00117935 -0.00100706 0)
(-0.000630721 -0.000715972 0)
(-0.000228212 -0.000437211 0)
(3.66534e-05 -0.000181917 0)
(0.000177777 3.62942e-05 0)
(0.000214891 0.000200703 0)
(0.000174168 0.000290914 0)
(9.30609e-05 0.000282632 0)
(2.40343e-05 0.000147318 0)
(-2.12167e-06 -8.44459e-05 0)
(-6.72856e-05 2.08475e-05 0)
(-0.000264114 0.000295431 0)
(-0.000609805 0.000668059 0)
(-0.00111686 0.00109092 0)
(-0.0017915 0.00153008 0)
(-0.00263271 0.00196211 0)
(-0.00363415 0.00237152 0)
(-0.00478566 0.00274859 0)
(-0.00607454 0.00308768 0)
(-0.00748644 0.00338601 0)
(-0.00900609 0.00364278 0)
(-0.0106179 0.00385842 0)
(-0.0123063 0.0040342 0)
(-0.0140561 0.00417176 0)
(-0.0158523 0.00427293 0)
(-0.0176806 0.0043395 0)
(-0.0195272 0.00437312 0)
(-0.0213787 0.00437521 0)
(-0.0232221 0.00434694 0)
(-0.0250449 0.00428922 0)
(-0.0268347 0.00420272 0)
(-0.0285795 0.00408789 0)
(-0.0302672 0.00394503 0)
(-0.0318862 0.00377432 0)
(-0.0334248 0.00357593 0)
(-0.0348715 0.00335004 0)
(-0.0362149 0.00309692 0)
(-0.0374441 0.00281703 0)
(-0.0385481 0.00251102 0)
(-0.0395168 0.00217983 0)
(-0.0403403 0.00182476 0)
(-0.0410094 0.00144743 0)
(-0.0415159 0.00104992 0)
(-0.0418525 0.000634685 0)
(-0.042013 0.000204663 0)
(-0.0419926 -0.000236788 0)
(-0.0417878 -0.000685881 0)
(-0.041397 -0.00113842 0)
(-0.04082 -0.00158986 0)
(-0.0400589 -0.00203532 0)
(-0.0391173 -0.00246969 0)
(-0.0380012 -0.00288767 0)
(-0.0367185 -0.00328388 0)
(-0.0352793 -0.00365293 0)
(-0.0336956 -0.00398955 0)
(-0.0319816 -0.00428869 0)
(-0.0301533 -0.00454559 0)
(-0.0282283 -0.00475596 0)
(-0.0262261 -0.00491603 0)
(-0.024167 -0.00502268 0)
(-0.0220729 -0.00507351 0)
(-0.019966 -0.00506696 0)
(-0.0178693 -0.00500235 0)
(-0.0158057 -0.00487994 0)
(-0.0137977 -0.00470097 0)
(-0.0118673 -0.00446775 0)
(-0.0100353 -0.00418357 0)
(-0.0083209 -0.00385282 0)
(-0.00674148 -0.00348098 0)
(-0.00531198 -0.00307461 0)
(-0.00404452 -0.00264145 0)
(-0.00294799 -0.0021905 0)
(-0.00202751 -0.00173217 0)
(-0.00128403 -0.00127852 0)
(-0.000713786 -0.000843601 0)
(-0.000307776 -0.000443897 0)
(-5.12261e-05 -9.89767e-05 0)
(7.67473e-05 0.000167818 0)
(0.000103658 0.000328753 0)
(6.75361e-05 0.000351087 0)
(1.96722e-05 0.000194188 0)
(-1.36942e-05 -3.7561e-05 0)
(-0.000132841 0.000197336 0)
(-0.000435864 0.000626924 0)
(-0.000924737 0.00117044 0)
(-0.0016041 0.00177192 0)
(-0.0024765 0.0023905 0)
(-0.00353812 0.00299711 0)
(-0.00478024 0.00357194 0)
(-0.00619077 0.00410215 0)
(-0.0077552 0.00457997 0)
(-0.00945738 0.00500132 0)
(-0.0112803 0.0053647 0)
(-0.0132063 0.00567036 0)
(-0.0152181 0.00591967 0)
(-0.0172982 0.00611461 0)
(-0.0194298 0.00625743 0)
(-0.0215964 0.00635043 0)
(-0.023782 0.00639574 0)
(-0.0259712 0.00639522 0)
(-0.0281489 0.00635045 0)
(-0.0303002 0.00626265 0)
(-0.0324109 0.00613275 0)
(-0.0344667 0.00596144 0)
(-0.0364537 0.00574917 0)
(-0.0383581 0.0054963 0)
(-0.0401662 0.00520316 0)
(-0.0418647 0.00487012 0)
(-0.0434404 0.00449772 0)
(-0.0448805 0.00408671 0)
(-0.0461726 0.00363818 0)
(-0.0473047 0.00315364 0)
(-0.0482657 0.00263503 0)
(-0.0490453 0.00208483 0)
(-0.0496339 0.0015061 0)
(-0.0500233 0.00090248 0)
(-0.0502068 0.000278226 0)
(-0.0501788 -0.000361795 0)
(-0.0499358 -0.00101213 0)
(-0.0494759 -0.00166677 0)
(-0.0487992 -0.0023192 0)
(-0.0479081 -0.00296251 0)
(-0.0468071 -0.00358941 0)
(-0.0455031 -0.0041924 0)
(-0.0440053 -0.00476387 0)
(-0.0423252 -0.00529622 0)
(-0.0404768 -0.00578201 0)
(-0.0384761 -0.00621411 0)
(-0.0363414 -0.00658584 0)
(-0.034093 -0.00689113 0)
(-0.0317527 -0.0071247 0)
(-0.0293442 -0.00728215 0)
(-0.026892 -0.00736011 0)
(-0.0244217 -0.00735638 0)
(-0.0219594 -0.00727 0)
(-0.0195311 -0.00710136 0)
(-0.0171628 -0.00685224 0)
(-0.0148794 -0.0065259 0)
(-0.0127047 -0.00612704 0)
(-0.0106609 -0.00566192 0)
(-0.0087679 -0.0051383 0)
(-0.00704292 -0.00456554 0)
(-0.00550007 -0.00395462 0)
(-0.00414984 -0.00331824 0)
(-0.00299857 -0.00267101 0)
(-0.00204805 -0.00202965 0)
(-0.00129501 -0.00141336 0)
(-0.000730651 -0.00084429 0)
(-0.000340253 -0.000348117 0)
(-0.000102847 4.51744e-05 0)
(9.20705e-06 0.000300638 0)
(3.25221e-05 0.000377455 0)
(1.36268e-05 0.00022458 0)
(-2.51876e-05 4.40745e-05 0)
(-0.000200033 0.000461279 0)
(-0.000614153 0.00108715 0)
(-0.00125307 0.00183491 0)
(-0.00211231 0.00264268 0)
(-0.00318973 0.00346421 0)
(-0.00447776 0.00426586 0)
(-0.00596468 0.00502417 0)
(-0.00763599 0.00572352 0)
(-0.00947513 0.00635423 0)
(-0.0114641 0.00691097 0)
(-0.0135842 0.00739158 0)
(-0.015816 0.00779607 0)
(-0.0181404 0.00812587 0)
(-0.0205383 0.00838325 0)
(-0.022991 0.00857088 0)
(-0.0254803 0.00869149 0)
(-0.0279882 0.00874768 0)
(-0.0304975 0.00874176 0)
(-0.0329913 0.00867568 0)
(-0.0354528 0.00855101 0)
(-0.0378658 0.00836896 0)
(-0.0402144 0.00813045 0)
(-0.0424826 0.00783614 0)
(-0.044655 0.0074866 0)
(-0.0467161 0.00708237 0)
(-0.0486509 0.00662408 0)
(-0.0504445 0.00611258 0)
(-0.0520826 0.00554906 0)
(-0.0535513 0.00493513 0)
(-0.0548374 0.00427295 0)
(-0.0559283 0.00356527 0)
(-0.0568127 0.00281557 0)
(-0.0574801 0.00202805 0)
(-0.0579214 0.00120769 0)
(-0.0581292 0.000360271 0)
(-0.0580976 -0.00050763 0)
(-0.0578227 -0.00138868 0)
(-0.0573024 -0.00227483 0)
(-0.0565372 -0.0031574 0)
(-0.0555297 -0.00402714 0)
(-0.054285 -0.0048744 0)
(-0.0528107 -0.00568922 0)
(-0.0511172 -0.00646149 0)
(-0.0492171 -0.00718117 0)
(-0.047126 -0.0078384 0)
(-0.0448615 -0.00842375 0)
(-0.0424441 -0.0089284 0)
(-0.0398958 -0.00934432 0)
(-0.0372412 -0.00966449 0)
(-0.0345061 -0.00988311 0)
(-0.0317179 -0.00999569 0)
(-0.0289048 -0.00999931 0)
(-0.0260958 -0.00989268 0)
(-0.0233198 -0.00967629 0)
(-0.0206057 -0.0093525 0)
(-0.0179813 -0.00892558 0)
(-0.0154732 -0.0084018 0)
(-0.0131062 -0.00778943 0)
(-0.0109027 -0.00709879 0)
(-0.0088823 -0.00634226 0)
(-0.00706105 -0.00553437 0)
(-0.00545123 -0.00469185 0)
(-0.00406067 -0.00383382 0)
(-0.00289238 -0.00298197 0)
(-0.00194406 -0.00216089 0)
(-0.00120776 -0.00139853 0)
(-0.000669535 -0.000726747 0)
(-0.000309171 -0.000182029 0)
(-9.98244e-05 0.000193807 0)
(-7.6958e-06 0.000352632 0)
(6.86527e-06 0.000235063 0)
(-3.63439e-05 0.000160457 0)
(-0.000266975 0.000814547 0)
(-0.000793856 0.00167989 0)
(-0.00158585 0.00266647 0)
(-0.00262881 0.00370858 0)
(-0.00391516 0.00475616 0)
(-0.00543294 0.00577215 0)
(-0.00716686 0.00673029 0)
(-0.00909959 0.00761274 0)
(-0.0112123 0.00840825 0)
(-0.0134849 0.00911047 0)
(-0.0158969 0.00971669 0)
(-0.0184275 0.0102267 0)
(-0.0210557 0.0106421 0)
(-0.0237609 0.0109653 0)
(-0.0265229 0.0111995 0)
(-0.0293217 0.0113477 0)
(-0.032138 0.0114131 0)
(-0.0349529 0.0113983 0)
(-0.0377476 0.0113058 0)
(-0.040504 0.0111373 0)
(-0.0432042 0.0108944 0)
(-0.0458304 0.0105783 0)
(-0.0483653 0.0101899 0)
(-0.0507918 0.00972986 0)
(-0.0530928 0.00919913 0)
(-0.0552518 0.00859862 0)
(-0.0572525 0.00792956 0)
(-0.0590793 0.00719364 0)
(-0.0607168 0.00639307 0)
(-0.0621506 0.00553079 0)
(-0.0633671 0.00461048 0)
(-0.0643539 0.00363672 0)
(-0.0650997 0.00261499 0)
(-0.0655947 0.00155178 0)
(-0.0658306 0.000454557 0)
(-0.0658012 -0.000668244 0)
(-0.0655023 -0.00180723 0)
(-0.0649317 -0.00295211 0)
(-0.0640899 -0.00409184 0)
(-0.0629796 -0.00521466 0)
(-0.0616064 -0.00630832 0)
(-0.0599785 -0.00736018 0)
(-0.058107 -0.00835747 0)
(-0.0560057 -0.00928744 0)
(-0.0536912 -0.0101376 0)
(-0.0511828 -0.0108961 0)
(-0.0485022 -0.0115516 0)
(-0.0456736 -0.0120941 0)
(-0.0427234 -0.0125145 0)
(-0.0396797 -0.0128056 0)
(-0.0365721 -0.0129616 0)
(-0.0334314 -0.0129786 0)
(-0.0302891 -0.0128551 0)
(-0.027177 -0.0125916 0)
(-0.0241264 -0.0121909 0)
(-0.021168 -0.0116585 0)
(-0.0183311 -0.0110022 0)
(-0.0156431 -0.0102325 0)
(-0.013129 -0.00936227 0)
(-0.0108105 -0.00840726 0)
(-0.00870601 -0.00738571 0)
(-0.00682978 -0.00631862 0)
(-0.00519142 -0.00522983 0)
(-0.00379552 -0.00414621 0)
(-0.00264125 -0.0030979 0)
(-0.00172201 -0.00211871 0)
(-0.00102523 -0.00124661 0)
(-0.000532078 -0.000524419 0)
(-0.000217195 -3.47875e-07 0)
(-5.04489e-05 0.000271047 0)
(-8.09694e-08 0.000223928 0)
(-4.70665e-05 0.00031095 0)
(-0.000332684 0.00125705 0)
(-0.000971974 0.00240612 0)
(-0.00191748 0.003667 0)
(-0.00314518 0.00497194 0)
(-0.00464172 0.00626858 0)
(-0.00639029 0.00751763 0)
(-0.00837158 0.0086909 0)
(-0.0105651 0.00976904 0)
(-0.0129494 0.0107397 0)
(-0.0155024 0.0115958 0)
(-0.0182017 0.0123343 0)
(-0.0210246 0.0129549 0)
(-0.023949 0.0134594 0)
(-0.0269526 0.0138505 0)
(-0.0300137 0.0141318 0)
(-0.0331112 0.0143068 0)
(-0.0362242 0.0143789 0)
(-0.0393323 0.0143514 0)
(-0.0424156 0.0142269 0)
(-0.0454543 0.0140077 0)
(-0.0484291 0.0136955 0)
(-0.0513209 0.0132917 0)
(-0.0541109 0.0127976 0)
(-0.0567805 0.0122142 0)
(-0.0593115 0.0115425 0)
(-0.0616859 0.010784 0)
(-0.0638861 0.00994017 0)
(-0.0658952 0.00901341 0)
(-0.0676968 0.00800659 0)
(-0.0692753 0.00692348 0)
(-0.0706161 0.00576879 0)
(-0.0717058 0.0045483 0)
(-0.0725323 0.00326891 0)
(-0.073085 0.00193872 0)
(-0.0733551 0.000566991 0)
(-0.0733358 -0.000835807 0)
(-0.0730224 -0.00225808 0)
(-0.0724127 -0.00368717 0)
(-0.0715069 -0.00510947 0)
(-0.0703078 -0.00651057 0)
(-0.0688213 -0.00787541 0)
(-0.0670559 -0.00918854 0)
(-0.0650232 -0.0104343 0)
(-0.0627378 -0.011597 0)
(-0.0602172 -0.0126614 0)
(-0.0574819 -0.0136129 0)
(-0.0545548 -0.0144377 0)
(-0.0514619 -0.0151232 0)
(-0.0482311 -0.0156586 0)
(-0.0448925 -0.0160346 0)
(-0.0414779 -0.0162441 0)
(-0.0380203 -0.0162824 0)
(-0.0345537 -0.0161472 0)
(-0.0311123 -0.0158392 0)
(-0.0277302 -0.0153616 0)
(-0.0244407 -0.014721 0)
(-0.0212758 -0.0139268 0)
(-0.0182655 -0.0129917 0)
(-0.0154373 -0.0119315 0)
(-0.0128158 -0.0107653 0)
(-0.0104216 -0.00951509 0)
(-0.00827111 -0.00820644 0)
(-0.00637615 -0.00686805 0)
(-0.00474327 -0.00553208 0)
(-0.00337349 -0.00423432 0)
(-0.00226203 -0.00301447 0)
(-0.00139819 -0.00191656 0)
(-0.000764993 -0.000989462 0)
(-0.000338999 -0.000287353 0)
(-9.41775e-05 0.00012959 0)
(-6.94151e-06 0.000190524 0)
(-5.73436e-05 0.000494651 0)
(-0.000396676 0.00178756 0)
(-0.00114677 0.00326495 0)
(-0.00224442 0.00483612 0)
(-0.00365586 0.00643275 0)
(-0.00536177 0.00800151 0)
(-0.00734021 0.00950204 0)
(-0.00956761 0.0109051 0)
(-0.01202 0.0121906 0)
(-0.0146733 0.0133456 0)
(-0.0175029 0.0143628 0)
(-0.0204845 0.015239 0)
(-0.0235941 0.0159741 0)
(-0.0268076 0.0165701 0)
(-0.0301016 0.0170301 0)
(-0.0334533 0.0173582 0)
(-0.03684 0.0175583 0)
(-0.0402398 0.0176343 0)
(-0.0436309 0.0175897 0)
(-0.0469923 0.0174278 0)
(-0.0503029 0.0171509 0)
(-0.0535423 0.0167611 0)
(-0.05669 0.0162602 0)
(-0.0597261 0.0156496 0)
(-0.0626308 0.0149306 0)
(-0.0653845 0.0141046 0)
(-0.0679681 0.0131733 0)
(-0.070363 0.012139 0)
(-0.0725511 0.0110044 0)
(-0.0745149 0.00977328 0)
(-0.0762378 0.00845025 0)
(-0.0777042 0.00704114 0)
(-0.0788999 0.00555302 0)
(-0.0798118 0.00399429 0)
(-0.0804287 0.00237472 0)
(-0.0807411 0.000705513 0)
(-0.0807415 -0.00100075 0)
(-0.0804249 -0.00273016 0)
(-0.0797885 -0.00446754 0)
(-0.0788323 -0.00619662 0)
(-0.0775591 -0.00790017 0)
(-0.0759745 -0.0095602 0)
(-0.0740874 -0.0111582 0)
(-0.0719095 -0.0126755 0)
(-0.0694561 -0.0140934 0)
(-0.0667452 -0.0153936 0)
(-0.0637981 -0.0165585 0)
(-0.0606391 -0.0175716 0)
(-0.0572951 -0.0184179 0)
(-0.0537958 -0.019084 0)
(-0.0501728 -0.0195589 0)
(-0.0464601 -0.0198338 0)
(-0.0426927 -0.0199029 0)
(-0.0389068 -0.0197632 0)
(-0.0351394 -0.0194152 0)
(-0.0314269 -0.0188627 0)
(-0.0278055 -0.0181131 0)
(-0.0243099 -0.0171775 0)
(-0.020973 -0.0160709 0)
(-0.0178251 -0.014812 0)
(-0.0148933 -0.0134231 0)
(-0.0122011 -0.0119304 0)
(-0.00976743 -0.010364 0)
(-0.0076065 -0.00875762 0)
(-0.00572724 -0.00714879 0)
(-0.00413293 -0.00557903 0)
(-0.002821 -0.00409395 0)
(-0.00178296 -0.00274353 0)
(-0.00100404 -0.00158254 0)
(-0.00046302 -0.000670752 0)
(-0.000138064 -7.33553e-05 0)
(-1.36005e-05 0.00013477 0)
(-6.71926e-05 0.000710526 0)
(-0.000458725 0.00240416 0)
(-0.00131724 0.0042543 0)
(-0.00256445 0.00617186 0)
(-0.00415712 0.00808921 0)
(-0.00606995 0.00995321 0)
(-0.00827578 0.0117235 0)
(-0.0107466 0.0133707 0)
(-0.0134548 0.0148747 0)
(-0.0163733 0.0162226 0)
(-0.0194752 0.0174071 0)
(-0.0227342 0.0184255 0)
(-0.0261245 0.019278 0)
(-0.0296206 0.019967 0)
(-0.0331979 0.0204963 0)
(-0.0368323 0.0208702 0)
(-0.0404999 0.0210933 0)
(-0.0441779 0.0211699 0)
(-0.0478434 0.021104 0)
(-0.0514742 0.0208989 0)
(-0.0550483 0.0205577 0)
(-0.0585441 0.0200826 0)
(-0.0619403 0.0194756 0)
(-0.0652157 0.0187384 0)
(-0.0683495 0.0178726 0)
(-0.0713211 0.01688 0)
(-0.0741104 0.0157626 0)
(-0.0766976 0.0145232 0)
(-0.0790637 0.0131653 0)
(-0.0811902 0.0116934 0)
(-0.0830597 0.0101129 0)
(-0.0846555 0.00843102 0)
(-0.0859625 0.00665602 0)
(-0.0869669 0.00479787 0)
(-0.0876566 0.00286813 0)
(-0.0880213 0.000879974 0)
(-0.088053 -0.00115182 0)
(-0.0877458 -0.00321094 0)
(-0.0870965 -0.00527962 0)
(-0.0861046 -0.00733878 0)
(-0.0847725 -0.00936827 0)
(-0.0831056 -0.011347 0)
(-0.0811127 -0.0132534 0)
(-0.0788055 -0.0150655 0)
(-0.0761994 -0.0167613 0)
(-0.073313 -0.0183194 0)
(-0.0701681 -0.019719 0)
(-0.0667898 -0.0209407 0)
(-0.0632062 -0.0219666 0)
(-0.059448 -0.0227809 0)
(-0.0555488 -0.0233704 0)
(-0.051544 -0.0237244 0)
(-0.0474709 -0.0238357 0)
(-0.043368 -0.0237007 0)
(-0.0392745 -0.0233192 0)
(-0.0352299 -0.0226956 0)
(-0.0312728 -0.0218381 0)
(-0.0274412 -0.0207594 0)
(-0.0237707 -0.0194766 0)
(-0.0202948 -0.0180112 0)
(-0.0170436 -0.0163893 0)
(-0.0140434 -0.014641 0)
(-0.0113163 -0.012801 0)
(-0.00887923 -0.0109082 0)
(-0.0067438 -0.00900557 0)
(-0.00491592 -0.00714047 0)
(-0.00339558 -0.00536443 0)
(-0.00217684 -0.00373338 0)
(-0.00124737 -0.00230786 0)
(-0.000588246 -0.00115299 0)
(-0.000181782 -0.000338628 0)
(-2.00315e-05 5.68341e-05 0)
(-7.66379e-05 0.000957499 0)
(-0.000518728 0.00310455 0)
(-0.00148278 0.00537128 0)
(-0.00287613 0.00767113 0)
(-0.00464642 0.00993816 0)
(-0.00676246 0.0121205 0)
(-0.00919186 0.0141787 0)
(-0.0119021 0.0160841 0)
(-0.0148619 0.0178173 0)
(-0.018041 0.0193661 0)
(-0.0214103 0.0207238 0)
(-0.0249412 0.0218883 0)
(-0.0286062 0.0228605 0)
(-0.0323785 0.0236436 0)
(-0.0362322 0.0242418 0)
(-0.040142 0.0246602 0)
(-0.0440832 0.0249039 0)
(-0.0480318 0.0249777 0)
(-0.0519641 0.0248861 0)
(-0.055857 0.0246327 0)
(-0.0596877 0.0242209 0)
(-0.0634336 0.0236532 0)
(-0.0670724 0.0229318 0)
(-0.0705822 0.0220588 0)
(-0.0739411 0.021036 0)
(-0.0771278 0.0198655 0)
(-0.0801211 0.0185499 0)
(-0.0829005 0.0170924 0)
(-0.0854458 0.0154972 0)
(-0.0877379 0.0137694 0)
(-0.0897582 0.0119156 0)
(-0.0914893 0.00994413 0)
(-0.0929152 0.00786457 0)
(-0.0940211 0.0056885 0)
(-0.094794 0.00342926 0)
(-0.095223 0.00110204 0)
(-0.095299 -0.00127614 0)
(-0.0950154 -0.00368649 0)
(-0.0943683 -0.00610858 0)
(-0.0933565 -0.00852049 0)
(-0.0919818 -0.010899 0)
(-0.090249 -0.0132199 0)
(-0.0881665 -0.0154582 0)
(-0.085746 -0.0175887 0)
(-0.0830026 -0.0195858 0)
(-0.079955 -0.0214249 0)
(-0.0766255 -0.0230817 0)
(-0.0730396 -0.0245336 0)
(-0.0692264 -0.0257597 0)
(-0.0652177 -0.0267415 0)
(-0.0610483 -0.027463 0)
(-0.0567556 -0.0279118 0)
(-0.0523787 -0.028079 0)
(-0.0479585 -0.0279597 0)
(-0.0435367 -0.0275535 0)
(-0.0391555 -0.0268645 0)
(-0.0348566 -0.0259019 0)
(-0.030681 -0.0246798 0)
(-0.0266676 -0.0232174 0)
(-0.0228533 -0.0215391 0)
(-0.0192715 -0.0196744 0)
(-0.0159519 -0.0176577 0)
(-0.0129197 -0.0155282 0)
(-0.0101952 -0.0133301 0)
(-0.00779303 -0.011112 0)
(-0.00572209 -0.00892715 0)
(-0.00398524 -0.00683304 0)
(-0.00257932 -0.0048916 0)
(-0.00149461 -0.00316914 0)
(-0.00071452 -0.00173608 0)
(-0.000225332 -0.000666791 0)
(-2.6261e-05 -4.30673e-05 0)
(-8.57007e-05 0.00123448 0)
(-0.000576633 0.0038862 0)
(-0.00164301 0.00661246 0)
(-0.00317849 0.00933001 0)
(-0.00512194 0.0119754 0)
(-0.00743648 0.014499 0)
(-0.0100846 0.0168631 0)
(-0.0130291 0.0190407 0)
(-0.0162353 0.0210136 0)
(-0.0196696 0.022771 0)
(-0.0233004 0.0243073 0)
(-0.0270972 0.0256214 0)
(-0.0310307 0.0267154 0)
(-0.0350727 0.0275931 0)
(-0.0391961 0.0282598 0)
(-0.0433744 0.0287212 0)
(-0.0475823 0.0289831 0)
(-0.0517946 0.0290508 0)
(-0.0559872 0.0289292 0)
(-0.0601359 0.0286225 0)
(-0.0642173 0.0281343 0)
(-0.068208 0.0274674 0)
(-0.0720851 0.0266242 0)
(-0.0758258 0.0256071 0)
(-0.0794075 0.0244183 0)
(-0.0828081 0.02306 0)
(-0.0860056 0.0215354 0)
(-0.0889787 0.0198481 0)
(-0.0917064 0.0180029 0)
(-0.0941686 0.0160058 0)
(-0.0963459 0.0138645 0)
(-0.0982201 0.0115882 0)
(-0.0997742 0.00918792 0)
(-0.100992 0.00667688 0)
(-0.101861 0.00407019 0)
(-0.102368 0.00138505 0)
(-0.102503 -0.00135924 0)
(-0.102258 -0.00414143 0)
(-0.10163 -0.00693837 0)
(-0.100615 -0.00972521 0)
(-0.0992151 -0.0124756 0)
(-0.0974337 -0.0151621 0)
(-0.0952788 -0.0177563 0)
(-0.0927613 -0.0202293 0)
(-0.0898961 -0.0225522 0)
(-0.0867018 -0.0246964 0)
(-0.0832005 -0.0266344 0)
(-0.0794184 -0.0283398 0)
(-0.0753849 -0.0297886 0)
(-0.0711329 -0.030959 0)
(-0.0666985 -0.0318325 0)
(-0.0621206 -0.0323941 0)
(-0.0574403 -0.0326329 0)
(-0.0527008 -0.0325427 0)
(-0.0479465 -0.0321224 0)
(-0.0432223 -0.0313758 0)
(-0.0385733 -0.0303127 0)
(-0.0340438 -0.0289484 0)
(-0.0296763 -0.0273043 0)
(-0.0255112 -0.0254074 0)
(-0.0215858 -0.0232907 0)
(-0.0179334 -0.0209928 0)
(-0.0145831 -0.0185577 0)
(-0.0115586 -0.0160348 0)
(-0.008878 -0.0134786 0)
(-0.00655365 -0.0109482 0)
(-0.00459152 -0.00850725 0)
(-0.00299146 -0.00622387 0)
(-0.00174647 -0.00417021 0)
(-0.000842289 -0.00242208 0)
(-0.000268934 -0.00105849 0)
(-3.23473e-05 -0.0001648 0)
(-9.43961e-05 0.00154036 0)
(-0.000632403 0.00474639 0)
(-0.00179766 0.00797404 0)
(-0.00347077 0.011144 0)
(-0.00558226 0.014196 0)
(-0.00808975 0.0170835 0)
(-0.0109507 0.0197713 0)
(-0.0141236 0.0222348 0)
(-0.0175699 0.0244578 0)
(-0.0212532 0.0264312 0)
(-0.0251391 0.0281514 0)
(-0.0291952 0.0296185 0)
(-0.0333904 0.030836 0)
(-0.0376953 0.0318089 0)
(-0.0420815 0.0325435 0)
(-0.0465216 0.0330464 0)
(-0.0509894 0.0333241 0)
(-0.0554592 0.0333826 0)
(-0.0599058 0.0332273 0)
(-0.0643048 0.0328628 0)
(-0.068632 0.032293 0)
(-0.0728634 0.031521 0)
(-0.0769754 0.0305496 0)
(-0.0809447 0.0293812 0)
(-0.0847481 0.0280184 0)
(-0.0883628 0.0264637 0)
(-0.091766 0.0247206 0)
(-0.0949357 0.0227933 0)
(-0.0978503 0.0206872 0)
(-0.100489 0.018409 0)
(-0.102831 0.0159673 0)
(-0.104857 0.0133725 0)
(-0.106551 0.010637 0)
(-0.107894 0.0077754 0)
(-0.108871 0.00480464 0)
(-0.109471 0.00174394 0)
(-0.109681 -0.00138519 0)
(-0.109493 -0.00455899 0)
(-0.108901 -0.00775159 0)
(-0.107902 -0.0109352 0)
(-0.106495 -0.0140803 0)
(-0.104683 -0.0171561 0)
(-0.102474 -0.0201306 0)
(-0.0998765 -0.0229712 0)
(-0.0969057 -0.0256453 0)
(-0.0935795 -0.0281204 0)
(-0.0899199 -0.030365 0)
(-0.0859528 -0.0323493 0)
(-0.0817083 -0.0340452 0)
(-0.07722 -0.0354279 0)
(-0.0725251 -0.0364754 0)
(-0.0676639 -0.0371701 0)
(-0.0626797 -0.0374988 0)
(-0.0576178 -0.0374536 0)
(-0.0525254 -0.037032 0)
(-0.0474505 -0.0362377 0)
(-0.0424415 -0.0350805 0)
(-0.0375464 -0.0335769 0)
(-0.0328116 -0.03175 0)
(-0.0282817 -0.0296297 0)
(-0.0239979 -0.0272522 0)
(-0.0199978 -0.0246603 0)
(-0.0163146 -0.0219031 0)
(-0.012976 -0.0190351 0)
(-0.0100041 -0.0161168 0)
(-0.00741479 -0.0132136 0)
(-0.00521758 -0.0103953 0)
(-0.00341553 -0.00773652 0)
(-0.00200448 -0.00531542 0)
(-0.000972429 -0.0032135 0)
(-0.00031296 -0.00151471 0)
(-3.83686e-05 -0.000308402 0)
(-0.000102732 0.00187405 0)
(-0.000685993 0.00568228 0)
(-0.00194646 0.00945188 0)
(-0.00375234 0.0131079 0)
(-0.0060262 0.0165943 0)
(-0.00872039 0.0198679 0)
(-0.0117876 0.0228969 0)
(-0.015182 0.0256598 0)
(-0.0188613 0.0281431 0)
(-0.0227864 0.0303401 0)
(-0.0269202 0.0322492 0)
(-0.0312283 0.0338727 0)
(-0.0356781 0.0352154 0)
(-0.0402386 0.0362841 0)
(-0.0448806 0.0370861 0)
(-0.0495757 0.0376292 0)
(-0.0542968 0.0379206 0)
(-0.0590177 0.0379672 0)
(-0.0637127 0.0377749 0)
(-0.0683568 0.0373487 0)
(-0.0729253 0.0366928 0)
(-0.0773938 0.0358108 0)
(-0.0817383 0.0347056 0)
(-0.0859347 0.0333799 0)
(-0.0899596 0.0318363 0)
(-0.0937894 0.030078 0)
(-0.0974009 0.0281085 0)
(-0.100771 0.0259325 0)
(-0.103879 0.023556 0)
(-0.106701 0.0209865 0)
(-0.109216 0.0182333 0)
(-0.111406 0.015308 0)
(-0.11325 0.0122241 0)
(-0.114732 0.00899784 0)
(-0.115834 0.00564776 0)
(-0.116543 0.00219502 0)
(-0.116846 -0.00133664 0)
(-0.116733 -0.00492102 0)
(-0.116196 -0.00852957 0)
(-0.115232 -0.0121315 0)
(-0.113838 -0.0156942 0)
(-0.112015 -0.0191832 0)
(-0.10977 -0.022563 0)
(-0.107112 -0.0257972 0)
(-0.104052 -0.0288491 0)
(-0.10061 -0.0316822 0)
(-0.0968059 -0.034261 0)
(-0.092666 -0.0365514 0)
(-0.0882202 -0.0385214 0)
(-0.0835028 -0.0401423 0)
(-0.078552 -0.0413886 0)
(-0.0734094 -0.0422395 0)
(-0.0681203 -0.0426791 0)
(-0.0627323 -0.0426972 0)
(-0.0572954 -0.0422898 0)
(-0.0518609 -0.0414597 0)
(-0.0464808 -0.0402168 0)
(-0.0412071 -0.0385784 0)
(-0.0360906 -0.036569 0)
(-0.03118 -0.0342212 0)
(-0.0265215 -0.0315745 0)
(-0.0221571 -0.028676 0)
(-0.0181246 -0.0255795 0)
(-0.0144563 -0.0223453 0)
(-0.0111785 -0.0190397 0)
(-0.00831123 -0.0157346 0)
(-0.0058678 -0.0125066 0)
(-0.00385471 -0.00943685 0)
(-0.00227072 -0.00660997 0)
(-0.00110612 -0.00411355 0)
(-0.000357881 -0.00203694 0)
(-4.44149e-05 -0.00047414 0)
(-0.000110708 0.00223442 0)
(-0.000737342 0.0066909 0)
(-0.00208917 0.0110416 0)
(-0.0040226 0.0152164 0)
(-0.00645264 0.019164 0)
(-0.00932666 0.0228453 0)
(-0.0125927 0.0262328 0)
(-0.0162009 0.0293085 0)
(-0.0201055 0.0320621 0)
(-0.0242644 0.0344901 0)
(-0.0286381 0.0365933 0)
(-0.0331904 0.0383764 0)
(-0.0378868 0.0398463 0)
(-0.0426954 0.0410113 0)
(-0.0475856 0.0418805 0)
(-0.0525284 0.0424626 0)
(-0.0574961 0.0427661 0)
(-0.0624619 0.0427985 0)
(-0.0673996 0.0425665 0)
(-0.0722838 0.0420754 0)
(-0.0770895 0.04133 0)
(-0.0817919 0.040334 0)
(-0.0863665 0.0390906 0)
(-0.0907892 0.0376026 0)
(-0.0950359 0.035873 0)