/*--------------------------------*- C++ -*----------------------------------*\
  =========                 |
  \\      /  F ield         | OpenFOAM: The Open Source CFD Toolbox
   \\    /   O peration     | Website:  https://openfoam.org
    \\  /    A nd           | Version:  dev
     \\/     M anipulation  |
\*---------------------------------------------------------------------------*/
FoamFile
{
    format      ascii;
    class       volScalarField;
    location    "36.9";
    object      Uy;
}
// * * * * * * * * * * * * * * * * * * * * * * * * * * * * * * * * * * * * * //

dimensions      [0 1 -1 0 0 0 0];

internalField   nonuniform List<scalar> 
5184
(
-1.2713e-05
-2.08943e-05
-1.72528e-05
-8.19956e-06
2.66754e-06
1.36179e-05
2.38476e-05
3.30516e-05
4.11107e-05
4.80303e-05
5.38722e-05
5.87212e-05
6.26697e-05
6.58091e-05
6.82242e-05
6.99903e-05
7.11717e-05
7.18209e-05
7.19787e-05
7.16748e-05
7.09284e-05
6.97501e-05
6.81428e-05
6.61034e-05
6.36247e-05
6.06971e-05
5.73099e-05
5.34536e-05
4.91211e-05
4.43093e-05
3.90208e-05
3.32649e-05
2.70586e-05
2.04281e-05
1.3409e-05
6.04707e-06
-1.60156e-06
-9.47043e-06
-1.7483e-05
-2.55533e-05
-3.35871e-05
-4.14826e-05
-4.91326e-05
-5.64262e-05
-6.32506e-05
-6.9494e-05
-7.50476e-05
-7.98084e-05
-8.36818e-05
-8.6584e-05
-8.84445e-05
-8.9208e-05
-8.88362e-05
-8.73095e-05
-8.46275e-05
-8.08096e-05
-7.58951e-05
-6.99429e-05
-6.30305e-05
-5.52542e-05
-4.67279e-05
-3.75846e-05
-2.79793e-05
-1.80946e-05
-8.15581e-06
1.5421e-06
1.0575e-05
1.8306e-05
2.37231e-05
2.51339e-05
1.98526e-05
6.2441e-06
-4.58978e-05
-6.57307e-05
-4.05767e-05
7.62281e-06
6.56773e-05
0.000126001
0.000184314
0.00023837
0.000287028
0.000329846
0.000366783
0.00039803
0.000423898
0.000444754
0.000460975
0.000472921
0.000480913
0.000485227
0.000486086
0.000483663
0.000478078
0.000469408
0.000457692
0.000442938
0.000425134
0.000404259
0.000380285
0.000353198
0.000322997
0.000289709
0.000253395
0.000214157
0.000172145
0.000127564
8.0671e-05
3.17866e-05
-1.87105e-05
-7.0382e-05
-0.000122733
-0.000175215
-0.000227235
-0.00027816
-0.000327328
-0.000374061
-0.000417674
-0.000457492
-0.000492862
-0.000523168
-0.000547851
-0.000566416
-0.000578449
-0.000583632
-0.000581747
-0.000572694
-0.000556486
-0.000533264
-0.00050329
-0.000466956
-0.000424775
-0.000377389
-0.000325565
-0.000270208
-0.000212382
-0.000153336
-9.45838e-05
-3.80022e-05
1.39466e-05
5.79574e-05
8.94372e-05
0.000101889
8.65418e-05
3.64955e-05
-8.13327e-05
-9.50715e-05
-1.91666e-05
0.000105915
0.000254661
0.000410623
0.000563486
0.000707112
0.00083805
0.000954594
0.00105615
0.0011428
0.00121508
0.00127369
0.00131948
0.00135325
0.00137578
0.00138774
0.0013897
0.00138209
0.00136526
0.00133941
0.00130468
0.00126114
0.00120879
0.00114762
0.00107762
0.000998801
0.000911238
0.000815065
0.000710513
0.000597927
0.000477781
0.00035069
0.000217421
7.88963e-05
-6.38028e-05
-0.00020944
-0.000356633
-0.000503863
-0.000649494
-0.000791793
-0.000928958
-0.00105914
-0.0011805
-0.00129121
-0.00138951
-0.00147377
-0.00154247
-0.00159431
-0.00162818
-0.00164325
-0.00163896
-0.00161504
-0.00157157
-0.00150895
-0.00142793
-0.0013296
-0.00121542
-0.00108719
-0.000947092
-0.000797685
-0.000641981
-0.000483513
-0.000326481
-0.000175973
-3.83083e-05
7.8494e-05
0.000164136
0.00020545
0.000186326
9.0413e-05
-9.77766e-05
-7.31961e-05
8.47482e-05
0.000318359
0.000590132
0.000874437
0.00115424
0.00141875
0.00166149
0.00187893
0.00206951
0.00223298
0.0023699
0.0024813
0.00256847
0.00263272
0.00267534
0.00269748
0.00270013
0.00268407
0.0026499
0.00259804
0.00252878
0.00244226
0.00233856
0.00221773
0.00207982
0.00192494
0.00175331
0.00156527
0.00136134
0.00114226
0.000909014
0.000662828
0.000405222
0.000137998
-0.000136755
-0.000416666
-0.000699098
-0.000981174
-0.0012598
-0.00153174
-0.00179359
-0.00204191
-0.00227327
-0.00248428
-0.00267167
-0.00283241
-0.00296372
-0.00306317
-0.00312875
-0.0031589
-0.00315261
-0.00310943
-0.00302951
-0.00291363
-0.00276323
-0.00258041
-0.00236792
-0.00212923
-0.00186847
-0.00159055
-0.00130119
-0.00100706
-0.000715972
-0.000437211
-0.000181917
3.62942e-05
0.000200703
0.000290914
0.000282632
0.000147318
-8.44459e-05
2.08475e-05
0.000295431
0.000668059
0.00109092
0.00153008
0.00196211
0.00237152
0.00274859
0.00308768
0.00338601
0.00364278
0.00385842
0.0040342
0.00417176
0.00427293
0.0043395
0.00437312
0.00437521
0.00434694
0.00428922
0.00420272
0.00408789
0.00394503
0.00377432
0.00357593
0.00335004
0.00309692
0.00281703
0.00251102
0.00217983
0.00182476
0.00144743
0.00104992
0.000634685
0.000204663
-0.000236788
-0.000685881
-0.00113842
-0.00158986
-0.00203532
-0.00246969
-0.00288767
-0.00328388
-0.00365293
-0.00398955
-0.00428869
-0.00454559
-0.00475596
-0.00491603
-0.00502268
-0.00507351
-0.00506696
-0.00500235
-0.00487994
-0.00470097
-0.00446775
-0.00418357
-0.00385282
-0.00348098
-0.00307461
-0.00264145
-0.0021905
-0.00173217
-0.00127852
-0.000843601
-0.000443897
-9.89767e-05
0.000167818
0.000328753
0.000351087
0.000194188
-3.7561e-05
0.000197336
0.000626924
0.00117044
0.00177192
0.0023905
0.00299711
0.00357194
0.00410215
0.00457997
0.00500132
0.0053647
0.00567036
0.00591967
0.00611461
0.00625743
0.00635043
0.00639574
0.00639522
0.00635045
0.00626265
0.00613275
0.00596144
0.00574917
0.0054963
0.00520316
0.00487012
0.00449772
0.00408671
0.00363818
0.00315364
0.00263503
0.00208483
0.0015061
0.00090248
0.000278226
-0.000361795
-0.00101213
-0.00166677
-0.0023192
-0.00296251
-0.00358941
-0.0041924
-0.00476387
-0.00529622
-0.00578201
-0.00621411
-0.00658584
-0.00689113
-0.0071247
-0.00728215
-0.00736011
-0.00735638
-0.00727
-0.00710136
-0.00685224
-0.0065259
-0.00612704
-0.00566192
-0.0051383
-0.00456554
-0.00395462
-0.00331824
-0.00267101
-0.00202965
-0.00141336
-0.00084429
-0.000348117
4.51744e-05
0.000300638
0.000377455
0.00022458
4.40745e-05
0.000461279
0.00108715
0.00183491
0.00264268
0.00346421
0.00426586
0.00502417
0.00572352
0.00635423
0.00691097
0.00739158
0.00779607
0.00812587
0.00838325
0.00857088
0.00869149
0.00874768
0.00874176
0.00867568
0.00855101
0.00836896
0.00813045
0.00783614
0.0074866
0.00708237
0.00662408
0.00611258
0.00554906
0.00493513
0.00427295
0.00356527
0.00281557
0.00202805
0.00120769
0.000360271
-0.00050763
-0.00138868
-0.00227483
-0.0031574
-0.00402714
-0.0048744
-0.00568922
-0.00646149
-0.00718117
-0.0078384
-0.00842375
-0.0089284
-0.00934432
-0.00966449
-0.00988311
-0.00999569
-0.00999931
-0.00989268
-0.00967629
-0.0093525
-0.00892558
-0.0084018
-0.00778943
-0.00709879
-0.00634226
-0.00553437
-0.00469185
-0.00383382
-0.00298197
-0.00216089
-0.00139853
-0.000726747
-0.000182029
0.000193807
0.000352632
0.000235063
0.000160457
0.000814547
0.00167989
0.00266647
0.00370858
0.00475616
0.00577215
0.00673029
0.00761274
0.00840825
0.00911047
0.00971669
0.0102267
0.0106421
0.0109653
0.0111995
0.0113477
0.0114131
0.0113983
0.0113058
0.0111373
0.0108944
0.0105783
0.0101899
0.00972986
0.00919913
0.00859862
0.00792956
0.00719364
0.00639307
0.00553079
0.00461048
0.00363672
0.00261499
0.00155178
0.000454557
-0.000668244
-0.00180723
-0.00295211
-0.00409184
-0.00521466
-0.00630832
-0.00736018
-0.00835747
-0.00928744
-0.0101376
-0.0108961
-0.0115516
-0.0120941
-0.0125145
-0.0128056
-0.0129616
-0.0129786
-0.0128551
-0.0125916
-0.0121909
-0.0116585
-0.0110022
-0.0102325
-0.00936227
-0.00840726
-0.00738571
-0.00631862
-0.00522983
-0.00414621
-0.0030979
-0.00211871
-0.00124661
-0.000524419
-3.47875e-07
0.000271047
0.000223928
0.00031095
0.00125705
0.00240612
0.003667
0.00497194
0.00626858
0.00751763
0.0086909
0.00976904
0.0107397
0.0115958
0.0123343
0.0129549
0.0134594
0.0138505
0.0141318
0.0143068
0.0143789
0.0143514
0.0142269
0.0140077
0.0136955
0.0132917
0.0127976
0.0122142
0.0115425
0.010784
0.00994017
0.00901341
0.00800659
0.00692348
0.00576879
0.0045483
0.00326891
0.00193872
0.000566991
-0.000835807
-0.00225808
-0.00368717
-0.00510947
-0.00651057
-0.00787541
-0.00918854
-0.0104343
-0.011597
-0.0126614
-0.0136129
-0.0144377
-0.0151232
-0.0156586
-0.0160346
-0.0162441
-0.0162824
-0.0161472
-0.0158392
-0.0153616
-0.014721
-0.0139268
-0.0129917
-0.0119315
-0.0107653
-0.00951509
-0.00820644
-0.00686805
-0.00553208
-0.00423432
-0.00301447
-0.00191656
-0.000989462
-0.000287353
0.00012959
0.000190524
0.000494651
0.00178756
0.00326495
0.00483612
0.00643275
0.00800151
0.00950204
0.0109051
0.0121906
0.0133456
0.0143628
0.015239
0.0159741
0.0165701
0.0170301
0.0173582
0.0175583
0.0176343
0.0175897
0.0174278
0.0171509
0.0167611
0.0162602
0.0156496
0.0149306
0.0141046
0.0131733
0.012139
0.0110044
0.00977328
0.00845025
0.00704114
0.00555302
0.00399429
0.00237472
0.000705513
-0.00100075
-0.00273016
-0.00446754
-0.00619662
-0.00790017
-0.0095602
-0.0111582
-0.0126755
-0.0140934
-0.0153936
-0.0165585
-0.0175716
-0.0184179
-0.019084
-0.0195589
-0.0198338
-0.0199029
-0.0197632
-0.0194152
-0.0188627
-0.0181131
-0.0171775
-0.0160709
-0.014812
-0.0134231
-0.0119304
-0.010364
-0.00875762
-0.00714879
-0.00557903
-0.00409395
-0.00274353
-0.00158254
-0.000670752
-7.33553e-05
0.00013477
0.000710526
0.00240416
0.0042543
0.00617186
0.00808921
0.00995321
0.0117235
0.0133707
0.0148747
0.0162226
0.0174071
0.0184255
0.019278
0.019967
0.0204963
0.0208702
0.0210933
0.0211699
0.021104
0.0208989
0.0205577
0.0200826
0.0194756
0.0187384
0.0178726
0.01688
0.0157626
0.0145232
0.0131653
0.0116934
0.0101129
0.00843102
0.00665602
0.00479787
0.00286813
0.000879974
-0.00115182
-0.00321094
-0.00527962
-0.00733878
-0.00936827
-0.011347
-0.0132534
-0.0150655
-0.0167613
-0.0183194
-0.019719
-0.0209407
-0.0219666
-0.0227809
-0.0233704
-0.0237244
-0.0238357
-0.0237007
-0.0233192
-0.0226956
-0.0218381
-0.0207594
-0.0194766
-0.0180112
-0.0163893
-0.014641
-0.012801
-0.0109082
-0.00900557
-0.00714047
-0.00536443
-0.00373338
-0.00230786
-0.00115299
-0.000338628
5.68341e-05
0.000957499
0.00310455
0.00537128
0.00767113
0.00993816
0.0121205
0.0141787
0.0160841
0.0178173
0.0193661
0.0207238
0.0218883
0.0228605
0.0236436
0.0242418
0.0246602
0.0249039
0.0249777
0.0248861
0.0246327
0.0242209
0.0236532
0.0229318
0.0220588
0.021036
0.0198655
0.0185499
0.0170924
0.0154972
0.0137694
0.0119156
0.00994413
0.00786457
0.0056885
0.00342926
0.00110204
-0.00127614
-0.00368649
-0.00610858
-0.00852049
-0.010899
-0.0132199
-0.0154582
-0.0175887
-0.0195858
-0.0214249
-0.0230817
-0.0245336
-0.0257597
-0.0267415
-0.027463
-0.0279118
-0.028079
-0.0279597
-0.0275535
-0.0268645
-0.0259019
-0.0246798
-0.0232174
-0.0215391
-0.0196744
-0.0176577
-0.0155282
-0.0133301
-0.011112
-0.00892715
-0.00683304
-0.0048916
-0.00316914
-0.00173608
-0.000666791
-4.30673e-05
0.00123448
0.0038862
0.00661246
0.00933001
0.0119754
0.014499
0.0168631
0.0190407
0.0210136
0.022771
0.0243073
0.0256214
0.0267154
0.0275931
0.0282598
0.0287212
0.0289831
0.0290508
0.0289292
0.0286225
0.0281343
0.0274674
0.0266242
0.0256071
0.0244183
0.02306
0.0215354
0.0198481
0.0180029
0.0160058
0.0138645
0.0115882
0.00918792
0.00667688
0.00407019
0.00138505
-0.00135924
-0.00414143
-0.00693837
-0.00972521
-0.0124756
-0.0151621
-0.0177563
-0.0202293
-0.0225522
-0.0246964
-0.0266344
-0.0283398
-0.0297886
-0.030959
-0.0318325
-0.0323941
-0.0326329
-0.0325427
-0.0321224
-0.0313758
-0.0303127
-0.0289484
-0.0273043
-0.0254074
-0.0232907
-0.0209928
-0.0185577
-0.0160348
-0.0134786
-0.0109482
-0.00850725
-0.00622387
-0.00417021
-0.00242208
-0.00105849
-0.0001648
0.00154036
0.00474639
0.00797404
0.011144
0.014196
0.0170835
0.0197713
0.0222348
0.0244578
0.0264312
0.0281514
0.0296185
0.030836
0.0318089
0.0325435
0.0330464
0.0333241
0.0333826
0.0332273
0.0328628
0.032293
0.031521
0.0305496
0.0293812
0.0280184
0.0264637
0.0247206
0.0227933
0.0206872
0.018409
0.0159673
0.0133725
0.010637
0.0077754
0.00480464
0.00174394
-0.00138519
-0.00455899
-0.00775159
-0.0109352
-0.0140803
-0.0171561
-0.0201306
-0.0229712
-0.0256453
-0.0281204
-0.030365
-0.0323493
-0.0340452
-0.0354279
-0.0364754
-0.0371701
-0.0374988
-0.0374536
-0.037032
-0.0362377
-0.0350805
-0.0335769
-0.03175
-0.0296297
-0.0272522
-0.0246603
-0.0219031
-0.0190351
-0.0161168
-0.0132136
-0.0103953
-0.00773652
-0.00531542
-0.0032135
-0.00151471
-0.000308402
0.00187405
0.00568228
0.00945188
0.0131079
0.0165943
0.0198679
0.0228969
0.0256598
0.0281431
0.0303401
0.0322492
0.0338727
0.0352154
0.0362841
0.0370861
0.0376292
0.0379206
0.0379672
0.0377749
0.0373487
0.0366928
0.0358108
0.0347056
0.0333799
0.0318363
0.030078
0.0281085
0.0259325
0.023556
0.0209865
0.0182333
0.015308
0.0122241
0.00899784
0.00564776
0.00219502
-0.00133664
-0.00492102
-0.00852957
-0.0121315
-0.0156942
-0.0191832
-0.022563
-0.0257972
-0.0288491
-0.0316822
-0.034261
-0.0365514
-0.0385214
-0.0401423
-0.0413886
-0.0422395
-0.0426791
-0.0426972
-0.0422898
-0.0414597
-0.0402168
-0.0385784
-0.036569
-0.0342212
-0.0315745
-0.028676
-0.0255795
-0.0223453
-0.0190397
-0.0157346
-0.0125066
-0.00943685
-0.00660997
-0.00411355
-0.00203694
-0.00047414
0.00223442
0.0066909
0.0110416
0.0152164
0.019164
0.0228453
0.0262328
0.0293085
0.0320621
0.0344901
0.0365933
0.0383764
0.0398463
0.0410113
0.0418805
0.0424626
0.0427661
0.0427985
0.0425665
0.0420754
0.04133
0.040334
0.0390906
0.0376026
0.035873
0.0339051
0.0317027
0.029271
0.0266164
0.0237469
0.0206729
0.0174065
0.0139628
0.0103592
0.0066159
0.00275588
-0.00119499
-0.00520813
-0.00925231
-0.0132938
-0.0172968
-0.0212233
-0.0250342
-0.0286889
-0.0321467
-0.0353667
-0.038309
-0.0409349
-0.0432084
-0.0450961
-0.0465688
-0.0476018
-0.048176
-0.0482786
-0.0479036
-0.0470523
-0.0457343
-0.0439672
-0.0417772
-0.0391988
-0.0362751
-0.0330572
-0.0296039
-0.0259812
-0.0222618
-0.0185242
-0.014852
-0.0113335
-0.00806021
-0.00512635
-0.00262734
-0.000662548
0.00262031
0.00776915
0.0127384
0.0174636
0.0218982
0.0260084
0.0297711
0.0331726
0.0362065
0.0388727
0.0411752
0.0431213
0.0447204
0.0459828
0.0469191
0.0475397
0.047854
0.0478706
0.0475967
0.0470385
0.0462009
0.0450879
0.043703
0.0420492
0.0401297
0.0379478
0.0355077
0.0328148
0.0298758
0.0266996
0.0232969
0.0196809
0.0158675
0.0118754
0.00772639
0.00344513
-0.000940522
-0.0053997
-0.00989858
-0.0144006
-0.0188666
-0.0232552
-0.0275233
-0.0316265
-0.0355194
-0.0391568
-0.0424939
-0.0454874
-0.0480961
-0.0502822
-0.0520117
-0.0532559
-0.0539917
-0.0542031
-0.0538814
-0.0530262
-0.0516461
-0.0497588
-0.0473915
-0.0445807
-0.0413728
-0.0378229
-0.0339948
-0.0299606
-0.0257994
-0.0215967
-0.0174439
-0.0134365
-0.00967375
-0.0062571
-0.00328877
-0.000874459
0.00303051
0.00891376
0.0145375
0.0198431
0.0247898
0.0293491
0.0335032
0.0372432
0.0405672
0.0434788
0.0459858
0.0480986
0.0498291
0.05119
0.052194
0.0528528
0.0531773
0.0531771
0.0528601
0.0522332
0.0513017
0.0500699
0.0485415
0.0467197
0.0446076
0.0422089
0.0395278
0.0365699
0.0333423
0.0298542
0.0261168
0.0221441
0.0179529
0.013563
0.00899727
0.00428218
-0.000552623
-0.00547412
-0.010446
-0.0154289
-0.0203805
-0.0252559
-0.0300081
-0.0345885
-0.0389472
-0.0430341
-0.0467993
-0.0501944
-0.053173
-0.0556918
-0.0577119
-0.0591995
-0.0601272
-0.060475
-0.0602309
-0.0593922
-0.0579658
-0.0559691
-0.0534297
-0.0503863
-0.0468878
-0.0429936
-0.0387727
-0.034303
-0.0296706
-0.0249687
-0.0202964
-0.0157576
-0.0114597
-0.00751215
-0.00402491
-0.00111102
0.00346376
0.0101213
0.0164336
0.0223483
0.0278308
0.0328587
0.0374199
0.0415107
0.0451342
0.0482986
0.0510154
0.0532985
0.0551629
0.056624
0.0576963
0.0583937
0.0587284
0.058711
0.0583505
0.0576543
0.0566282
0.0552769
0.0536042
0.0516135
0.0493078
0.0466909
0.0437672
0.0405423
0.0370236
0.0332202
0.0291441
0.0248096
0.0202342
0.0154386
0.0104469
0.00528696
-9.99606e-06
-0.00540892
-0.0108712
-0.0163547
-0.0218141
-0.0272009
-0.0324644
-0.0375514
-0.0424075
-0.0469775
-0.0512063
-0.0550395
-0.0584252
-0.0613141
-0.0636617
-0.0654285
-0.066582
-0.0670974
-0.0669588
-0.0661603
-0.0647067
-0.0626141
-0.0599104
-0.0566357
-0.0528416
-0.0485914
-0.0439594
-0.0390297
-0.0338957
-0.0286585
-0.0234257
-0.0183103
-0.0134286
-0.00889909
-0.00484027
-0.0013737
0.00391874
0.0113881
0.0184211
0.024972
0.0310129
0.036528
0.0415112
0.0459647
0.0498971
0.0533213
0.0562531
0.0587105
0.0607116
0.0622746
0.0634167
0.0641535
0.0644989
0.0644648
0.0640611
0.063296
0.0621757
0.0607054
0.0588888
0.0567295
0.0542307
0.051396
0.0482297
0.0447375
0.0409267
0.0368068
0.0323896
0.0276901
0.022726
0.0175189
0.0120938
0.0064796
0.000709028
-0.00518108
-0.0111499
-0.0171529
-0.0231416
-0.0290643
-0.0348662
-0.0404899
-0.045876
-0.0509641
-0.0556933
-0.0600034
-0.063836
-0.0671356
-0.0698509
-0.0719364
-0.0733534
-0.0740716
-0.0740703
-0.0733395
-0.0718811
-0.0697095
-0.066852
-0.0633497
-0.0592565
-0.0546397
-0.0495785
-0.0441638
-0.0384965
-0.0326862
-0.0268498
-0.0211099
-0.0155927
-0.0104268
-0.00574024
-0.0016643
0.00439403
0.0127105
0.0204941
0.0277067
0.0343273
0.040347
0.0457665
0.0505942
0.0548444
0.0585353
0.0616876
0.0643232
0.066464
0.0681312
0.0693447
0.0701222
0.0704795
0.0704299
0.0699842
0.0691514
0.0679384
0.0663505
0.0643918
0.0620658
0.0593757
0.0563249
0.0529178
0.0491598
0.0450581
0.040622
0.0358636
0.0307977
0.0254426
0.0198202
0.0139561
0.00788005
0.00162616
-0.00476726
-0.0112575
-0.0177976
-0.0243364
-0.0308187
-0.037186
-0.0433764
-0.0493257
-0.0549679
-0.0602362
-0.0650639
-0.0693858
-0.0731394
-0.0762662
-0.0787135
-0.0804358
-0.0813962
-0.0815683
-0.0809371
-0.0795005
-0.0772703
-0.0742727
-0.0705491
-0.0661555
-0.0611626
-0.055655
-0.0497302
-0.043497
-0.0370742
-0.0305886
-0.0241734
-0.0179659
-0.0121054
-0.00673109
-0.00198496
0.00488814
0.0140841
0.0226465
0.0305444
0.0377646
0.0443053
0.0501745
0.0553872
0.0599639
0.0639284
0.0673064
0.0701243
0.0724079
0.074182
0.075469
0.0762892
0.0766601
0.0765966
0.0761109
0.0752126
0.0739092
0.0722064
0.0701084
0.0676189
0.0647408
0.0614775
0.0578329
0.0538123
0.0494225
0.0446728
0.0395748
0.0341435
0.0283971
0.0223575
0.0160509
0.00950766
0.00276276
-0.00414423
-0.0111689
-0.0182623
-0.0253704
-0.0324352
-0.0393942
-0.0461813
-0.0527272
-0.0589603
-0.0648075
-0.0701954
-0.0750513
-0.0793051
-0.0828905
-0.0857467
-0.0878202
-0.0890667
-0.0894528
-0.0889575
-0.0875738
-0.0853099
-0.0821898
-0.0782546
-0.0735618
-0.0681853
-0.062215
-0.055755
-0.0489227
-0.0418465
-0.034664
-0.02752
-0.0205636
-0.0139466
-0.00781999
-0.00233818
0.0053995
0.0155049
0.0248716
0.0334767
0.0413147
0.0483919
0.0547233
0.0603313
0.0652427
0.0694873
0.0730962
0.0761005
0.0785305
0.0804141
0.0817771
0.0826422
0.0830291
0.0829543
0.0824311
0.0814703
0.0800798
0.0782657
0.0760326
0.0733839
0.0703225
0.0668515
0.0629744
0.0586961
0.0540231
0.0489641
0.0435305
0.0377367
0.0316007
0.0251445
0.0183943
0.0113807
0.00413938
-0.00328924
-0.0108594
-0.0185202
-0.0262155
-0.0338841
-0.0414601
-0.0488731
-0.0560487
-0.0629097
-0.0693765
-0.0753685
-0.0808053
-0.0856083
-0.0897025
-0.0930183
-0.0954933
-0.0970745
-0.0977203
-0.0974024
-0.0961077
-0.0938396
-0.0906191
-0.0864859
-0.0814983
-0.0757332
-0.0692853
-0.0622659
-0.0548008
-0.0470291
-0.0390998
-0.0311703
-0.023403
-0.0159631
-0.00901499
-0.00272676
0.00592642
0.0169683
0.0271625
0.0364947
0.0449674
0.0525949
0.0594003
0.0654131
0.0706669
0.0751979
0.0790428
0.0822378
0.0848174
0.0868136
0.0882554
0.0891681
0.0895738
0.0894905
0.0889332
0.0879135
0.08644
0.0845194
0.0821562
0.0793539
0.0761152
0.0724427
0.0683397
0.0638105
0.0588609
0.0534989
0.0477355
0.0415843
0.0350631
0.0281932
0.0210006
0.013516
0.00577529
-0.00218052
-0.0103047
-0.0185449
-0.0268428
-0.0351348
-0.0433515
-0.0514183
-0.0592561
-0.0667818
-0.0739092
-0.0805501
-0.0866161
-0.0920196
-0.0966761
-0.100506
-0.103437
-0.105406
-0.106363
-0.106269
-0.105105
-0.102868
-0.0995741
-0.095261
-0.0899871
-0.0838315
-0.0768934
-0.0692912
-0.0611599
-0.0526494
-0.0439215
-0.0351469
-0.0265029
-0.0181691
-0.0103251
-0.00315389
0.00646714
0.0184695
0.029512
0.039589
0.0487116
0.0569023
0.0641923
0.0706186
0.0762221
0.0810454
0.0851312
0.0885209
0.0912537
0.0933656
0.094889
0.0958523
0.0962798
0.0961916
0.095604
0.0945296
0.0929781
0.0909563
0.088469
0.0855197
0.0821109
0.0782447
0.0739238
0.0691518
0.0639339
0.0582774
0.052192
0.045691
0.0387909
0.0315127
0.0238817
0.0159283
0.00768796
-0.000797815
-0.00948178
-0.0183104
-0.027224
-0.0361564
-0.0450352
-0.0537821
-0.062313
-0.0705393
-0.0783679
-0.0857032
-0.0924479
-0.0985051
-0.10378
-0.108182
-0.111628
-0.114043
-0.115367
-0.11555
-0.114565
-0.112399
-0.109065
-0.104596
-0.099049
-0.0925047
-0.0850667
-0.0768602
-0.0680297
-0.0587366
-0.0491562
-0.0394741
-0.0298834
-0.0205801
-0.0117601
-0.00362306
0.00701982
0.0200035
0.0319125
0.0427501
0.0525359
0.0613012
0.0690853
0.0759332
0.0818931
0.0870142
0.0913454
0.0949336
0.097823
0.100054
0.101662
0.102679
0.103132
0.103042
0.102428
0.101304
0.0996799
0.0975631
0.0949587
0.0918699
0.0882991
0.0842481
0.0797187
0.0747138
0.0692376
0.0632965
0.0568993
0.050058
0.0427881
0.0351096
0.0270468
0.0186294
0.00989245
0.000877087
-0.00836923
-0.0177924
-0.0273314
-0.0369182
-0.0464778
-0.0559283
-0.0651813
-0.0741424
-0.082712
-0.0907866
-0.0982601
-0.105025
-0.110977
-0.116012
-0.120036
-0.122961
-0.124713
-0.125233
-0.12448
-0.122434
-0.1191
-0.114504
-0.108702
-0.101776
-0.0938319
-0.085002
-0.0754404
-0.0653207
-0.0548325
-0.0441777
-0.0335665
-0.0232129
-0.0133308
-0.00413815
0.00758253
0.0215653
0.0343562
0.0459678
0.0564285
0.0657784
0.0740651
0.0813417
0.0876638
0.0930876
0.0976685
0.101459
0.104508
0.106861
0.108556
0.10963
0.110112
0.110025
0.109389
0.10822
0.106529
0.104324
0.10161
0.0983902
0.0946667
0.0904406
0.0857132
0.0804866
0.0747639
0.0685501
0.061853
0.0546832
0.0470549
0.0389866
0.0305016
0.0216283
0.0124008
0.0028597
-0.00694798
-0.0169679
-0.0271385
-0.0373902
-0.0476458
-0.0578204
-0.0678214
-0.0775491
-0.0868975
-0.0957553
-0.104007
-0.111536
-0.118224
-0.123956
-0.128624
-0.132127
-0.134375
-0.135297
-0.134838
-0.132967
-0.129679
-0.124993
-0.118963
-0.111666
-0.103215
-0.0937456
-0.0834229
-0.0724328
-0.0609804
-0.0492849
-0.0375754
-0.0260855
-0.0150488
-0.00470334
0.00815329
0.0231493
0.036835
0.0492318
0.0603772
0.0703201
0.0791167
0.0868281
0.0935176
0.0992486
0.104083
0.108079
0.11129
0.113768
0.115554
0.116688
0.117201
0.117121
0.116468
0.11526
0.113508
0.111221
0.108406
0.105064
0.101197
0.0968067
0.0918931
0.0864571
0.0805008
0.074028
0.0670449
0.0595605
0.0515875
0.0431428
0.034248
0.02493
0.0152217
0.00516224
-0.00520192
-0.0158169
-0.0266209
-0.0375437
-0.0485065
-0.0594216
-0.0701928
-0.0807158
-0.0908781
-0.100561
-0.10964
-0.117987
-0.125472
-0.131968
-0.13735
-0.141502
-0.14432
-0.145715
-0.145619
-0.143986
-0.140798
-0.136068
-0.129841
-0.122194
-0.113239
-0.103119
-0.0920076
-0.0801044
-0.0676306
-0.0548241
-0.0419346
-0.029217
-0.0169265
-0.00532318
0.00873003
0.0247503
0.0393406
0.0525315
0.0643696
0.0749124
0.0842248
0.0923761
0.0994374
0.105479
0.11057
0.114774
0.118151
0.120755
0.122634
0.12383
0.124379
0.124309
0.123644
0.122401
0.120595
0.118234
0.115325
0.11187
0.107871
0.103328
0.0982401
0.0926083
0.0864328
0.079716
0.0724624
0.0646794
0.0563779
0.0475727
0.0382836
0.0285354
0.0183593
0.00779301
-0.00311854
-0.0143224
-0.0257572
-0.0373525
-0.0490286
-0.0606958
-0.0722551
-0.0835976
-0.0946053
-0.105152
-0.115104
-0.124323
-0.132666
-0.139992
-0.146161
-0.151039
-0.154505
-0.156452
-0.156795
-0.155471
-0.152448
-0.147727
-0.141344
-0.133373
-0.123925
-0.113148
-0.101224
-0.0883672
-0.0748147
-0.060825
-0.0466698
-0.0326277
-0.0189773
-0.00600256
0.0093107
0.0263627
0.0418646
0.0558561
0.0683928
0.0795409
0.0893738
0.0979691
0.105405
0.111761
0.11711
0.121524
0.125068
0.127801
0.129776
0.131037
0.131623
0.131567
0.130893
0.129621
0.127767
0.125339
0.122344
0.118785
0.114664
0.109981
0.104732
0.0989191
0.0925398
0.0855954
0.0780886
0.070025
0.0614132
0.052266
0.0426008
0.0324404
0.0218135
0.0107558
-0.000689627
-0.0124714
-0.0245292
-0.0367931
-0.0491832
-0.0616088
-0.0739683
-0.0861494
-0.098029
-0.109474
-0.120342
-0.130484
-0.139745
-0.147969
-0.154998
-0.160681
-0.164879
-0.167463
-0.168328
-0.167393
-0.164608
-0.159959
-0.153472
-0.145212
-0.13529
-0.123856
-0.111101
-0.0972521
-0.0825644
-0.0673177
-0.0518079
-0.036339
-0.0212152
-0.00674669
0.00989321
0.027981
0.0443986
0.059195
0.0724343
0.0841914
0.0945481
0.10359
0.111404
0.118075
0.123684
0.12831
0.132022
0.134885
0.136956
0.138283
0.13891
0.13887
0.138191
0.136895
0.134997
0.132509
0.129437
0.125784
0.121552
0.11674
0.111345
0.105365
0.0987977
0.0916432
0.0839019
0.0755772
0.0666756
0.0572073
0.0471873
0.0366357
0.0255787
0.0140492
0.00208814
-0.0102554
-0.022923
-0.0358459
-0.0489447
-0.0621285
-0.0752942
-0.0883269
-0.101099
-0.113472
-0.125294
-0.136407
-0.146643
-0.15583
-0.163794
-0.170365
-0.175381
-0.178692
-0.180171
-0.179714
-0.17725
-0.172748
-0.166218
-0.157716
-0.147347
-0.135264
-0.121665
-0.106789
-0.0909113
-0.0743331
-0.0573765
-0.040373
-0.0236552
-0.00756113
0.0104755
0.0295995
0.0469343
0.0625374
0.0764814
0.0888494
0.0997316
0.109222
0.117414
0.124401
0.130272
0.135109
0.138989
0.141982
0.14415
0.145545
0.146213
0.146192
0.145511
0.144194
0.142259
0.139716
0.136574
0.132837
0.128504
0.123575
0.118047
0.111915
0.105178
0.0978318
0.0898758
0.0813112
0.072142
0.062376
0.0520251
0.0411066
0.0296437
0.0176665
0.00521258
-0.00767154
-0.0209299
-0.0344958
-0.0482914
-0.0622263
-0.0761972
-0.0900872
-0.103766
-0.117088
-0.129897
-0.142024
-0.153288
-0.163502
-0.172475
-0.180016
-0.185941
-0.190076
-0.192266
-0.192385
-0.190336
-0.186065
-0.179565
-0.170878
-0.160102
-0.147388
-0.132939
-0.117007
-0.0998864
-0.0819021
-0.0634037
-0.0447529
-0.0263127
-0.00845177
0.0110555
0.0312131
0.0494637
0.0658729
0.0805215
0.0935007
0.104909
0.114847
0.123418
0.130721
0.136852
0.141899
0.145947
0.14907
0.151334
0.152796
0.153506
0.153504
0.152823
0.151489
0.14952
0.146929
0.143724
0.13991
0.135488
0.130454
0.124806
0.118539
0.111648
0.104129
0.0959791
0.087197
0.0777843
0.0677458
0.0570905
0.0458325
0.0339917
0.0215946
0.00867555
-0.00472248
-0.0185466
-0.0327333
-0.0472067
-0.0618782
-0.0766453
-0.0913904
-0.105981
-0.120268
-0.134089
-0.147265
-0.159604
-0.170905
-0.180959
-0.189553
-0.196479
-0.201537
-0.204545
-0.205345
-0.203815
-0.199873
-0.193489
-0.184688
-0.173555
-0.160237
-0.144942
-0.127932
-0.10952
-0.0900553
-0.0699183
-0.0495024
-0.029204
-0.00942482
0.0116313
0.0328166
0.0519788
0.0691914
0.0845427
0.0981318
0.110064
0.12045
0.129398
0.137015
0.143403
0.14866
0.152873
0.156123
0.158481
0.160009
0.16076
0.160778
0.160098
0.158747
0.156748
0.154113
0.150852
0.146969
0.142466
0.137339
0.131585
0.125197
0.11817
0.110498
0.102176
0.0931998
0.0835689
0.0732851
0.0623542
0.050787
0.0385995
0.0258146
0.0124625
-0.00141748
-0.0157766
-0.0305548
-0.0456798
-0.0610655
-0.0766114
-0.0922006
-0.1077
-0.122958
-0.137806
-0.152059
-0.165514
-0.177956
-0.189157
-0.198885
-0.206905
-0.21299
-0.216925
-0.218522
-0.217624
-0.214121
-0.207952
-0.199121
-0.187696
-0.173816
-0.157688
-0.139586
-0.119838
-0.0988226
-0.0769488
-0.0546458
-0.0323459
-0.0104868
0.0122012
0.0344051
0.0544723
0.0724835
0.0885336
0.102729
0.115183
0.126013
0.135335
0.143262
0.149906
0.155367
0.159742
0.163116
0.165565
0.167155
0.167945
0.167981
0.167301
0.165935
0.163907
0.161232
0.15792
0.153976
0.1494
0.144191
0.138343
0.13185
0.124704
0.116899
0.108426
0.0992801
0.0894574
0.078957
0.0677813
0.0559375
0.0434378
0.0303007
0.0165525
0.0022275
-0.0126298
-0.0279639
-0.0437066
-0.059776
-0.0760743
-0.0924871
-0.108882
-0.125106
-0.140988
-0.156336
-0.170939
-0.184568
-0.196978
-0.207916
-0.217121
-0.224336
-0.229313
-0.231828
-0.231688
-0.228745
-0.222906
-0.214144
-0.202507
-0.18812
-0.171187
-0.151987
-0.130868
-0.108233
-0.0845238
-0.0602077
-0.0357557
-0.0116445
0.0127633
0.0359742
0.0569376
0.0757402
0.0924836
0.107281
0.120252
0.131521
0.141212
0.149445
0.156338
0.161999
0.16653
0.170022
0.172557
0.174206
0.17503
0.175081
0.174399
0.173018
0.170961
0.168248
0.164888
0.160888
0.156248
0.150966
0.145037
0.138453
0.131206
0.123286
0.114685
0.105394
0.0954066
0.0847195
0.0733316
0.0612461
0.0484712
0.0350213
0.0209175
0.00618953
-0.00912345
-0.0249711
-0.0412906
-0.0580046
-0.07502
-0.0922259
-0.109492
-0.126667
-0.143577
-0.160028
-0.175799
-0.190651
-0.204324
-0.216542
-0.22702
-0.235468
-0.241605
-0.245166
-0.245917
-0.243668
-0.238287
-0.22971
-0.217958
-0.203135
-0.185438
-0.165149
-0.142631
-0.118313
-0.0926709
-0.0662126
-0.0394511
-0.012905
0.0133163
0.0375202
0.0593688
0.078954
0.0963832
0.111775
0.125257
0.136959
0.147012
0.155544
0.162679
0.168533
0.173212
0.176815
0.179429
0.18113
0.181983
0.182044
0.181356
0.179956
0.177871
0.17512
0.171715
0.167663
0.162966
0.15762
0.151621
0.14496
0.137627
0.129612
0.120904
0.111493
0.101369
0.0905261
0.0789597
0.0666692
0.0536588
0.0399381
0.0255233
0.0104387
-0.00528218
-0.0215949
-0.0384427
-0.0557543
-0.0734421
-0.0914004
-0.109503
-0.127602
-0.145523
-0.163071
-0.180019
-0.196119
-0.211097
-0.224657
-0.236489
-0.246271
-0.253685
-0.258424
-0.260207
-0.258798
-0.254017
-0.245759
-0.234006
-0.218837
-0.200434
-0.179078
-0.155145
-0.129086
-0.101417
-0.0726853
-0.0434501
-0.0142756
0.013859
0.0390399
0.0617609
0.0821184
0.100224
0.116203
0.130187
0.142313
0.15272
0.161542
0.16891
0.174947
0.179765
0.18347
0.186154
0.187897
0.188771
0.188835
0.188136
0.186713
0.184597
0.181807
0.178357
0.174256
0.169506
0.164104
0.158045
0.151319
0.143917
0.135825
0.127032
0.117526
0.107293
0.0963259
0.0846157
0.0721585
0.058954
0.0450071
0.030329
0.0149382
-0.00113792
-0.0178614
-0.0351824
-0.0530364
-0.071343
-0.090003
-0.108896
-0.127879
-0.146781
-0.165406
-0.183526
-0.200886
-0.217199
-0.232152
-0.245409
-0.25662
-0.265426
-0.271476
-0.27444
-0.274027
-0.270004
-0.262214
-0.250595
-0.23519
-0.216158
-0.193774
-0.168421
-0.140575
-0.110787
-0.0796496
-0.0477709
-0.0157639
0.0143905
0.040531
0.0641104
0.0852282
0.104
0.120555
0.135031
0.147572
0.158322
0.167423
0.175012
0.181219
0.186164
0.189959
0.1927
0.194476
0.195361
0.195419
0.194701
0.193249
0.191095
0.188264
0.184769
0.180621
0.175822
0.17037
0.164259
0.157481
0.150023
0.141873
0.133016
0.123438
0.113125
0.102065
0.0902462
0.0776612
0.0643055
0.0501792
0.035288
0.0196448
0.00327028
-0.0138046
-0.0315372
-0.0498713