/*--------------------------------*- C++ -*----------------------------------*\
  =========                 |
  \\      /  F ield         | OpenFOAM: The Open Source CFD Toolbox
   \\    /   O peration     | Website:  https://openfoam.org
    \\  /    A nd           | Version:  dev
     \\/     M anipulation  |
\*---------------------------------------------------------------------------*/
FoamFile
{
    format      ascii;
    class       surfaceScalarField;
    location    "17.55";
    object      phi;
}
// * * * * * * * * * * * * * * * * * * * * * * * * * * * * * * * * * * * * * //

dimensions      [0 3 -1 0 0 0 0];

internalField   nonuniform List<scalar> 
10224
(
3.36957e-08
-3.48932e-08
8.76668e-08
-5.39706e-08
1.24103e-07
-3.64428e-08
1.24968e-07
-8.61087e-10
8.32885e-08
4.16803e-08
-2.20174e-09
8.5489e-08
-1.29679e-07
1.27477e-07
-2.95832e-07
1.66155e-07
-4.96603e-07
2.00772e-07
-7.27696e-07
2.31092e-07
-9.84847e-07
2.57148e-07
-1.26397e-06
2.7912e-07
-1.56122e-06
2.97258e-07
-1.87307e-06
3.11844e-07
-2.19623e-06
3.23164e-07
-2.52772e-06
3.31483e-07
-2.86476e-06
3.3704e-07
-3.20479e-06
3.40033e-07
-3.54541e-06
3.40623e-07
-3.88435e-06
3.38933e-07
-4.2194e-06
3.35049e-07
-4.54842e-06
3.29024e-07
-4.8693e-06
3.20881e-07
-5.17993e-06
3.10624e-07
-5.47817e-06
2.98242e-07
-5.76188e-06
2.83713e-07
-6.0289e-06
2.67016e-07
-6.27703e-06
2.48133e-07
-6.50409e-06
2.27061e-07
-6.7079e-06
2.03812e-07
-6.88633e-06
1.78427e-07
-7.0373e-06
1.50972e-07
-7.15885e-06
1.21548e-07
-7.24915e-06
9.02962e-08
-7.30654e-06
5.73954e-08
-7.32961e-06
2.30679e-08
-7.31719e-06
-1.24216e-08
-7.26842e-06
-4.8765e-08
-7.18281e-06
-8.56135e-08
-7.06023e-06
-1.2258e-07
-6.90099e-06
-1.59246e-07
-6.70583e-06
-1.95161e-07
-6.47597e-06
-2.29858e-07
-6.21311e-06
-2.62854e-07
-5.91945e-06
-2.93663e-07
-5.59765e-06
-3.21802e-07
-5.25084e-06
-3.46807e-07
-4.8826e-06
-3.68239e-07
-4.49691e-06
-3.85697e-07
-4.09808e-06
-3.98828e-07
-3.69074e-06
-4.07337e-07
-3.27975e-06
-4.10993e-07
-2.87011e-06
-4.09641e-07
-2.4669e-06
-4.03206e-07
-2.07521e-06
-3.91696e-07
-1.7e-06
-3.75207e-07
-1.34607e-06
-3.53924e-07
-1.01795e-06
-3.2812e-07
-7.19796e-07
-2.98157e-07
-4.55315e-07
-2.64481e-07
-2.27684e-07
-2.2763e-07
-3.94496e-08
-1.88235e-07
1.07583e-07
-1.47033e-07
2.12474e-07
-1.04891e-07
2.75333e-07
-6.28589e-08
2.97586e-07
-2.22524e-08
2.82401e-07
1.5186e-08
2.3536e-07
4.7041e-08
1.65509e-07
6.9852e-08
8.71147e-08
7.83933e-08
2.25265e-08
6.45875e-08
2.25273e-08
5.37692e-08
-8.86624e-08
1.12076e-07
-1.12302e-07
1.17683e-07
-4.20559e-08
3.82477e-08
7.85744e-08
-1.42595e-07
2.22535e-07
-4.30152e-07
3.73055e-07
-8.22644e-07
5.19972e-07
-1.31393e-06
6.57438e-07
-1.89546e-06
7.82287e-07
-2.55741e-06
8.9304e-07
-3.28952e-06
9.89265e-07
-4.08157e-06
1.07117e-06
-4.92364e-06
1.13933e-06
-5.8063e-06
1.19451e-06
-6.72068e-06
1.23754e-06
-7.65846e-06
1.26926e-06
-8.61184e-06
1.29042e-06
-9.5735e-06
1.30169e-06
-1.05365e-05
1.3036e-06
-1.14941e-05
1.29659e-06
-1.24401e-05
1.28098e-06
-1.3368e-05
1.25696e-06
-1.42718e-05
1.22466e-06
-1.51453e-05
1.18412e-06
-1.59824e-05
1.13535e-06
-1.6777e-05
1.07832e-06
-1.7523e-05
1.01301e-06
-1.82143e-05
9.3941e-07
-1.88448e-05
8.57572e-07
-1.94086e-05
7.67608e-07
-1.98999e-05
6.69721e-07
-2.03131e-05
5.64221e-07
-2.06431e-05
4.51542e-07
-2.08851e-05
3.32251e-07
-2.10347e-05
2.0706e-07
-2.10885e-05
7.68319e-08
-2.10435e-05
-5.74207e-08
-2.08977e-05
-1.94535e-07
-2.06501e-05
-3.33205e-07
-2.03007e-05
-4.71997e-07
-1.98506e-05
-6.09362e-07
-1.93021e-05
-7.43655e-07
-1.86588e-05
-8.73165e-07
-1.79255e-05
-9.96138e-07
-1.71084e-05
-1.11081e-06
-1.62147e-05
-1.21546e-06
-1.52531e-05
-1.30839e-06
-1.42333e-05
-1.38805e-06
-1.3166e-05
-1.45299e-06
-1.20629e-05
-1.50197e-06
-1.09363e-05
-1.53392e-06
-9.79924e-06
-1.54805e-06
-8.66508e-06
-1.5438e-06
-7.54735e-06
-1.52093e-06
-6.45954e-06
-1.4795e-06
-5.41486e-06
-1.41988e-06
-4.42601e-06
-1.34277e-06
-3.50493e-06
-1.24921e-06
-2.66253e-06
-1.14055e-06
-1.9085e-06
-1.0185e-06
-1.25103e-06
-8.85106e-07
-6.96494e-07
-7.42769e-07
-2.4921e-07
-5.94316e-07
8.89729e-08
-4.43072e-07
3.1912e-07
-2.93004e-07
4.45817e-07
-1.48949e-07
4.78033e-07
-1.70301e-08
4.30215e-07
9.48583e-08
3.23766e-07
1.76299e-07
1.88653e-07
2.13504e-07
6.42837e-08
1.88954e-07
8.68096e-08
3.72054e-08
-1.25877e-07
4.29819e-08
-1.18075e-07
-4.37814e-08
4.46991e-08
-2.59284e-07
2.94074e-07
-6.23091e-07
5.86351e-07
-1.1423e-06
8.92269e-07
-1.81516e-06
1.19283e-06
-2.63402e-06
1.47629e-06
-3.58752e-06
1.73578e-06
-4.66214e-06
1.96766e-06
-5.84332e-06
2.17045e-06
-7.11621e-06
2.34406e-06
-8.46612e-06
2.48923e-06
-9.87881e-06
2.6072e-06
-1.13407e-05
2.69942e-06
-1.28388e-05
2.7674e-06
-1.4361e-05
2.81256e-06
-1.58954e-05
2.83617e-06
-1.74311e-05
2.8393e-06
-1.89574e-05
2.82281e-06
-2.04637e-05
2.78735e-06
-2.19401e-05
2.73336e-06
-2.33766e-05
2.66113e-06
-2.47633e-05
2.5708e-06
-2.60904e-05
2.46244e-06
-2.73481e-05
2.33608e-06
-2.85269e-05
2.19174e-06
-2.9617e-05
2.02951e-06
-3.0609e-05
1.84959e-06
-3.14937e-05
1.6523e-06
-3.22621e-05
1.43817e-06
-3.29058e-05
1.20795e-06
-3.34169e-05
9.62649e-07
-3.37882e-05
7.03547e-07
-3.40134e-05
4.32228e-07
-3.40872e-05
1.50581e-07
-3.40054e-05
-1.39195e-07
-3.37653e-05
-4.34597e-07
-3.33657e-05
-7.32837e-07
-3.28068e-05
-1.03086e-06
-3.20908e-05
-1.3254e-06
-3.12215e-05
-1.61298e-06
-3.02046e-05
-1.89001e-06
-2.90479e-05
-2.15282e-06
-2.7761e-05
-2.39774e-06
-2.63553e-05
-2.62114e-06
-2.48442e-05
-2.81955e-06
-2.32425e-05
-2.98971e-06
-2.15669e-05
-3.12865e-06
-1.98351e-05
-3.23377e-06
-1.80661e-05
-3.30291e-06
-1.62797e-05
-3.3344e-06
-1.44964e-05
-3.32716e-06
-1.27366e-05
-3.28067e-06
-1.1021e-05
-3.1951e-06
-9.36966e-06
-3.07126e-06
-7.80177e-06
-2.91066e-06
-6.33544e-06
-2.71553e-06
-4.98721e-06
-2.48878e-06
-3.77166e-06
-2.23406e-06
-2.70101e-06
-1.95575e-06
-1.78473e-06
-1.65905e-06
-1.02906e-06
-1.34999e-06
-4.36466e-07
-1.03566e-06
-5.06139e-09
-7.24409e-07
2.72197e-07
-4.26208e-07
4.08356e-07
-1.53189e-07
4.23613e-07
7.96037e-08
3.46544e-07
2.53371e-07
2.15291e-07
3.44759e-07
7.84995e-08
3.25745e-07
1.65307e-07
1.79694e-09
-1.27675e-07
-7.91849e-08
-3.70845e-08
-2.97917e-07
2.63438e-07
-6.88048e-07
6.84211e-07
-1.26785e-06
1.16615e-06
-2.04357e-06
1.66799e-06
-3.01239e-06
2.16166e-06
-4.16508e-06
2.62898e-06
-5.48803e-06
3.05873e-06
-6.96494e-06
3.44457e-06
-8.57798e-06
3.7835e-06
-1.03087e-05
4.07479e-06
-1.21386e-05
4.31914e-06
-1.40496e-05
4.51816e-06
-1.6024e-05
4.67387e-06
-1.80451e-05
4.78846e-06
-2.00966e-05
4.86407e-06
-2.21631e-05
4.90263e-06
-2.42296e-05
4.90582e-06
-2.62818e-05
4.875e-06
-2.83056e-05
4.8112e-06
-3.02875e-05
4.7152e-06
-3.22138e-05
4.58749e-06
-3.40714e-05
4.4284e-06
-3.58471e-05
4.2381e-06
-3.75278e-05
4.01674e-06
-3.91005e-05
3.76449e-06
-4.05526e-05
3.48161e-06
-4.18716e-05
3.16856e-06
-4.30453e-05
2.82603e-06
-4.40622e-05
2.45506e-06
-4.49113e-05
2.05702e-06
-4.55824e-05
1.63374e-06
-4.60663e-05
1.18749e-06
-4.63551e-05
7.21052e-07
-4.64422e-05
2.37686e-07
-4.63226e-05
-2.58828e-07
-4.5993e-05
-7.64222e-07
-4.5452e-05
-1.27377e-06
-4.47006e-05
-1.78231e-06
-4.37417e-05
-2.28433e-06
-4.25806e-05
-2.77404e-06
-4.12252e-05
-3.24541e-06
-3.96857e-05
-3.69233e-06
-3.79748e-05
-4.10867e-06
-3.61075e-05
-4.48844e-06
-3.41011e-05
-4.82587e-06
-3.19753e-05
-5.11556e-06
-2.97513e-05
-5.35259e-06
-2.74524e-05
-5.53268e-06
-2.51031e-05
-5.65225e-06
-2.27289e-05
-5.70858e-06
-2.03562e-05
-5.69986e-06
-1.80116e-05
-5.62531e-06
-1.57215e-05
-5.4852e-06
-1.35118e-05
-5.28095e-06
-1.14073e-05
-5.01513e-06
-9.43134e-06
-4.69148e-06
-7.60516e-06
-4.31496e-06
-5.94748e-06
-3.89174e-06
-4.47397e-06
-3.42926e-06
-3.19676e-06
-2.93626e-06
-2.1238e-06
-2.42295e-06
-1.25831e-06
-1.90116e-06
-5.98038e-07
-1.38468e-06
-1.34589e-07
-8.89658e-07
1.47501e-07
-4.35281e-07
2.71649e-07
-4.45461e-08
2.70258e-07
2.54761e-07
1.85762e-07
4.29259e-07
7.2043e-08
4.39463e-07
2.37351e-07
-4.21127e-08
-8.55676e-08
-2.30092e-07
1.509e-07
-6.06449e-07
6.39807e-07
-1.19771e-06
1.27548e-06
-2.01757e-06
1.98601e-06
-3.06917e-06
2.71959e-06
-4.34733e-06
3.43981e-06
-5.84062e-06
4.12226e-06
-7.53317e-06
4.75129e-06
-9.40622e-06
5.31762e-06
-1.14392e-05
5.81651e-06
-1.36108e-05
6.24637e-06
-1.58994e-05
6.60769e-06
-1.82835e-05
6.90229e-06
-2.07423e-05
7.13269e-06
-2.32556e-05
7.30174e-06
-2.58038e-05
7.41224e-06
-2.8368e-05
7.46683e-06
-3.093e-05
7.4678e-06
-3.3472e-05
7.41705e-06
-3.59769e-05
7.31605e-06
-3.84276e-05
7.16592e-06
-4.08075e-05
6.96745e-06
-4.31003e-05
6.72116e-06
-4.52896e-05
6.42743e-06
-4.73595e-05
6.08661e-06
-4.92941e-05
5.69907e-06
-5.10778e-05
5.26538e-06
-5.26957e-05
4.78638e-06
-5.41329e-05
4.26329e-06
-5.53756e-05
3.69778e-06
-5.64107e-05
3.0921e-06
-5.72261e-05
2.4491e-06
-5.78109e-05
1.77233e-06
-5.81559e-05
1.06603e-06
-5.82534e-05
3.35161e-07
-5.80976e-05
-4.14568e-07
-5.76851e-05
-1.17675e-06
-5.70145e-05
-1.94433e-06
-5.60872e-05
-2.70963e-06
-5.49071e-05
-3.46448e-06
-5.34808e-05
-4.20029e-06
-5.1818e-05
-4.90819e-06
-4.99312e-05
-5.57916e-06
-4.78357e-05
-6.20422e-06
-4.55496e-05
-6.77454e-06
-4.30938e-05
-7.28167e-06
-4.04916e-05
-7.7177e-06
-3.77688e-05
-8.07543e-06
-3.49529e-05
-8.34858e-06
-3.20732e-05
-8.53193e-06
-2.91603e-05
-8.6215e-06
-2.62455e-05
-8.61464e-06
-2.33606e-05
-8.51024e-06
-2.05371e-05
-8.30872e-06
-1.78058e-05
-8.01219e-06
-1.51965e-05
-7.62447e-06
-1.27368e-05
-7.15114e-06
-1.04522e-05
-6.59954e-06
-8.36513e-06
-5.97885e-06
-6.49428e-06
-5.30011e-06
-4.85427e-06
-4.57627e-06
-3.45482e-06
-3.8224e-06
-2.30017e-06
-3.05581e-06
-1.38839e-06
-2.29646e-06
-7.10652e-07
-1.56739e-06
-2.50531e-07
-8.95403e-07
1.67755e-08
-3.11854e-07
1.25256e-07
1.46278e-07
1.18982e-07
4.35534e-07
5.34882e-08
5.04955e-07
2.90841e-07
-8.94282e-08
3.86231e-09
-3.95174e-07
4.56648e-07
-9.44527e-07
1.18916e-06
-1.75401e-06
2.08496e-06
-2.83039e-06
3.06239e-06
-4.1719e-06
4.06109e-06
-5.76968e-06
5.03759e-06
-7.60935e-06
5.96193e-06
-9.67246e-06
6.8144e-06
-1.19377e-05
7.58291e-06
-1.43822e-05
8.26094e-06
-1.69818e-05
8.84599e-06
-1.97123e-05
9.33823e-06
-2.25496e-05
9.7396e-06
-2.547e-05
1.00531e-05
-2.84503e-05
1.0282e-05
-3.1468e-05
1.043e-05
-3.45014e-05
1.05002e-05
-3.75292e-05
1.04956e-05
-4.05307e-05
1.04186e-05
-4.34859e-05
1.02712e-05
-4.63747e-05
1.00548e-05
-4.91778e-05
9.77054e-06
-5.18759e-05
9.41924e-06
-5.445e-05
9.00152e-06
-5.68814e-05
8.51798e-06
-5.91516e-05
7.96932e-06
-6.12427e-05
7.3565e-06
-6.31372e-05
6.68087e-06
-6.48182e-05
5.9443e-06
-6.62698e-05
5.14931e-06
-6.74768e-05
4.29918e-06
-6.84258e-05
3.39803e-06
-6.91043e-05
2.45087e-06
-6.9502e-05
1.4637e-06
-6.96103e-05
4.43451e-07
-6.94229e-05
-6.01939e-07
-6.8936e-05
-1.66361e-06
-6.81485e-05
-2.73183e-06
-6.70621e-05
-3.79605e-06
-6.56815e-05
-4.84509e-06
-6.40146e-05
-5.8672e-06
-6.20725e-05
-6.85027e-06
-5.98696e-05
-7.78204e-06
-5.74236e-05
-8.65026e-06
-5.47552e-05
-9.44294e-06
-5.18883e-05
-1.01486e-05
-4.88495e-05
-1.07565e-05
-4.56681e-05
-1.12568e-05
-4.23756e-05
-1.16411e-05
-3.90054e-05
-1.19022e-05
-3.55922e-05
-1.20346e-05
-3.21719e-05
-1.20349e-05
-2.87807e-05
-1.19015e-05
-2.54544e-05
-1.16349e-05
-2.22285e-05
-1.12381e-05
-1.91368e-05
-1.07162e-05
-1.62112e-05
-1.00768e-05
-1.34807e-05
-9.33e-06
-1.09712e-05
-8.48833e-06
-8.7045e-06
-7.56685e-06
-6.69756e-06
-6.58321e-06
-4.96211e-06
-5.55785e-06
-3.50381e-06
-4.5141e-06
-2.32165e-06
-3.47862e-06
-1.40729e-06
-2.48175e-06
-7.44468e-07
-1.55822e-06
-3.08395e-07
-7.47928e-07
-6.51642e-08
-9.69547e-08
2.89003e-08
3.4147e-07
2.81577e-08
5.05695e-07
3.19e-07
-1.37558e-07
1.41427e-07
-5.65874e-07
8.84967e-07
-1.29635e-06
1.91963e-06
-2.33401e-06
3.12263e-06
-3.67717e-06
4.40554e-06
-5.31773e-06
5.70165e-06
-7.2421e-06
6.96196e-06
-9.43219e-06
8.15202e-06
-1.18665e-05
9.24867e-06
-1.4521e-05
1.02374e-05
-1.73702e-05
1.11101e-05
-2.03877e-05
1.18635e-05
-2.35469e-05
1.24974e-05
-2.68212e-05
1.30139e-05
-3.01845e-05
1.34163e-05
-3.3611e-05
1.37086e-05
-3.70758e-05
1.38948e-05
-4.05546e-05
1.39789e-05
-4.40234e-05
1.39644e-05
-4.74591e-05
1.38543e-05
-5.08389e-05
1.36509e-05
-5.41404e-05
1.33562e-05
-5.73414e-05
1.29716e-05
-6.04203e-05
1.24982e-05
-6.33556e-05
1.19368e-05
-6.61263e-05
1.12886e-05
-6.87115e-05
1.05545e-05
-7.1091e-05
9.73606e-06
-7.32453e-05
8.83519e-06
-7.51556e-05
7.85459e-06
-7.68041e-05
6.79775e-06
-7.81741e-05
5.66916e-06
-7.92504e-05
4.47439e-06
-8.00197e-05
3.22014e-06
-8.04704e-05
1.91437e-06
-8.05931e-05
5.66234e-07
-8.03812e-05
-8.13845e-07
-7.98306e-05
-2.21428e-06
-7.894e-05
-3.62238e-06
-7.77116e-05
-5.02445e-06
-7.61507e-05
-6.40595e-06
-7.42663e-05
-7.75169e-06
-7.20705e-05
-9.04601e-06
-6.95795e-05
-1.0273e-05
-6.68128e-05
-1.1417e-05
-6.37934e-05
-1.24624e-05
-6.05476e-05
-1.33944e-05
-5.71049e-05
-1.41991e-05
-5.34977e-05
-1.4864e-05
-4.97609e-05
-1.53779e-05
-4.59312e-05
-1.57318e-05
-4.20474e-05
-1.59185e-05
-3.81491e-05
-1.59333e-05
-3.42764e-05
-1.57742e-05
-3.04693e-05
-1.5442e-05
-2.67672e-05
-1.49402e-05
-2.32078e-05
-1.42755e-05
-1.98269e-05
-1.34578e-05
-1.6657e-05
-1.24998e-05
-1.37274e-05
-1.1418e-05
-1.10627e-05
-1.02315e-05
-8.68274e-06
-8.96322e-06
-6.60134e-06
-7.63925e-06
-4.82607e-06
-6.28937e-06
-3.35746e-06
-4.94723e-06
-2.18843e-06
-3.65078e-06
-1.30382e-06
-2.44284e-06
-6.79945e-07
-1.3718e-06
-2.84242e-07
-4.92658e-07
-7.4934e-08
1.3216e-07
-7.07064e-10
4.31467e-07
3.18293e-07
-1.85255e-07
3.26685e-07
-7.37315e-07
1.43702e-06
-1.65215e-06
2.83445e-06
-2.92273e-06
4.39321e-06
-4.53799e-06
6.0208e-06
-6.48261e-06
7.64627e-06
-8.73738e-06
9.21673e-06
-1.12798e-05
1.06944e-05
-1.40848e-05
1.20537e-05
-1.71255e-05
1.32781e-05
-2.03737e-05
1.43583e-05
-2.38006e-05
1.52905e-05
-2.73774e-05
1.60742e-05
-3.10753e-05
1.67118e-05
-3.4866e-05
1.72069e-05
-3.87215e-05
1.75641e-05
-4.26147e-05
1.7788e-05
-4.6519e-05
1.78832e-05
-5.04083e-05
1.78538e-05
-5.42571e-05
1.77031e-05
-5.80404e-05
1.74342e-05
-6.17334e-05
1.70493e-05
-6.53119e-05
1.65501e-05
-6.87519e-05
1.59381e-05
-7.20297e-05
1.52147e-05
-7.51222e-05
1.43811e-05
-7.80066e-05
1.34389e-05
-8.06606e-05
1.23901e-05
-8.30628e-05
1.12374e-05
-8.51927e-05
9.98446e-06
-8.70308e-05
8.63585e-06
-8.8559e-05
7.19739e-06
-8.97609e-05
5.67626e-06
-9.06218e-05
4.08105e-06
-9.11292e-05
2.42184e-06
-9.12733e-05
7.10238e-07
-9.10464e-05
-1.04066e-06
-9.04444e-05
-2.81632e-06
-8.94659e-05
-4.60083e-06
-8.81133e-05
-6.37711e-06
-8.63922e-05
-8.12702e-06
-8.43123e-05
-9.83164e-06
-8.18868e-05
-1.14715e-05
-7.9133e-05
-1.30268e-05
-7.6072e-05
-1.4478e-05
-7.27286e-05
-1.58058e-05
-6.91312e-05
-1.69917e-05
-6.53118e-05
-1.80185e-05
-6.13054e-05
-1.88705e-05
-5.71496e-05
-1.95337e-05
-5.28846e-05
-1.99968e-05
-4.85522e-05
-2.02508e-05
-4.41957e-05
-2.02898e-05
-3.98588e-05
-2.01111e-05
-3.55853e-05
-1.97154e-05
-3.14184e-05
-1.91072e-05
-2.73995e-05
-1.82944e-05
-2.35679e-05
-1.72893e-05
-1.996e-05
-1.61077e-05
-1.66083e-05
-1.47697e-05
-1.35406e-05
-1.32992e-05
-1.07794e-05
-1.17243e-05
-8.34148e-06
-1.00772e-05
-6.23655e-06
-8.39429e-06
-4.4673e-06
-6.71648e-06
-3.02859e-06
-5.08949e-06
-1.90714e-06
-3.56428e-06
-1.08124e-06
-2.1977e-06
-5.2058e-07
-1.05332e-06
-1.86298e-07
-2.02125e-07
-3.11543e-08
2.76324e-07
2.87136e-07
-2.31883e-07
5.58565e-07
-9.06745e-07
2.11188e-06
-2.00596e-06
3.93366e-06
-3.51046e-06
5.89771e-06
-5.39939e-06
7.90973e-06
-7.64962e-06
9.8965e-06
-1.02357e-05
1.18029e-05
-1.31303e-05
1.3589e-05
-1.63043e-05
1.52277e-05
-1.97275e-05
1.67013e-05
-2.33691e-05
1.79999e-05
-2.71978e-05
1.91192e-05
-3.11825e-05
2.0059e-05
-3.52924e-05
2.08217e-05
-3.94972e-05
2.14117e-05
-4.37672e-05
2.1834e-05
-4.8073e-05
2.20939e-05
-5.23863e-05
2.21965e-05
-5.66789e-05
2.21464e-05
-6.09234e-05
2.19476e-05
-6.50928e-05
2.16036e-05
-6.91604e-05
2.11168e-05
-7.30999e-05
2.04896e-05
-7.68854e-05
1.97236e-05
-8.04913e-05
1.88207e-05
-8.38927e-05
1.77824e-05
-8.70647e-05
1.66109e-05
-8.99836e-05
1.53089e-05
-9.26261e-05
1.388e-05
-9.49702e-05
1.23285e-05
-9.69949e-05
1.06606e-05
-9.86808e-05
8.88327e-06
-0.00010001
7.00558e-06
-0.000100967
5.0381e-06
-0.000101539
2.99321e-06
-0.000101713
8.85077e-07
-0.000101484
-1.27033e-06
-0.000100845
-3.45532e-06
-9.97949e-05
-5.65062e-06
-9.83365e-05
-7.83552e-06
-9.64755e-05
-9.98808e-06
-9.42217e-05
-1.20854e-05
-9.15892e-05
-1.4104e-05
-8.85961e-05
-1.60199e-05
-8.52646e-05
-1.78095e-05
-8.16211e-05
-1.94493e-05
-7.76956e-05
-2.09172e-05
-7.35221e-05
-2.2192e-05
-6.91378e-05
-2.32547e-05
-6.45831e-05
-2.40885e-05
-5.99008e-05
-2.46791e-05
-5.51358e-05
-2.50158e-05
-5.03347e-05
-2.5091e-05
-4.55446e-05
-2.49012e-05
-4.0813e-05
-2.44471e-05
-3.61865e-05
-2.37336e-05
-3.17106e-05
-2.27704e-05
-2.74281e-05
-2.15718e-05
-2.3379e-05
-2.01568e-05
-1.95995e-05
-1.85493e-05
-1.61207e-05
-1.6778e-05
-1.29685e-05
-1.48766e-05
-1.01624e-05
-1.28833e-05
-7.71526e-06
-1.08415e-05
-5.63225e-06
-8.79949e-06
-3.91083e-06
-6.81091e-06
-2.54024e-06
-4.93488e-06
-1.50139e-06
-3.23656e-06
-7.66895e-07
-1.78781e-06
-3.01384e-07
-6.67638e-07
-6.20851e-08
3.70258e-08
2.2505e-07
-2.7716e-07
8.35721e-07
-1.07263e-06
2.90735e-06
-2.35415e-06
5.21518e-06
-4.09091e-06
7.63447e-06
-6.25222e-06
1.0071e-05
-8.80685e-06
1.24511e-05
-1.17228e-05
1.47188e-05
-1.49673e-05
1.68336e-05
-1.85071e-05
1.87674e-05
-2.23083e-05
2.05025e-05
-2.63373e-05
2.20288e-05
-3.05603e-05
2.33422e-05
-3.4944e-05
2.44427e-05
-3.94557e-05
2.53335e-05
-4.40632e-05
2.60192e-05
-4.8735e-05
2.65058e-05
-5.34401e-05
2.6799e-05
-5.81483e-05
2.69047e-05
-6.283e-05
2.6828e-05
-6.74558e-05
2.65735e-05
-7.19972e-05
2.61449e-05
-7.64256e-05
2.55453e-05
-8.07132e-05
2.47772e-05
-8.48323e-05
2.38428e-05
-8.87557e-05
2.27441e-05
-9.24567e-05
2.14833e-05
-9.59089e-05
2.00632e-05
-9.9087e-05
1.8487e-05
-0.000101966
1.67592e-05
-0.000104523
1.48853e-05
-0.000106735
1.28726e-05
-0.000108582
1.07299e-05
-0.000110044
8.46779e-06
-0.000111105
6.0991e-06
-0.00011175
3.63857e-06
-0.000111968
1.10309e-06
-0.00011175
-1.48839e-06
-0.000111091
-4.11491e-06
-0.000109988
-6.75365e-06
-0.000108443
-9.38013e-06
-0.000106463
-1.19684e-05
-0.000104057
-1.44914e-05
-0.000101239
-1.69214e-05
-9.8029e-05
-1.92301e-05
-9.44491e-05
-2.13893e-05
-9.05269e-05
-2.33716e-05
-8.62938e-05
-2.51503e-05
-8.17854e-05
-2.67004e-05
-7.70409e-05
-2.79992e-05
-7.21029e-05
-2.90265e-05
-6.70167e-05
-2.97653e-05
-6.18302e-05
-3.02023e-05
-5.65928e-05
-3.03283e-05
-5.13553e-05
-3.01387e-05
-4.61685e-05
-2.96339e-05
-4.10829e-05
-2.88193e-05
-3.61475e-05
-2.77058e-05
-3.14093e-05
-2.631e-05
-2.6912e-05
-2.4654e-05
-2.26956e-05
-2.27657e-05
-1.87951e-05
-2.06785e-05
-1.52399e-05
-1.84318e-05
-1.2053e-05
-1.60701e-05
-9.25063e-06
-1.36439e-05
-6.8411e-06
-1.1209e-05
-4.82499e-06
-8.82703e-06
-3.19458e-06
-6.56528e-06
-1.93392e-06
-4.49722e-06
-1.01896e-06
-2.70276e-06
-4.18085e-07
-1.26852e-06
-9.29473e-08
-2.88113e-07
1.32102e-07
-3.20973e-07
1.15669e-06
-1.23413e-06
3.82051e-06
-2.69449e-06
6.67554e-06
-4.65999e-06
9.59998e-06
-7.09023e-06
1.25013e-05
-9.94581e-06
1.53067e-05
-1.3188e-05
1.7961e-05
-1.67784e-05
2.0424e-05
-2.06792e-05
2.26682e-05
-2.48529e-05
2.46763e-05
-2.92628e-05
2.64387e-05
-3.38726e-05
2.79519e-05
-3.86467e-05
2.92169e-05
-4.35507e-05
3.02374e-05
-4.85504e-05
3.1019e-05
-5.36129e-05
3.15682e-05
-5.87056e-05
3.18917e-05
-6.37968e-05
3.1996e-05
-6.88555e-05
3.18867e-05
-7.38508e-05
3.15689e-05
-7.87527e-05
3.10468e-05
-8.35312e-05
3.03238e-05
-8.8157e-05
2.9403e-05
-9.2601e-05
2.82867e-05
-9.68344e-05
2.69775e-05
-0.000100829
2.5478e-05
-0.000104557
2.37915e-05
-0.000107992
2.1922e-05
-0.000111108
1.98748e-05
-0.000113879
1.76567e-05
-0.000116283
1.52762e-05
-0.000118297
1.27436e-05
-0.0001199
1.00715e-05
-0.000121076
7.27486e-06
-0.000121809
4.37088e-06
-0.000122085
1.37921e-06
-0.000121895
-1.6781e-06
-0.000121233
-4.77674e-06
-0.000120097
-7.89023e-06
-0.000118486
-1.09902e-05
-0.000116408
-1.40465e-05
-0.000113872
-1.70278e-05
-0.000110892
-1.99018e-05
-0.000107486
-2.26356e-05
-0.000103679
-2.51967e-05
-9.94978e-05
-2.75526e-05
-9.49756e-05
-2.96725e-05
-9.0149e-05
-3.1527e-05
-8.50589e-05
-3.30893e-05
-7.97498e-05
-3.43356e-05
-7.42696e-05
-3.52456e-05
-6.86686e-05
-3.58033e-05
-6.29994e-05
-3.59974e-05
-5.7316e-05
-3.58221e-05
-5.16728e-05
-3.52771e-05
-4.61241e-05
-3.4368e-05
-4.07229e-05
-3.3107e-05
-3.55203e-05
-3.15126e-05
-3.05643e-05
-2.961e-05
-2.58989e-05
-2.74311e-05
-2.15634e-05
-2.50141e-05
-1.75912e-05
-2.24039e-05
-1.40094e-05
-1.96519e-05
-1.08379e-05
-1.68154e-05
-8.08881e-06
-1.39581e-05
-5.76625e-06
-1.11496e-05
-3.86603e-06
-8.4655e-06
-2.3757e-06
-5.98755e-06
-1.2748e-06
-3.80367e-06
-5.35479e-07
-2.00783e-06
-1.23538e-07
-7.00055e-07
8.56446e-09
-3.63285e-07
1.51998e-06
-1.39076e-06
4.84799e-06
-3.02559e-06
8.31037e-06
-5.21496e-06
1.17894e-05
-7.90904e-06
1.51954e-05
-1.10604e-05
1.8458e-05
-1.46233e-05
2.15239e-05
-1.85539e-05
2.43546e-05
-2.28097e-05
2.6924e-05
-2.73493e-05
2.92159e-05
-3.21328e-05
3.12222e-05
-3.71214e-05
3.29405e-05
-4.22775e-05
3.43729e-05
-4.75644e-05
3.55243e-05
-5.29466e-05
3.64013e-05
-5.83896e-05
3.70112e-05
-6.38596e-05
3.73617e-05
-6.93234e-05
3.74598e-05
-7.47488e-05
3.7312e-05
-8.01038e-05
3.69238e-05
-8.53569e-05
3.62999e-05
-9.04771e-05
3.5444e-05
-9.54337e-05
3.43596e-05
-0.000100196
3.30494e-05
-0.000104735
3.15163e-05
-0.00010902
2.97634e-05
-0.000113024
2.77946e-05
-0.000116716
2.56147e-05
-0.000120071
2.32298e-05
-0.000123062
2.06477e-05
-0.000125664
1.78784e-05
-0.000127854
1.49337e-05
-0.000129611
1.18282e-05
-0.000130915
8.57896e-06
-0.00013175
5.20566e-06
-0.000132102
1.73079e-06
-0.000131959
-1.82051e-06
-0.000131315
-5.42049e-06
-0.000130167
-9.03893e-06
-0.000128514
-1.26434e-05
-0.00012636
-1.61997e-05
-0.000123716
-1.96717e-05
-0.000120595
-2.30227e-05
-0.000117016
-2.6215e-05
-0.000113002
-2.92109e-05
-0.000108581
-3.19734e-05
-0.000103787
-3.44666e-05
-9.86573e-05
-3.66567e-05
-9.32342e-05
-3.85124e-05
-8.75641e-05
-4.00057e-05
-8.16969e-05
-4.11128e-05
-7.56856e-05
-4.18146e-05
-6.95857e-05
-4.20973e-05
-6.34546e-05
-4.19533e-05
-5.73503e-05
-4.13813e-05
-5.13311e-05
-4.03872e-05
-4.54544e-05
-3.89837e-05
-3.97755e-05
-3.71915e-05
-3.43471e-05
-3.50384e-05
-2.92178e-05
-3.25603e-05
-2.44315e-05
-2.98004e-05
-2.00262e-05
-2.68092e-05
-1.60336e-05
-2.36445e-05
-1.24778e-05
-2.03712e-05
-9.37522e-06
-1.70607e-05
-6.734e-06
-1.37908e-05
-4.55386e-06
-1.06456e-05
-2.82612e-06
-7.71529e-06
-1.53404e-06
-5.09575e-06
-6.53461e-07
-2.88841e-06
-1.53885e-07
-1.19963e-06
-1.4532e-07
-4.04083e-07
1.92406e-06
-1.54225e-06
5.98615e-06
-3.34652e-06
1.01146e-05
-5.75389e-06
1.41967e-05
-8.70546e-06
1.81469e-05
-1.21458e-05
2.18984e-05
-1.60227e-05
2.54008e-05
-2.02864e-05
2.86183e-05
-2.48897e-05
3.15272e-05
-2.97874e-05
3.41137e-05
-3.49365e-05
3.63712e-05
-4.02954e-05
3.82995e-05
-4.58244e-05
3.9902e-05
-5.14851e-05
4.1185e-05
-5.72405e-05
4.21566e-05
-6.30545e-05
4.28252e-05
-6.88921e-05
4.31993e-05
-7.47193e-05
4.3287e-05
-8.05024e-05
4.30952e-05
-8.62086e-05
4.263e-05
-9.18054e-05
4.18967e-05
-9.72607e-05
4.08993e-05
-0.000102543
3.96416e-05
-0.00010762
3.81267e-05
-0.000112462
3.6358e-05
-0.000117037
3.43389e-05
-0.000121316
3.20738e-05
-0.00012527
2.95683e-05
-0.000128869
2.68293e-05
-0.000132087
2.38658e-05
-0.000134898
2.06888e-05
-0.000137276
1.73121e-05
-0.0001392
1.37519e-05
-0.000140649
1.00274e-05
-0.000141604
6.16084e-06
-0.00014205
2.17743e-06
-0.000141976
-1.89453e-06
-0.000141373
-6.02385e-06
-0.000140235
-1.01766e-05
-0.000138563
-1.43162e-05
-0.000136358
-1.8404e-05
-0.00013363
-2.23996e-05
-0.000130392
-2.62611e-05
-0.000126661
-2.99459e-05
-0.000122461
-3.34112e-05
-0.000117819
-3.66149e-05
-0.00011277
-3.95159e-05
-0.000107351
-4.20753e-05
-0.000101607
-4.42569e-05
-9.55842e-05
-4.60283e-05
-8.93353e-05
-4.73616e-05
-8.29159e-05
-4.8234e-05
-7.63842e-05
-4.8629e-05
-6.9801e-05
-4.85365e-05
-6.32283e-05
-4.79541e-05
-5.67285e-05
-4.6887e-05
-5.03635e-05
-4.53487e-05
-4.41936e-05
-4.33614e-05
-3.82763e-05
-4.09557e-05
-3.26655e-05
-3.81712e-05
-2.74101e-05
-3.50557e-05
-2.25535e-05
-3.16658e-05
-1.81322e-05
-2.80659e-05
-1.41753e-05
-2.43281e-05
-1.0704e-05
-2.0532e-05
-7.73089e-06
-1.67639e-05
-5.25991e-06
-1.31166e-05
-3.28644e-06
-9.68876e-06
-1.79751e-06
-6.58468e-06
-7.72505e-07
-3.91342e-06
-1.84164e-07
-1.78797e-06
-3.29485e-07
-4.4336e-07
2.36742e-06
-1.68836e-06
7.23115e-06
-3.65657e-06
1.20828e-05
-6.27531e-06
1.68155e-05
-9.47697e-06
2.13486e-05
-1.31985e-05
2.56199e-05
-1.73811e-05
2.95833e-05
-2.19694e-05
3.32066e-05
-2.69116e-05
3.64694e-05
-3.21586e-05
3.93607e-05
-3.76642e-05
4.18768e-05
-4.33842e-05
4.40195e-05
-4.92769e-05
4.57946e-05
-5.5302e-05
4.72101e-05
-6.1421e-05
4.82756e-05
-6.75967e-05
4.90009e-05
-7.3793e-05
4.93957e-05
-7.99749e-05
4.94688e-05
-8.61078e-05
4.92281e-05
-9.21579e-05
4.86802e-05
-9.80921e-05
4.78308e-05
-0.000103877
4.66845e-05
-0.000109481
4.52452e-05
-0.000114871
4.35165e-05
-0.000120015
4.15019e-05
-0.000124881
3.92056e-05
-0.00012944
3.66322e-05
-0.000133659
3.3788e-05
-0.000137511
3.06808e-05
-0.000140966
2.73205e-05
-0.000143996
2.37195e-05
-0.000146577
1.98929e-05
-0.000148684
1.58587e-05
-0.000150295
1.16384e-05
-0.00015139
7.25642e-06
-0.000151954
2.74082e-06
-0.000151971
-1.87707e-06
-0.000151432
-6.56263e-06
-0.000150331
-1.12781e-05
-0.000148664
-1.5983e-05
-0.000146434
-2.06341e-05
-0.000143647
-2.51862e-05
-0.000140316
-2.95925e-05
-0.000136457
-3.38053e-05
-0.000132092
-3.77763e-05
-0.000127249
-4.14578e-05
-0.000121961
-4.48033e-05
-0.000116268
-4.77684e-05
-0.000110214
-5.03116e-05
-0.000103846
-5.23956e-05
-9.72204e-05
-5.39875e-05
-9.03937e-05
-5.50608e-05
-8.34276e-05
-5.55951e-05
-7.63862e-05
-5.55778e-05
-6.93357e-05
-5.50046e-05
-6.2343e-05
-5.38797e-05
-5.54748e-05
-5.22169e-05
-4.87966e-05
-5.00395e-05
-4.23716e-05
-4.73807e-05
-3.62592e-05
-4.42836e-05
-3.05142e-05
-4.08007e-05
-2.51856e-05
-3.69944e-05
-2.03157e-05
-3.29358e-05
-1.5939e-05
-2.87048e-05
-1.20819e-05
-2.43891e-05
-8.76202e-06
-2.00838e-05
-5.98795e-06
-1.58907e-05
-3.75929e-06
-1.19174e-05
-2.06688e-06
-8.27709e-06
-8.93482e-07
-5.08682e-06
-2.14656e-07
-2.4668e-06
-5.44142e-07
-4.81092e-07
2.84851e-06
-1.82891e-06
8.57898e-06
-3.95514e-06
1.42091e-05
-6.77796e-06
1.96383e-05
-1.02215e-05
2.47921e-05
-1.42153e-05
2.96138e-05
-1.86942e-05
3.40622e-05
-2.35976e-05
3.81099e-05
-2.88688e-05
4.17407e-05
-3.44552e-05
4.49471e-05
-4.03072e-05
4.77288e-05
-4.63784e-05
5.00907e-05
-5.26247e-05
5.20409e-05
-5.90043e-05
5.35897e-05
-6.54774e-05
5.47486e-05
-7.20055e-05
5.5529e-05
-7.85516e-05
5.59418e-05
-8.50798e-05
5.5997e-05
-9.1555e-05
5.57032e-05
-9.79425e-05
5.50677e-05
-0.000104208
5.40968e-05
-0.000110319
5.27953e-05
-0.000116242
5.11676e-05
-0.000121943
4.92175e-05
-0.00012739
4.69489e-05
-0.00013255
4.43661e-05
-0.000137392
4.14745e-05
-0.000141885
3.82807e-05
-0.000145998
3.47933e-05
-0.0001497
3.10232e-05
-0.000152965
2.69838e-05
-0.000155764
2.26917e-05
-0.000158072
1.81667e-05
-0.000159865
1.34319e-05
-0.000161123
8.51428e-06
-0.000161827
3.44448e-06
-0.00016196
-1.7432e-06
-0.000161512
-7.01077e-06
-0.000160474
-1.23168e-05
-0.00015884
-1.76166e-05
-0.000156611
-2.28625e-05
-0.000153793
-2.80047e-05
-0.000150394
-3.29911e-05
-0.000146431
-3.77685e-05
-0.000141924
-4.22831e-05
-0.000136901
-4.64813e-05
-0.000131393
-5.03108e-05
-0.000125441
-5.3721e-05
-0.000119087
-5.66649e-05
-0.000112384
-5.90992e-05
-0.000105385
-6.09862e-05
-9.81517e-05
-6.22942e-05
-9.07479e-05
-6.29989e-05
-8.32415e-05
-6.30843e-05
-7.57026e-05
-6.25434e-05
-6.82031e-05
-6.13792e-05
-6.08149e-05
-5.96051e-05
-5.36093e-05
-5.72451e-05
-4.66555e-05
-5.43346e-05
-4.00192e-05
-5.09199e-05
-3.37616e-05
-4.70583e-05
-2.79381e-05
-4.28179e-05
-2.25972e-05
-3.82767e-05
-1.77797e-05
-3.35223e-05
-1.35178e-05
-2.86511e-05
-9.83443e-06
-2.37672e-05
-6.74325e-06
-1.89819e-05
-4.24833e-06
-1.44124e-05
-2.34443e-06
-1.0181e-05
-1.01755e-06
-6.4137e-06
-2.45707e-07
-3.23864e-06
-7.89849e-07
-5.17245e-07
3.36576e-06
-1.96368e-06
1.00254e-05
-4.24165e-06
1.6487e-05
-7.26067e-06
2.26573e-05
-1.0937e-05
2.84684e-05
-1.51933e-05
3.38701e-05
-1.99582e-05
3.88271e-05
-2.51657e-05
4.33175e-05
-3.07551e-05
4.733e-05
-3.66698e-05
5.08618e-05
-4.28574e-05
5.39164e-05
-4.92688e-05
5.65021e-05
-5.5858e-05
5.86301e-05
-6.25817e-05
6.03134e-05
-6.93987e-05
6.15656e-05
-7.62696e-05
6.23999e-05
-8.31566e-05
6.28288e-05
-9.00229e-05
6.28633e-05
-9.68329e-05
6.25132e-05
-0.000103551
6.17863e-05
-0.000110144
6.06895e-05
-0.000116577
5.92281e-05
-0.000122816
5.74067e-05
-0.000128828
5.52293e-05
-0.000134579
5.27002e-05
-0.000140037
4.9824e-05
-0.000145169
4.66062e-05
-0.000149942
4.30542e-05
-0.000154326
3.9177e-05
-0.000158289
3.49863e-05
-0.000161802
3.04967e-05
-0.000164836
2.57258e-05
-0.000167365
2.0695e-05
-0.000169362
1.54293e-05
-0.000170806
9.95779e-06
-0.000171675
4.31351e-06
-0.000171951
-1.46633e-06
-0.000171622
-7.34052e-06
-0.000170675
-1.3264e-05
-0.000169103
-1.91879e-05
-0.000166905
-2.50604e-05
-0.000164084
-3.08265e-05
-0.000160646
-3.6429e-05
-0.000156605
-4.18091e-05
-0.000151981
-4.69071e-05
-0.000146799
-5.16632e-05
-0.000141091
-5.60187e-05
-0.000134895
-5.99167e-05
-0.000128257
-6.33036e-05
-0.000121226
-6.61301e-05
-0.00011386
-6.83524e-05
-0.00010622
-6.99332e-05
-9.83758e-05
-7.08435e-05
-9.0397e-05
-7.10631e-05
-8.23586e-05
-7.05818e-05
-7.43375e-05
-6.94004e-05
-6.64114e-05
-6.75312e-05
-5.86578e-05
-6.49987e-05
-5.11523e-05
-6.184e-05
-4.39678e-05
-5.81044e-05
-3.71724e-05
-5.38537e-05
-3.08287e-05
-4.91616e-05
-2.49923e-05
-4.41131e-05
-1.97107e-05
-3.8804e-05
-1.50224e-05
-3.33393e-05
-1.09566e-05
-2.7833e-05
-7.53213e-06
-2.24063e-05
-4.75798e-06
-1.71865e-05
-2.6329e-06
-1.23061e-05
-1.14605e-06
-7.90055e-06
-2.77709e-07
-4.10698e-06
-1.06756e-06
-5.51766e-07
3.91752e-06
-2.09242e-06
1.15661e-05
-4.51547e-06
1.89101e-05
-7.72227e-06
2.58641e-05
-1.16216e-05
3.23678e-05
-1.61297e-05
3.83781e-05
-2.11691e-05
4.38666e-05
-2.66692e-05
4.88176e-05
-3.25647e-05
5.32255e-05
-3.87957e-05
5.70928e-05
-4.53067e-05
6.04274e-05
-5.20464e-05
6.32418e-05
-5.8967e-05
6.55507e-05
-6.60236e-05
6.737e-05
-7.31738e-05
6.87158e-05
-8.03773e-05
6.96035e-05
-8.75956e-05
7.00471e-05
-9.47915e-05
7.00592e-05
-0.000101929
6.96504e-05
-0.000108972