/*--------------------------------*- C++ -*----------------------------------*\
  =========                 |
  \\      /  F ield         | OpenFOAM: The Open Source CFD Toolbox
   \\    /   O peration     | Website:  https://openfoam.org
    \\  /    A nd           | Version:  dev
     \\/     M anipulation  |
\*---------------------------------------------------------------------------*/
FoamFile
{
    format      ascii;
    class       volVectorField;
    location    "17.55";
    object      U;
}
// * * * * * * * * * * * * * * * * * * * * * * * * * * * * * * * * * * * * * //

dimensions      [0 1 -1 0 0 0 0];

internalField   nonuniform List<vector> 
5184
(
(1.22859e-05 -1.27216e-05 0)
(4.50574e-05 -2.08645e-05 0)
(8.01442e-05 -1.72097e-05 0)
(9.57224e-05 -8.16138e-06 0)
(8.18386e-05 2.69238e-06 0)
(3.61199e-05 1.36276e-05 0)
(-4.08767e-05 2.38451e-05 0)
(-0.000147131 3.30343e-05 0)
(-0.000279858 4.10783e-05 0)
(-0.000436 4.79841e-05 0)
(-0.00061244 5.38148e-05 0)
(-0.000806147 5.86548e-05 0)
(-0.00101426 6.25957e-05 0)
(-0.00123411 6.57284e-05 0)
(-0.00146325 6.81377e-05 0)
(-0.00169942 6.9899e-05 0)
(-0.00194055 7.10768e-05 0)
(-0.00218474 7.17231e-05 0)
(-0.00243019 7.18785e-05 0)
(-0.00267522 7.15729e-05 0)
(-0.00291824 7.08257e-05 0)
(-0.00315768 6.96473e-05 0)
(-0.00339202 6.80404e-05 0)
(-0.00361974 6.60024e-05 0)
(-0.0038393 6.35261e-05 0)
(-0.00404918 6.06016e-05 0)
(-0.00424782 5.72185e-05 0)
(-0.00443365 5.33673e-05 0)
(-0.0046051 4.90409e-05 0)
(-0.00476058 4.42363e-05 0)
(-0.00489854 3.8956e-05 0)
(-0.00501746 3.32093e-05 0)
(-0.00511589 2.70132e-05 0)
(-0.00519244 2.03939e-05 0)
(-0.00524586 1.33869e-05 0)
(-0.00527503 6.0378e-06 0)
(-0.00527903 -1.59763e-06 0)
(-0.0052571 -9.45301e-06 0)
(-0.00520877 -1.74518e-05 0)
(-0.00513379 -2.55084e-05 0)
(-0.00503224 -3.35284e-05 0)
(-0.00490447 -4.14105e-05 0)
(-0.00475121 -4.90479e-05 0)
(-0.0045735 -5.63298e-05 0)
(-0.00437273 -6.31439e-05 0)
(-0.00415067 -6.93782e-05 0)
(-0.0039094 -7.49242e-05 0)
(-0.00365134 -7.9679e-05 0)
(-0.00337923 -8.35482e-05 0)
(-0.00309604 -8.64483e-05 0)
(-0.00280502 -8.83086e-05 0)
(-0.00250959 -8.90741e-05 0)
(-0.00221332 -8.87066e-05 0)
(-0.00191984 -8.71862e-05 0)
(-0.00163284 -8.45124e-05 0)
(-0.00135593 -8.07045e-05 0)
(-0.00109267 -7.58016e-05 0)
(-0.000846404 -6.98624e-05 0)
(-0.000620289 -6.29643e-05 0)
(-0.000417169 -5.52032e-05 0)
(-0.00023954 -4.66927e-05 0)
(-8.94774e-05 -3.75656e-05 0)
(3.14296e-05 -2.79764e-05 0)
(0.000122166 -1.81073e-05 0)
(0.000182398 -8.18294e-06 0)
(0.000212625 1.50172e-06 0)
(0.000214427 1.05249e-05 0)
(0.000190846 1.82499e-05 0)
(0.000146901 2.36662e-05 0)
(9.06688e-05 2.50847e-05 0)
(3.65924e-05 1.98227e-05 0)
(6.22653e-06 6.24272e-06 0)
(2.07977e-05 -4.5855e-05 0)
(6.54481e-05 -6.55882e-05 0)
(9.43895e-05 -4.04068e-05 0)
(7.23603e-05 7.75952e-06 0)
(-1.9437e-05 6.5745e-05 0)
(-0.000187796 0.000125984 0)
(-0.000433288 0.000184211 0)
(-0.000752695 0.000238178 0)
(-0.00114048 0.000286751 0)
(-0.00158985 0.00032949 0)
(-0.00209349 0.000366359 0)
(-0.00264394 0.000397547 0)
(-0.00323391 0.000423364 0)
(-0.00385641 0.000444176 0)
(-0.00450486 0.000460361 0)
(-0.00517306 0.000472276 0)
(-0.00585522 0.000480244 0)
(-0.0065459 0.00048454 0)
(-0.00723998 0.000485387 0)
(-0.00793258 0.000482956 0)
(-0.008619 0.000477369 0)
(-0.0092947 0.000468702 0)
(-0.00995521 0.000456994 0)
(-0.0105961 0.000442255 0)
(-0.011213 0.000424472 0)
(-0.0118015 0.000403622 0)
(-0.0123572 0.000379681 0)
(-0.0128757 0.000352633 0)
(-0.0133526 0.000322478 0)
(-0.0137836 0.000289242 0)
(-0.0141644 0.000252987 0)
(-0.014491 0.000213814 0)
(-0.0147594 0.000171873 0)
(-0.0149661 0.000127367 0)
(-0.0151078 8.05557e-05 0)
(-0.0151816 3.1756e-05 0)
(-0.0151852 -1.86539e-05 0)
(-0.0151168 -7.02365e-05 0)
(-0.0149752 -0.000122498 0)
(-0.0147602 -0.000174891 0)
(-0.014472 -0.000226823 0)
(-0.014112 -0.000277664 0)
(-0.0136822 -0.000326753 0)
(-0.0131857 -0.000373413 0)
(-0.0126263 -0.00041696 0)
(-0.012009 -0.00045672 0)
(-0.0113395 -0.000492042 0)
(-0.0106244 -0.000522312 0)
(-0.00987112 -0.000546969 0)
(-0.00908765 -0.000565521 0)
(-0.00828272 -0.000577553 0)
(-0.0074655 -0.000582748 0)
(-0.00664551 -0.000580889 0)
(-0.00583246 -0.000571873 0)
(-0.00503612 -0.000555715 0)
(-0.00426616 -0.000532554 0)
(-0.00353194 -0.000502651 0)
(-0.00284236 -0.000466396 0)
(-0.0022057 -0.000424302 0)
(-0.00162943 -0.000377008 0)
(-0.00112001 -0.00032528 0)
(-0.000682757 -0.000270021 0)
(-0.000321568 -0.000212291 0)
(-3.87341e-05 -0.000153338 0)
(0.000165371 -9.46703e-05 0)
(0.000292659 -3.81657e-05 0)
(0.000347865 1.37249e-05 0)
(0.000339237 5.76989e-05 0)
(0.000279241 8.91703e-05 0)
(0.000185697 0.000101651 0)
(8.62321e-05 8.638e-05 0)
(1.96561e-05 3.64504e-05 0)
(1.75877e-05 -8.11721e-05 0)
(4.11553e-05 -9.4753e-05 0)
(1.92821e-05 -1.8839e-05 0)
(-8.44042e-05 0.000106136 0)
(-0.000290633 0.000254702 0)
(-0.000608129 0.000410442 0)
(-0.00103814 0.000563068 0)
(-0.00157685 0.000706455 0)
(-0.0022171 0.000837167 0)
(-0.0029497 0.000953503 0)
(-0.00376439 0.00105487 0)
(-0.00465048 0.00114136 0)
(-0.00559724 0.00121349 0)
(-0.00659425 0.00127199 0)
(-0.00763145 0.00131767 0)
(-0.0086993 0.00135136 0)
(-0.00978873 0.00137382 0)
(-0.0108911 0.00138574 0)
(-0.0119984 0.00138766 0)
(-0.0131025 0.00138004 0)
(-0.0141961 0.00136321 0)
(-0.0152717 0.00133738 0)
(-0.0163221 0.00130268 0)
(-0.0173402 0.00125918 0)
(-0.0183189 0.0012069 0)
(-0.0192512 0.00114581 0)
(-0.02013 0.00107591 0)
(-0.0209485 0.000997213 0)
(-0.0216997 0.000909787 0)
(-0.022377 0.000813768 0)
(-0.0229736 0.000709388 0)
(-0.0234835 0.000596991 0)
(-0.0239005 0.00047705 0)
(-0.0242194 0.000350178 0)
(-0.0244352 0.000217139 0)
(-0.0245436 7.88542e-05 0)
(-0.0245413 -6.35982e-05 0)
(-0.0244258 -0.000208985 0)
(-0.0241956 -0.000355927 0)
(-0.0238503 -0.000502908 0)
(-0.0233908 -0.000648296 0)
(-0.0228192 -0.000790362 0)
(-0.022139 -0.000927307 0)
(-0.021355 -0.00105729 0)
(-0.0204734 -0.00117847 0)
(-0.0195018 -0.00128902 0)
(-0.0184493 -0.00138719 0)
(-0.0173259 -0.00147134 0)
(-0.016143 -0.00153997 0)
(-0.014913 -0.00159178 0)
(-0.0136493 -0.00162565 0)
(-0.0123658 -0.00164075 0)
(-0.0110771 -0.00163653 0)
(-0.00979793 -0.00161271 0)
(-0.00854321 -0.00156938 0)
(-0.00732761 -0.00150692 0)
(-0.00616536 -0.00142609 0)
(-0.00506997 -0.00132798 0)
(-0.00405397 -0.00121403 0)
(-0.00312862 -0.00108605 0)
(-0.00230366 -0.000946207 0)
(-0.00158697 -0.000797063 0)
(-0.000984281 -0.000641619 0)
(-0.000498839 -0.000483399 0)
(-0.000130964 -0.000326596 0)
(0.000122403 -0.000176289 0)
(0.000268337 -3.87835e-05 0)
(0.00031865 7.79145e-05 0)
(0.000290445 0.000163522 0)
(0.000206907 0.00020489 0)
(0.000102246 0.000185921 0)
(2.49352e-05 9.02604e-05 0)
(8.79787e-06 -9.75084e-05 0)
(-7.14644e-06 -7.27275e-05 0)
(-0.000107787 8.51652e-05 0)
(-0.00032254 0.000318549 0)
(-0.000669598 0.000589979 0)
(-0.00115734 0.000873872 0)
(-0.0017865 0.00115323 0)
(-0.00255231 0.00141731 0)
(-0.00344622 0.00165963 0)
(-0.00445722 0.00187668 0)
(-0.00557284 0.00206692 0)
(-0.00677989 0.00223008 0)
(-0.00806499 0.00236673 0)
(-0.00941489 0.0024779 0)
(-0.0108167 0.00256487 0)
(-0.0122581 0.00262897 0)
(-0.013727 0.00267147 0)
(-0.0152122 0.00269353 0)
(-0.0167027 0.00269613 0)
(-0.018188 0.00268004 0)
(-0.0196578 0.00264588 0)
(-0.0211023 0.00259407 0)
(-0.0225117 0.00252487 0)
(-0.0238763 0.00243845 0)
(-0.0251866 0.00233489 0)
(-0.0264332 0.00221423 0)
(-0.0276067 0.00207653 0)
(-0.0286979 0.0019219 0)
(-0.0296977 0.00175054 0)
(-0.0305972 0.00156281 0)
(-0.0313878 0.00135922 0)
(-0.0320614 0.00114051 0)
(-0.0326104 0.000907663 0)
(-0.0330277 0.000661903 0)
(-0.0333072 0.000404743 0)
(-0.0334436 0.000137982 0)
(-0.0334326 -0.000136296 0)
(-0.0332713 -0.000415726 0)
(-0.0329579 -0.000697677 0)
(-0.0324923 -0.000979278 0)
(-0.0318758 -0.00125745 0)
(-0.0311115 -0.00152893 0)
(-0.0302039 -0.00179037 0)
(-0.0291597 -0.00203832 0)
(-0.0279871 -0.00226933 0)
(-0.026696 -0.00248004 0)
(-0.0252982 -0.00266719 0)
(-0.023807 -0.00282773 0)
(-0.0222371 -0.00295891 0)
(-0.0206046 -0.00305829 0)
(-0.0189268 -0.00312386 0)
(-0.0172217 -0.00315408 0)
(-0.0155081 -0.00314791 0)
(-0.0138051 -0.00310492 0)
(-0.0121319 -0.00302524 0)
(-0.0105075 -0.00290967 0)
(-0.00895008 -0.00275963 0)
(-0.00747715 -0.0025772 0)
(-0.00610481 -0.00236515 0)
(-0.00484755 -0.00212692 0)
(-0.00371783 -0.00186664 0)
(-0.00272577 -0.00158921 0)
(-0.00187869 -0.00130033 0)
(-0.00118074 -0.00100666 0)
(-0.000632381 -0.000716005 0)
(-0.000229938 -0.000437615 0)
(3.50413e-05 -0.000182624 0)
(0.000176419 3.53816e-05 0)
(0.000213881 0.000199706 0)
(0.000173546 0.000289978 0)
(9.27918e-05 0.000281928 0)
(2.39779e-05 0.000147026 0)
(-2.15475e-06 -8.41062e-05 0)
(-6.73579e-05 2.13772e-05 0)
(-0.000264126 0.000295803 0)
(-0.000609583 0.000668031 0)
(-0.00111618 0.00109033 0)
(-0.00179011 0.00152885 0)
(-0.00263036 0.00196019 0)
(-0.00363056 0.00236892 0)
(-0.00478058 0.00274534 0)
(-0.00606773 0.00308383 0)
(-0.00747768 0.00338162 0)
(-0.00899519 0.0036379 0)
(-0.0106047 0.00385313 0)
(-0.0122906 0.00402855 0)
(-0.0140378 0.00416581 0)
(-0.0158313 0.00426675 0)
(-0.0176569 0.00433314 0)
(-0.0195007 0.00436663 0)
(-0.0213493 0.00436864 0)
(-0.0231899 0.00434035 0)
(-0.0250098 0.00428267 0)
(-0.0267969 0.00419625 0)
(-0.0285389 0.00408155 0)
(-0.030224 0.00393887 0)
(-0.0318404 0.0037684 0)
(-0.0333766 0.0035703 0)
(-0.034821 0.00334476 0)
(-0.0361624 0.00309205 0)
(-0.0373896 0.00281261 0)
(-0.038492 0.00250711 0)
(-0.0394592 0.00217649 0)
(-0.0402814 0.00182202 0)
(-0.0409496 0.00144535 0)
(-0.0414555 0.00104852 0)
(-0.0417918 0.000634008 0)
(-0.0419522 0.000204732 0)
(-0.0419321 -0.000235957 0)
(-0.0417279 -0.00068428 0)
(-0.041338 -0.00113605 0)
(-0.0407623 -0.00158673 0)
(-0.0400026 -0.00203146 0)
(-0.0390629 -0.00246513 0)
(-0.0379488 -0.00288245 0)
(-0.0366685 -0.00327805 0)
(-0.0352318 -0.00364656 0)
(-0.0336509 -0.00398271 0)
(-0.0319399 -0.00428145 0)
(-0.0301147 -0.00453805 0)
(-0.0281929 -0.00474821 0)
(-0.0261939 -0.00490817 0)
(-0.0241381 -0.00501481 0)
(-0.0220473 -0.00506573 0)
(-0.0199437 -0.00505937 0)
(-0.0178501 -0.00499505 0)
(-0.0157895 -0.00487302 0)
(-0.0137844 -0.00469453 0)
(-0.0118566 -0.00446185 0)
(-0.010027 -0.00417829 0)
(-0.0083148 -0.00384822 0)
(-0.0067373 -0.0034771 0)
(-0.00530944 -0.00307148 0)
(-0.00404333 -0.00263908 0)
(-0.00294785 -0.00218888 0)
(-0.00202814 -0.00173128 0)
(-0.00128515 -0.0012783 0)
(-0.000715151 -0.000843964 0)
(-0.000309164 -0.000444741 0)
(-5.24607e-05 -0.000100162 0)
(7.57939e-05 0.000166467 0)
(0.000103054 0.000327448 0)
(6.72685e-05 0.000350075 0)
(1.96147e-05 0.000193749 0)
(-1.37072e-05 -3.71994e-05 0)
(-0.000132806 0.000197802 0)
(-0.000435596 0.000627061 0)
(-0.000923996 0.00116995 0)
(-0.0016026 0.00177061 0)
(-0.00247396 0.00238826 0)
(-0.00353422 0.00299389 0)
(-0.00477469 0.00356777 0)
(-0.00618328 0.00409707 0)
(-0.00774549 0.00457404 0)
(-0.00944522 0.00499462 0)
(-0.0112654 0.00535732 0)
(-0.0131886 0.0056624 0)
(-0.0151973 0.00591121 0)
(-0.0172743 0.00610573 0)
(-0.0194026 0.00624824 0)
(-0.0215659 0.00634099 0)
(-0.0237481 0.00638613 0)
(-0.0259339 0.00638553 0)
(-0.0281082 0.00634074 0)
(-0.0302561 0.006253 0)
(-0.0323635 0.00612325 0)
(-0.0344161 0.00595215 0)
(-0.0363999 0.00574017 0)
(-0.0383013 0.00548768 0)
(-0.0401066 0.00519499 0)
(-0.0418025 0.00486248 0)
(-0.0433757 0.00449068 0)
(-0.0448136 0.00408035 0)
(-0.0461038 0.00363259 0)
(-0.0472343 0.00314887 0)
(-0.0481939 0.00263116 0)
(-0.0489724 0.00208192 0)
(-0.0495603 0.00150419 0)
(-0.0499495 0.000901624 0)
(-0.0501329 0.000278453 0)
(-0.0501053 -0.000360465 0)
(-0.0498631 -0.00100969 0)
(-0.0494042 -0.00166322 0)
(-0.048729 -0.00231457 0)
(-0.0478398 -0.00295681 0)
(-0.0467409 -0.00358271 0)
(-0.0454394 -0.00418476 0)
(-0.0439444 -0.00475536 0)
(-0.0422673 -0.00528694 0)
(-0.0404221 -0.00577205 0)
(-0.0384249 -0.00620359 0)
(-0.0362938 -0.00657488 0)
(-0.0340491 -0.00687987 0)
(-0.0317127 -0.00711328 0)
(-0.029308 -0.0072707 0)
(-0.0268597 -0.00734878 0)
(-0.0243932 -0.00734531 0)
(-0.0219346 -0.00725933 0)
(-0.0195099 -0.00709123 0)
(-0.0171449 -0.00684277 0)
(-0.0148647 -0.00651719 0)
(-0.012693 -0.00611921 0)
(-0.0106519 -0.00565503 0)
(-0.0087612 -0.00513243 0)
(-0.00703827 -0.00456073 0)
(-0.00549714 -0.00395088 0)
(-0.0041483 -0.00331556 0)
(-0.0029981 -0.00266935 0)
(-0.00204834 -0.00202894 0)
(-0.00129576 -0.0014135 0)
(-0.000731614 -0.000845126 0)
(-0.000341212 -0.000349464 0)
(-0.00010364 4.35484e-05 0)
(8.68253e-06 0.000299014 0)
(3.22821e-05 0.000376163 0)
(1.35737e-05 0.000224003 0)
(-2.51794e-05 4.43994e-05 0)
(-0.000199874 0.000461529 0)
(-0.000613559 0.00108682 0)
(-0.00125172 0.00183366 0)
(-0.00210988 0.00264029 0)
(-0.00318587 0.00346057 0)
(-0.00447211 0.00426093 0)
(-0.00595692 0.00501797 0)
(-0.00762579 0.00571612 0)
(-0.00946221 0.00634571 0)
(-0.0114482 0.00690144 0)
(-0.013565 0.00738116 0)
(-0.0157934 0.00778488 0)
(-0.0181142 0.00811403 0)
(-0.0205084 0.00837088 0)
(-0.0229573 0.00855809 0)
(-0.0254426 0.0086784 0)
(-0.0279466 0.00873439 0)
(-0.030452 0.00872838 0)
(-0.0329418 0.00866231 0)
(-0.0353994 0.00853776 0)
(-0.0378087 0.00835593 0)
(-0.0401535 0.00811774 0)
(-0.0424182 0.00782386 0)
(-0.0445871 0.00747486 0)
(-0.046645 0.00707127 0)
(-0.0485768 0.00661372 0)
(-0.0503677 0.00610308 0)
(-0.0520033 0.00554051 0)
(-0.0534698 0.00492764 0)
(-0.0547541 0.0042666 0)
(-0.0558436 0.00356015 0)
(-0.0567268 0.00281176 0)
(-0.0573935 0.00202561 0)
(-0.0578345 0.00120668 0)
(-0.0580424 0.000360736 0)
(-0.0580113 -0.000505671 0)
(-0.0577372 -0.00138522 0)
(-0.0572183 -0.00226988 0)
(-0.0564548 -0.00315098 0)
(-0.0554493 -0.00401931 0)
(-0.0542071 -0.00486521 0)
(-0.0527357 -0.00567876 0)
(-0.0510453 -0.00644988 0)
(-0.0491487 -0.00716852 0)
(-0.0470612 -0.00782484 0)
(-0.0448007 -0.00840944 0)
(-0.0423873 -0.0089135 0)
(-0.0398434 -0.00932901 0)
(-0.0371931 -0.00964895 0)
(-0.0344624 -0.00986752 0)
(-0.0316786 -0.00998025 0)
(-0.0288698 -0.00998421 0)
(-0.0260651 -0.0098781 0)
(-0.0232932 -0.0096624 0)
(-0.020583 -0.00933947 0)
(-0.0179623 -0.00891357 0)
(-0.0154576 -0.00839093 0)
(-0.0130938 -0.00777981 0)
(-0.0108931 -0.0070905 0)
(-0.00887518 -0.00633536 0)
(-0.00705605 -0.00552889 0)
(-0.00544799 -0.00468778 0)
(-0.00405883 -0.0038311 0)
(-0.00289159 -0.00298052 0)
(-0.001944 -0.00216058 0)
(-0.00120813 -0.00139917 0)
(-0.000670099 -0.000728102 0)
(-0.000309722 -0.000183811 0)
(-0.000100224 0.000191949 0)
(-7.89023e-06 0.000351111 0)
(6.82001e-06 0.000234366 0)
(-3.63131e-05 0.000160677 0)
(-0.000266682 0.000814408 0)
(-0.000792904 0.00167884 0)
(-0.00158385 0.00266414 0)
(-0.00262535 0.00370474 0)
(-0.00390984 0.00475069 0)
(-0.00542538 0.00576504 0)
(-0.00715669 0.00672157 0)
(-0.00908647 0.0076025 0)
(-0.0111959 0.00839661 0)
(-0.013465 0.00909757 0)
(-0.0158732 0.00970267 0)
(-0.0183998 0.0102117 0)
(-0.0210238 0.0106263 0)
(-0.0237247 0.0109489 0)
(-0.0264823 0.0111825 0)
(-0.0292767 0.0113304 0)
(-0.0320885 0.0113956 0)
(-0.0348989 0.0113807 0)
(-0.0376891 0.0112882 0)
(-0.0404412 0.0111199 0)
(-0.043137 0.0108774 0)
(-0.0457591 0.0105617 0)
(-0.04829 0.0101739 0)
(-0.0507127 0.00971461 0)
(-0.0530101 0.00918475 0)
(-0.0551658 0.00858524 0)
(-0.0571636 0.00791732 0)
(-0.0589876 0.00718266 0)
(-0.0606227 0.00638349 0)
(-0.0620545 0.00552271 0)
(-0.0632695 0.00460402 0)
(-0.0642551 0.00363196 0)
(-0.0650002 0.00261203 0)
(-0.0654948 0.00155067 0)
(-0.0657309 0.000455345 0)
(-0.0657021 -0.000665528 0)
(-0.0654042 -0.00180257 0)
(-0.0648351 -0.00294554 0)
(-0.0639952 -0.00408338 0)
(-0.0628873 -0.00520439 0)
(-0.0615169 -0.00629632 0)
(-0.0598922 -0.00734656 0)
(-0.0580242 -0.00834236 0)
(-0.0559267 -0.00927099 0)
(-0.0536164 -0.01012 0)
(-0.0511123 -0.0108775 0)
(-0.0484363 -0.0115323 0)
(-0.0456124 -0.0120742 0)
(-0.042667 -0.0124944 0)
(-0.0396282 -0.0127854 0)
(-0.0365255 -0.0129415 0)
(-0.0333897 -0.012959 0)
(-0.0302522 -0.0128361 0)
(-0.0271447 -0.0125734 0)
(-0.0240986 -0.0121738 0)
(-0.0211444 -0.0116427 0)
(-0.0183114 -0.0109878 0)
(-0.0156271 -0.0102196 0)
(-0.0131162 -0.00935112 0)
(-0.0108006 -0.00839785 0)
(-0.00869866 -0.00737809 0)
(-0.00682458 -0.00631278 0)
(-0.00518798 -0.00522572 0)
(-0.00379347 -0.00414372 0)
(-0.00264022 -0.00309687 0)
(-0.00172168 -0.00211892 0)
(-0.0010253 -0.00124779 0)
(-0.000532326 -0.000526206 0)
(-0.000217436 -2.32808e-06 0)
(-5.05855e-05 0.00026937 0)
(-1.16475e-07 0.000223139 0)
(-4.70133e-05 0.000310993 0)
(-0.000332251 0.00125634 0)
(-0.000970642 0.00240407 0)
(-0.00191476 0.00366324 0)
(-0.00314062 0.00496625 0)
(-0.00463486 0.00626084 0)
(-0.0063807 0.00750785 0)
(-0.00835887 0.00867914 0)
(-0.0105489 0.00975542 0)
(-0.0129294 0.0107244 0)
(-0.0154783 0.0115789 0)
(-0.0181732 0.0123161 0)
(-0.0209916 0.0129356 0)
(-0.0239112 0.0134391 0)
(-0.0269099 0.0138295 0)
(-0.0299661 0.0141102 0)
(-0.0330586 0.0142847 0)
(-0.0361666 0.0143567 0)
(-0.0392697 0.0143291 0)
(-0.042348 0.0142047 0)
(-0.0453818 0.0139857 0)
(-0.0483519 0.013674 0)
(-0.0512391 0.0132709 0)
(-0.0540248 0.0127775 0)
(-0.0566902 0.0121951 0)
(-0.0592173 0.0115245 0)
(-0.0615881 0.0107673 0)
(-0.0637851 0.00992495 0)
(-0.0657912 0.00899981 0)
(-0.0675903 0.00799476 0)
(-0.0691667 0.00691355 0)
(-0.0705058 0.0057609 0)
(-0.0715943 0.00454255 0)
(-0.07242 0.00326542 0)
(-0.0729724 0.00193754 0)
(-0.0732427 0.000568187 0)
(-0.0732241 -0.000832209 0)
(-0.0729119 -0.00225208 0)
(-0.0723039 -0.00367878 0)
(-0.0714002 -0.00509875 0)
(-0.0702038 -0.0064976 0)
(-0.0687203 -0.0078603 0)
(-0.0669583 -0.00917142 0)
(-0.0649295 -0.0104153 0)
(-0.0626483 -0.0115764 0)
(-0.0601322 -0.0126393 0)
(-0.0574016 -0.0135896 0)
(-0.0544796 -0.0144134 0)
(-0.0513919 -0.0150983 0)
(-0.0481664 -0.0156333 0)
(-0.0448331 -0.0160092 0)
(-0.0414239 -0.0162189 0)
(-0.0379717 -0.0162577 0)
(-0.0345104 -0.0161233 0)
(-0.0310741 -0.0158162 0)
(-0.027697 -0.0153399 0)
(-0.0244122 -0.0147008 0)
(-0.0212516 -0.0139084 0)
(-0.0182455 -0.0129752 0)
(-0.0154211 -0.0119171 0)
(-0.0128029 -0.0107529 0)
(-0.0104117 -0.00950492 0)
(-0.00826376 -0.00819845 0)
(-0.00637095 -0.00686218 0)
(-0.0047398 -0.00552822 0)
(-0.00337137 -0.00423228 0)
(-0.0022609 -0.003014 0)
(-0.00139772 -0.00191734 0)
(-0.000764894 -0.000991077 0)
(-0.000339058 -0.000289322 0)
(-9.42481e-05 0.000127843 0)
(-6.96639e-06 0.000189676 0)
(-5.72668e-05 0.000494441 0)
(-0.000396098 0.00178607 0)
(-0.00114504 0.00326161 0)
(-0.00224096 0.00483057 0)
(-0.00365015 0.00642477 0)
(-0.0053533 0.00799103 0)
(-0.00732852 0.00948908 0)
(-0.00955227 0.0108898 0)
(-0.0120007 0.0121731 0)
(-0.0146495 0.0133261 0)
(-0.0174744 0.0143414 0)
(-0.0204512 0.015216 0)
(-0.0235556 0.0159498 0)
(-0.0267638 0.0165447 0)
(-0.0300524 0.0170039 0)
(-0.0333986 0.0173313 0)
(-0.0367798 0.0175309 0)
(-0.040174 0.0176067 0)
(-0.0435596 0.0175622 0)
(-0.0469156 0.0174004 0)
(-0.0502209 0.0171239 0)
(-0.0534551 0.0167348 0)
(-0.0565979 0.0162347 0)
(-0.0596292 0.0156251 0)
(-0.0625294 0.0149073 0)
(-0.0652789 0.0140827 0)
(-0.0678587 0.0131531 0)
(-0.0702501 0.0121206 0)
(-0.0724351 0.010988 0)
(-0.0743962 0.00975905 0)
(-0.0761168 0.00843837 0)
(-0.0775815 0.00703176 0)
(-0.0787759 0.00554626 0)
(-0.079687 0.00399027 0)
(-0.0803036 0.00237352 0)
(-0.0806163 0.000707196 0)
(-0.0806175 -0.000996157 0)
(-0.0803022 -0.00272265 0)
(-0.0796677 -0.00445715 0)
(-0.0787138 -0.00618342 0)
(-0.0774434 -0.00788425 0)
(-0.0758621 -0.00954169 0)
(-0.0739787 -0.0111373 0)
(-0.071805 -0.0126524 0)
(-0.0693561 -0.0140683 0)
(-0.06665 -0.0153667 0)
(-0.0637081 -0.0165301 0)
(-0.0605545 -0.0175421 0)
(-0.0572161 -0.0183875 0)
(-0.0537225 -0.0190532 0)
(-0.0501054 -0.0195279 0)
(-0.0463985 -0.019803 0)
(-0.0426369 -0.0198726 0)
(-0.0388569 -0.0197338 0)
(-0.035095 -0.019387 0)
(-0.031388 -0.0188359 0)
(-0.0277718 -0.0180881 0)
(-0.0242812 -0.0171546 0)
(-0.0209489 -0.0160503 0)
(-0.0178052 -0.0147937 0)
(-0.0148773 -0.0134073 0)
(-0.0121885 -0.0119173 0)
(-0.00975777 -0.0103535 0)
(-0.0075994 -0.00874963 0)
(-0.00572225 -0.00714321 0)
(-0.00412963 -0.00557567 0)
(-0.00281899 -0.00409252 0)
(-0.00178187 -0.00274367 0)
(-0.00100357 -0.00158379 0)
(-0.000462881 -0.000672562 0)
(-0.000138063 -7.50771e-05 0)
(-1.36143e-05 0.000133898 0)
(-6.7091e-05 0.000709988 0)
(-0.000457997 0.00240171 0)
(-0.0013151 0.00424937 0)
(-0.00256024 0.00616413 0)
(-0.00415025 0.0080785 0)
(-0.00605985 0.00993949 0)
(-0.00826194 0.0117068 0)
(-0.0107286 0.0133513 0)
(-0.0134322 0.0148527 0)
(-0.0163457 0.0161982 0)
(-0.0194424 0.0173807 0)
(-0.0226959 0.0183972 0)
(-0.0260805 0.0192482 0)
(-0.0295708 0.019936 0)
(-0.0331421 0.0204643 0)
(-0.0367704 0.0208375 0)
(-0.0404321 0.0210601 0)
(-0.044104 0.0211366 0)
(-0.0477635 0.0210707 0)
(-0.0513884 0.020866 0)
(-0.0549568 0.0205253 0)
(-0.0584471 0.020051 0)
(-0.061838 0.0194451 0)
(-0.0651083 0.0187091 0)
(-0.0682372 0.0178448 0)
(-0.0712044 0.0168539 0)
(-0.0739896 0.0157386 0)
(-0.0765731 0.0145014 0)
(-0.0789359 0.0131459 0)
(-0.0810596 0.0116766 0)
(-0.0829267 0.010099 0)
(-0.0845207 0.00842008 0)
(-0.0858264 0.00664822 0)
(-0.08683 0.00479333 0)
(-0.0875194 0.00286695 0)
(-0.0878845 0.000882217 0)
(-0.087917 -0.00114613 0)
(-0.0876112 -0.0032018 0)
(-0.0869639 -0.00526707 0)
(-0.0859745 -0.00732291 0)
(-0.0846454 -0.00934919 0)
(-0.0829821 -0.0113249 0)
(-0.0809931 -0.0132284 0)
(-0.0786903 -0.0150379 0)
(-0.0760891 -0.0167313 0)
(-0.0732078 -0.0182873 0)
(-0.0700684 -0.0196852 0)
(-0.0666959 -0.0209055 0)
(-0.0631182 -0.0219304 0)
(-0.0593662 -0.0227441 0)
(-0.0554733 -0.0233333 0)
(-0.0514748 -0.0236875 0)
(-0.047408 -0.0237994 0)
(-0.0433113 -0.0236653 0)
(-0.039224 -0.0232852 0)
(-0.0351852 -0.0226633 0)
(-0.0312339 -0.0218078 0)
(-0.0274076 -0.0207314 0)
(-0.0237423 -0.0194512 0)
(-0.0202711 -0.0179887 0)
(-0.0170242 -0.0163697 0)
(-0.0140279 -0.0146244 0)
(-0.0113042 -0.0127875 0)
(-0.00887012 -0.0108976 0)
(-0.0067372 -0.0089979 0)
(-0.00491137 -0.00713544 0)
(-0.00339265 -0.00536174 0)
(-0.00217512 -0.00373262 0)
(-0.0012465 -0.00230853 0)
(-0.000587898 -0.00115448 0)
(-0.000181707 -0.000340222 0)
(-2.00339e-05 5.59761e-05 0)
(-7.65112e-05 0.000956556 0)
(-0.000517849 0.00310093 0)
(-0.00148024 0.00536447 0)
(-0.00287118 0.00766084 0)
(-0.00463838 0.00992428 0)
(-0.00675073 0.012103 0)
(-0.00917589 0.0141578 0)
(-0.0118814 0.01606 0)
(-0.014836 0.0177903 0)
(-0.0180097 0.0193363 0)
(-0.0213731 0.0206917 0)
(-0.024898 0.0218542 0)
(-0.0285567 0.0228247 0)
(-0.0323227 0.0236064 0)
(-0.0361699 0.0242036 0)
(-0.0400732 0.0246213 0)
(-0.0440079 0.0248645 0)
(-0.0479499 0.0249382 0)
(-0.0518759 0.0248467 0)
(-0.0557625 0.0245938 0)
(-0.059587 0.0241826 0)
(-0.063327 0.0236159 0)
(-0.0669601 0.0228959 0)
(-0.0704645 0.0220244 0)
(-0.0738183 0.0210035 0)
(-0.0770003 0.0198351 0)
(-0.0799893 0.0185219 0)
(-0.0827648 0.017067 0)
(-0.0853067 0.0154746 0)
(-0.0875958 0.01375 0)
(-0.0896137 0.0118996 0)
(-0.0913429 0.00993157 0)
(-0.0927674 0.0078557 0)
(-0.0938725 0.00568345 0)
(-0.0946452 0.00342813 0)
(-0.0950745 0.0011049 0)
(-0.0951514 -0.00126926 0)
(-0.0948694 -0.0036756 0)
(-0.0942244 -0.00609373 0)
(-0.0932152 -0.00850178 0)
(-0.0918436 -0.0108766 0)
(-0.0901146 -0.0131939 0)
(-0.0880363 -0.0154289 0)
(-0.0856204 -0.0175563 0)
(-0.0828821 -0.0195507 0)
(-0.07984 -0.0213873 0)
(-0.0765162 -0.0230421 0)
(-0.0729365 -0.0244923 0)
(-0.0691295 -0.0257172 0)
(-0.0651273 -0.0266982 0)
(-0.0609647 -0.0274194 0)
(-0.0566787 -0.0278684 0)
(-0.0523085 -0.0280362 0)
(-0.047895 -0.0279179 0)
(-0.0434798 -0.0275132 0)
(-0.039105 -0.0268261 0)
(-0.0348123 -0.0258658 0)
(-0.0306425 -0.0246463 0)
(-0.0266348 -0.0231869 0)
(-0.0228257 -0.0215118 0)
(-0.0192487 -0.0196505 0)
(-0.0159334 -0.0176372 0)
(-0.0129051 -0.0155112 0)
(-0.010184 -0.0133166 0)
(-0.00778476 -0.0111019 0)
(-0.00571624 -0.00892012 0)
(-0.00398135 -0.00682877 0)
(-0.00257693 -0.00488968 0)
(-0.00149332 -0.00316901 0)
(-0.000713957 -0.00173708 0)
(-0.00022518 -0.000668152 0)
(-2.62515e-05 -4.38727e-05 0)
(-8.55497e-05 0.00123305 0)
(-0.000575606 0.0038812 0)
(-0.00164007 0.00660346 0)
(-0.00317279 0.00931678 0)
(-0.00511274 0.0119579 0)
(-0.00742312 0.0144774 0)
(-0.0100665 0.0168375 0)
(-0.0130058 0.0190114 0)
(-0.0162062 0.020981 0)
(-0.0196346 0.0227353 0)
(-0.023259 0.024269 0)
(-0.0270492 0.0255809 0)
(-0.0309759 0.026673 0)
(-0.035011 0.0275492 0)
(-0.0391274 0.0282148 0)
(-0.0432988 0.0286755 0)
(-0.0474996 0.0289369 0)
(-0.0517051 0.0290046 0)
(-0.0558907 0.0288833 0)
(-0.0600328 0.0285772 0)
(-0.0641077 0.0280898 0)
(-0.0680922 0.0274242 0)
(-0.0719633 0.0265826 0)
(-0.0756983 0.0255674 0)
(-0.0792747 0.0243807 0)
(-0.0826703 0.023025 0)
(-0.0858633 0.0215031 0)
(-0.0888323 0.0198189 0)
(-0.0915565 0.0179771 0)
(-0.0940156 0.0159837 0)
(-0.0961904 0.0138462 0)
(-0.0980626 0.0115739 0)
(-0.0996152 0.00917795 0)
(-0.100833 0.00667132 0)
(-0.101701 0.00406913 0)
(-0.102208 0.00138858 0)
(-0.102344 -0.0013511 0)
(-0.102101 -0.0041287 0)
(-0.101475 -0.0069211 0)
(-0.100463 -0.00970352 0)
(-0.0990663 -0.0124497 0)
(-0.0972888 -0.0151321 0)
(-0.0951382 -0.0177225 0)
(-0.0926256 -0.020192 0)
(-0.0897657 -0.0225117 0)
(-0.086577 -0.0246531 0)
(-0.0830819 -0.0265887 0)
(-0.0793061 -0.0282922 0)
(-0.0752792 -0.0297395 0)
(-0.0710341 -0.030909 0)
(-0.0666067 -0.031782 0)
(-0.0620359 -0.0323437 0)
(-0.0573628 -0.0325831 0)
(-0.0526305 -0.0324941 0)
(-0.0478831 -0.0320753 0)
(-0.0431659 -0.0313309 0)
(-0.0385236 -0.0302703 0)
(-0.0340004 -0.028909 0)
(-0.029639 -0.0272682 0)
(-0.0254796 -0.0253749 0)
(-0.0215594 -0.0232619 0)
(-0.0179119 -0.0209679 0)
(-0.0145659 -0.0185369 0)
(-0.0115452 -0.016018 0)
(-0.00886802 -0.0134656 0)
(-0.00654647 -0.0109388 0)
(-0.00458664 -0.00850109 0)
(-0.00298839 -0.00622051 0)
(-0.00174476 -0.00416906 0)
(-0.000841507 -0.00242243 0)
(-0.000268705 -0.00105951 0)
(-3.23261e-05 -0.000165515 0)
(-9.42221e-05 0.00153839 0)
(-0.000631233 0.00473983 0)
(-0.00179433 0.00796256 0)
(-0.00346435 0.0111274 0)
(-0.00557194 0.0141745 0)
(-0.00807483 0.0170572 0)
(-0.0109305 0.0197404 0)
(-0.0140977 0.0221997 0)
(-0.0175378 0.024419 0)
(-0.0212145 0.0263891 0)
(-0.0250936 0.0281063 0)
(-0.0291425 0.029571 0)
(-0.0333305 0.0307865 0)
(-0.037628 0.0317579 0)
(-0.0420067 0.0324913 0)
(-0.0464394 0.0329935 0)
(-0.0508998 0.0332708 0)
(-0.0553622 0.0333293 0)
(-0.0598016 0.0331744 0)
(-0.0641936 0.0328107 0)
(-0.0685139 0.032242 0)
(-0.0727388 0.0314716 0)
(-0.0768446 0.030502 0)
(-0.0808079 0.0293359 0)
(-0.0846058 0.0279755 0)
(-0.0882153 0.0264238 0)
(-0.0916138 0.024684 0)
(-0.0947794 0.0227603 0)
(-0.0976902 0.020658 0)
(-0.100325 0.018384 0)
(-0.102665 0.0159467 0)
(-0.10469 0.0133566 0)
(-0.106381 0.0106259 0)
(-0.107723 0.0077693 0)
(-0.108701 0.00480367 0)
(-0.109301 0.00174816 0)
(-0.109512 -0.00137574 0)
(-0.109326 -0.00454434 0)
(-0.108736 -0.00773182 0)
(-0.10774 -0.0109104 0)
(-0.106336 -0.0140507 0)
(-0.104528 -0.0171219 0)
(-0.102323 -0.0200921 0)
(-0.099731 -0.0229287 0)
(-0.0967658 -0.0255991 0)
(-0.0934454 -0.028071 0)
(-0.0897921 -0.030313 0)
(-0.0858317 -0.032295 0)
(-0.0815941 -0.0339892 0)
(-0.0771129 -0.0353707 0)
(-0.0724254 -0.0364177 0)
(-0.0675717 -0.0371124 0)
(-0.062595 -0.0374417 0)
(-0.0575407 -0.0373977 0)
(-0.0524557 -0.0369778 0)
(-0.0473881 -0.0361858 0)
(-0.0423862 -0.0350313 0)
(-0.037498 -0.033531 0)
(-0.0327698 -0.0317078 0)
(-0.028246 -0.0295914 0)
(-0.023968 -0.0272181 0)
(-0.0199733 -0.0246307 0)
(-0.0162949 -0.0218779 0)
(-0.0129605 -0.0190145 0)
(-0.00999238 -0.0161006 0)
(-0.00740628 -0.0132014 0)
(-0.00521171 -0.0103869 0)
(-0.00341178 -0.00773143 0)
(-0.00200234 -0.00531301 0)
(-0.000971429 -0.00321302 0)
(-0.000312654 -0.00151528 0)
(-3.83359e-05 -0.000308987 0)
(-0.000102536 0.00187145 0)
(-0.000684686 0.00567396 0)
(-0.00194276 0.00943763 0)
(-0.00374523 0.0130877 0)
(-0.00601481 0.0165683 0)
(-0.00870397 0.0198364 0)
(-0.0117655 0.0228603 0)
(-0.0151536 0.0256186 0)
(-0.0188263 0.0280977 0)
(-0.0227443 0.030291 0)
(-0.0268708 0.032197 0)
(-0.0311713 0.0338178 0)
(-0.0356133 0.0351584 0)
(-0.040166 0.0362254 0)
(-0.0448 0.0370262 0)
(-0.0494873 0.0375685 0)
(-0.0542006 0.0378597 0)
(-0.0589138 0.0379064 0)
(-0.0636012 0.0377147 0)
(-0.068238 0.0372895 0)
(-0.0727993 0.036635 0)
(-0.077261 0.0357548 0)
(-0.081599 0.0346518 0)
(-0.0857893 0.0333287 0)
(-0.0898084 0.0317881 0)
(-0.0936329 0.0300331 0)
(-0.0972396 0.0280673 0)
(-0.100606 0.0258954 0)
(-0.103709 0.0235233 0)
(-0.106528 0.0209585 0)
(-0.109041 0.0182104 0)
(-0.111228 0.0152903 0)
(-0.113071 0.0122119 0)
(-0.114552 0.00899121 0)
(-0.115654 0.00564687 0)
(-0.116363 0.00219996 0)
(-0.116667 -0.00132586 0)
(-0.116556 -0.00490443 0)
(-0.116021 -0.00850723 0)
(-0.11506 -0.0121036 0)
(-0.113669 -0.0156608 0)
(-0.111851 -0.0191447 0)
(-0.10961 -0.0225196 0)
(-0.106957 -0.0257494 0)
(-0.103903 -0.0287972 0)
(-0.100467 -0.0316267 0)
(-0.0966694 -0.0342024 0)
(-0.0925362 -0.0364902 0)
(-0.0880976 -0.0384582 0)
(-0.0833877 -0.0400777 0)
(-0.0784445 -0.0413233 0)
(-0.0733098 -0.0421741 0)
(-0.0680285 -0.0426142 0)
(-0.0626484 -0.0426335 0)
(-0.0572194 -0.042228 0)
(-0.0517926 -0.0414004 0)
(-0.0464202 -0.0401605 0)
(-0.0411538 -0.0385255 0)
(-0.0360443 -0.0365202 0)
(-0.0311404 -0.0341767 0)
(-0.0264881 -0.0315347 0)
(-0.0221295 -0.0286411 0)
(-0.0181022 -0.0255496 0)
(-0.0144386 -0.0223204 0)
(-0.011165 -0.0190198 0)
(-0.00830137 -0.0157193 0)
(-0.00586094 -0.0124957 0)
(-0.00385027 -0.00942976 0)
(-0.00226816 -0.00660608 0)
(-0.0011049 -0.00411207 0)
(-0.000357499 -0.00203695 0)
(-4.43712e-05 -0.000474556 0)
(-0.000110491 0.00223112 0)
(-0.000735906 0.00668064 0)
(-0.00208512 0.0110243 0)
(-0.00401484 0.0151922 0)
(-0.00644024 0.0191331 0)
(-0.00930884 0.0228083 0)
(-0.0125688 0.02619 0)
(-0.0161703 0.0292605 0)
(-0.0200678 0.0320096 0)
(-0.0242191 0.0344335 0)
(-0.028585 0.0365333 0)
(-0.0331292 0.0383135 0)
(-0.0378175 0.0397812 0)
(-0.0426178 0.0409445 0)
(-0.0474997 0.0418125 0)
(-0.0524343 0.042394 0)
(-0.0573939 0.0426973 0)
(-0.0623516 0.04273 0)
(-0.0672814 0.0424986 0)
(-0.072158 0.0420088 0)
(-0.0769563 0.0412651 0)
(-0.0816516 0.0402712 0)
(-0.0862195 0.0390303 0)
(-0.0906359 0.0375453 0)