/*--------------------------------*- C++ -*----------------------------------*\
  =========                 |
  \\      /  F ield         | OpenFOAM: The Open Source CFD Toolbox
   \\    /   O peration     | Website:  https://openfoam.org
    \\  /    A nd           | Version:  dev
     \\/     M anipulation  |
\*---------------------------------------------------------------------------*/
FoamFile
{
    format      ascii;
    class       volScalarField;
    location    "36.45";
    object      p;
}
// * * * * * * * * * * * * * * * * * * * * * * * * * * * * * * * * * * * * * //

dimensions      [0 2 -2 0 0 0 0];

internalField   nonuniform List<scalar> 
5184
(
1.61934e-06
-9.83039e-06
-9.57094e-05
-0.000248627
-0.000448079
-0.00067679
-0.000920531
-0.00116733
-0.00140803
-0.00163549
-0.00184429
-0.00203041
-0.00219091
-0.0023237
-0.0024273
-0.0025007
-0.00254323
-0.00255446
-0.0025341
-0.00248199
-0.00239804
-0.00228223
-0.00213462
-0.00195534
-0.00174464
-0.00150288
-0.00123061
-0.00092858
-0.000597779
-0.000239479
0.000144736
0.000552938
0.000982832
0.00143174
0.00189661
0.00237399
0.00286005
0.00335063
0.00384126
0.00432719
0.00480349
0.00526508
0.00570683
0.00612366
0.00651062
0.006863
0.00717642
0.00744697
0.00767126
0.00784656
0.00797086
0.00804296
0.00806251
0.00803007
0.00794715
0.00781618
0.00764058
0.00742464
0.00717358
0.00689347
0.00659116
0.00627428
0.00595113
0.00563067
0.00532246
0.00503658
0.00478354
0.00457396
0.0044178
0.00432352
0.0042966
0.00432389
1.52491e-05
2.78268e-06
-7.18292e-05
-0.000199623
-0.000364913
-0.000555228
-0.000759637
-0.000968531
-0.00117398
-0.0013696
-0.00155033
-0.00171228
-0.00185247
-0.00196867
-0.00205924
-0.00212299
-0.00215905
-0.00216681
-0.00214586
-0.00209589
-0.00201675
-0.00190833
-0.00177065
-0.00160381
-0.00140805
-0.00118372
-0.000931349
-0.000651673
-0.000345646
-1.4487e-05
0.000340298
0.00071689
0.00111314
0.00152655
0.00195428
0.00239314
0.00283963
0.0032899
0.00373988
0.00418523
0.00462147
0.00504398
0.00544813
0.00582933
0.00618312
0.00650529
0.00679191
0.00703951
0.00724511
0.00740632
0.00752141
0.0075894
0.00761009
0.00758411
0.00751292
0.00739886
0.00724511
0.00705568
0.00683538
0.00658976
0.00632507
0.00604819
0.00576656
0.00548811
0.00522114
0.00497424
0.00475606
0.004575
0.00443834
0.00435202
0.00432346
0.00435108
0.000101947
7.72187e-05
1.86389e-06
-0.000115702
-0.000263446
-0.00043173
-0.000611842
-0.000795945
-0.000977336
-0.00115046
-0.0013108
-0.00145478
-0.00157958
-0.00168304
-0.00176351
-0.00181975
-0.00185082
-0.00185605
-0.00183492
-0.00178708
-0.00171229
-0.0016104
-0.00148138
-0.0013253
-0.00114233
-0.000932815
-0.00069723
-0.000436258
-0.000150797
0.000158012
0.000488756
0.000839732
0.00120893
0.00159401
0.00199233
0.00240092
0.00281651
0.00323553
0.00365418
0.00406845
0.00447417
0.00486707
0.00524286
0.00559729
0.00592626
0.00622586
0.00649251
0.006723
0.00691464
0.00706524
0.00717328
0.0072379
0.007259
0.00723722
0.00717399
0.00707157
0.00693295
0.00676191
0.00656294
0.00634121
0.00610247
0.00585303
0.00559965
0.00534945
0.0051098
0.00488814
0.00469198
0.00452836
0.00440332
0.00432207
0.00429428
0.00432493
0.000256996
0.000205586
0.00011777
-1.20383e-06
-0.000143669
-0.000301847
-0.000468608
-0.00063758
-0.000803222
-0.000960847
-0.00110658
-0.00123729
-0.00135048
-0.00144417
-0.00151684
-0.0015673
-0.00159465
-0.0015982
-0.00157742
-0.00153191
-0.0014614
-0.00136569
-0.0012447
-0.00109845
-0.000927069
-0.000730815
-0.000510116
-0.000265576
1.99409e-06
0.000291547
0.000601782
0.000931118
0.00127768
0.0016393
0.0020135
0.00239748
0.00278818
0.00318226
0.00357612
0.003966
0.00434796
0.00471798
0.00507198
0.00540598
0.00571609
0.00599862
0.00625019
0.00646779
0.00664886
0.00679137
0.00689389
0.00695566
0.00697658
0.00695732
0.00689927
0.00680457
0.0066761
0.00651744
0.00633283
0.00612712
0.00590569
0.00567438
0.00543941
0.00520727
0.00498462
0.00477812
0.0045944
0.00443973
0.00431955
0.00423889
0.00420785
0.00423311
0.000461777
0.000373173
0.000264566
0.000136848
-7.52979e-06
-0.000162403
-0.000321998
-0.000481313
-0.000635936
-0.00078207
-0.000916534
-0.00103672
-0.00114051
-0.00122623
-0.00129253
-0.00133836
-0.00136291
-0.0013655
-0.00134564
-0.00130291
-0.001237
-0.00114768
-0.00103483
-0.000898394
-0.000738433
-0.000555138
-0.000348846
-0.000120068
0.000130489
0.000401892
0.000692966
0.00100227
0.00132807
0.00166835
0.0020208
0.00238281
0.0027515
0.00312369
0.00349601
0.00386486
0.00422651
0.0045771
0.00491277
0.00522967
0.0055241
0.00579251
0.00603166
0.00623865
0.00641103
0.00654684
0.00664472
0.00670393
0.00672439
0.00670673
0.00665229
0.00656314
0.00644202
0.00629234
0.00611813
0.00592396
0.00571488
0.00549635
0.00527412
0.00505415
0.00484247
0.00464514
0.00446804
0.00431681
0.00419642
0.00411162
0.00407122
0.00408106
0.000700124
0.000568095
0.000432919
0.000290865
0.000138923
-1.81367e-05
-0.000175706
-0.000330043
-0.000477812
-0.000616089
-0.000742402
-0.000854705
-0.000951325
-0.00103091
-0.00109238
-0.00113485
-0.00115761
-0.0011601
-0.00114183
-0.0011024
-0.00104149
-0.000958841
-0.000854257
-0.000727628
-0.000578939
-0.000408288
-0.000215912
-2.21123e-06
0.000232227
0.0004866
0.000759868
0.00105073
0.00135762
0.00167867
0.00201172
0.00235434
0.0027038
0.0030571
0.00341101
0.00376209
0.00410675
0.00444128
0.00476194
0.005065
0.00534685
0.00560403
0.00583338
0.00603205
0.00619764
0.00632822
0.00642243
0.00647953
0.00649941
0.00648267
0.00643058
0.00634511
0.00622889
0.00608518
0.00591783
0.00573117
0.00552999
0.0053194
0.00510478
0.00489163
0.00468551
0.0044919
0.00431613
0.00416326
0.00403786
0.00394432
0.00388913
0.00387606
0.000958244
0.000779475
0.000613926
0.000453374
0.000289447
0.00012575
-3.40933e-05
-0.000187484
-0.000332088
-0.000465818
-0.000586903
-0.000693872
-0.000785518
-0.000860858
-0.000919087
-0.000959541
-0.000981666
-0.000984982
-0.000969071
-0.00093356
-0.000878113
-0.000802439
-0.000706293
-0.00058949
-0.000451929
-0.000293604
-0.00011464
8.46883e-05
0.000303926
0.000542412
0.000799253
0.0010733
0.00136314
0.00166706
0.00198307
0.00230887
0.00264188
0.00297924
0.00331786
0.0036544
0.00398539
0.0043072
0.00461617
0.00490863
0.005181
0.00542988
0.0056521
0.00584483
0.00600563
0.00613258
0.00622426
0.0062799
0.00629932
0.00628307
0.00623233
0.00614898
0.00603554
0.00589514
0.00573146
0.00554867
0.00535131
0.00514423
0.0049325
0.00472127
0.00451569
0.00432081
0.00414149
0.0039823
0.00384748
0.00374107
0.00366675
0.00362575
0.00122401
0.000997173
0.000798995
0.000617088
0.000437968
0.000264275
9.87987e-05
-5.68911e-05
-0.000201386
-0.000333391
-0.000451809
-0.000555742
-0.000644453
-0.000717339
-0.000773899
-0.0008137
-0.000836355
-0.000841504
-0.000828799
-0.000797898
-0.000748464
-0.000680174
-0.000592726
-0.00048586
-0.000359375
-0.000213156
-4.72016e-05
0.000138349
0.000343187
0.000566799
0.00080845
0.00106715
0.00134164
0.00163036
0.00193147
0.00224281
0.00256193
0.0028861
0.00321232
0.00353735
0.00385776
0.00416999
0.00447041
0.00475536
0.00502126
0.00526467
0.00548239
0.00567154
0.00582963
0.00595464
0.0060451
0.00610012
0.00611948
0.0061036
0.00605358
0.0059712
0.00585887
0.0057196
0.00555695
0.00537491
0.00517787
0.00497046
0.00475751
0.00454389
0.00433445
0.00413391
0.00394673
0.00377709
0.00362901
0.00350621
0.00340943
0.00333726
0.00148717
0.00121204
0.000980061
0.000774966
0.00057843
0.000392288
0.000218622
5.80745e-05
-8.88002e-05
-0.000221445
-0.000339411
-0.000442349
-0.00052999
-0.000602112
-0.000658519
-0.000699018
-0.000723401
-0.000731433
-0.000722842
-0.000697322
-0.000654536
-0.000594128
-0.000515735
-0.000419014
-0.000303659
-0.000169434
-1.6202e-05
0.000156044
0.000347148
0.00055676
0.000784305
0.00102896
0.00128962
0.00156488
0.00185305
0.0021521
0.0024597
0.00277322
0.00308973
0.00340606
0.00371882
0.00402446
0.00431933
0.00459975
0.00486209
0.00510284
0.00531871
0.0055067
0.00566423
0.00578916
0.00587988
0.00593541
0.00595538
0.00594009
0.00589054
0.0058084
0.00569596
0.00555613
0.00539234
0.00520848
0.00500878
0.00479775
0.00458001
0.00436025
0.0041431
0.00393302
0.0037342
0.00355052
0.00338586
0.00324373
0.00312197
0.00301664
0.00173873
0.00141581
0.00114963
0.000920276
0.000704859
0.000504532
0.000320773
0.000153378
2.11847e-06
-0.000133139
-0.000252554
-0.000356307
-0.000444576
-0.000517513
-0.000575225
-0.000617757
-0.00064508
-0.000657082
-0.000653572
-0.000634275
-0.000598854
-0.000546914
-0.000478028
-0.000391762
-0.000287697
-0.000165467
-2.4791e-05
0.000134495
0.000312399
0.00050874
0.000723113
0.000954862
0.00120305
0.00146643
0.00174344
0.00203219
0.00233045
0.00263568
0.00294501
0.00325531
0.00356321
0.00386513
0.00415738
0.00443621
0.00469789
0.0049388
0.00515551
0.00534489
0.00550417
0.00563106
0.00572379
0.0057812
0.00580277
0.00578866
0.00573972
0.00565749
0.00554416
0.00540252
0.00523592
0.00504813
0.00484329
0.00462581
0.0044002
0.00417102
0.00394277
0.00371974
0.00350594
0.00330506
0.00312094
0.00295703
0.00280838
0.00266865
0.00197076
0.00160098
0.00130071
0.00104661
0.000811432
0.000595756
0.000400528
0.000224772
6.75345e-05
-7.19622e-05
-0.000194449
-0.000300609
-0.000391047
-0.000466273
-0.000526685
-0.000572559
-0.000604037
-0.00062113
-0.000623716
-0.000611554
-0.000584295
-0.000541502
-0.000482677
-0.000407284
-0.000314787
-0.00020468
-7.65251e-05
7.00056e-05
0.000235094
0.000418737
0.000620708
0.000840526
0.00107742
0.00133031
0.00159776
0.00187802
0.00216896
0.0024681
0.00277264
0.00307946
0.00338517
0.00368616
0.00397866
0.00425881
0.00452276
0.00476671
0.00498707
0.00518051
0.00534405
0.00547519
0.00557194
0.00563293
0.00565745
0.00564547
0.00559769
0.00551548
0.00540091
0.00525667
0.00508601
0.00489264
0.00468064
0.00445434
0.00421821
0.00397676
0.00373441
0.00349541
0.00326368
0.00304281
0.00283672
0.00264892
0.00247183
0.00229691
0.00217609
0.00176066
0.00142679
0.00114786
0.000892498
0.000660757
0.000453113
0.000267875
0.000103412
-4.16532e-05
-0.000168591
-0.000278555
-0.000372556
-0.000451443
-0.00051589
-0.000566388
-0.000603242
-0.000626572
-0.000636322
-0.000632272
-0.000614055
-0.000581185
-0.000533082
-0.000469103
-0.000388581
-0.000290861
-0.000175342
-4.15194e-05
0.000110972
0.000282316
0.000472476
0.000681151
0.000907747
0.00115134
0.00141066
0.00168406
0.00196951
0.00226461
0.0025666
0.00287235
0.00317846
0.00348125
0.00377684
0.00406124
0.00433042
0.00458041
0.00480737
0.00500773
0.00517827
0.00531621
0.00541931
0.00548593
0.00551513
0.00550665
0.00546097
0.00537933
0.00526363
0.00511646
0.00494096
0.00474081
0.00452003
0.00428296
0.00403406
0.00377786
0.0035188
0.00326114
0.00300883
0.00276547
0.00253517
0.00232161
0.00211475
0.00190395
0.00234818
0.00188848
0.00152175
0.00121823
0.000942587
0.000694413
0.000473746
0.000278222
0.000105574
-4.61416e-05
-0.0001787
-0.000293699
-0.00039253
-0.00047636
-0.000546118
-0.000602498
-0.000645952
-0.000676697
-0.000694729
-0.000699838
-0.000691633
-0.000669565
-0.000632962
-0.000581066
-0.000513068
-0.000428156
-0.000325552
-0.000204566
-6.46375e-05
9.4616e-05
0.000273355
0.000471473
0.000688559
0.000923861
0.00117626
0.00144423
0.00172585
0.0020188
0.00232033
0.00262733
0.00293634
0.00324359
0.00354511
0.00383672
0.0041142
0.00437332
0.00461001
0.00482038
0.00500092
0.00514853
0.00526065
0.00533535
0.00537136
0.00536817
0.00532604
0.00524597
0.00512971
0.00497972
0.00479906
0.00459135
0.00436062
0.00411123
0.00384769
0.00357461
0.00329652
0.00301781
0.00274253
0.00247437
0.00221779
0.00197674
0.00173883
0.00149143
0.00248095
0.00197846
0.00157979
0.00125215
0.00095641
0.000691708
0.000457676
0.000251314
6.97516e-05
-8.94911e-05
-0.000228667
-0.000349791
-0.000454611
-0.000544589
-0.000620892
-0.000684395
-0.000735682
-0.000775051
-0.000802538
-0.000817932
-0.0008208
-0.000810524
-0.000786329
-0.000747328
-0.000692563
-0.000621049
-0.000531824
-0.000423997
-0.000296802
-0.000149646
1.78432e-05
0.000205765
0.000413904
0.00064169
0.000888161
0.00115194
0.0014312
0.0017237
0.00202672
0.00233716
0.00265148
0.00296585
0.00327612
0.00357795
0.00386688
0.0041384
0.00438814
0.00461187
0.00480572
0.00496621
0.00509043
0.00517605
0.00522147
0.00522586
0.00518917
0.00511217
0.00499641
0.0048442
0.00465852
0.00444294
0.0042015
0.00393861
0.00365892
0.00336714
0.00306801
0.00276609
0.00246563
0.00217055
0.00188571
0.00161546
0.00134518
0.00106028
0.00256866
0.00202499
0.00159545
0.00124434
0.000928864
0.000647745
0.000400215
0.000182662
-8.36148e-06
-0.000175846
-0.000322497
-0.000450724
-0.000562606
-0.000659878
-0.000743925
-0.000815785
-0.000876154
-0.000925398
-0.000963576
-0.000990461
-0.00100557
-0.0010082
-0.000997458
-0.000972323
-0.000931672
-0.000874337
-0.000799157
-0.00070503
-0.000590968
-0.000456153
-0.000299987
-0.000122151
7.73539e-05
0.000298151
0.000539455
0.000800036
0.0010782
0.00137176
0.00167807
0.00199399
0.00231597
0.00264004
0.00296191
0.00327703
0.00358066
0.00386802
0.00413435
0.00437506
0.00458586
0.00476285
0.00490265
0.00500253
0.00506046
0.00507522
0.00504641
0.00497452
0.00486085
0.00470754
0.00451746
0.00429413
0.00404165
0.0037645
0.00346747
0.00315549
0.00283353
0.00250645
0.00217877
0.00185473
0.00153971
0.00123854
0.000934408
0.000610807
0.00260592
0.00202274
0.00156352
0.00118971
0.00085503
0.000557766
0.000296765
6.78204e-05
-0.00013307
-0.000309386
-0.000464263
-0.000600482
-0.000720433
-0.000826103
-0.000919075
-0.00100053
-0.00107126
-0.00113168
-0.00118185
-0.00122153
-0.00125016
-0.00126694
-0.00127085
-0.00126073
-0.00123526
-0.0011931
-0.00113286
-0.00105321
-0.000952934
-0.000830968
-0.000686473
-0.000518887
-0.000327986
-0.000113926
0.000122699
0.000380829
0.000658902
0.000954838
0.00126603
0.00158936
0.00192122
0.00225752
0.00259383
0.00292535
0.00324707
0.00355387
0.0038406
0.00410223
0.00433399
0.00453148
0.00469084
0.00480881
0.00488289
0.00491138
0.00489348
0.00482931
0.00471989
0.00456715
0.00437381
0.00414338
0.00387996
0.00358817
0.00327298
0.00293959
0.00259327
0.00223924
0.00188242
0.00152743
0.00118026
0.00084636
0.000506711
0.00014287
0.00258757
0.00196667
0.00147903
0.00108343
0.000730181
0.000417166
0.00014284
-9.75805e-05
-0.000308637
-0.000494278
-0.000658052
-0.00080309
-0.000932073
-0.00104722
-0.00115029
-0.00124259
-0.001325
-0.00139795
-0.00146151
-0.00151538
-0.00155894
-0.00159126
-0.0016112
-0.00161742
-0.00160843
-0.00158265
-0.00153849
-0.00147437
-0.00138881
-0.0012805
-0.00114832
-0.000991465
-0.000809446
-0.000602185
-0.000370055
-0.000113925
0.000164804
0.000464169
0.000781638
0.00111411
0.00145793
0.00180894
0.0021625
0.00251359
0.0028569
0.00318693
0.0034981
0.0037849
0.00404202
0.00426451
0.0044479
0.00458836
0.00468281
0.00472902
0.00472568
0.00467249
0.00457011
0.0044202
0.00422535
0.00398896
0.00371519
0.0034088
0.00307499
0.00271927
0.00234729
0.00196471
0.0015769
0.001189
0.000807685
0.000439101
6.20064e-05
-0.000344024
0.00250872
0.00185195
0.00133728
0.00092086
0.000549787
0.00022151
-6.59031e-05
-0.000317799
-0.000539243
-0.000734637
-0.000907923
-0.00106257
-0.00120152
-0.00132721
-0.00144157
-0.001546
-0.00164144
-0.00172836
-0.00180678
-0.00187637
-0.00193639
-0.00198581
-0.00202334
-0.00204744
-0.00205643
-0.00204851
-0.00202184
-0.00197458
-0.00190498
-0.00181144
-0.00169257
-0.00154726
-0.00137476
-0.0011747
-0.000947229
-0.000692978
-0.000413165
-0.000109601
0.000215278
0.000558414
0.000916135
0.00128418
0.00165777
0.00203163
0.00240012
0.00275735
0.00309727
0.00341382
0.00370111
0.00395355
0.004166
0.00433395
0.00445365
0.00452224
0.00453782
0.00449956
0.00440771
0.00426359
0.00406956
0.00382896
0.00354597
0.00322549
0.00287298
0.00249432
0.00209561
0.00168302
0.00126247
0.000839676
0.000422132
1.67578e-05
-0.000399988
-0.000850594
0.0023647
0.00167404
0.00113379
0.00069762
0.000309533
-3.34467e-05
-0.000333642
-0.000596951
-0.00082895
-0.00103448
-0.00121786
-0.00138287
-0.00153272
-0.00167004
-0.00179689
-0.00191477
-0.00202467
-0.00212706
-0.00222194
-0.00230888
-0.00238706
-0.00245531
-0.00251216
-0.0025559
-0.00258463
-0.00259631
-0.00258883
-0.00256008
-0.00250802
-0.00243073
-0.00232652
-0.00219396
-0.00203198
-0.00183994
-0.00161767
-0.00136555
-0.00108458
-0.000776389
-0.000443269
-8.82061e-05
0.000285133
0.000672422
0.00106872
0.00146852
0.00186586
0.00225441
0.00262762
0.00297885
0.00330155
0.00358939
0.0038365
0.00403759
0.00418813
0.0042845
0.00432413
0.00430554
0.00422846
0.00409381
0.00390368
0.00366126
0.00337074
0.00303718
0.00266633
0.00226447
0.00183821
0.00139432
0.000939348
0.000479674
2.37105e-05
-0.000420748
-0.00087966
-0.00137769
0.00215109
0.00142862
0.000864353
0.000409558
5.33179e-06
-0.000351735
-0.000664358
-0.000938979
-0.00118167
-0.00139769
-0.00159172
-0.00176786
-0.00192954
-0.00207957
-0.00222015
-0.00235287
-0.00247872
-0.00259818
-0.00271119
-0.00281727
-0.00291545
-0.00300443
-0.00308258
-0.00314796
-0.00319844
-0.00323174
-0.00324546
-0.00323721
-0.00320462
-0.00314545
-0.00305765
-0.00293945
-0.00278945
-0.00260664
-0.00239055
-0.00214126
-0.00185948
-0.00154661
-0.00120478
-0.000836844
-0.000446436
-3.7918e-05
0.000383636
0.000812498
0.00124237
0.00166649
0.00207777
0.00246892
0.00283267
0.0031619
0.00344988
0.00369044
0.00387814
0.00400851
0.00407814
0.00408481
0.00402762
0.00390696
0.00372458
0.00348346
0.00318778
0.00284273
0.00245437
0.00202943
0.00157508
0.00109878
0.000607779
0.000109222
-0.000387459
-0.000873494
-0.00137741
-0.00192619
0.00186375
0.00111167
0.000525005
5.27824e-05
-0.000366654
-0.000737149
-0.00106181
-0.00134761
-0.0016011
-0.00182796
-0.00203321
-0.00222123
-0.00239568
-0.00255956
-0.00271515
-0.00286412
-0.00300749
-0.00314571
-0.00327868
-0.0034058
-0.003526
-0.00363781
-0.00373941
-0.00382867
-0.00390319
-0.00396044
-0.00399771
-0.0040123
-0.00400149
-0.0039627
-0.00389349
-0.00379173
-0.00365561
-0.00348376
-0.00327531
-0.00303
-0.00274822
-0.00243109
-0.00208049
-0.00169913
-0.00129053
-0.00085907
-0.000409911
5.10129e-05
0.00051708
0.000981085
0.00143537
0.00187197
0.00228283
0.00265994
0.00299562
0.00328269
0.00351469
0.00368614
0.00379264
0.00383111
0.00379984
0.00369863
0.00352873
0.00329287
0.00299513
0.00264084
0.00223636
0.00178889
0.00130625
0.000796624
0.000268092
-0.000271363
-0.000811168
-0.00134148
-0.00189357
-0.00249691
0.0014988
0.000719433
0.000112082
-0.000376315
-0.000809989
-0.00119322
-0.00152951
-0.00182634
-0.00209073
-0.00232876
-0.00254579
-0.00274647
-0.00293467
-0.00311354
-0.00328548
-0.00345219
-0.00361473
-0.0037735
-0.00392834
-0.00407856
-0.00422295
-0.00435989
-0.00448734
-0.00460294
-0.00470408
-0.0047879
-0.00485141
-0.00489155
-0.00490524
-0.00488952
-0.00484155
-0.00475877
-0.00463895
-0.00448027
-0.00428146
-0.00404183
-0.00376139
-0.00344092
-0.003082
-0.0026871
-0.00225961
-0.00180384
-0.00132501
-0.000829224
-0.000323406
0.000184802
0.00068716
0.00117499
0.00163938
0.00207136
0.00246218
0.00280354
0.00308781
0.00330833
0.00345957
0.00353738
0.00353914
0.00346385
0.00331217
0.00308644
0.00279061
0.00243007
0.00201148
0.00154256
0.00103179
0.000488195
-7.9252e-05
-0.000661611
-0.00124705
-0.00182453
-0.00242829
-0.0030905
0.00105267
0.000248462
-0.000377774
-0.000881038
-0.00132794
-0.00172318
-0.00207066
-0.00237837
-0.00265377
-0.00290332
-0.0031327
-0.00334682
-0.00354976
-0.00374481
-0.00393446
-0.00412048
-0.0043039
-0.0044851
-0.00466387
-0.00483937
-0.00501029
-0.00517482
-0.00533072
-0.00547542
-0.005606
-0.00571934
-0.00581211
-0.00588089
-0.00592222
-0.00593271
-0.0059091
-0.00584836
-0.00574777
-0.00560505
-0.00541844
-0.00518677
-0.0049096
-0.00458729
-0.00422105
-0.00381306
-0.00336647
-0.00288546
-0.00237527
-0.00184211
-0.00129317
-0.000736524
-0.000180987
0.00036402
0.000888673
0.00138297
0.00183699
0.00224115
0.00258651
0.00286505
0.00306993
0.00319577
0.00323878
0.00319702
0.0030704
0.00286075
0.00257175
0.00220881
0.00177887
0.00129015
0.00075188
0.000173971
-0.000433602
-0.00106084
-0.0016945
-0.00232223
-0.00298151
-0.00370739
0.000522144
-0.000304345
-0.000947587
-0.00146436
-0.00192344
-0.00232995
-0.00268818
-0.0030066
-0.0032931
-0.00355452
-0.00379684
-0.00402521
-0.00424391
-0.00445636
-0.00466514
-0.00487206
-0.00507815
-0.00528376
-0.00548858
-0.00569169
-0.00589162
-0.00608639
-0.00627357
-0.00645032
-0.00661347
-0.00675957
-0.00688497
-0.00698585
-0.00705837
-0.00709867
-0.00710302
-0.00706788
-0.00699004
-0.00686665
-0.00669541
-0.00647462
-0.00620329
-0.00588128
-0.00550937
-0.00508933
-0.00462401
-0.0041174
-0.00357463
-0.00300197
-0.00240685
-0.00179772
-0.00118395
-0.000575741
1.61499e-05
0.0005806
0.00110641
0.0015826
0.00199873
0.00234526
0.0026138
0.00279749
0.00289123
0.00289187
0.00279839
0.00261193
0.00233578
0.00197527
0.00153757
0.00103142
0.00046681
-0.000145373
-0.000794059
-0.00146806
-0.00215261
-0.00283386
-0.0035528
-0.00434763
-9.5636e-05
-0.000941724
-0.00160002
-0.00212891
-0.00259908
-0.0030161
-0.00338462
-0.00371358
-0.00401129
-0.00428492
-0.00454076
-0.0047842
-0.00501969
-0.00525078
-0.00548014
-0.00570961
-0.00594021
-0.00617226
-0.00640538
-0.00663852
-0.00687009
-0.00709791
-0.00731935
-0.00753134
-0.00773042
-0.00791282
-0.00807454
-0.00821137
-0.00831902
-0.00839317
-0.00842958
-0.00842417
-0.00837314
-0.00827306
-0.00812101
-0.00791466
-0.00765244
-0.0073336
-0.00695837
-0.00652803
-0.00604505
-0.00551308
-0.0049371
-0.00432336
-0.00367941
-0.00301404
-0.00233719
-0.00165978
-0.000993552
-0.000350809
0.000255875
0.000813982
0.00131141
0.00173686
0.00208021
0.00233286
0.00248811
0.00254138
0.00249047
0.00233563
0.00207959
0.00172747
0.00128658
0.000766173
0.000177032
-0.000468921
-0.00115942
-0.00188196
-0.00262005
-0.00335825
-0.00414132
-0.00501087
-0.00080312
-0.00166602
-0.00233736
-0.00287691
-0.00335708
-0.00378382
-0.00416217
-0.00450149
-0.00481049
-0.00509669
-0.00536664
-0.00562596
-0.00587928
-0.00613026
-0.00638166
-0.00663534
-0.00689234
-0.00715292
-0.00741662
-0.00768231
-0.00794822
-0.00821204
-0.00847091
-0.00872152
-0.00896011
-0.00918262
-0.00938465
-0.0095616
-0.00970872
-0.0098212
-0.00989425
-0.0099232
-0.00990362
-0.00983145
-0.00970305
-0.00951543
-0.0092663
-0.00895424
-0.00857882
-0.00814073
-0.0076419
-0.0070856
-0.00647649
-0.0058207
-0.00512585
-0.00440097
-0.00365648
-0.00290405
-0.0021564
-0.00142704
-0.000730026
-7.95322e-05
0.000510497
0.0010268
0.00145724
0.00179123
0.00202017
0.00213776
0.00214034
0.00202701
0.00179971
0.0014632
0.00102484
0.000494298
-0.000116812
-0.000795466
-0.00152809
-0.00230075
-0.00309505
-0.00389372
-0.00474568
-0.0056962
-0.00160232
-0.00247916
-0.00316145
-0.0037102
-0.00419924
-0.0046349
-0.0050226
-0.00537209
-0.00569248
-0.00599157
-0.0062762
-0.0065522
-0.00682437
-0.00709648
-0.00737136
-0.00765092
-0.00793619
-0.0082274
-0.00852402
-0.0088248
-0.00912787
-0.00943073
-0.00973031
-0.0100231
-0.0103049
-0.0105716
-0.0108182
-0.0110397
-0.011231
-0.0113867
-0.0115014
-0.0115699
-0.0115869
-0.0115479
-0.0114483
-0.0112844
-0.0110531
-0.0107522
-0.0103805
-0.00993806
-0.00942608
-0.0088473
-0.00820597
-0.00750797
-0.00676083
-0.00597377
-0.00515761
-0.00432469
-0.00348869
-0.00266438
-0.00186733
-0.00111352
-0.000418903
0.000201085
0.000732025
0.00116104
0.0014773
0.00167246
0.00174104
0.00168068
0.0014923
0.00118006
0.000751201
0.000215766
-0.000413846
-0.00112345
-0.00189806
-0.00272215
-0.00357522
-0.004438
-0.00536387
-0.00640206
-0.00249479
-0.00338261
-0.00407375
-0.00463018
-0.00512694
-0.00557072
-0.00596726
-0.00632673
-0.00665855
-0.00697084
-0.00727069
-0.00756414
-0.00785612
-0.00815056
-0.00845034
-0.0087574
-0.00907279
-0.00939671
-0.00972856
-0.010067
-0.0104101
-0.010755
-0.0110987
-0.0114372
-0.0117663
-0.0120812
-0.0123769
-0.0126478
-0.0128882
-0.0130924
-0.0132542
-0.0133677
-0.0134272
-0.013427
-0.0133619
-0.0132274
-0.0130194
-0.012735
-0.0123719
-0.0119293
-0.0114078
-0.0108094
-0.0101377
-0.00939819
-0.00859827
-0.00774715
-0.00685595
-0.0059376
-0.00500669
-0.00407925
-0.00317242
-0.00230407
-0.00149231
-0.000754998
-0.000109091
0.000429909
0.000848582
0.00113614
0.00128493
0.00129076
0.00115316
0.000875435
0.000464521
-6.93146e-05
-0.000712916
-0.0014509
-0.00226676
-0.00314325
-0.00405752
-0.00498807
-0.00599312
-0.00712615
-0.00348158
-0.00437738
-0.00507522
-0.00563783
-0.00614115
-0.00659221
-0.00699708
-0.00736628
-0.00770955
-0.0080353
-0.00835086
-0.00866244
-0.00897515
-0.00929302
-0.00961902
-0.00995514
-0.0103024
-0.0106611
-0.0110304
-0.011409
-0.0117949
-0.012185
-0.0125761
-0.0129641
-0.0133444
-0.0137119
-0.0140612
-0.0143864
-0.0146813
-0.0149393
-0.015154
-0.0153186
-0.0154266
-0.0154716
-0.0154475
-0.0153487
-0.0151704
-0.0149083
-0.0145595
-0.0141221
-0.0135956
-0.0129813
-0.0122821
-0.011503
-0.0106508
-0.00973467
-0.00876593
-0.00775797
-0.00672619
-0.00568784
-0.00466164
-0.00366742
-0.00272561
-0.00185667
-0.00108039
-0.000415243
0.00012238
0.000518823
0.000763788
0.000850836
0.000777721
0.000546533
0.000163627
-0.000360669
-0.00101253
-0.00177535
-0.00263104
-0.00356044
-0.0045381
-0.00554007
-0.00662978
-0.00786522
-0.00456323
-0.00546401
-0.00616639
-0.00673365
-0.00724237
-0.00769986
-0.00811251
-0.00849116
-0.00884585
-0.00918525
-0.00951689
-0.0098472
-0.0101814
-0.0105237
-0.0108772
-0.0112438
-0.0116246
-0.0120198
-0.0124288
-0.01285
-0.0132813
-0.0137196
-0.0141615
-0.0146025
-0.015038
-0.0154625
-0.0158702
-0.0162547
-0.0166093
-0.016927
-0.0172006
-0.0174226
-0.0175857
-0.0176827
-0.0177064
-0.0176503
-0.0175084
-0.0172756
-0.0169476
-0.0165215
-0.0159957
-0.0153705
-0.0146478
-0.0138319
-0.0129291
-0.0119482
-0.0109005
-0.00979972
-0.00866194
-0.00750554
-0.0063508
-0.00521955
-0.00413465
-0.00311933
-0.00219651
-0.00138796
-0.000713476
-0.000190059
0.000168867
0.000354096
0.000361126
0.000190416
-0.000152605
-0.000657795
-0.00131078
-0.00209378
-0.00298701
-0.00396925
-0.00501221
-0.00608916
-0.00726915
-0.00861501
-0.00573977
-0.00664251
-0.0073473
-0.0079177
-0.00843064
-0.00889369
-0.00931355
-0.00970132
-0.0100673
-0.0104204
-0.0107684
-0.0111179
-0.0114743
-0.0118419
-0.0122238
-0.0126221
-0.0130379
-0.0134714
-0.013922
-0.014388
-0.0148673
-0.0153567
-0.0158524
-0.0163501
-0.0168446
-0.0173303
-0.017801
-0.0182498
-0.0186696
-0.0190528
-0.0193915
-0.0196775
-0.0199026
-0.0200586
-0.0201375
-0.0201316
-0.0200338
-0.0198377
-0.0195378
-0.0191301
-0.0186116
-0.0179814
-0.0172405
-0.016392
-0.0154415
-0.0143974
-0.0132705
-0.0120749
-0.010827
-0.00954636
-0.00825462
-0.00697563
-0.00573473
-0.00455811
-0.00347203
-0.00250194
-0.00167145
-0.00100142
-0.000508951
-0.000206603
-0.000101696
-0.000195916
-0.00048519
-0.000959886
-0.00160529
-0.00240249
-0.00332997
-0.00436428
-0.005474
-0.00662936
-0.00790537
-0.00937002
-0.00701067
-0.00791243
-0.00861752
-0.00918958
-0.00970556
-0.0101733
-0.0105997
-0.0109962
-0.0113733
-0.0117401
-0.0121046
-0.0124735
-0.0128525
-0.0132459
-0.0136571
-0.014088
-0.0145401
-0.0150133
-0.0155071
-0.01602
-0.0165495
-0.0170925
-0.0176451
-0.0182026
-0.0187599
-0.019311
-0.0198491
-0.0203672
-0.0208576
-0.0213121
-0.021722
-0.0220786
-0.0223727
-0.0225951
-0.0227368
-0.022789
-0.0227434
-0.0225921
-0.0223286
-0.021947
-0.0214435
-0.0208154
-0.0200626
-0.0191869
-0.0181931
-0.0170886
-0.0158839
-0.0145927
-0.0132321
-0.0118222
-0.010386
-0.00894937
-0.00754006
-0.00618734
-0.00492106
-0.00377062
-0.00276394
-0.00192624
-0.00127893
-0.000838549
-0.000615894
-0.000615414
-0.00083493
-0.00126574
-0.00189306
-0.00269697
-0.00365423
-0.004739
-0.00591644
-0.00715336
-0.0085312
-0.0101233
-0.00837487
-0.0092728
-0.00997617
-0.0105484
-0.0110663
-0.0115378
-0.0119701
-0.0123748
-0.0127626
-0.0131429
-0.0135237
-0.0139122
-0.0143139
-0.0147335
-0.0151744
-0.0156387
-0.0161278
-0.0166418
-0.0171803
-0.0177415
-0.0183232
-0.0189221
-0.0195341
-0.0201546
-0.0207781
-0.0213982
-0.0220081
-0.0226003
-0.0231664
-0.0236978
-0.0241851
-0.0246188
-0.0249889
-0.0252852
-0.0254976
-0.0256161
-0.0256309
-0.0255332
-0.0253145
-0.0249679
-0.0244877
-0.0238699
-0.0231127
-0.0222166
-0.0211851
-0.0200246
-0.0187449
-0.0173593
-0.0158848
-0.0143421
-0.0127554
-0.0111523
-0.009563
-0.0080199
-0.00655657
-0.0052067
-0.00400287
-0.00297525
-0.00215019
-0.00154893
-0.0011865
-0.00107082
-0.00120228
-0.00157361
-0.00217037
-0.00297183
-0.00395302
-0.00508562
-0.00633106
-0.00765239
-0.00913783
-0.0108665
-0.00983077
-0.0107222
-0.0114219
-0.011993
-0.0125116
-0.012986
-0.0134234
-0.0138357
-0.0142337
-0.0146269
-0.0150238
-0.0154315
-0.0158559
-0.0163016
-0.0167723
-0.0172702
-0.0177967
-0.0183523
-0.0189363
-0.0195471
-0.0201824
-0.020839
-0.0215127
-0.0221987
-0.0228913
-0.023584
-0.0242695
-0.02494
-0.0255867
-0.0262004
-0.026771
-0.0272882
-0.0277412
-0.0281187
-0.0284096
-0.0286025
-0.0286866
-0.0286512
-0.0284867
-0.0281842
-0.0277365
-0.0271379
-0.0263849
-0.0254765
-0.0244144
-0.0232039
-0.0218537
-0.0203763
-0.0187885
-0.0171113
-0.0153697
-0.0135928
-0.0118133
-0.0100665
-0.00838979
-0.00682144
-0.0053991
-0.00415839
-0.00313129
-0.00234452
-0.00181816
-0.00156448
-0.00158716
-0.00188108
-0.00243261
-0.00322053
-0.00421826
-0.00539489
-0.0067078
-0.00811592
-0.00971466
-0.011589
-0.0113763
-0.0122587
-0.012953
-0.0135216
-0.0140399
-0.0145162
-0.0149579
-0.0153769
-0.0157844
-0.01619
-0.0166022
-0.0170285
-0.0174749
-0.0179463
-0.0184464
-0.0189777
-0.0195417
-0.0201389
-0.0207687
-0.0214298
-0.0221197
-0.0228353
-0.0235723
-0.0243258
-0.0250899
-0.0258581
-0.0266227
-0.0273754
-0.0281071
-0.0288079
-0.0294672
-0.030074
-0.0306163
-0.0310822
-0.0314592
-0.0317348
-0.0318967
-0.0319328
-0.0318317
-0.031583
-0.0311776
-0.0306079
-0.0298687
-0.0289569
-0.0278728
-0.0266197
-0.0252051
-0.0236405
-0.0219421
-0.0201306
-0.0182317
-0.0162756
-0.0142972
-0.0123347
-0.0104293
-0.00862399
-0.00696178
-0.00548428
-0.00422976
-0.00323126
-0.00251483
-0.002098
-0.00198872
-0.00218481
-0.00267409
-0.00343528
-0.00444038
-0.00565585
-0.00703476
-0.00853148
-0.010249
-0.0122786
-0.0130088
-0.01388
-0.0145673
-0.0151322
-0.0156492
-0.0161263
-0.0165714
-0.0169963
-0.0174122
-0.0178291
-0.0182557
-0.0186996
-0.019167
-0.019663
-0.0201916
-0.0207554
-0.0213562
-0.0219946
-0.0226701
-0.0233814
-0.0241262
-0.0249014
-0.0257027