/*--------------------------------*- C++ -*----------------------------------*\
  =========                 |
  \\      /  F ield         | OpenFOAM: The Open Source CFD Toolbox
   \\    /   O peration     | Website:  https://openfoam.org
    \\  /    A nd           | Version:  dev
     \\/     M anipulation  |
\*---------------------------------------------------------------------------*/
FoamFile
{
    format      ascii;
    class       surfaceScalarField;
    location    "36.45";
    object      phi;
}
// * * * * * * * * * * * * * * * * * * * * * * * * * * * * * * * * * * * * * //

dimensions      [0 3 -1 0 0 0 0];

internalField   nonuniform List<scalar> 
10224
(
3.382e-08
-3.48723e-08
8.78914e-08
-5.40626e-08
1.24461e-07
-3.65682e-08
1.25429e-07
-9.70771e-10
8.38021e-08
4.16263e-08
-1.69411e-09
8.54975e-08
-1.29234e-07
1.27541e-07
-2.95516e-07
1.66281e-07
-4.96476e-07
2.00959e-07
-7.27813e-07
2.31335e-07
-9.85254e-07
2.57441e-07
-1.26471e-06
2.79454e-07
-1.56233e-06
2.97627e-07
-1.87458e-06
3.12243e-07
-2.19817e-06
3.23589e-07
-2.5301e-06
3.3193e-07
-2.8676e-06
3.37503e-07
-3.20811e-06
3.40509e-07
-3.54922e-06
3.41108e-07
-3.88864e-06
3.39424e-07
-4.22419e-06
3.35542e-07
-4.5537e-06
3.29514e-07
-4.87507e-06
3.21366e-07
-5.18617e-06
3.111e-07
-5.48487e-06
2.98704e-07
-5.76903e-06
2.84157e-07
-6.03647e-06
2.67437e-07
-6.285e-06
2.48528e-07
-6.51242e-06
2.27424e-07
-6.71656e-06
2.0414e-07
-6.89528e-06
1.78714e-07
-7.04649e-06
1.51214e-07
-7.16824e-06
1.21741e-07
-7.25867e-06
9.04363e-08
-7.31615e-06
5.74791e-08
-7.33924e-06
2.30925e-08
-7.32678e-06
-1.24577e-08
-7.27792e-06
-4.88629e-08
-7.19214e-06
-8.57739e-08
-7.06934e-06
-1.22803e-07
-6.90981e-06
-1.5953e-07
-6.71431e-06
-1.95505e-07
-6.48405e-06
-2.30258e-07
-6.22074e-06
-2.63306e-07
-5.92658e-06
-2.9416e-07
-5.60424e-06
-3.2234e-07
-5.25686e-06
-3.47379e-07
-4.88803e-06
-3.68837e-07
-4.50171e-06
-3.86313e-07
-4.10226e-06
-3.99454e-07
-3.6943e-06
-4.07963e-07
-3.28269e-06
-4.1161e-07
-2.87245e-06
-4.10241e-07
-2.46867e-06
-4.03778e-07
-2.07644e-06
-3.92233e-07
-1.70073e-06
-3.75701e-07
-1.34636e-06
-3.54369e-07
-1.01785e-06
-3.28509e-07
-7.1937e-07
-2.98485e-07
-4.54627e-07
-2.64744e-07
-2.26804e-07
-2.27825e-07
-3.84446e-08
-1.88361e-07
1.08644e-07
-1.4709e-07
2.13526e-07
-1.04883e-07
2.76315e-07
-6.27896e-08
2.98444e-07
-2.2129e-08
2.83093e-07
1.53511e-08
2.35861e-07
4.72325e-08
1.65812e-07
7.00495e-08
8.72448e-08
7.85685e-08
2.25451e-08
6.4702e-08
2.25455e-08
5.39348e-08
-8.87982e-08
1.1248e-07
-1.12609e-07
1.18304e-07
-4.2397e-08
3.90056e-08
7.8326e-08
-1.41825e-07
2.22459e-07
-4.29517e-07
3.7319e-07
-8.22308e-07
5.20331e-07
-1.31405e-06
6.58023e-07
-1.89618e-06
7.83088e-07
-2.55888e-06
8.94037e-07
-3.29188e-06
9.90437e-07
-4.08492e-06
1.07249e-06
-4.92808e-06
1.14079e-06
-5.81192e-06
1.19608e-06
-6.72755e-06
1.23921e-06
-7.66663e-06
1.27101e-06
-8.62136e-06
1.29223e-06
-9.5844e-06
1.30354e-06
-1.05488e-05
1.30549e-06
-1.15079e-05
1.2985e-06
-1.24552e-05
1.28288e-06
-1.33845e-05
1.25885e-06
-1.42897e-05
1.22652e-06
-1.51645e-05
1.18594e-06
-1.60029e-05
1.13711e-06
-1.67988e-05
1.08001e-06
-1.7546e-05
1.0146e-06
-1.82383e-05
9.40897e-07
-1.88699e-05
8.58933e-07
-1.94345e-05
7.68826e-07
-1.99266e-05
6.7078e-07
-2.03405e-05
5.65106e-07
-2.0671e-05
4.52237e-07
-2.09133e-05
3.32743e-07
-2.10632e-05
2.07337e-07
-2.11169e-05
7.68851e-08
-2.10718e-05
-5.75976e-08
-2.09257e-05
-1.94946e-07
-2.06776e-05
-3.33852e-07
-2.03276e-05
-4.72878e-07
-1.98766e-05
-6.1047e-07
-1.93271e-05
-7.44983e-07
-1.86827e-05
-8.74699e-07
-1.79482e-05
-9.97863e-07
-1.71296e-05
-1.11271e-06
-1.62344e-05
-1.2175e-06
-1.52713e-05
-1.31056e-06
-1.42498e-05
-1.39031e-06
-1.31808e-05
-1.45532e-06
-1.20759e-05
-1.50433e-06
-1.09476e-05
-1.53629e-06
-9.80879e-06
-1.55038e-06
-8.67296e-06
-1.54607e-06
-7.55363e-06
-1.52311e-06
-6.46431e-06
-1.48155e-06
-5.41824e-06
-1.42178e-06
-4.42812e-06
-1.34449e-06
-3.50591e-06
-1.25072e-06
-2.66255e-06
-1.14184e-06
-1.90774e-06
-1.01956e-06
-1.24965e-06
-8.85916e-07
-6.94683e-07
-7.43329e-07
-2.47144e-07
-5.94631e-07
9.11242e-08
-4.43151e-07
3.21202e-07
-2.92866e-07
4.4769e-07
-1.48616e-07
4.7959e-07
-1.65485e-08
4.31386e-07
9.54366e-08
3.24528e-07
1.76906e-07
1.89039e-07
2.14052e-07
6.43918e-08
1.8934e-07
8.69389e-08
3.73699e-08
-1.26166e-07
4.33724e-08
-1.18616e-07
-4.32139e-08
4.41868e-08
-2.58678e-07
2.93791e-07
-6.22644e-07
5.86426e-07
-1.14223e-06
8.9278e-07
-1.81572e-06
1.19381e-06
-2.63543e-06
1.47774e-06
-3.59001e-06
1.73766e-06
-4.66593e-06
1.96995e-06
-5.84861e-06
2.17312e-06
-7.12317e-06
2.34705e-06
-8.47489e-06
2.49251e-06
-9.88952e-06
2.61072e-06
-1.13535e-05
2.70314e-06
-1.28537e-05
2.77129e-06
-1.43781e-05
2.81657e-06
-1.59148e-05
2.84027e-06
-1.74528e-05
2.84346e-06
-1.89813e-05
2.827e-06
-2.04899e-05
2.79153e-06
-2.19686e-05
2.7375e-06
-2.34072e-05
2.6652e-06
-2.47961e-05
2.57477e-06
-2.61252e-05
2.46627e-06
-2.7385e-05
2.33973e-06
-2.85655e-05
2.19519e-06
-2.96574e-05
2.03271e-06
-3.06509e-05
1.8525e-06
-3.1537e-05
1.65489e-06
-3.23066e-05
1.44041e-06
-3.29513e-05
1.20981e-06
-3.34632e-05
9.64089e-07
-3.3835e-05
7.04544e-07
-3.40604e-05
4.32759e-07
-3.41341e-05
1.50628e-07
-3.40521e-05
-1.39645e-07
-3.38115e-05
-4.35551e-07
-3.3411e-05
-7.34297e-07
-3.28511e-05
-1.03282e-06
-3.21337e-05
-1.32784e-06
-3.12628e-05
-1.61589e-06
-3.02441e-05
-1.89336e-06
-2.90854e-05
-2.15658e-06
-2.77963e-05
-2.40185e-06
-2.63882e-05
-2.62557e-06
-2.48745e-05
-2.82424e-06
-2.32703e-05
-2.9946e-06
-2.15919e-05
-3.13368e-06
-1.98574e-05
-3.23888e-06
-1.80856e-05
-3.30802e-06
-1.62965e-05
-3.33946e-06
-1.45105e-05
-3.33207e-06
-1.27483e-05
-3.28539e-06
-1.10303e-05
-3.19955e-06
-9.37665e-06
-3.07539e-06
-7.80671e-06
-2.91442e-06
-6.33856e-06
-2.71887e-06
-4.98875e-06
-2.49166e-06
-3.77187e-06
-2.23644e-06
-2.70015e-06
-1.95763e-06
-1.78308e-06
-1.6604e-06
-1.02688e-06
-1.35083e-06
-4.34018e-07
-1.03601e-06
-2.58142e-09
-7.24304e-07
2.74514e-07
-4.25713e-07
4.1034e-07
-1.52375e-07
4.25147e-07
8.0631e-08
3.47576e-07
2.5448e-07
2.15841e-07
3.45789e-07
7.86707e-08
3.26507e-07
1.6561e-07
1.92609e-09
-1.28094e-07
-7.89168e-08
-3.77742e-08
-2.97622e-07
2.62892e-07
-6.87928e-07
6.84097e-07
-1.26816e-06
1.16666e-06
-2.0446e-06
1.66922e-06
-3.01446e-06
2.16366e-06
-4.16847e-06
2.63175e-06
-5.49305e-06
3.06224e-06
-6.97185e-06
3.44875e-06
-8.58703e-06
3.7883e-06
-1.03201e-05
4.08014e-06
-1.21526e-05
4.32497e-06
-1.40662e-05
4.52439e-06
-1.60435e-05
4.68044e-06
-1.80676e-05
4.7953e-06
-2.01221e-05
4.87111e-06
-2.21916e-05
4.90982e-06
-2.42613e-05
4.9131e-06
-2.63166e-05
4.8823e-06
-2.83435e-05
4.81848e-06
-3.03284e-05
4.7224e-06
-3.22578e-05
4.59455e-06
-3.41183e-05
4.43525e-06
-3.58967e-05
4.2447e-06
-3.758e-05
4.02302e-06
-3.91552e-05
3.77039e-06
-4.06095e-05
3.48707e-06
-4.19306e-05
3.17351e-06
-4.31061e-05
2.83043e-06
-4.41245e-05
2.45883e-06
-4.49748e-05
2.06012e-06
-4.56468e-05
1.63611e-06
-4.61314e-05
1.1891e-06
-4.64205e-05
7.21856e-07
-4.65075e-05
2.37659e-07
-4.63875e-05
-2.59706e-07
-4.60571e-05
-7.65961e-07
-4.5515e-05
-1.27637e-06
-4.47621e-05
-1.78576e-06
-4.38013e-05
-2.28861e-06
-4.26381e-05
-2.7791e-06
-4.12802e-05
-3.25121e-06
-3.9738e-05
-3.69881e-06
-3.80241e-05
-4.11577e-06
-3.61536e-05
-4.49607e-06
-3.41439e-05
-4.83394e-06
-3.20145e-05
-5.12396e-06
-2.9787e-05
-5.36124e-06
-2.74844e-05
-5.54145e-06
-2.51314e-05
-5.66104e-06
-2.27536e-05
-5.71726e-06
-2.03773e-05
-5.70833e-06
-1.80293e-05
-5.63345e-06
-1.57359e-05
-5.49291e-06
-1.35232e-05
-5.28812e-06
-1.14159e-05
-5.02168e-06
-9.43748e-06
-4.69733e-06
-7.60909e-06
-4.32004e-06
-5.94953e-06
-3.89601e-06
-4.47448e-06
-3.43267e-06
-3.19607e-06
-2.93882e-06
-2.12225e-06
-2.42466e-06
-1.25621e-06
-1.90205e-06
-5.95706e-07
-1.38481e-06
-1.3229e-07
-8.89131e-07
1.49547e-07
-4.34215e-07
2.7328e-07
-4.31029e-08
2.71386e-07
2.56377e-07
1.86378e-07
4.308e-07
7.22417e-08
4.40643e-07
2.37852e-07
-4.20445e-08
-8.60509e-08
-2.30028e-07
1.5021e-07
-6.06587e-07
6.39451e-07
-1.19832e-06
1.27583e-06
-2.01897e-06
1.98731e-06
-3.07173e-06
2.72197e-06
-4.3514e-06
3.44334e-06
-5.84656e-06
4.12691e-06
-7.54133e-06
4.75701e-06
-9.41692e-06
5.32434e-06
-1.14527e-05
5.82413e-06
-1.36274e-05
6.25479e-06
-1.59193e-05
6.61681e-06
-1.83069e-05
6.912e-06
-2.07693e-05
7.14289e-06
-2.32863e-05
7.31232e-06
-2.58384e-05
7.42312e-06
-2.84065e-05
7.47792e-06
-3.09724e-05
7.479e-06
-3.35183e-05
7.42826e-06
-3.6027e-05
7.3272e-06
-3.84816e-05
7.17692e-06
-4.08652e-05
6.97821e-06
-4.31616e-05
6.73159e-06
-4.53543e-05
6.43745e-06
-4.74274e-05
6.09611e-06
-4.9365e-05
5.70797e-06
-5.11515e-05
5.27359e-06
-5.27718e-05
4.79381e-06
-5.42112e-05
4.26984e-06
-5.54558e-05
3.70337e-06
-5.64923e-05
3.09666e-06
-5.73088e-05
2.45256e-06
-5.78943e-05
1.77462e-06
-5.82395e-05
1.0671e-06
-5.83368e-05
3.3497e-07
-5.81805e-05
-4.16043e-07
-5.77669e-05
-1.17953e-06
-5.70949e-05
-1.94839e-06
-5.61657e-05
-2.71497e-06
-5.49833e-05
-3.47105e-06
-5.35543e-05
-4.20803e-06
-5.18885e-05
-4.91704e-06
-4.99983e-05
-5.58903e-06
-4.78991e-05
-6.21499e-06
-4.5609e-05
-6.7861e-06
-4.31491e-05
-7.29389e-06
-4.05426e-05
-7.73042e-06
-3.78153e-05
-8.08851e-06
-3.49949e-05
-8.36186e-06
-3.21107e-05
-8.54524e-06
-2.91933e-05
-8.63466e-06
-2.62742e-05
-8.62749e-06
-2.3385e-05
-8.52261e-06
-2.05575e-05
-8.32046e-06
-1.78224e-05
-8.02316e-06
-1.52096e-05
-7.63453e-06
-1.27467e-05
-7.16017e-06
-1.04593e-05
-6.60745e-06
-8.36977e-06
-5.98557e-06
-6.49686e-06
-5.30558e-06
-4.85519e-06
-4.58049e-06
-3.45449e-06
-3.82536e-06
-2.29897e-06
-3.05757e-06
-1.38668e-06
-2.2971e-06
-7.08758e-07
-1.56705e-06
-2.48725e-07
-8.94247e-07
1.82832e-08
-3.10111e-07
1.26333e-07
1.48327e-07
1.19585e-07
4.3755e-07
5.36871e-08
5.0654e-07
2.9154e-07
-8.94398e-08
3.3898e-09
-3.95379e-07
4.5615e-07
-9.45214e-07
1.18929e-06
-1.75554e-06
2.08615e-06
-2.83316e-06
3.06493e-06
-4.17632e-06
4.06513e-06
-5.77616e-06
5.04318e-06
-7.61831e-06
5.96906e-06
-9.68428e-06
6.82298e-06
-1.19528e-05
7.59284e-06
-1.44007e-05
8.2721e-06
-1.70042e-05
8.85823e-06
-1.97388e-05
9.3514e-06
-2.25803e-05
9.75357e-06
-2.55051e-05
1.00677e-05
-2.849e-05
1.02972e-05
-3.15123e-05
1.04455e-05
-3.45504e-05
1.0516e-05
-3.75828e-05
1.05115e-05
-4.05891e-05
1.04345e-05
-4.35488e-05
1.02869e-05
-4.64422e-05
1.00703e-05
-4.92497e-05
9.78569e-06
-5.1952e-05
9.43389e-06
-5.45301e-05
9.01555e-06
-5.69652e-05
8.53126e-06
-5.9239e-05
7.98173e-06
-6.13333e-05
7.3679e-06
-6.32306e-05
6.69114e-06
-6.49141e-05
5.95332e-06
-6.63677e-05
5.15698e-06
-6.75764e-05
4.30538e-06
-6.85265e-05
3.40267e-06
-6.92058e-05
2.45388e-06
-6.96037e-05
1.46499e-06
-6.97117e-05
4.4299e-07
-6.95236e-05
-6.04188e-07
-6.90354e-05
-1.66766e-06
-6.82462e-05
-2.73767e-06
-6.71575e-05
-3.80365e-06
-6.57741e-05
-4.85439e-06
-6.4104e-05
-5.87812e-06
-6.21584e-05
-6.86272e-06
-5.99515e-05
-7.79589e-06
-5.75011e-05
-8.66536e-06
-5.48281e-05
-9.45913e-06
-5.19563e-05
-1.01657e-05
-4.89125e-05
-1.07743e-05
-4.57259e-05
-1.12751e-05
-4.24281e-05
-1.16596e-05
-3.90526e-05
-1.19208e-05
-3.56341e-05
-1.20531e-05
-3.22087e-05
-1.2053e-05
-2.88124e-05
-1.19189e-05
-2.54814e-05
-1.16515e-05
-2.22509e-05
-1.12536e-05
-1.9155e-05
-1.07304e-05
-1.62255e-05
-1.00897e-05
-1.34916e-05
-9.34137e-06
-1.09791e-05
-8.49808e-06
-8.70973e-06
-7.57491e-06
-6.70064e-06
-6.58957e-06
-4.9635e-06
-5.5625e-06
-3.50394e-06
-4.51712e-06
-2.32094e-06
-3.48011e-06
-1.40611e-06
-2.48188e-06
-7.43145e-07
-1.55721e-06
-3.07189e-07
-7.46068e-07
-6.42543e-08
-9.46089e-08
2.94283e-08
3.43866e-07
2.83369e-08
5.07631e-07
3.19877e-07
-1.37657e-07
1.41048e-07
-5.66391e-07
8.84883e-07
-1.29767e-06
1.92057e-06
-2.3366e-06
3.12508e-06
-3.68149e-06
4.40982e-06
-5.32426e-06
5.7079e-06
-7.25132e-06
6.97023e-06
-9.44453e-06
8.16227e-06
-1.18824e-05
9.2608e-06
-1.45408e-05
1.02513e-05
-1.73943e-05
1.11256e-05
-2.04164e-05
1.18803e-05
-2.35804e-05
1.25154e-05
-2.68598e-05
1.30329e-05
-3.02282e-05
1.34361e-05
-3.36601e-05
1.3729e-05
-3.71303e-05
1.39157e-05
-4.06145e-05
1.40001e-05
-4.40888e-05
1.39858e-05
-4.75299e-05
1.38756e-05
-5.0915e-05
1.3672e-05
-5.42216e-05
1.33769e-05
-5.74277e-05
1.29918e-05
-6.05114e-05
1.25176e-05
-6.34513e-05
1.19554e-05
-6.62262e-05
1.13062e-05
-6.88153e-05
1.05709e-05
-7.11985e-05
9.75105e-06
-7.3356e-05
8.84865e-06
-7.5269e-05
7.86636e-06
-7.69198e-05
6.8077e-06
-7.82915e-05
5.67716e-06
-7.93692e-05
4.4803e-06
-8.01392e-05
3.22388e-06
-8.059e-05
1.91584e-06
-8.07124e-05
5.6539e-07
-8.04996e-05
-8.17046e-07
-7.99474e-05
-2.21985e-06
-7.90548e-05
-3.6303e-06
-7.78237e-05
-5.03467e-06
-7.62597e-05
-6.4184e-06
-7.43716e-05
-7.76626e-06
-7.21717e-05
-9.06257e-06
-6.96762e-05
-1.02914e-05
-6.69045e-05
-1.1437e-05
-6.38798e-05
-1.24838e-05
-6.06285e-05
-1.3417e-05
-5.71801e-05
-1.42227e-05
-5.3567e-05
-1.48882e-05
-4.98241e-05
-1.54025e-05
-4.59884e-05
-1.57564e-05
-4.20986e-05
-1.59429e-05
-3.81943e-05
-1.59572e-05
-3.43158e-05
-1.57974e-05
-3.05033e-05
-1.54641e-05
-2.67959e-05
-1.49609e-05
-2.32316e-05
-1.42947e-05
-1.98461e-05
-1.34752e-05
-1.66722e-05
-1.25153e-05
-1.37389e-05
-1.14314e-05
-1.10711e-05
-1.02427e-05
-8.68843e-06
-8.97225e-06
-6.60485e-06
-7.64608e-06
-4.82789e-06
-6.29408e-06
-3.35805e-06
-4.94995e-06
-2.18821e-06
-3.65172e-06
-1.30317e-06
-2.44226e-06
-6.79178e-07
-1.37006e-06
-2.83587e-07
-4.90202e-07
-7.45238e-08
1.34802e-07
-5.61129e-10
4.33668e-07
3.19315e-07
-1.8545e-07
3.26498e-07
-7.38172e-07
1.4376e-06
-1.65418e-06
2.83657e-06
-2.92649e-06
4.39739e-06
-4.54402e-06
6.02735e-06
-6.49146e-06
7.65534e-06
-8.74957e-06
9.22835e-06
-1.12958e-05
1.07085e-05
-1.41051e-05
1.20701e-05
-1.71505e-05
1.32966e-05
-2.04037e-05
1.43788e-05
-2.3836e-05
1.53126e-05
-2.74184e-05
1.60979e-05
-3.11221e-05
1.67366e-05
-3.49187e-05
1.72327e-05
-3.87804e-05
1.75907e-05
-4.26798e-05
1.78151e-05
-4.65902e-05
1.79106e-05
-5.04857e-05
1.78812e-05
-5.43406e-05
1.77305e-05
-5.81298e-05
1.74613e-05
-6.18287e-05
1.70758e-05
-6.54128e-05
1.65759e-05
-6.88581e-05
1.5963e-05
-7.21411e-05
1.52384e-05
-7.52383e-05
1.44034e-05
-7.8127e-05
1.34596e-05
-8.07849e-05
1.2409e-05
-8.31906e-05
1.12544e-05
-8.53235e-05
9.99923e-06
-8.71641e-05
8.64826e-06
-8.86942e-05
7.20729e-06
-8.98974e-05
5.68351e-06
-9.07591e-05
4.08552e-06
-9.12667e-05
2.42344e-06
-9.14102e-05
7.08894e-07
-9.11822e-05
-1.04499e-06
-9.05784e-05
-2.82364e-06
-8.95976e-05
-4.61111e-06
-8.8242e-05
-6.39029e-06
-8.65174e-05
-8.14301e-06
-8.44334e-05
-9.85029e-06
-8.20033e-05
-1.14926e-05
-7.92445e-05
-1.30503e-05
-7.6178e-05
-1.45035e-05
-7.28287e-05
-1.58331e-05
-6.92252e-05
-1.70205e-05
-6.53994e-05
-1.80485e-05
-6.13863e-05
-1.89013e-05
-5.72239e-05
-1.9565e-05
-5.29521e-05
-2.00282e-05
-4.8613e-05
-2.0282e-05
-4.42498e-05
-2.03204e-05
-3.99064e-05
-2.01408e-05
-3.56267e-05
-1.97438e-05
-3.14538e-05
-1.91339e-05
-2.74293e-05
-1.83192e-05
-2.35926e-05
-1.73119e-05
-1.998e-05
-1.61279e-05
-1.66239e-05
-1.47874e-05
-1.35524e-05
-1.33142e-05
-1.07881e-05
-1.17366e-05
-8.34743e-06
-1.00867e-05
-6.24034e-06
-8.40117e-06
-4.46943e-06
-6.72086e-06
-3.02953e-06
-5.09161e-06
-1.90732e-06
-3.56447e-06
-1.08102e-06
-2.19637e-06
-5.20244e-07
-1.05098e-06
-1.86037e-07
-1.99406e-07
-3.10502e-08
2.78682e-07
2.88264e-07
-2.32177e-07
5.58673e-07
-9.07962e-07
2.11339e-06
-2.00875e-06
3.93736e-06
-3.51547e-06
5.90411e-06
-5.40725e-06
7.91913e-06
-7.66093e-06
9.90903e-06
-1.02511e-05
1.18185e-05
-1.31502e-05
1.36077e-05
-1.63292e-05
1.52491e-05
-1.97579e-05
1.67253e-05
-2.34053e-05
1.80262e-05
-2.72401e-05
1.91475e-05
-3.12312e-05
2.0089e-05
-3.53477e-05
2.08532e-05
-3.95593e-05
2.14443e-05
-4.38361e-05
2.18674e-05
-4.81489e-05
2.21279e-05
-5.2469e-05
2.22308e-05
-5.67685e-05
2.21807e-05
-6.10198e-05
2.19818e-05
-6.51958e-05
2.16372e-05
-6.92698e-05
2.11498e-05
-7.32154e-05
2.05215e-05
-7.70068e-05
1.97543e-05
-8.06183e-05
1.88499e-05
-8.40248e-05
1.78098e-05
-8.72016e-05
1.66364e-05
-9.01247e-05
1.53321e-05
-9.2771e-05
1.39007e-05
-9.51183e-05
1.23465e-05
-9.71456e-05
1.06756e-05
-9.88335e-05
8.89518e-06
-0.000100164
7.01421e-06
-0.000101122
5.0433e-06
-0.000101693
2.99487e-06
-0.000101868
8.83119e-07
-0.000101637
-1.27594e-06
-0.000100996
-3.4646e-06
-9.99433e-05
-5.66352e-06
-9.84817e-05
-7.85197e-06
-9.66167e-05
-1.0008e-05
-9.43585e-05
-1.21085e-05
-9.17209e-05
-1.41302e-05
-8.87223e-05
-1.60489e-05
-8.53848e-05
-1.7841e-05
-8.17349e-05
-1.9483e-05
-7.78027e-05
-2.09527e-05
-7.36222e-05
-2.2229e-05
-6.92307e-05
-2.32928e-05
-6.46686e-05
-2.41271e-05
-5.99789e-05
-2.4718e-05
-5.52065e-05
-2.50544e-05
-5.03981e-05
-2.51289e-05
-4.56008e-05
-2.4938e-05
-4.08622e-05
-2.44823e-05
-3.62291e-05
-2.3767e-05
-3.17468e-05
-2.28015e-05
-2.74585e-05
-2.16003e-05
-2.3404e-05
-2.01824e-05
-1.96196e-05
-1.85718e-05
-1.61364e-05
-1.67974e-05
-1.29804e-05
-1.48926e-05
-1.01711e-05
-1.2896e-05
-7.72124e-06
-1.0851e-05
-5.6361e-06
-8.806e-06
-3.91308e-06
-6.81464e-06
-2.54135e-06
-4.93619e-06
-1.50179e-06
-3.23593e-06
-7.66924e-07
-1.78584e-06
-3.01294e-07
-6.65037e-07
-6.20277e-08
3.94141e-08
2.26235e-07
-2.77557e-07
8.36229e-07
-1.07422e-06
2.91005e-06
-2.35772e-06
5.22085e-06
-4.09722e-06
7.64361e-06
-6.26197e-06
1.00839e-05
-8.82072e-06
1.24678e-05
-1.17414e-05
1.47392e-05
-1.49912e-05
1.68575e-05
-1.85368e-05
1.87947e-05
-2.23442e-05
2.05328e-05
-2.63798e-05
2.20617e-05
-3.06097e-05
2.33774e-05
-3.50006e-05
2.44799e-05
-3.95197e-05
2.53723e-05
-4.41347e-05
2.60593e-05
-4.88141e-05
2.65468e-05
-5.35268e-05
2.68406e-05
-5.82427e-05
2.69466e-05
-6.29318e-05
2.68699e-05
-6.75651e-05
2.6615e-05
-7.21136e-05
2.61858e-05
-7.65491e-05
2.55852e-05
-8.08434e-05
2.48158e-05
-8.49688e-05
2.38798e-05
-8.88982e-05
2.27792e-05
-9.26047e-05
2.15163e-05
-9.6062e-05
2.00937e-05
-9.92446e-05
1.85147e-05
-0.000102128
1.67839e-05
-0.000104688
1.49067e-05
-0.000106903
1.28904e-05
-0.000108752
1.07439e-05
-0.000110215
8.47784e-06
-0.000111277
6.10502e-06
-0.000111922
3.64024e-06
-0.00011214
1.10042e-06
-0.00011192
-1.49544e-06
-0.000111258
-4.12634e-06
-0.000110152
-6.76942e-06
-0.000108604
-9.40013e-06
-0.00010662
-1.19925e-05
-0.000104209
-1.45194e-05
-0.000101386
-1.6953e-05
-9.81699e-05
-1.9265e-05
-9.45835e-05
-2.14273e-05
-9.06544e-05
-2.34122e-05
-8.64141e-05
-2.5193e-05
-8.18981e-05
-2.6745e-05
-7.71458e-05
-2.80451e-05
-7.21998e-05
-2.90731e-05
-6.71055e-05
-2.98122e-05
-6.1911e-05
-3.02489e-05
-5.66656e-05
-3.03742e-05
-5.14203e-05
-3.01834e-05
-4.62259e-05
-2.96768e-05
-4.11329e-05
-2.88599e-05
-3.61905e-05
-2.77439e-05
-3.14457e-05
-2.6345e-05
-2.69424e-05
-2.46857e-05
-2.27204e-05
-2.27938e-05
-1.88149e-05
-2.07029e-05
-1.52553e-05
-1.84523e-05
-1.20646e-05
-1.60867e-05
-9.25897e-06
-1.36567e-05
-6.84682e-06
-1.12181e-05
-4.82865e-06
-8.83282e-06
-3.19671e-06
-6.56813e-06
-1.93499e-06
-4.49765e-06
-1.01939e-06
-2.70145e-06
-4.18182e-07
-1.26625e-06
-9.29396e-08
-2.8583e-07
1.33293e-07
-3.21476e-07
1.15771e-06
-1.2361e-06
3.82468e-06
-2.69886e-06
6.68361e-06
-4.66762e-06
9.61237e-06
-7.10191e-06
1.25182e-05
-9.96228e-06
1.53281e-05
-1.32099e-05
1.79868e-05
-1.68063e-05
2.04539e-05
-2.07137e-05
2.2702e-05
-2.48945e-05
2.47135e-05
-2.93117e-05
2.6479e-05
-3.39292e-05
2.79949e-05
-3.87113e-05
2.9262e-05
-4.36234e-05
3.02843e-05
-4.86314e-05
3.10673e-05
-5.37021e-05
3.16175e-05
-5.88032e-05
3.19417e-05
-6.39027e-05
3.20461e-05
-6.89695e-05
3.19367e-05
-7.39728e-05
3.16184e-05
-7.88824e-05
3.10954e-05
-8.36685e-05
3.03713e-05
-8.83015e-05
2.94488e-05
-9.27522e-05
2.83306e-05
-9.6992e-05
2.7019e-05
-0.000100993
2.55169e-05
-0.000104726
2.38274e-05
-0.000108166
2.19546e-05
-0.000111286
1.99037e-05
-0.000114061
1.76817e-05
-0.000116467
1.52969e-05
-0.000118483
1.27598e-05
-0.000120088
1.0083e-05
-0.000121265
7.2815e-06
-0.000121997
4.3725e-06
-0.000122273
1.37573e-06
-0.000122081
-1.68673e-06
-0.000121417
-4.7905e-06
-0.000120277
-7.90907e-06
-0.000118664
-1.1014e-05
-0.000116581
-1.4075e-05
-0.00011404
-1.70609e-05
-0.000111053
-1.99391e-05
-0.000107642
-2.26769e-05
-0.000103827
-2.52415e-05
-9.9639e-05
-2.76005e-05
-9.5109e-05
-2.9723e-05
-9.02743e-05
-3.15797e-05
-8.51758e-05
-3.31435e-05
-7.98582e-05
-3.43908e-05
-7.43693e-05
-3.53011e-05
-6.87596e-05
-3.58586e-05
-6.30818e-05
-3.6052e-05
-5.73899e-05
-3.58753e-05
-5.17384e-05
-3.53283e-05
-4.61817e-05
-3.44167e-05
-4.07729e-05
-3.31527e-05
-3.5563e-05
-3.15549e-05
-3.06003e-05
-2.96485e-05
-2.59287e-05
-2.74654e-05
-2.15875e-05
-2.50441e-05
-1.76103e-05
-2.24295e-05
-1.40241e-05
-1.96729e-05
-1.08487e-05
-1.6832e-05
-8.0965e-06
-1.39704e-05
-5.77141e-06
-1.11579e-05
-3.86924e-06
-8.47029e-06
-2.37749e-06
-5.9894e-06
-1.27564e-06
-3.8033e-06
-5.35771e-07
-2.00612e-06
-1.23583e-07
-6.98021e-07
9.70846e-09
-3.63894e-07
1.5216e-06
-1.39312e-06
4.85391e-06
-3.03076e-06
8.32124e-06
-5.22391e-06
1.18055e-05
-7.92266e-06
1.52169e-05
-1.10794e-05
1.84849e-05
-1.46485e-05
2.15559e-05
-1.8586e-05
2.43914e-05
-2.2849e-05
2.69651e-05
-2.73964e-05
2.92609e-05
-3.21881e-05
3.12707e-05
-3.71852e-05
3.29919e-05
-4.23499e-05
3.44268e-05
-4.76457e-05
3.55801e-05
-5.30369e-05
3.64585e-05
-5.84889e-05
3.70695e-05
-6.39678e-05
3.74206e-05
-6.94406e-05
3.75189e-05
-7.48747e-05
3.73708e-05
-8.02382e-05
3.69819e-05
-8.54996e-05
3.63568e-05
-9.06278e-05
3.54994e-05
-9.5592e-05
3.4413e-05
-0.000100362
3.31004e-05
-0.000104907
3.15646e-05
-0.000109199
2.98085e-05
-0.000113208
2.78362e-05
-0.000116906
2.56523e-05
-0.000120265
2.32631e-05
-0.00012326
2.06764e-05
-0.000125865
1.79021e-05
-0.000128057
1.49522e-05
-0.000129815
1.18412e-05
-0.00013112
8.58631e-06
-0.000131955
5.20721e-06
-0.000132306
1.72643e-06
-0.000132161
-1.83082e-06
-0.000131515
-5.43672e-06
-0.000130363
-9.06101e-06
-0.000128706
-1.26712e-05
-0.000126548
-1.6233e-05
-0.000123899
-1.97103e-05
-0.000120772
-2.30662e-05
-0.000117186
-2.62629e-05
-0.000113164
-2.92629e-05
-0.000108736
-3.2029e-05
-0.000103933
-3.45254e-05
-9.87951e-05
-3.67179e-05
-9.33632e-05
-3.85754e-05
-8.7684e-05
-4.007e-05
-8.18075e-05
-4.11776e-05
-7.5787e-05
-4.18792e-05
-6.96779e-05
-4.21611e-05
-6.35376e-05
-4.20156e-05
-5.74244e-05
-4.14415e-05
-5.13965e-05
-4.04445e-05
-4.55114e-05
-3.90378e-05
-3.98246e-05
-3.72417e-05
-3.43888e-05
-3.50844e-05
-2.92526e-05
-3.26016e-05
-2.446e-05
-2.98367e-05
-2.0049e-05
-2.68404e-05
-1.60514e-05
-2.36706e-05
-1.24912e-05
-2.03921e-05
-9.38496e-06
-1.70767e-05
-6.74072e-06
-1.38021e-05
-4.55819e-06
-1.06528e-05
-2.82866e-06
-7.71894e-06
-1.53532e-06
-5.09664e-06
-6.53955e-07
-2.88748e-06
-1.53982e-07
-1.198e-06
-1.44276e-07
-4.04798e-07
1.9264e-06
-1.54498e-06
5.9941e-06
-3.35247e-06
1.01287e-05
-5.76415e-06
1.42172e-05
-8.72098e-06
1.81738e-05
-1.21675e-05
2.19314e-05
-1.60512e-05
2.54396e-05
-2.03224e-05
2.86626e-05
-2.49338e-05
3.15764e-05
-2.98401e-05
3.41672e-05
-3.4998e-05
3.64286e-05
-4.03662e-05
3.83601e-05
-4.59046e-05
3.99652e-05
-5.15749e-05
4.12504e-05
-5.73398e-05
4.22235e-05
-6.31635e-05
4.28932e-05
-6.90107e-05
4.32678e-05
-7.48474e-05
4.33555e-05
-8.06398e-05
4.31632e-05
-8.63551e-05
4.26972e-05
-9.19607e-05
4.19624e-05
-9.74243e-05
4.09631e-05
-0.000102714
3.97031e-05
-0.000107799
3.81854e-05
-0.000112648
3.64133e-05
-0.00011723
3.43905e-05
-0.000121515
3.21213e-05
-0.000125474
2.96111e-05
-0.000129078
2.68671e-05
-0.0001323
2.38983e-05
-0.000135114
2.07156e-05
-0.000137494
1.73329e-05
-0.00013942
1.37664e-05
-0.000140869
1.00355e-05
-0.000141824
6.16228e-06
-0.00014227
2.17214e-06
-0.000142194
-1.90659e-06
-0.000141588
-6.04266e-06
-0.000140447
-1.0202e-05
-0.00013877
-1.43481e-05
-0.000136561
-1.84422e-05
-0.000133827
-2.24438e-05
-0.000130582
-2.63109e-05
-0.000126844
-3.00008e-05
-0.000122637
-3.34709e-05
-0.000117987
-3.66787e-05
-0.000112929
-3.95832e-05
-0.000107501
-4.21455e-05
-0.000101748
-4.43293e-05
-9.57154e-05
-4.61021e-05
-8.94569e-05
-4.74361e-05
-8.30276e-05
-4.83085e-05
-7.64861e-05
-4.87026e-05
-6.98931e-05
-4.86085e-05
-6.33108e-05
-4.80238e-05
-5.68017e-05
-4.69537e-05
-5.04277e-05
-4.54118e-05
-4.42492e-05
-4.34202e-05
-3.83238e-05
-4.10097e-05
-3.27054e-05
-3.822e-05
-2.74431e-05
-3.5099e-05
-2.25802e-05
-3.17033e-05
-1.81532e-05
-2.80975e-05
-1.41914e-05
-2.43539e-05
-1.07159e-05
-2.05522e-05
-7.73919e-06
-1.67788e-05
-5.26538e-06
-1.31266e-05
-3.28973e-06
-9.69459e-06
-1.79923e-06
-6.58714e-06
-7.73202e-07
-3.91351e-06
-1.84316e-07
-1.78689e-06
-3.28593e-07
-4.44174e-07
2.37057e-06
-1.69147e-06
7.24139e-06
-3.66329e-06
1.21006e-05
-6.28683e-06
1.68407e-05
-9.49435e-06
2.13813e-05
-1.32227e-05
2.56597e-05
-1.74128e-05
2.96297e-05
-2.20093e-05
3.32591e-05
-2.69603e-05
3.65274e-05
-3.22166e-05
3.94235e-05
-3.77318e-05
4.19438e-05
-4.34617e-05
4.409e-05
-4.93645e-05
4.58679e-05
-5.53998e-05
4.72857e-05
-6.15291e-05
4.83528e-05
-6.77151e-05
4.90791e-05
-7.39216e-05
4.94744e-05
-8.01134e-05
4.95473e-05
-8.62561e-05
4.93059e-05
-9.23158e-05
4.87569e-05
-9.82592e-05
4.79057e-05
-0.000104053
4.67571e-05
-0.000109665
4.5315e-05
-0.000115063
4.3583e-05
-0.000120214
4.15647e-05
-0.000125088
3.9264e-05
-0.000129652
3.66858e-05
-0.000133877
3.38363e-05
-0.000137734
3.07234e-05
-0.000141192
2.7357e-05
-0.000144226
2.37495e-05
-0.000146809
1.99161e-05
-0.000148918
1.58749e-05
-0.000150529
1.16472e-05
-0.000151625
7.25775e-06
-0.000152187
2.73457e-06
-0.000152203
-1.89095e-06
-0.000151662
-6.58409e-06
-0.000150557
-1.13071e-05
-0.000148885
-1.60192e-05
-0.00014665
-2.06774e-05
-0.000143858
-2.52362e-05
-0.00014052
-2.96489e-05
-0.000136653
-3.38674e-05
-0.00013228
-3.78437e-05
-0.000127429
-4.153e-05
-0.000122133
-4.48795e-05
-0.00011643
-4.78479e-05
-0.000110366
-5.03937e-05
-0.000103989
-5.24794e-05
-9.73527e-05
-5.40723e-05
-9.05156e-05
-5.51455e-05
-8.35391e-05
-5.56791e-05
-7.64875e-05
-5.56602e-05
-6.94268e-05
-5.50845e-05
-6.24241e-05
-5.39564e-05
-5.55462e-05
-5.22896e-05
-4.88588e-05
-5.01076e-05
-4.2425e-05
-4.74436e-05
-3.63044e-05
-4.43406e-05
-3.05517e-05
-4.08516e-05
-2.52162e-05
-3.70389e-05
-2.034e-05
-3.29738e-05
-1.59577e-05
-2.87362e-05
-1.20958e-05
-2.44141e-05
-8.77194e-06
-2.01027e-05
-5.99458e-06
-1.5904e-05
-3.76334e-06
-1.19258e-05
-2.06904e-06
-8.28144e-06
-8.94384e-07
-5.08817e-06
-2.14862e-07
-2.46641e-06
-5.43456e-07
-4.82003e-07
2.85258e-06
-1.83237e-06
8.59176e-06
-3.9626e-06
1.42308e-05
-6.7907e-06
1.96688e-05
-1.02406e-05
2.48312e-05
-1.42418e-05
2.9661e-05
-1.8729e-05
3.41169e-05
-2.36412e-05
3.81714e-05
-2.89219e-05
4.18081e-05
-3.45182e-05
4.50198e-05
-4.03806e-05
4.78061e-05
-4.64623e-05
5.01718e-05
-5.27193e-05
5.2125e-05
-5.91098e-05
5.36762e-05
-6.55937e-05
5.48367e-05
-7.21326e-05
5.56181e-05
-7.86895e-05
5.60312e-05
-8.52282e-05
5.60861e-05
-9.17136e-05
5.57913e-05
-9.81111e-05
5.51544e-05
-0.000104387
5.41813e-05
-0.000110507
5.28771e-05
-0.000116438
5.12462e-05
-0.000122147
4.92922e-05
-0.000127602
4.70192e-05
-0.000132769
4.44315e-05
-0.000137618
4.15344e-05
-0.000142116
3.83346e-05
-0.000146233
3.48408e-05
-0.00014994
3.10638e-05
-0.000153208
2.70172e-05
-0.000156009
2.27174e-05
-0.000158319
1.81844e-05
-0.000160113
1.34415e-05
-0.000161371
8.51551e-06
-0.000162074
3.43725e-06
-0.000162206
-1.75891e-06
-0.000161755
-7.03493e-06
-0.000160713
-1.23493e-05
-0.000159075
-1.76572e-05
-0.000156841
-2.2911e-05
-0.000154016
-2.80607e-05
-0.000150611
-3.30541e-05
-0.000146641
-3.78381e-05
-0.000142126
-4.23586e-05
-0.000137093
-4.65621e-05
-0.000131577
-5.03961e-05
-0.000125615
-5.38102e-05
-0.000119251
-5.6757e-05
-0.000112537
-5.91934e-05
-0.000105528
-6.10815e-05
-9.82837e-05
-6.23898e-05
-9.0869e-05
-6.30938e-05
-8.33517e-05
-6.31775e-05
-7.5802e-05
-6.26341e-05
-6.82919e-05
-6.14665e-05
-6.08935e-05
-5.96881e-05
-5.3678e-05
-5.7323e-05
-4.67148e-05
-5.44068e-05
-4.00696e-05
-5.09858e-05
-3.38037e-05
-4.71175e-05
-2.79726e-05
-4.287e-05
-2.26248e-05
-3.83215e-05
-1.78012e-05
-3.35598e-05
-1.35339e-05
-2.86814e-05
-9.84596e-06
-2.37906e-05
-6.75104e-06
-1.89989e-05
-4.25315e-06
-1.44237e-05
-2.34704e-06
-1.01875e-05
-1.01865e-06
-6.41656e-06
-2.45966e-07
-3.2391e-06
-7.89421e-07
-5.18247e-07
3.37082e-06
-1.96747e-06
1.0041e-05
-4.2498e-06
1.65131e-05
-7.27456e-06
2.26936e-05
-1.09578e-05
2.85145e-05
-1.5222e-05
3.39252e-05
-1.99957e-05
3.88906e-05
-2.52129e-05
4.33885e-05
-3.08123e-05
4.74076e-05
-3.67376e-05
5.09451e-05
-4.29361e-05
5.40046e-05
-4.93587e-05
5.65943e-05
-5.59592e-05
5.87255e-05
-6.26943e-05
6.04113e-05
-6.95227e-05
6.16651e-05
-7.64049e-05
6.25003e-05
-8.3303e-05
6.29293e-05
-9.01803e-05
6.29633e-05
-9.7001e-05
6.2612e-05
-0.00010373
6.18833e-05
-0.000110333
6.0784e-05
-0.000116775
5.93194e-05
-0.000123023
5.74942e-05
-0.000129043
5.53125e-05
-0.000134802
5.27784e-05
-0.000140268
4.98966e-05
-0.000145406
4.66727e-05
-0.000150185
4.31139e-05
-0.000154574
3.92295e-05
-0.000158541
3.50312e-05
-0.000162057
3.05334e-05
-0.000165094
2.57541e-05
-0.000167624
2.07145e-05
-0.000169622
1.54397e-05
-0.000171066
9.95896e-06
-0.000171934
4.30533e-06
-0.000172209
-1.48388e-06
-0.000171877
-7.36739e-06
-0.000170926
-1.33e-05
-0.00016935
-1.9233e-05
-0.000167147
-2.51141e-05
-0.000164319
-3.08885e-05
-0.000160874
-3.64988e-05
-0.000156826
-4.18862e-05
-0.000152194
-4.69908e-05
-0.000147003
-5.17529e-05
-0.000141286
-5.61135e-05
-0.00013508
-6.00158e-05
-0.000128431
-6.34061e-05
-0.00012139
-6.6235e-05
-0.000114012
-6.84587e-05
-0.000106362
-7.004e-05
-9.85061e-05
-7.09498e-05
-9.05159e-05
-7.11677e-05
-8.24663e-05
-7.06838e-05
-7.4434e-05
-6.94987e-05
-6.64971e-05
-6.7625e-05
-5.87329e-05
-6.50872e-05
-5.12174e-05
-6.19223e-05
-4.40233e-05
-5.81799e-05
-3.7219e-05
-5.39218e-05
-3.08671e-05
-4.92219e-05
-2.50231e-05
-4.41655e-05
-1.97348e-05
-3.88482e-05
-1.50406e-05
-3.33755e-05
-1.09697e-05
-2.78615e-05
-7.54107e-06
-2.24275e-05
-4.76356e-06
-1.72012e-05
-2.63595e-06
-1.23152e-05
-1.14736e-06
-7.90515e-06
-2.7802e-07
-4.10843e-06
-1.06744e-06
-5.52852e-07
3.92368e-06
-2.09651e-06
1.15846e-05
-4.52425e-06
1.89409e-05
-7.73721e-06
2.59066e-05
-1.1644e-05
3.24212e-05
-1.61605e-05
3.84417e-05
-2.12093e-05
4.39394e-05
-2.67195e-05
4.88986e-05
-3.26257e-05
5.33138e-05
-3.88678e-05
5.71872e-05
-4.53903e-05
6.05271e-05
-5.21417e-05
6.33458e-05
-5.90742e-05
6.5658e-05
-6.61426e-05
6.74797e-05
-7.33047e-05
6.88271e-05
-8.052e-05
6.97156e-05
-8.77499e-05
7.01592e-05
-9.49571e-05
7.01706e-05
-0.000102105
6.97603e-05
-0.000109159
6.89373e-05