/*--------------------------------*- C++ -*----------------------------------*\
  =========                 |
  \\      /  F ield         | OpenFOAM: The Open Source CFD Toolbox
   \\    /   O peration     | Website:  https://openfoam.org
    \\  /    A nd           | Version:  dev
     \\/     M anipulation  |
\*---------------------------------------------------------------------------*/
FoamFile
{
    format      ascii;
    class       volVectorField;
    location    "36.45";
    object      U;
}
// * * * * * * * * * * * * * * * * * * * * * * * * * * * * * * * * * * * * * //

dimensions      [0 1 -1 0 0 0 0];

internalField   nonuniform List<vector> 
5184
(
(1.23294e-05 -1.27093e-05 0)
(4.51814e-05 -2.0891e-05 0)
(8.03564e-05 -1.7251e-05 0)
(9.60231e-05 -8.19902e-06 0)
(8.21986e-05 2.66762e-06 0)
(3.65027e-05 1.36181e-05 0)
(-4.05186e-05 2.38478e-05 0)
(-0.000146847 3.30516e-05 0)
(-0.000279689 4.11103e-05 0)
(-0.000435988 4.80297e-05 0)
(-0.00061262 5.38715e-05 0)
(-0.000806553 5.87204e-05 0)
(-0.00101492 6.2669e-05 0)
(-0.00123505 6.58083e-05 0)
(-0.00146448 6.82234e-05 0)
(-0.00170097 6.99895e-05 0)
(-0.00194243 7.1171e-05 0)
(-0.00218695 7.18203e-05 0)
(-0.00243275 7.19781e-05 0)
(-0.00267814 7.16741e-05 0)
(-0.00292151 7.09276e-05 0)
(-0.00316131 6.97493e-05 0)
(-0.003396 6.81419e-05 0)
(-0.00362406 6.61025e-05 0)
(-0.00384397 6.36239e-05 0)
(-0.00405417 6.06964e-05 0)
(-0.00425313 5.73093e-05 0)
(-0.00443925 5.34531e-05 0)
(-0.00461097 4.91207e-05 0)
(-0.0047667 4.4309e-05 0)
(-0.00490489 3.90205e-05 0)
(-0.005024 3.32646e-05 0)
(-0.00512258 2.70585e-05 0)
(-0.00519925 2.0428e-05 0)
(-0.00525276 1.3409e-05 0)
(-0.00528197 6.04723e-06 0)
(-0.00528596 -1.60126e-06 0)
(-0.00526399 -9.46997e-06 0)
(-0.00521556 -1.74824e-05 0)
(-0.00514044 -2.55526e-05 0)
(-0.0050387 -3.35862e-05 0)
(-0.00491071 -4.14816e-05 0)
(-0.00475718 -4.91315e-05 0)
(-0.00457916 -5.64251e-05 0)
(-0.00437805 -6.32495e-05 0)
(-0.00415562 -6.94929e-05 0)
(-0.00391395 -7.50465e-05 0)
(-0.00365547 -7.98072e-05 0)
(-0.00338291 -8.36805e-05 0)
(-0.00309928 -8.65828e-05 0)
(-0.00280781 -8.84433e-05 0)
(-0.00251193 -8.92069e-05 0)
(-0.00221522 -8.88352e-05 0)
(-0.00192132 -8.73085e-05 0)
(-0.00163391 -8.46264e-05 0)
(-0.00135663 -8.08086e-05 0)
(-0.00109302 -7.58943e-05 0)
(-0.000846463 -6.99423e-05 0)
(-0.000620089 -6.30302e-05 0)
(-0.000416757 -5.5254e-05 0)
(-0.000238964 -4.67277e-05 0)
(-8.87872e-05 -3.75845e-05 0)
(3.21844e-05 -2.79794e-05 0)
(0.000122937 -1.80949e-05 0)
(0.00018314 -8.15623e-06 0)
(0.000213295 1.54172e-06 0)
(0.000214991 1.05747e-05 0)
(0.000191278 1.83056e-05 0)
(0.000147189 2.37224e-05 0)
(9.08187e-05 2.51332e-05 0)
(3.6636e-05 1.98519e-05 0)
(6.22774e-06 6.24368e-06 0)
(2.08538e-05 -4.58897e-05 0)
(6.56511e-05 -6.57232e-05 0)
(9.47651e-05 -4.05726e-05 0)
(7.28741e-05 7.6246e-06 0)
(-1.88625e-05 6.5678e-05 0)
(-0.000187262 0.000126001 0)
(-0.00043291 0.000184313 0)
(-0.000752589 0.000238368 0)
(-0.00114075 0.000287025 0)
(-0.00159062 0.000329842 0)
(-0.00209485 0.000366779 0)
(-0.00264598 0.000398025 0)
(-0.0032367 0.000423893 0)
(-0.00386002 0.000444749 0)
(-0.00450935 0.00046097 0)
(-0.00517847 0.000472915 0)
(-0.00586158 0.000480907 0)
(-0.00655325 0.000485221 0)
(-0.00724833 0.000486081 0)
(-0.00794194 0.000483658 0)
(-0.00862938 0.000478072 0)
(-0.0093061 0.000469402 0)
(-0.00996761 0.000457686 0)
(-0.0106095 0.000442932 0)
(-0.0112274 0.000425129 0)
(-0.0118168 0.000404253 0)
(-0.0123734 0.000380281 0)
(-0.0128927 0.000353194 0)
(-0.0133703 0.000322993 0)
(-0.013802 0.000289706 0)
(-0.0141834 0.000253392 0)
(-0.0145105 0.000214155 0)
(-0.0147794 0.000172144 0)
(-0.0149864 0.000127563 0)
(-0.0151282 8.06713e-05 0)
(-0.0152021 3.17878e-05 0)
(-0.0152056 -1.87084e-05 0)
(-0.0151371 -7.0379e-05 0)
(-0.0149952 -0.000122729 0)
(-0.0147798 -0.000175211 0)
(-0.0144911 -0.00022723 0)
(-0.0141304 -0.000278154 0)
(-0.0136999 -0.000327322 0)
(-0.0132025 -0.000374054 0)
(-0.0126421 -0.000417667 0)
(-0.0120238 -0.000457484 0)
(-0.0113532 -0.000492854 0)
(-0.0106369 -0.000523161 0)
(-0.00988236 -0.000547843 0)
(-0.00909765 -0.000566408 0)
(-0.00829146 -0.000578441 0)
(-0.00747299 -0.000583624 0)
(-0.00665177 -0.00058174 0)
(-0.00583754 -0.000572686 0)
(-0.00504009 -0.000556479 0)
(-0.00426907 -0.000533258 0)
(-0.00353388 -0.000503285 0)
(-0.00284344 -0.000466952 0)
(-0.00220603 -0.000424772 0)
(-0.00162913 -0.000377386 0)
(-0.00111921 -0.000325563 0)
(-0.000681578 -0.000270208 0)
(-0.000320142 -0.000212381 0)
(-3.71874e-05 -0.000153337 0)
(0.00016692 -9.45848e-05 0)
(0.000294104 -3.80038e-05 0)
(0.000349115 1.39446e-05 0)
(0.000340227 5.79549e-05 0)
(0.000279936 8.94343e-05 0)
(0.000186099 0.000101886 0)
(8.6389e-05 8.65388e-05 0)
(1.96836e-05 3.64934e-05 0)
(1.76436e-05 -8.13251e-05 0)
(4.13566e-05 -9.50651e-05 0)
(1.96423e-05 -1.91627e-05 0)
(-8.39521e-05 0.000105917 0)
(-0.000290217 0.000254661 0)
(-0.000607903 0.000410621 0)
(-0.00103827 0.000563482 0)
(-0.00157752 0.000707105 0)
(-0.00221847 0.000838041 0)
(-0.00295193 0.000954582 0)
(-0.00376763 0.00105613 0)
(-0.00465486 0.00114279 0)
(-0.00560288 0.00121506 0)
(-0.00660124 0.00127368 0)
(-0.00763989 0.00131946 0)
(-0.00870924 0.00135323 0)
(-0.00980024 0.00137576 0)
(-0.0109043 0.00138772 0)
(-0.0120131 0.00138968 0)
(-0.0131189 0.00138208 0)
(-0.0142141 0.00136524 0)
(-0.0152914 0.00133939 0)
(-0.0163434 0.00130467 0)
(-0.017363 0.00126112 0)
(-0.0183433 0.00120877 0)
(-0.019277 0.0011476 0)
(-0.0201572 0.0010776 0)
(-0.020977 0.000998789 0)
(-0.0217294 0.000911228 0)
(-0.0224077 0.000815056 0)
(-0.0230053 0.000710506 0)
(-0.0235159 0.000597922 0)
(-0.0239336 0.000477778 0)
(-0.0242529 0.000350689 0)
(-0.0244689 0.000217422 0)
(-0.0245775 7.88998e-05 0)
(-0.0245751 -6.37969e-05 0)
(-0.0244593 -0.000209432 0)
(-0.0242286 -0.000356623 0)
(-0.0238826 -0.000503851 0)
(-0.0234222 -0.000649481 0)
(-0.0228496 -0.000791778 0)
(-0.0221681 -0.000928941 0)
(-0.0213827 -0.00105912 0)
(-0.0204996 -0.00118048 0)
(-0.0195264 -0.00129119 0)
(-0.0184721 -0.00138949 0)
(-0.0173468 -0.00147374 0)
(-0.016162 -0.00154245 0)
(-0.0149301 -0.00159428 0)
(-0.0136644 -0.00162816 0)
(-0.0123789 -0.00164323 0)
(-0.0110882 -0.00163894 0)
(-0.0098072 -0.00161502 0)
(-0.00855069 -0.00157156 0)
(-0.00733341 -0.00150894 0)
(-0.00616962 -0.00142792 0)
(-0.00507283 -0.00132959 0)
(-0.0040556 -0.00121541 0)
(-0.0031292 -0.00108719 0)
(-0.00230338 -0.000947087 0)
(-0.00158602 -0.000797682 0)
(-0.000982858 -0.000641979 0)
(-0.000497131 -0.000483513 0)
(-0.000129145 -0.000326482 0)
(0.000124169 -0.000175976 0)
(0.00026991 -3.83133e-05 0)
(0.000319932 7.84879e-05 0)
(0.000291372 0.000164129 0)
(0.000207464 0.000205444 0)
(0.00010248 0.000186321 0)
(2.49824e-05 9.04098e-05 0)
(8.84491e-06 -9.77711e-05 0)
(-6.99315e-06 -7.31912e-05 0)
(-0.000107557 8.47513e-05 0)
(-0.000322349 0.00031836 0)
(-0.000669618 0.00059013 0)
(-0.00115777 0.00087443 0)
(-0.00178756 0.00115423 0)
(-0.00255422 0.00141873 0)
(-0.00344919 0.00166147 0)
(-0.00446146 0.00187891 0)
(-0.00557854 0.00206949 0)
(-0.00678722 0.00223295 0)
(-0.00807409 0.00236987 0)
(-0.00942589 0.00248127 0)
(-0.0108297 0.00256843 0)
(-0.0122731 0.00263268 0)
(-0.0137443 0.00267531 0)
(-0.0152317 0.00269745 0)
(-0.0167244 0.0027001 0)
(-0.0182119 0.00268403 0)
(-0.019684 0.00264987 0)
(-0.0211307 0.00259801 0)
(-0.0225422 0.00252874 0)
(-0.023909 0.00244222 0)
(-0.0252213 0.00233853 0)
(-0.0264699 0.0022177 0)
(-0.0276452 0.00207979 0)
(-0.0287381 0.00192492 0)
(-0.0297394 0.00175329 0)
(-0.0306403 0.00156525 0)
(-0.0314322 0.00136133 0)
(-0.0321068 0.00114225 0)
(-0.0326566 0.000909007 0)
(-0.0330745 0.000662826 0)
(-0.0333543 0.000405224 0)
(-0.0334907 0.000138004 0)
(-0.0334796 -0.000136744 0)
(-0.0333178 -0.000416651 0)
(-0.0330037 -0.000699079 0)
(-0.0325372 -0.000981151 0)
(-0.0319195 -0.00125978 0)
(-0.0311537 -0.00153171 0)
(-0.0302445 -0.00179355 0)
(-0.0291984 -0.00204188 0)
(-0.0280237 -0.00227324 0)
(-0.0267304 -0.00248424 0)
(-0.0253302 -0.00267163 0)
(-0.0238365 -0.00283237 0)
(-0.0222641 -0.00296368 0)
(-0.020629 -0.00306313 0)
(-0.0189485 -0.0031287 0)
(-0.0172407 -0.00315886 0)
(-0.0155245 -0.00315257 0)
(-0.0138191 -0.00310939 0)
(-0.0121435 -0.00302948 0)
(-0.0105168 -0.0029136 0)
(-0.00895727 -0.00276321 0)
(-0.00748243 -0.00258038 0)
(-0.00610839 -0.0023679 0)
(-0.00484964 -0.00212921 0)
(-0.00371869 -0.00186845 0)
(-0.00272564 -0.00159054 0)
(-0.00187782 -0.00130119 0)
(-0.00117937 -0.00100706 0)
(-0.000630737 -0.000715974 0)
(-0.000228227 -0.000437215 0)
(3.66392e-05 -0.000181925 0)
(0.000177766 3.62849e-05 0)
(0.000214883 0.000200693 0)
(0.000174163 0.000290906 0)
(9.30592e-05 0.000282625 0)
(2.40341e-05 0.000147314 0)
(-2.12175e-06 -8.44421e-05 0)
(-6.72847e-05 2.08513e-05 0)
(-0.000264111 0.000295432 0)
(-0.000609799 0.000668057 0)
(-0.00111685 0.00109091 0)
(-0.00179148 0.00153007 0)
(-0.00263268 0.00196209 0)
(-0.0036341 0.00237149 0)
(-0.0047856 0.00274856 0)
(-0.00607447 0.00308764 0)
(-0.00748634 0.00338597 0)
(-0.00900598 0.00364273 0)
(-0.0106178 0.00385837 0)
(-0.0123062 0.00403415 0)
(-0.0140559 0.00417171 0)
(-0.0158521 0.00427288 0)
(-0.0176804 0.00433944 0)
(-0.0195269 0.00437306 0)
(-0.0213784 0.00437515 0)
(-0.0232218 0.00434688 0)
(-0.0250446 0.00428917 0)
(-0.0268344 0.00420267 0)
(-0.0285791 0.00408784 0)
(-0.0302668 0.00394498 0)
(-0.0318858 0.00377427 0)
(-0.0334244 0.00357589 0)
(-0.034871 0.00335 0)
(-0.0362145 0.00309689 0)
(-0.0374436 0.00281699 0)
(-0.0385476 0.00251099 0)
(-0.0395163 0.00217981 0)
(-0.0403397 0.00182474 0)
(-0.0410089 0.00144742 0)
(-0.0415154 0.00104991 0)
(-0.041852 0.000634688 0)
(-0.0420125 0.000204673 0)
(-0.041992 -0.000236772 0)
(-0.0417873 -0.000685858 0)
(-0.0413965 -0.00113839 0)
(-0.0408195 -0.00158983 0)
(-0.0400584 -0.00203528 0)
(-0.0391168 -0.00246965 0)
(-0.0380007 -0.00288762 0)
(-0.0367181 -0.00328382 0)
(-0.0352789 -0.00365287 0)
(-0.0336952 -0.00398949 0)
(-0.0319813 -0.00428862 0)
(-0.030153 -0.00454552 0)
(-0.0282281 -0.00475589 0)
(-0.0262258 -0.00491596 0)
(-0.0241668 -0.00502261 0)
(-0.0220727 -0.00507345 0)
(-0.0199659 -0.0050669 0)
(-0.0178692 -0.00500229 0)
(-0.0158056 -0.00487988 0)
(-0.0137976 -0.00470092 0)
(-0.0118673 -0.0044677 0)
(-0.0100352 -0.00418352 0)
(-0.00832086 -0.00385279 0)
(-0.00674145 -0.00348095 0)
(-0.00531196 -0.00307458 0)
(-0.00404452 -0.00264143 0)
(-0.00294799 -0.00219049 0)
(-0.00202752 -0.00173217 0)
(-0.00128404 -0.00127852 0)
(-0.000713799 -0.000843605 0)
(-0.000307789 -0.000443905 0)
(-5.12367e-05 -9.89879e-05 0)
(7.674e-05 0.000167806 0)
(0.000103653 0.000328741 0)
(6.75342e-05 0.000351077 0)
(1.96718e-05 0.000194183 0)
(-1.36939e-05 -3.75582e-05 0)
(-0.000132839 0.000197338 0)
(-0.000435859 0.000626922 0)
(-0.000924727 0.00117043 0)
(-0.00160408 0.00177191 0)
(-0.00247647 0.00239048 0)
(-0.00353807 0.00299707 0)
(-0.00478018 0.0035719 0)
(-0.00619069 0.0041021 0)
(-0.0077551 0.00457991 0)
(-0.00945726 0.00500125 0)
(-0.0112801 0.00536463 0)
(-0.0132061 0.00567029 0)
(-0.0152179 0.00591959 0)
(-0.017298 0.00611453 0)
(-0.0194295 0.00625735 0)
(-0.0215961 0.00635035 0)
(-0.0237817 0.00639566 0)
(-0.0259709 0.00639514 0)
(-0.0281485 0.00635036 0)
(-0.0302998 0.00626256 0)
(-0.0324105 0.00613267 0)
(-0.0344663 0.00596136 0)
(-0.0364532 0.00574909 0)
(-0.0383576 0.00549623 0)
(-0.0401657 0.0052031 0)
(-0.0418642 0.00487006 0)
(-0.0434398 0.00449766 0)
(-0.0448799 0.00408666 0)
(-0.046172 0.00363814 0)
(-0.0473041 0.00315361 0)
(-0.0482651 0.002635 0)
(-0.0490446 0.00208482 0)
(-0.0496332 0.0015061 0)
(-0.0500227 0.000902484 0)
(-0.0502061 0.000278239 0)
(-0.0501782 -0.000361772 0)
(-0.0499352 -0.0010121 0)
(-0.0494753 -0.00166673 0)
(-0.0487986 -0.00231915 0)
(-0.0479075 -0.00296245 0)
(-0.0468066 -0.00358934 0)
(-0.0455026 -0.00419233 0)
(-0.0440048 -0.00476379 0)
(-0.0423248 -0.00529614 0)
(-0.0404763 -0.00578192 0)
(-0.0384757 -0.00621401 0)
(-0.036341 -0.00658574 0)
(-0.0340926 -0.00689104 0)
(-0.0317524 -0.0071246 0)
(-0.0293439 -0.00728205 0)
(-0.0268918 -0.00736001 0)
(-0.0244215 -0.00735628 0)
(-0.0219592 -0.00726991 0)
(-0.019531 -0.00710127 0)
(-0.0171626 -0.00685216 0)
(-0.0148793 -0.00652582 0)
(-0.0127046 -0.00612697 0)
(-0.0106609 -0.00566186 0)
(-0.00876785 -0.00513825 0)
(-0.00704289 -0.0045655 0)
(-0.00550005 -0.00395459 0)
(-0.00414983 -0.00331822 0)
(-0.00299857 -0.002671 0)
(-0.00204806 -0.00202965 0)
(-0.00129502 -0.00141337 0)
(-0.000730661 -0.000844298 0)
(-0.000340261 -0.00034813 0)
(-0.000102854 4.51598e-05 0)
(9.20291e-06 0.000300623 0)
(3.25203e-05 0.000377443 0)
(1.36264e-05 0.000224574 0)
(-2.5187e-05 4.40765e-05 0)
(-0.00020003 0.000461278 0)
(-0.000614145 0.00108714 0)
(-0.00125305 0.00183489 0)
(-0.00211228 0.00264265 0)
(-0.00318969 0.00346417 0)
(-0.0044777 0.00426581 0)
(-0.0059646 0.00502411 0)
(-0.00763589 0.00572345 0)
(-0.00947501 0.00635415 0)
(-0.011464 0.00691088 0)
(-0.013584 0.00739148 0)
(-0.0158158 0.00779597 0)
(-0.0181402 0.00812576 0)
(-0.020538 0.00838314 0)
(-0.0229907 0.00857077 0)
(-0.0254799 0.00869137 0)
(-0.0279878 0.00874756 0)
(-0.0304971 0.00874164 0)
(-0.0329908 0.00867556 0)
(-0.0354523 0.0085509 0)
(-0.0378653 0.00836885 0)
(-0.0402138 0.00813034 0)
(-0.0424821 0.00783604 0)
(-0.0446544 0.00748651 0)
(-0.0467155 0.00708228 0)
(-0.0486502 0.006624 0)
(-0.0504438 0.00611251 0)
(-0.0520819 0.005549 0)
(-0.0535506 0.00493508 0)
(-0.0548366 0.0042729 0)
(-0.0559276 0.00356524 0)
(-0.0568119 0.00281555 0)
(-0.0574793 0.00202804 0)
(-0.0579207 0.00120769 0)
(-0.0581285 0.000360288 0)
(-0.0580969 -0.0005076 0)
(-0.0578219 -0.00138864 0)
(-0.0573017 -0.00227478 0)
(-0.0565365 -0.00315733 0)
(-0.055529 -0.00402706 0)
(-0.0542843 -0.00487431 0)
(-0.0528101 -0.00568912 0)
(-0.0511166 -0.00646139 0)
(-0.0492166 -0.00718106 0)
(-0.0471254 -0.00783828 0)
(-0.0448611 -0.00842363 0)
(-0.0424436 -0.00892827 0)
(-0.0398954 -0.00934418 0)
(-0.0372408 -0.00966436 0)
(-0.0345058 -0.00988297 0)
(-0.0317176 -0.00999556 0)
(-0.0289045 -0.00999918 0)
(-0.0260955 -0.00989255 0)
(-0.0233196 -0.00967617 0)
(-0.0206055 -0.00935239 0)
(-0.0179811 -0.00892548 0)
(-0.0154731 -0.00840171 0)
(-0.0131061 -0.00778935 0)
(-0.0109027 -0.00709872 0)
(-0.00888225 -0.00634221 0)
(-0.00706102 -0.00553433 0)
(-0.00545121 -0.00469182 0)
(-0.00406066 -0.0038338 0)
(-0.00289238 -0.00298196 0)
(-0.00194406 -0.00216089 0)
(-0.00120776 -0.00139854 0)
(-0.00066954 -0.00072676 0)
(-0.000309176 -0.000182045 0)
(-9.9828e-05 0.00019379 0)
(-7.69735e-06 0.000352618 0)
(6.86499e-06 0.000235056 0)
(-3.63433e-05 0.000160457 0)
(-0.000266971 0.000814542 0)
(-0.000793846 0.00167987 0)
(-0.00158583 0.00266645 0)
(-0.00262877 0.00370854 0)
(-0.00391511 0.0047561 0)
(-0.00543287 0.00577208 0)
(-0.00716676 0.0067302 0)
(-0.00909946 0.00761264 0)
(-0.0112121 0.00840814 0)
(-0.0134847 0.00911036 0)
(-0.0158967 0.00971656 0)
(-0.0184272 0.0102266 0)
(-0.0210554 0.0106419 0)
(-0.0237606 0.0109652 0)
(-0.0265225 0.0111993 0)
(-0.0293213 0.0113476 0)
(-0.0321376 0.0114129 0)
(-0.0349524 0.0113982 0)
(-0.0377471 0.0113056 0)
(-0.0405035 0.0111372 0)
(-0.0432036 0.0108943 0)
(-0.0458298 0.0105782 0)
(-0.0483647 0.0101897 0)
(-0.0507911 0.00972974 0)
(-0.0530921 0.00919902 0)
(-0.055251 0.00859852 0)
(-0.0572518 0.00792947 0)
(-0.0590785 0.00719355 0)
(-0.0607159 0.006393 0)
(-0.0621497 0.00553073 0)
(-0.0633663 0.00461044 0)
(-0.0643531 0.00363669 0)
(-0.0650989 0.00261498 0)
(-0.0655938 0.00155179 0)
(-0.0658298 0.000454579 0)
(-0.0658004 -0.000668206 0)
(-0.0655015 -0.00180717 0)
(-0.0649309 -0.00295204 0)
(-0.0640891 -0.00409175 0)
(-0.0629788 -0.00521456 0)
(-0.0616056 -0.0063082 0)
(-0.0599778 -0.00736005 0)
(-0.0581063 -0.00835733 0)
(-0.0560051 -0.00928729 0)
(-0.0536906 -0.0101375 0)
(-0.0511822 -0.0108959 0)
(-0.0485017 -0.0115514 0)
(-0.0456731 -0.0120939 0)
(-0.0427229 -0.0125144 0)
(-0.0396792 -0.0128054 0)
(-0.0365717 -0.0129614 0)
(-0.0334311 -0.0129785 0)
(-0.0302888 -0.012855 0)
(-0.0271767 -0.0125914 0)
(-0.0241262 -0.0121908 0)
(-0.0211678 -0.0116584 0)
(-0.018331 -0.0110021 0)
(-0.015643 -0.0102324 0)
(-0.0131289 -0.00936218 0)
(-0.0108104 -0.00840718 0)
(-0.00870596 -0.00738565 0)
(-0.00682975 -0.00631857 0)
(-0.0051914 -0.0052298 0)
(-0.00379551 -0.00414619 0)
(-0.00264124 -0.00309789 0)
(-0.00172201 -0.00211871 0)
(-0.00102523 -0.00124663 0)
(-0.000532081 -0.000524436 0)
(-0.000217197 -3.66096e-07 0)
(-5.045e-05 0.000271032 0)
(-8.11223e-08 0.00022392 0)
(-4.7066e-05 0.000310948 0)
(-0.000332679 0.00125704 0)
(-0.000971961 0.00240609 0)
(-0.00191745 0.00366696 0)
(-0.00314514 0.00497188 0)
(-0.00464166 0.0062685 0)
(-0.0063902 0.00751754 0)
(-0.00837146 0.00869079 0)
(-0.010565 0.00976891 0)
(-0.0129492 0.0107395 0)
(-0.0155022 0.0115956 0)
(-0.0182014 0.0123341 0)
(-0.0210243 0.0129547 0)
(-0.0239486 0.0134592 0)
(-0.0269522 0.0138504 0)
(-0.0300133 0.0141316 0)
(-0.0331107 0.0143066 0)
(-0.0362237 0.0143787 0)
(-0.0393318 0.0143512 0)
(-0.042415 0.0142267 0)
(-0.0454536 0.0140075 0)
(-0.0484284 0.0136953 0)
(-0.0513202 0.0132915 0)
(-0.0541101 0.0127974 0)
(-0.0567797 0.012214 0)
(-0.0593107 0.0115424 0)
(-0.061685 0.0107838 0)
(-0.0638852 0.00994006 0)
(-0.0658943 0.00901331 0)
(-0.0676959 0.00800651 0)
(-0.0692744 0.00692341 0)
(-0.0706152 0.00576873 0)
(-0.0717049 0.00454826 0)
(-0.0725313 0.0032689 0)
(-0.073084 0.00193873 0)
(-0.0733541 0.00056702 0)
(-0.0733348 -0.000835759 0)
(-0.0730215 -0.00225801 0)
(-0.0724118 -0.00368708 0)
(-0.071506 -0.00510936 0)
(-0.070307 -0.00651044 0)
(-0.0688205 -0.00787527 0)
(-0.0670551 -0.00918838 0)
(-0.0650224 -0.0104341 0)
(-0.0627371 -0.0115968 0)
(-0.0602165 -0.0126612 0)
(-0.0574812 -0.0136127 0)
(-0.0545542 -0.0144374 0)
(-0.0514614 -0.015123 0)
(-0.0482306 -0.0156584 0)
(-0.0448921 -0.0160344 0)
(-0.0414775 -0.0162439 0)
(-0.03802 -0.0162822 0)
(-0.0345534 -0.016147 0)
(-0.031112 -0.015839 0)
(-0.02773 -0.0153614 0)
(-0.0244405 -0.0147208 0)
(-0.0212756 -0.0139267 0)
(-0.0182653 -0.0129916 0)
(-0.0154372 -0.0119314 0)
(-0.0128157 -0.0107652 0)
(-0.0104215 -0.00951501 0)
(-0.00827106 -0.00820638 0)
(-0.00637612 -0.006868 0)
(-0.00474325 -0.00553205 0)
(-0.00337347 -0.00423431 0)
(-0.00226203 -0.00301448 0)
(-0.00139819 -0.00191657 0)
(-0.000764993 -0.000989478 0)
(-0.000339 -0.000287371 0)
(-9.4178e-05 0.000129574 0)
(-6.94159e-06 0.000190516 0)
(-5.73429e-05 0.000494645 0)
(-0.000396671 0.00178754 0)
(-0.00114675 0.00326491 0)
(-0.00224439 0.00483607 0)
(-0.00365581 0.00643267 0)
(-0.00536169 0.00800141 0)
(-0.0073401 0.00950192 0)
(-0.00956747 0.010905 0)
(-0.0120199 0.0121905 0)
(-0.014673 0.0133455 0)
(-0.0175026 0.0143626 0)
(-0.0204842 0.0152388 0)
(-0.0235937 0.0159739 0)
(-0.0268072 0.0165698 0)
(-0.0301012 0.0170299 0)
(-0.0334528 0.017358 0)
(-0.0368395 0.017558 0)
(-0.0402392 0.017634 0)
(-0.0436303 0.0175895 0)
(-0.0469916 0.0174275 0)
(-0.0503022 0.0171506 0)
(-0.0535415 0.0167609 0)
(-0.0566892 0.01626 0)
(-0.0597253 0.0156494 0)
(-0.0626299 0.0149304 0)
(-0.0653836 0.0141044 0)
(-0.0679672 0.0131732 0)
(-0.0703621 0.0121389 0)
(-0.0725501 0.0110043 0)
(-0.0745139 0.00977318 0)
(-0.0762367 0.00845017 0)
(-0.0777032 0.00704108 0)
(-0.0788988 0.00555298 0)
(-0.0798107 0.00399427 0)
(-0.0804276 0.00237473 0)
(-0.08074 0.000705548 0)
(-0.0807405 -0.00100069 0)
(-0.0804239 -0.00273007 0)
(-0.0797875 -0.00446743 0)
(-0.0788313 -0.00619649 0)
(-0.0775581 -0.00790001 0)
(-0.0759736 -0.00956002 0)
(-0.0740865 -0.011158 0)
(-0.0719087 -0.0126753 0)
(-0.0694553 -0.0140932 0)
(-0.0667444 -0.0153933 0)
(-0.0637974 -0.0165582 0)
(-0.0606384 -0.0175714 0)
(-0.0572945 -0.0184176 0)
(-0.0537952 -0.0190838 0)
(-0.0501723 -0.0195587 0)
(-0.0464596 -0.0198336 0)
(-0.0426922 -0.0199027 0)
(-0.0389065 -0.019763 0)
(-0.035139 -0.019415 0)
(-0.0314266 -0.0188625 0)
(-0.0278052 -0.0181129 0)
(-0.0243097 -0.0171774 0)
(-0.0209728 -0.0160708 0)
(-0.017825 -0.0148118 0)
(-0.0148932 -0.0134229 0)
(-0.012201 -0.0119303 0)
(-0.00976736 -0.0103639 0)
(-0.00760646 -0.00875756 0)
(-0.00572721 -0.00714875 0)
(-0.00413291 -0.00557901 0)
(-0.00282098 -0.00409394 0)
(-0.00178295 -0.00274354 0)
(-0.00100404 -0.00158256 0)
(-0.000463019 -0.00067077 0)
(-0.000138064 -7.33709e-05 0)
(-1.36005e-05 0.000134762 0)
(-6.71918e-05 0.000710518 0)
(-0.000458719 0.00240413 0)
(-0.00131722 0.00425425 0)
(-0.00256441 0.00617179 0)
(-0.00415706 0.00808911 0)
(-0.00606986 0.00995308 0)
(-0.00827565 0.0117233 0)
(-0.0107464 0.0133705 0)
(-0.0134546 0.0148745 0)
(-0.016373 0.0162224 0)
(-0.0194749 0.0174069 0)
(-0.0227339 0.0184252 0)
(-0.0261241 0.0192777 0)
(-0.0296202 0.0199668 0)
(-0.0331974 0.020496 0)
(-0.0368317 0.0208699 0)
(-0.0404994 0.021093 0)
(-0.0441772 0.0211696 0)
(-0.0478427 0.0211037 0)
(-0.0514734 0.0208987 0)
(-0.0550475 0.0205575 0)
(-0.0585433 0.0200824 0)
(-0.0619394 0.0194754 0)
(-0.0652148 0.0187382 0)
(-0.0683485 0.0178724 0)
(-0.0713201 0.0168798 0)
(-0.0741093 0.0157624 0)
(-0.0766966 0.0145231 0)
(-0.0790626 0.0131652 0)
(-0.0811891 0.0116932 0)
(-0.0830586 0.0101128 0)
(-0.0846544 0.00843095 0)
(-0.0859614 0.00665597 0)
(-0.0869658 0.00479786 0)
(-0.0876554 0.00286815 0)
(-0.0880202 0.000880018 0)
(-0.0880518 -0.00115175 0)
(-0.0877447 -0.00321084 0)
(-0.0870954 -0.00527949 0)
(-0.0861035 -0.00733863 0)
(-0.0847714 -0.00936809 0)
(-0.0831046 -0.0113468 0)
(-0.0811117 -0.0132532 0)
(-0.0788046 -0.0150652 0)
(-0.0761986 -0.016761 0)
(-0.0733122 -0.0183191 0)
(-0.0701673 -0.0197187 0)
(-0.0667891 -0.0209404 0)
(-0.0632055 -0.0219663 0)
(-0.0594474 -0.0227806 0)
(-0.0555482 -0.0233701 0)
(-0.0515435 -0.0237241 0)
(-0.0474704 -0.0238354 0)
(-0.0433676 -0.0237004 0)
(-0.0392742 -0.0233189 0)
(-0.0352295 -0.0226953 0)
(-0.0312726 -0.0218378 0)
(-0.0274409 -0.0207591 0)
(-0.0237705 -0.0194764 0)
(-0.0202946 -0.0180111 0)
(-0.0170434 -0.0163891 0)
(-0.0140433 -0.0146409 0)
(-0.0113162 -0.0128009 0)
(-0.00887917 -0.0109081 0)
(-0.00674376 -0.00900551 0)
(-0.00491589 -0.00714043 0)
(-0.00339556 -0.00536441 0)
(-0.00217683 -0.00373338 0)
(-0.00124737 -0.00230787 0)
(-0.000588244 -0.00115301 0)
(-0.000181781 -0.000338643 0)
(-2.00315e-05 5.68258e-05 0)
(-7.66368e-05 0.000957487 0)
(-0.00051872 0.00310452 0)
(-0.00148275 0.00537121 0)
(-0.00287609 0.00767103 0)
(-0.00464635 0.00993803 0)
(-0.00676236 0.0121203 0)
(-0.00919172 0.0141785 0)
(-0.0119019 0.0160839 0)
(-0.0148616 0.0178171 0)
(-0.0180407 0.0193658 0)
(-0.0214099 0.0207235 0)
(-0.0249408 0.021888 0)
(-0.0286057 0.0228602 0)
(-0.032378 0.0236432 0)
(-0.0362317 0.0242415 0)
(-0.0401414 0.0246599 0)
(-0.0440826 0.0249036 0)
(-0.0480311 0.0249774 0)
(-0.0519634 0.0248857 0)
(-0.0558562 0.0246324 0)
(-0.0596869 0.0242206 0)
(-0.0634327 0.0236529 0)
(-0.0670715 0.0229315 0)
(-0.0705812 0.0220585 0)
(-0.0739401 0.0210357 0)
(-0.0771267 0.0198653 0)
(-0.08012 0.0185497 0)
(-0.0828993 0.0170923 0)
(-0.0854447 0.015497 0)
(-0.0877367 0.0137692 0)
(-0.089757 0.0119155 0)
(-0.0914881 0.00994405 0)
(-0.092914 0.00786452 0)
(-0.0940199 0.00568848 0)
(-0.0947928 0.00342928 0)
(-0.0952218 0.00110209 0)
(-0.0952978 -0.00127605 0)
(-0.0950142 -0.00368637 0)
(-0.0943672 -0.00610843 0)
(-0.0933554 -0.00852031 0)
(-0.0919806 -0.0108988 0)
(-0.0902479 -0.0132197 0)
(-0.0881655 -0.015458 0)
(-0.085745 -0.0175884 0)
(-0.0830017 -0.0195855 0)
(-0.0799541 -0.0214245 0)
(-0.0766246 -0.0230813 0)
(-0.0730388 -0.0245332 0)
(-0.0692256 -0.0257594 0)
(-0.065217 -0.0267411 0)
(-0.0610477 -0.0274627 0)
(-0.056755 -0.0279115 0)
(-0.0523782 -0.0280787 0)
(-0.047958 -0.0279594 0)
(-0.0435363 -0.0275531 0)
(-0.0391551 -0.0268642 0)
(-0.0348563 -0.0259016 0)
(-0.0306807 -0.0246795 0)
(-0.0266674 -0.0232172 0)
(-0.0228531 -0.0215389 0)
(-0.0192713 -0.0196742 0)
(-0.0159518 -0.0176575 0)
(-0.0129196 -0.0155281 0)
(-0.0101951 -0.01333 0)
(-0.00779298 -0.011112 0)
(-0.00572205 -0.0089271 0)
(-0.00398521 -0.00683301 0)
(-0.0025793 -0.00489159 0)
(-0.0014946 -0.00316915 0)
(-0.000714516 -0.00173609 0)
(-0.00022533 -0.000666805 0)
(-2.62608e-05 -4.30757e-05 0)
(-8.56993e-05 0.00123446 0)
(-0.000576624 0.00388615 0)
(-0.00164298 0.00661238 0)
(-0.00317844 0.00932988 0)
(-0.00512186 0.0119753 0)
(-0.00743636 0.0144988 0)
(-0.0100844 0.0168629 0)
(-0.0130289 0.0190404 0)
(-0.016235 0.0210134 0)
(-0.0196693 0.0227706 0)
(-0.0233001 0.0243069 0)
(-0.0270968 0.0256211 0)
(-0.0310302 0.026715 0)
(-0.0350722 0.0275927 0)
(-0.0391955 0.0282594 0)
(-0.0433738 0.0287208 0)
(-0.0475816 0.0289827 0)
(-0.0517939 0.0290504 0)
(-0.0559864 0.0289288 0)
(-0.0601351 0.0286222 0)
(-0.0642164 0.0281339 0)
(-0.0682071 0.027467 0)
(-0.0720841 0.0266239 0)
(-0.0758247 0.0256068 0)
(-0.0794064 0.024418 0)
(-0.082807 0.0230598 0)
(-0.0860044 0.0215351 0)
(-0.0889775 0.0198479 0)
(-0.0917052 0.0180027 0)
(-0.0941673 0.0160057 0)
(-0.0963446 0.0138644 0)
(-0.0982188 0.0115881 0)
(-0.0997729 0.00918787 0)
(-0.100991 0.00667687 0)
(-0.10186 0.00407021 0)
(-0.102366 0.00138511 0)
(-0.102501 -0.00135914 0)
(-0.102257 -0.00414129 0)
(-0.101629 -0.00693819 0)
(-0.100614 -0.009725 0)
(-0.0992139 -0.0124754 0)
(-0.0974326 -0.0151619 0)
(-0.0952777 -0.017756 0)
(-0.0927602 -0.020229 0)
(-0.0898951 -0.0225519 0)
(-0.0867008 -0.0246961 0)
(-0.0831996 -0.026634 0)
(-0.0794175 -0.0283394 0)
(-0.075384 -0.0297882 0)
(-0.0711321 -0.0309586 0)
(-0.0666978 -0.0318321 0)
(-0.0621199 -0.0323936 0)
(-0.0574397 -0.0326325 0)
(-0.0527003 -0.0325423 0)
(-0.047946 -0.032122 0)
(-0.0432219 -0.0313754 0)
(-0.038573 -0.0303123 0)
(-0.0340434 -0.0289481 0)
(-0.029676 -0.027304 0)
(-0.025511 -0.0254072 0)
(-0.0215856 -0.0232905 0)
(-0.0179333 -0.0209926 0)
(-0.014583 -0.0185575 0)
(-0.0115585 -0.0160347 0)
(-0.00887794 -0.0134785 0)
(-0.0065536 -0.0109481 0)
(-0.00459148 -0.00850721 0)
(-0.00299144 -0.00622386 0)
(-0.00174646 -0.00417021 0)
(-0.000842283 -0.00242209 0)
(-0.000268932 -0.0010585 0)
(-3.23471e-05 -0.000164809 0)
(-9.43945e-05 0.00154035 0)
(-0.000632392 0.00474633 0)
(-0.00179763 0.00797394 0)
(-0.00347072 0.0111438 0)
(-0.00558217 0.0141958 0)
(-0.00808962 0.0170833 0)
(-0.0109505 0.019771 0)
(-0.0141234 0.0222345 0)
(-0.0175696 0.0244575 0)
(-0.0212528 0.0264309 0)
(-0.0251387 0.028151 0)
(-0.0291947 0.0296181 0)
(-0.0333899 0.0308356 0)
(-0.0376947 0.0318085 0)
(-0.0420808 0.0325431 0)
(-0.0465209 0.033046 0)
(-0.0509887 0.0333237 0)
(-0.0554584 0.0333822 0)
(-0.059905 0.0332269 0)
(-0.0643039 0.0328624 0)
(-0.068631 0.0322926 0)
(-0.0728624 0.0315206 0)
(-0.0769744 0.0305492 0)
(-0.0809436 0.0293809 0)
(-0.084747 0.028018 0)
(-0.0883616 0.0264634 0)
(-0.0917648 0.0247203 0)
(-0.0949345 0.0227931 0)
(-0.097849 0.0206869 0)
(-0.100487 0.0184088 0)
(-0.10283 0.0159672 0)
(-0.104856 0.0133724 0)
(-0.106549 0.0106369 0)
(-0.107892 0.00777538 0)
(-0.10887 0.00480467 0)
(-0.10947 0.00174401 0)
(-0.10968 -0.00138507 0)
(-0.109492 -0.00455883 0)
(-0.1089 -0.00775139 0)
(-0.107901 -0.010935 0)
(-0.106494 -0.0140801 0)
(-0.104682 -0.0171558 0)
(-0.102473 -0.0201303 0)
(-0.0998754 -0.0229708 0)
(-0.0969047 -0.0256449 0)
(-0.0935785 -0.0281199 0)
(-0.0899189 -0.0303646 0)
(-0.0859519 -0.0323488 0)
(-0.0817074 -0.0340448 0)
(-0.0772192 -0.0354274 0)
(-0.0725243 -0.0364749 0)
(-0.0676632 -0.0371696 0)
(-0.0626791 -0.0374984 0)
(-0.0576172 -0.0374532 0)
(-0.0525248 -0.0370316 0)
(-0.04745 -0.0362373 0)
(-0.0424411 -0.0350801 0)
(-0.037546 -0.0335765 0)
(-0.0328113 -0.0317497 0)
(-0.0282814 -0.0296294 0)
(-0.0239977 -0.0272519 0)
(-0.0199977 -0.0246601 0)
(-0.0163145 -0.0219029 0)
(-0.0129759 -0.019035 0)
(-0.010004 -0.0161167 0)
(-0.00741473 -0.0132135 0)
(-0.00521754 -0.0103953 0)
(-0.0034155 -0.00773648 0)
(-0.00200446 -0.00531541 0)
(-0.000972422 -0.0032135 0)
(-0.000312957 -0.00151472 0)
(-3.83682e-05 -0.00030841 0)
(-0.00010273 0.00187403 0)
(-0.000685981 0.0056822 0)
(-0.00194643 0.00945176 0)
(-0.00375228 0.0131077 0)
(-0.0060261 0.0165941 0)
(-0.00872025 0.0198676 0)
(-0.0117874 0.0228966 0)
(-0.0151817 0.0256595 0)
(-0.0188611 0.0281427 0)
(-0.022786 0.0303397 0)
(-0.0269198 0.0322488 0)
(-0.0312279 0.0338722 0)
(-0.0356776 0.035215 0)
(-0.0402381 0.0362836 0)
(-0.0448799 0.0370856 0)
(-0.0495749 0.0376287 0)
(-0.054296 0.0379201 0)
(-0.0590168 0.0379667 0)
(-0.0637118 0.0377744 0)
(-0.0683558 0.0373482 0)
(-0.0729243 0.0366924 0)
(-0.0773927 0.0358104 0)
(-0.0817371 0.0347052 0)
(-0.0859336 0.0333795 0)
(-0.0899584 0.0318359 0)
(-0.0937881 0.0300776 0)
(-0.0973996 0.0281081 0)
(-0.10077 0.0259322 0)
(-0.103877 0.0235558 0)
(-0.106699 0.0209863 0)
(-0.109215 0.0182332 0)
(-0.111404 0.0153079 0)
(-0.113249 0.0122241 0)
(-0.11473 0.00899783 0)
(-0.115832 0.00564779 0)
(-0.116541 0.0021951 0)
(-0.116844 -0.00133651 0)
(-0.116731 -0.00492085 0)
(-0.116195 -0.00852934 0)
(-0.11523 -0.0121312 0)
(-0.113836 -0.0156938 0)
(-0.112014 -0.0191828 0)
(-0.109769 -0.0225626 0)
(-0.10711 -0.0257968 0)
(-0.104051 -0.0288486 0)
(-0.100609 -0.0316818 0)
(-0.0968049 -0.0342605 0)
(-0.092665 -0.0365508 0)
(-0.0882193 -0.0385209 0)
(-0.0835019 -0.0401417 0)
(-0.0785511 -0.041388 0)
(-0.0734087 -0.0422389 0)
(-0.0681196 -0.0426785 0)
(-0.0627317 -0.0426967 0)
(-0.0572948 -0.0422893 0)
(-0.0518604 -0.0414593 0)
(-0.0464804 -0.0402164 0)
(-0.0412067 -0.0385779 0)
(-0.0360902 -0.0365687 0)
(-0.0311797 -0.0342209 0)
(-0.0265212 -0.0315742 0)
(-0.0221569 -0.0286758 0)
(-0.0181244 -0.0255793 0)
(-0.0144561 -0.0223451 0)
(-0.0111784 -0.0190396 0)
(-0.00831117 -0.0157345 0)
(-0.00586775 -0.0125066 0)
(-0.00385468 -0.0094368 0)
(-0.00227071 -0.00660995 0)
(-0.00110611 -0.00411354 0)
(-0.000357878 -0.00203695 0)
(-4.44146e-05 -0.000474146 0)
(-0.000110706 0.00223439 0)
(-0.00073733 0.00669081 0)
(-0.00208914 0.0110414 0)
(-0.00402254 0.0152162 0)
(-0.00645253 0.0191637 0)
(-0.00932652 0.022845 0)
(-0.0125925 0.0262325 0)
(-0.0162007 0.0293081 0)
(-0.0201052 0.0320617 0)
(-0.024264 0.0344896 0)
(-0.0286377 0.0365928 0)
(-0.0331899 0.0383758 0)
(-0.0378863 0.0398457 0)
(-0.0426947 0.0410108 0)
(-0.0475849 0.0418799 0)
(-0.0525277 0.042462 0)
(-0.0574953 0.0427655 0)
(-0.062461 0.042798 0)
(-0.0673987 0.0425659 0)
(-0.0722828 0.0420749 0)
(-0.0770884 0.0413295 0)
(-0.0817907 0.0403335 0)
(-0.0863653 0.0390901 0)
(-0.090788 0.0376022 0)
(-0.0950346 0.0358726 0)