/*--------------------------------*- C++ -*----------------------------------*\
  =========                 |
  \\      /  F ield         | OpenFOAM: The Open Source CFD Toolbox
   \\    /   O peration     | Website:  https://openfoam.org
    \\  /    A nd           | Version:  dev
     \\/     M anipulation  |
\*---------------------------------------------------------------------------*/
FoamFile
{
    format      ascii;
    class       volScalarField;
    location    "36.45";
    object      Ux;
}
// * * * * * * * * * * * * * * * * * * * * * * * * * * * * * * * * * * * * * //

dimensions      [0 1 -1 0 0 0 0];

internalField   nonuniform List<scalar> 
5184
(
1.23294e-05
4.51814e-05
8.03564e-05
9.60231e-05
8.21986e-05
3.65027e-05
-4.05186e-05
-0.000146847
-0.000279689
-0.000435988
-0.00061262
-0.000806553
-0.00101492
-0.00123505
-0.00146448
-0.00170097
-0.00194243
-0.00218695
-0.00243275
-0.00267814
-0.00292151
-0.00316131
-0.003396
-0.00362406
-0.00384397
-0.00405417
-0.00425313
-0.00443925
-0.00461097
-0.0047667
-0.00490489
-0.005024
-0.00512258
-0.00519925
-0.00525276
-0.00528197
-0.00528596
-0.00526399
-0.00521556
-0.00514044
-0.0050387
-0.00491071
-0.00475718
-0.00457916
-0.00437805
-0.00415562
-0.00391395
-0.00365547
-0.00338291
-0.00309928
-0.00280781
-0.00251193
-0.00221522
-0.00192132
-0.00163391
-0.00135663
-0.00109302
-0.000846463
-0.000620089
-0.000416757
-0.000238964
-8.87872e-05
3.21844e-05
0.000122937
0.00018314
0.000213295
0.000214991
0.000191278
0.000147189
9.08187e-05
3.6636e-05
6.22774e-06
2.08538e-05
6.56511e-05
9.47651e-05
7.28741e-05
-1.88625e-05
-0.000187262
-0.00043291
-0.000752589
-0.00114075
-0.00159062
-0.00209485
-0.00264598
-0.0032367
-0.00386002
-0.00450935
-0.00517847
-0.00586158
-0.00655325
-0.00724833
-0.00794194
-0.00862938
-0.0093061
-0.00996761
-0.0106095
-0.0112274
-0.0118168
-0.0123734
-0.0128927
-0.0133703
-0.013802
-0.0141834
-0.0145105
-0.0147794
-0.0149864
-0.0151282
-0.0152021
-0.0152056
-0.0151371
-0.0149952
-0.0147798
-0.0144911
-0.0141304
-0.0136999
-0.0132025
-0.0126421
-0.0120238
-0.0113532
-0.0106369
-0.00988236
-0.00909765
-0.00829146
-0.00747299
-0.00665177
-0.00583754
-0.00504009
-0.00426907
-0.00353388
-0.00284344
-0.00220603
-0.00162913
-0.00111921
-0.000681578
-0.000320142
-3.71874e-05
0.00016692
0.000294104
0.000349115
0.000340227
0.000279936
0.000186099
8.6389e-05
1.96836e-05
1.76436e-05
4.13566e-05
1.96423e-05
-8.39521e-05
-0.000290217
-0.000607903
-0.00103827
-0.00157752
-0.00221847
-0.00295193
-0.00376763
-0.00465486
-0.00560288
-0.00660124
-0.00763989
-0.00870924
-0.00980024
-0.0109043
-0.0120131
-0.0131189
-0.0142141
-0.0152914
-0.0163434
-0.017363
-0.0183433
-0.019277
-0.0201572
-0.020977
-0.0217294
-0.0224077
-0.0230053
-0.0235159
-0.0239336
-0.0242529
-0.0244689
-0.0245775
-0.0245751
-0.0244593
-0.0242286
-0.0238826
-0.0234222
-0.0228496
-0.0221681
-0.0213827
-0.0204996
-0.0195264
-0.0184721
-0.0173468
-0.016162
-0.0149301
-0.0136644
-0.0123789
-0.0110882
-0.0098072
-0.00855069
-0.00733341
-0.00616962
-0.00507283
-0.0040556
-0.0031292
-0.00230338
-0.00158602
-0.000982858
-0.000497131
-0.000129145
0.000124169
0.00026991
0.000319932
0.000291372
0.000207464
0.00010248
2.49824e-05
8.84491e-06
-6.99315e-06
-0.000107557
-0.000322349
-0.000669618
-0.00115777
-0.00178756
-0.00255422
-0.00344919
-0.00446146
-0.00557854
-0.00678722
-0.00807409
-0.00942589
-0.0108297
-0.0122731
-0.0137443
-0.0152317
-0.0167244
-0.0182119
-0.019684
-0.0211307
-0.0225422
-0.023909
-0.0252213
-0.0264699
-0.0276452
-0.0287381
-0.0297394
-0.0306403
-0.0314322
-0.0321068
-0.0326566
-0.0330745
-0.0333543
-0.0334907
-0.0334796
-0.0333178
-0.0330037
-0.0325372
-0.0319195
-0.0311537
-0.0302445
-0.0291984
-0.0280237
-0.0267304
-0.0253302
-0.0238365
-0.0222641
-0.020629
-0.0189485
-0.0172407
-0.0155245
-0.0138191
-0.0121435
-0.0105168
-0.00895727
-0.00748243
-0.00610839
-0.00484964
-0.00371869
-0.00272564
-0.00187782
-0.00117937
-0.000630737
-0.000228227
3.66392e-05
0.000177766
0.000214883
0.000174163
9.30592e-05
2.40341e-05
-2.12175e-06
-6.72847e-05
-0.000264111
-0.000609799
-0.00111685
-0.00179148
-0.00263268
-0.0036341
-0.0047856
-0.00607447
-0.00748634
-0.00900598
-0.0106178
-0.0123062
-0.0140559
-0.0158521
-0.0176804
-0.0195269
-0.0213784
-0.0232218
-0.0250446
-0.0268344
-0.0285791
-0.0302668
-0.0318858
-0.0334244
-0.034871
-0.0362145
-0.0374436
-0.0385476
-0.0395163
-0.0403397
-0.0410089
-0.0415154
-0.041852
-0.0420125
-0.041992
-0.0417873
-0.0413965
-0.0408195
-0.0400584
-0.0391168
-0.0380007
-0.0367181
-0.0352789
-0.0336952
-0.0319813
-0.030153
-0.0282281
-0.0262258
-0.0241668
-0.0220727
-0.0199659
-0.0178692
-0.0158056
-0.0137976
-0.0118673
-0.0100352
-0.00832086
-0.00674145
-0.00531196
-0.00404452
-0.00294799
-0.00202752
-0.00128404
-0.000713799
-0.000307789
-5.12367e-05
7.674e-05
0.000103653
6.75342e-05
1.96718e-05
-1.36939e-05
-0.000132839
-0.000435859
-0.000924727
-0.00160408
-0.00247647
-0.00353807
-0.00478018
-0.00619069
-0.0077551
-0.00945726
-0.0112801
-0.0132061
-0.0152179
-0.017298
-0.0194295
-0.0215961
-0.0237817
-0.0259709
-0.0281485
-0.0302998
-0.0324105
-0.0344663
-0.0364532
-0.0383576
-0.0401657
-0.0418642
-0.0434398
-0.0448799
-0.046172
-0.0473041
-0.0482651
-0.0490446
-0.0496332
-0.0500227
-0.0502061
-0.0501782
-0.0499352
-0.0494753
-0.0487986
-0.0479075
-0.0468066
-0.0455026
-0.0440048
-0.0423248
-0.0404763
-0.0384757
-0.036341
-0.0340926
-0.0317524
-0.0293439
-0.0268918
-0.0244215
-0.0219592
-0.019531
-0.0171626
-0.0148793
-0.0127046
-0.0106609
-0.00876785
-0.00704289
-0.00550005
-0.00414983
-0.00299857
-0.00204806
-0.00129502
-0.000730661
-0.000340261
-0.000102854
9.20291e-06
3.25203e-05
1.36264e-05
-2.5187e-05
-0.00020003
-0.000614145
-0.00125305
-0.00211228
-0.00318969
-0.0044777
-0.0059646
-0.00763589
-0.00947501
-0.011464
-0.013584
-0.0158158
-0.0181402
-0.020538
-0.0229907
-0.0254799
-0.0279878
-0.0304971
-0.0329908
-0.0354523
-0.0378653
-0.0402138
-0.0424821
-0.0446544
-0.0467155
-0.0486502
-0.0504438
-0.0520819
-0.0535506
-0.0548366
-0.0559276
-0.0568119
-0.0574793
-0.0579207
-0.0581285
-0.0580969
-0.0578219
-0.0573017
-0.0565365
-0.055529
-0.0542843
-0.0528101
-0.0511166
-0.0492166
-0.0471254
-0.0448611
-0.0424436
-0.0398954
-0.0372408
-0.0345058
-0.0317176
-0.0289045
-0.0260955
-0.0233196
-0.0206055
-0.0179811
-0.0154731
-0.0131061
-0.0109027
-0.00888225
-0.00706102
-0.00545121
-0.00406066
-0.00289238
-0.00194406
-0.00120776
-0.00066954
-0.000309176
-9.9828e-05
-7.69735e-06
6.86499e-06
-3.63433e-05
-0.000266971
-0.000793846
-0.00158583
-0.00262877
-0.00391511
-0.00543287
-0.00716676
-0.00909946
-0.0112121
-0.0134847
-0.0158967
-0.0184272
-0.0210554
-0.0237606
-0.0265225
-0.0293213
-0.0321376
-0.0349524
-0.0377471
-0.0405035
-0.0432036
-0.0458298
-0.0483647
-0.0507911
-0.0530921
-0.055251
-0.0572518
-0.0590785
-0.0607159
-0.0621497
-0.0633663
-0.0643531
-0.0650989
-0.0655938
-0.0658298
-0.0658004
-0.0655015
-0.0649309
-0.0640891
-0.0629788
-0.0616056
-0.0599778
-0.0581063
-0.0560051
-0.0536906
-0.0511822
-0.0485017
-0.0456731
-0.0427229
-0.0396792
-0.0365717
-0.0334311
-0.0302888
-0.0271767
-0.0241262
-0.0211678
-0.018331
-0.015643
-0.0131289
-0.0108104
-0.00870596
-0.00682975
-0.0051914
-0.00379551
-0.00264124
-0.00172201
-0.00102523
-0.000532081
-0.000217197
-5.045e-05
-8.11223e-08
-4.7066e-05
-0.000332679
-0.000971961
-0.00191745
-0.00314514
-0.00464166
-0.0063902
-0.00837146
-0.010565
-0.0129492
-0.0155022
-0.0182014
-0.0210243
-0.0239486
-0.0269522
-0.0300133
-0.0331107
-0.0362237
-0.0393318
-0.042415
-0.0454536
-0.0484284
-0.0513202
-0.0541101
-0.0567797
-0.0593107
-0.061685
-0.0638852
-0.0658943
-0.0676959
-0.0692744
-0.0706152
-0.0717049
-0.0725313
-0.073084
-0.0733541
-0.0733348
-0.0730215
-0.0724118
-0.071506
-0.070307
-0.0688205
-0.0670551
-0.0650224
-0.0627371
-0.0602165
-0.0574812
-0.0545542
-0.0514614
-0.0482306
-0.0448921
-0.0414775
-0.03802
-0.0345534
-0.031112
-0.02773
-0.0244405
-0.0212756
-0.0182653
-0.0154372
-0.0128157
-0.0104215
-0.00827106
-0.00637612
-0.00474325
-0.00337347
-0.00226203
-0.00139819
-0.000764993
-0.000339
-9.4178e-05
-6.94159e-06
-5.73429e-05
-0.000396671
-0.00114675
-0.00224439
-0.00365581
-0.00536169
-0.0073401
-0.00956747
-0.0120199
-0.014673
-0.0175026
-0.0204842
-0.0235937
-0.0268072
-0.0301012
-0.0334528
-0.0368395
-0.0402392
-0.0436303
-0.0469916
-0.0503022
-0.0535415
-0.0566892
-0.0597253
-0.0626299
-0.0653836
-0.0679672
-0.0703621
-0.0725501
-0.0745139
-0.0762367
-0.0777032
-0.0788988
-0.0798107
-0.0804276
-0.08074
-0.0807405
-0.0804239
-0.0797875
-0.0788313
-0.0775581
-0.0759736
-0.0740865
-0.0719087
-0.0694553
-0.0667444
-0.0637974
-0.0606384
-0.0572945
-0.0537952
-0.0501723
-0.0464596
-0.0426922
-0.0389065
-0.035139
-0.0314266
-0.0278052
-0.0243097
-0.0209728
-0.017825
-0.0148932
-0.012201
-0.00976736
-0.00760646
-0.00572721
-0.00413291
-0.00282098
-0.00178295
-0.00100404
-0.000463019
-0.000138064
-1.36005e-05
-6.71918e-05
-0.000458719
-0.00131722
-0.00256441
-0.00415706
-0.00606986
-0.00827565
-0.0107464
-0.0134546
-0.016373
-0.0194749
-0.0227339
-0.0261241
-0.0296202
-0.0331974
-0.0368317
-0.0404994
-0.0441772
-0.0478427
-0.0514734
-0.0550475
-0.0585433
-0.0619394
-0.0652148
-0.0683485
-0.0713201
-0.0741093
-0.0766966
-0.0790626
-0.0811891
-0.0830586
-0.0846544
-0.0859614
-0.0869658
-0.0876554
-0.0880202
-0.0880518
-0.0877447
-0.0870954
-0.0861035
-0.0847714
-0.0831046
-0.0811117
-0.0788046
-0.0761986
-0.0733122
-0.0701673
-0.0667891
-0.0632055
-0.0594474
-0.0555482
-0.0515435
-0.0474704
-0.0433676
-0.0392742
-0.0352295
-0.0312726
-0.0274409
-0.0237705
-0.0202946
-0.0170434
-0.0140433
-0.0113162
-0.00887917
-0.00674376
-0.00491589
-0.00339556
-0.00217683
-0.00124737
-0.000588244
-0.000181781
-2.00315e-05
-7.66368e-05
-0.00051872
-0.00148275
-0.00287609
-0.00464635
-0.00676236
-0.00919172
-0.0119019
-0.0148616
-0.0180407
-0.0214099
-0.0249408
-0.0286057
-0.032378
-0.0362317
-0.0401414
-0.0440826
-0.0480311
-0.0519634
-0.0558562
-0.0596869
-0.0634327
-0.0670715
-0.0705812
-0.0739401
-0.0771267
-0.08012
-0.0828993
-0.0854447
-0.0877367
-0.089757
-0.0914881
-0.092914
-0.0940199
-0.0947928
-0.0952218
-0.0952978
-0.0950142
-0.0943672
-0.0933554
-0.0919806
-0.0902479
-0.0881655
-0.085745
-0.0830017
-0.0799541
-0.0766246
-0.0730388
-0.0692256
-0.065217
-0.0610477
-0.056755
-0.0523782
-0.047958
-0.0435363
-0.0391551
-0.0348563
-0.0306807
-0.0266674
-0.0228531
-0.0192713
-0.0159518
-0.0129196
-0.0101951
-0.00779298
-0.00572205
-0.00398521
-0.0025793
-0.0014946
-0.000714516
-0.00022533
-2.62608e-05
-8.56993e-05
-0.000576624
-0.00164298
-0.00317844
-0.00512186
-0.00743636
-0.0100844
-0.0130289
-0.016235
-0.0196693
-0.0233001
-0.0270968
-0.0310302
-0.0350722
-0.0391955
-0.0433738
-0.0475816
-0.0517939
-0.0559864
-0.0601351
-0.0642164
-0.0682071
-0.0720841
-0.0758247
-0.0794064
-0.082807
-0.0860044
-0.0889775
-0.0917052
-0.0941673
-0.0963446
-0.0982188
-0.0997729
-0.100991
-0.10186
-0.102366
-0.102501
-0.102257
-0.101629
-0.100614
-0.0992139
-0.0974326
-0.0952777
-0.0927602
-0.0898951
-0.0867008
-0.0831996
-0.0794175
-0.075384
-0.0711321
-0.0666978
-0.0621199
-0.0574397
-0.0527003
-0.047946
-0.0432219
-0.038573
-0.0340434
-0.029676
-0.025511
-0.0215856
-0.0179333
-0.014583
-0.0115585
-0.00887794
-0.0065536
-0.00459148
-0.00299144
-0.00174646
-0.000842283
-0.000268932
-3.23471e-05
-9.43945e-05
-0.000632392
-0.00179763
-0.00347072
-0.00558217
-0.00808962
-0.0109505
-0.0141234
-0.0175696
-0.0212528
-0.0251387
-0.0291947
-0.0333899
-0.0376947
-0.0420808
-0.0465209
-0.0509887
-0.0554584
-0.059905
-0.0643039
-0.068631
-0.0728624
-0.0769744
-0.0809436
-0.084747
-0.0883616
-0.0917648
-0.0949345
-0.097849
-0.100487
-0.10283
-0.104856
-0.106549
-0.107892
-0.10887
-0.10947
-0.10968
-0.109492
-0.1089
-0.107901
-0.106494
-0.104682
-0.102473
-0.0998754
-0.0969047
-0.0935785
-0.0899189
-0.0859519
-0.0817074
-0.0772192
-0.0725243
-0.0676632
-0.0626791
-0.0576172
-0.0525248
-0.04745
-0.0424411
-0.037546
-0.0328113
-0.0282814
-0.0239977
-0.0199977
-0.0163145
-0.0129759
-0.010004
-0.00741473
-0.00521754
-0.0034155
-0.00200446
-0.000972422
-0.000312957
-3.83682e-05
-0.00010273
-0.000685981
-0.00194643
-0.00375228
-0.0060261
-0.00872025
-0.0117874
-0.0151817
-0.0188611
-0.022786
-0.0269198
-0.0312279
-0.0356776
-0.0402381
-0.0448799
-0.0495749
-0.054296
-0.0590168
-0.0637118
-0.0683558
-0.0729243
-0.0773927
-0.0817371
-0.0859336
-0.0899584
-0.0937881
-0.0973996
-0.10077
-0.103877
-0.106699
-0.109215
-0.111404
-0.113249
-0.11473
-0.115832
-0.116541
-0.116844
-0.116731
-0.116195
-0.11523
-0.113836
-0.112014
-0.109769
-0.10711
-0.104051
-0.100609
-0.0968049
-0.092665
-0.0882193
-0.0835019
-0.0785511
-0.0734087
-0.0681196
-0.0627317
-0.0572948
-0.0518604
-0.0464804
-0.0412067
-0.0360902
-0.0311797
-0.0265212
-0.0221569
-0.0181244
-0.0144561
-0.0111784
-0.00831117
-0.00586775
-0.00385468
-0.00227071
-0.00110611
-0.000357878
-4.44146e-05
-0.000110706
-0.00073733
-0.00208914
-0.00402254
-0.00645253
-0.00932652
-0.0125925
-0.0162007
-0.0201052
-0.024264
-0.0286377
-0.0331899
-0.0378863
-0.0426947
-0.0475849
-0.0525277
-0.0574953
-0.062461
-0.0673987
-0.0722828
-0.0770884
-0.0817907
-0.0863653
-0.090788
-0.0950346
-0.0990812
-0.102904
-0.10648
-0.109786
-0.1128
-0.115499
-0.117863
-0.119872
-0.121507
-0.12275
-0.123585
-0.123999
-0.123981
-0.123521
-0.122612
-0.121251
-0.119439
-0.117179
-0.114479
-0.11135
-0.107809
-0.103875
-0.0995756
-0.0949393
-0.090001
-0.0847995
-0.0793779
-0.0737832
-0.0680655
-0.0622775
-0.0564741
-0.0507112
-0.045045
-0.039531
-0.0342228
-0.0291716
-0.0244247
-0.0200248
-0.0160094
-0.0124096
-0.00924975
-0.00654741
-0.00431277
-0.00254771
-0.00124476
-0.000404237
-5.05838e-05
-0.000118317
-0.000786355
-0.00222546
-0.00428084
-0.00686037
-0.00990672
-0.0133635
-0.0171771
-0.0212983
-0.0256821
-0.030287
-0.0350746
-0.0400092
-0.0450574
-0.0501878
-0.0553708
-0.0605779
-0.0657819
-0.0709564
-0.0760755
-0.0811141
-0.0860471
-0.0908499
-0.0954979
-0.0999668
-0.104232
-0.108271
-0.112057
-0.115569
-0.118783
-0.121676
-0.124227
-0.126414
-0.128217
-0.129617
-0.130598
-0.131144
-0.13124
-0.130877
-0.130047
-0.128742
-0.126963
-0.12471
-0.121989
-0.11881
-0.115188
-0.111142
-0.106698
-0.101883
-0.0967331
-0.0912874
-0.08559
-0.0796898
-0.073639
-0.0674936
-0.0613119
-0.055154
-0.0490806
-0.0431523
-0.0374282
-0.031965
-0.0268157
-0.0220287
-0.017647
-0.013707
-0.0102382
-0.00726245
-0.00479409
-0.00283827
-0.00138989
-0.000452623
-5.6978e-05
-0.000125548
-0.000832953
-0.00235507
-0.00452653
-0.00724848
-0.0104592
-0.0140981
-0.0181079
-0.0224363
-0.0270356
-0.0318622
-0.0368758
-0.0420393
-0.0473183
-0.0526805
-0.0580955
-0.0635344
-0.0689697
-0.0743747
-0.0797235
-0.0849905
-0.0901508
-0.0951795
-0.100052
-0.104744
-0.10923
-0.113487
-0.117489
-0.121214
-0.124637
-0.127735
-0.130484
-0.132863
-0.134851
-0.136426
-0.137571
-0.138268
-0.138501
-0.138259
-0.137529
-0.136304
-0.134581
-0.132358
-0.12964
-0.126433
-0.122752
-0.118613
-0.114039
-0.109061
-0.10371
-0.0980286
-0.0920605
-0.0858561
-0.0794704
-0.072962
-0.0663931
-0.0598281
-0.0533328
-0.0469731
-0.0408141
-0.0349184
-0.0293454
-0.02415
-0.019381
-0.015081
-0.0112848
-0.00801929
-0.00530327
-0.00314543
-0.00154317
-0.000503657
-6.37023e-05
-0.000132384
-0.000876998
-0.0024776
-0.00475887
-0.00761567
-0.0109821
-0.0147938
-0.01899
-0.0235154
-0.02832
-0.0333579
-0.0385873
-0.0439698
-0.0494698
-0.0550543
-0.0606925
-0.066355
-0.072014
-0.0776426
-0.0832149
-0.0887054
-0.0940889
-0.0993408
-0.104436
-0.109351
-0.114059
-0.118538
-0.122761
-0.126705
-0.130345
-0.133658
-0.136618
-0.139203
-0.141391
-0.143159
-0.144487
-0.145357
-0.145749
-0.145649
-0.145045
-0.143925
-0.142284
-0.140117
-0.137425
-0.134215
-0.130496
-0.126285
-0.121602
-0.116476
-0.110939
-0.105032
-0.0988005
-0.0922956
-0.0855745
-0.0786991
-0.0717353
-0.064752
-0.0578202
-0.0510118
-0.0443981
-0.0380487
-0.0320297
-0.0264028
-0.021224
-0.0165421
-0.0123981
-0.00882465
-0.00584518
-0.00347235
-0.00170632
-0.00055798
-7.08633e-05
-0.000138802
-0.000918344
-0.00259265
-0.00497709
-0.00796067
-0.0114737
-0.0154482
-0.0198203
-0.0245318
-0.0295304
-0.0347685
-0.0402027
-0.0457932
-0.0515037
-0.0573005
-0.0631521
-0.069029
-0.0749032
-0.0807478
-0.0865369
-0.0922449
-0.097847
-0.103318
-0.108634
-0.113771
-0.118702
-0.123405
-0.127853
-0.132022
-0.135887
-0.139424
-0.142607
-0.145412
-0.147815
-0.149793
-0.151324
-0.152386
-0.15296
-0.153028
-0.152574
-0.151585
-0.150051
-0.147967
-0.145329
-0.142142
-0.138411
-0.134151
-0.129381
-0.124127
-0.118421
-0.112302
-0.105816
-0.0990167
-0.0919625
-0.0847181
-0.0773532
-0.0699415
-0.0625596
-0.0552856
-0.0481976
-0.0413724
-0.0348839
-0.0288014
-0.0231884
-0.0181011
-0.0135872
-0.00968545
-0.00642481
-0.00382229
-0.00188109
-0.000616248
-7.85688e-05
-0.000144775
-0.000956834
-0.00269977
-0.00518035
-0.00828218
-0.0119321
-0.0160588
-0.0205954
-0.0254814
-0.0306622
-0.0360885
-0.0417155
-0.0475023
-0.0534118
-0.0594097
-0.0654641
-0.0715454
-0.0776254
-0.0836772
-0.0896751
-0.0955938
-0.101409
-0.107095
-0.112628
-0.117984
-0.123138
-0.128066
-0.132741
-0.13714
-0.141237
-0.145006
-0.148422
-0.15146
-0.154093
-0.156298
-0.15805
-0.159326
-0.160104
-0.160363
-0.160085
-0.159253
-0.157856
-0.155882
-0.153328
-0.150191
-0.146476
-0.142194
-0.137362
-0.132002
-0.126147
-0.119833
-0.113107
-0.106023
-0.0986405
-0.0910278
-0.0832582
-0.0754101
-0.0675658
-0.05981
-0.0522283
-0.0449053
-0.0379233
-0.0313599
-0.025287
-0.0197689
-0.0148609
-0.0106087
-0.00704725
-0.00419855
-0.00206928
-0.000679124
-8.69272e-05
-0.000150276
-0.000992298
-0.00279851
-0.0053678
-0.00857886
-0.0123553
-0.016623
-0.0213122
-0.0263602
-0.0317105
-0.0373121
-0.0431191
-0.0490895
-0.0551856
-0.0613724
-0.067618
-0.0738924
-0.0801676
-0.0864169
-0.0926145
-0.0987357
-0.104756
-0.110651
-0.116397
-0.121969
-0.127344
-0.132496
-0.1374
-0.142032
-0.146365
-0.150374
-0.154032
-0.157313
-0.16019
-0.162637
-0.164628
-0.166138
-0.167141
-0.167616
-0.167539
-0.166893
-0.16566
-0.163827
-0.161386
-0.158331
-0.154663
-0.150389
-0.145522
-0.140084
-0.134103
-0.127615
-0.120667
-0.11331
-0.105609
-0.0976325
-0.0894574
-0.0811674
-0.0728505
-0.0645984
-0.0565045
-0.0486619
-0.041162
-0.0340916
-0.0275319
-0.0215561
-0.0162282
-0.0116014
-0.0077176
-0.00460447
-0.00227271
-0.000747277
-9.60473e-05
-0.000155275
-0.00102456
-0.0028884
-0.00553857
-0.00884935
-0.0127415
-0.0171382
-0.0219674
-0.0271641
-0.0326704
-0.0384337
-0.0444069
-0.0505473
-0.0568164
-0.063179
-0.0696029
-0.076058
-0.0825166
-0.088952
-0.0953389
-0.101653
-0.10787
-0.113966
-0.119918
-0.125701
-0.131292
-0.136666
-0.141799
-0.146664
-0.151237
-0.155491
-0.159398
-0.162931
-0.166064
-0.168767
-0.171014
-0.172775
-0.174026
-0.174739
-0.17489
-0.174456
-0.173418
-0.171757
-0.16946
-0.16652
-0.162931
-0.158698
-0.153829
-0.148343
-0.142265
-0.135629
-0.128479
-0.120869
-0.112862
-0.10453
-0.0959528
-0.0872187
-0.0784218
-0.0696611
-0.061038
-0.052655
-0.044613
-0.0370091
-0.0299348
-0.0234732
-0.0176977
-0.0126704
-0.00844093
-0.00504337
-0.00249317
-0.000821378
-0.000106039
-0.000159743
-0.00105345
-0.00296897
-0.0056918
-0.00909232
-0.0130888
-0.017602
-0.0225578
-0.0278894
-0.0335373
-0.0394477
-0.0455724
-0.0518681
-0.0582957
-0.0648197
-0.0714077
-0.0780299
-0.0846585
-0.0912673
-0.0978314
-0.104327
-0.11073
-0.117017
-0.123166
-0.129153
-0.134955
-0.140547
-0.145904
-0.151002
-0.155815
-0.160316
-0.164477
-0.16827
-0.171667
-0.174638
-0.177154
-0.179186
-0.180703
-0.181677
-0.18208
-0.181887
-0.181072
-0.179614
-0.177497
-0.174705
-0.171232
-0.167076
-0.162241
-0.156741
-0.150598
-0.143844
-0.136521
-0.12868
-0.120386
-0.111712
-0.10274
-0.0935643
-0.0842837
-0.0750048
-0.0658379
-0.056895
-0.0482875
-0.0401239
-0.0325065
-0.0255298
-0.0192778
-0.0138224
-0.00922222
-0.00551855
-0.00273247
-0.0009021
-0.000117012
-0.000163651
-0.00107879
-0.00303979
-0.00582668
-0.0093065
-0.0133953
-0.018012
-0.0230804
-0.0285323
-0.0343066
-0.0403487
-0.0466093
-0.0530446
-0.059615
-0.0662848
-0.0730215
-0.0797956
-0.0865794
-0.0933472
-0.100075
-0.106738
-0.113315
-0.119782
-0.126117
-0.132298
-0.138301
-0.144103
-0.14968
-0.155007
-0.160057
-0.164804
-0.169221
-0.173278
-0.176946
-0.180195
-0.182992
-0.185308
-0.18711
-0.188366
-0.189045
-0.189118
-0.188557
-0.187335
-0.18543
-0.182825
-0.179505
-0.175464
-0.170702
-0.165228
-0.159058
-0.152222
-0.144757
-0.136716
-0.128159
-0.119161
-0.109809
-0.100198
-0.0904346
-0.0806321
-0.0709096
-0.0613897
-0.0521949
-0.0434456
-0.0352568
-0.0277352
-0.0209765
-0.0150641
-0.0100664
-0.00603326
-0.0029924
-0.000990115
-0.00012908
-0.00016697
-0.00110043
-0.00310043
-0.00594245
-0.00949072
-0.0136595
-0.018366
-0.0235324
-0.0290892
-0.0349741
-0.0411315
-0.0475115
-0.0540696
-0.060766
-0.0675647
-0.0744335
-0.0813428
-0.0882653
-0.095176
-0.102051
-0.108867
-0.115602
-0.122235
-0.128743
-0.135106
-0.141299
-0.147302
-0.153089
-0.158637
-0.163919
-0.16891
-0.17358
-0.177902
-0.181844
-0.185376
-0.188464
-0.191076
-0.193177
-0.194734
-0.195711
-0.196076
-0.195797
-0.194842
-0.193186
-0.190804
-0.187678
-0.183794
-0.179148
-0.173742
-0.167589
-0.160711
-0.153145
-0.144937
-0.136149
-0.126854
-0.11714
-0.107108
-0.0968674
-0.0865403
-0.0762547
-0.0661436
-0.0563417
-0.0469824
-0.0381942
-0.0300974
-0.0228013
-0.0164014
-0.010978
-0.00659066
-0.00327473
-0.00108609
-0.000142355
-0.000169677
-0.00111823
-0.00315055
-0.00603846
-0.00964396
-0.0138799
-0.0186621
-0.0239114
-0.0295571
-0.035536
-0.0417916
-0.0482735
-0.0549366
-0.061741
-0.0686506
-0.0756332
-0.0826595
-0.0897027
-0.0967381
-0.103743
-0.110694
-0.117571
-0.124353
-0.131018
-0.137546
-0.143916
-0.150105
-0.156091
-0.161849
-0.167354
-0.17258
-0.1775
-0.182083
-0.186299
-0.190117
-0.193501
-0.196417
-0.19883
-0.200703
-0.201998
-0.202678
-0.202708
-0.202053
-0.20068
-0.198559
-0.195668
-0.191986
-0.187502
-0.182212
-0.176122
-0.16925
-0.161627
-0.153295
-0.144313
-0.134754
-0.124706
-0.114272
-0.103568
-0.0927213
-0.0818698
-0.0711574
-0.0607317
-0.05074
-0.0413255
-0.0326237
-0.0247587
-0.0178403
-0.0119617
-0.00719385
-0.0035812
-0.00119071
-0.000156951
-0.000171751
-0.00113208
-0.00318984
-0.00611416
-0.0097654
-0.0140553
-0.0188986
-0.0242151
-0.0299332
-0.0359889
-0.0423249
-0.0488903
-0.0556397
-0.062533
-0.069534
-0.0766108
-0.0837344
-0.0908784
-0.0980187
-0.105133
-0.1122
-0.119199
-0.12611
-0.132913
-0.139589
-0.146118
-0.152477
-0.158645
-0.164599
-0.170314
-0.175765
-0.180923
-0.185761
-0.190247
-0.194348
-0.198029
-0.201255
-0.203988
-0.206188
-0.207817
-0.208834
-0.209199
-0.208872
-0.207816
-0.205996
-0.203382
-0.199948
-0.195675
-0.190551
-0.184578
-0.177765
-0.170136
-0.161729
-0.1526
-0.142817
-0.13247
-0.121663
-0.110514
-0.0991601
-0.0877459
-0.0764274
-0.0653651
-0.0547215
-0.0446557
-0.0353199
-0.0268547
-0.0193859
-0.0130216
-0.00784578
-0.0039135
-0.00130461
-0.000172988
-0.000173178
-0.0011419
-0.00321812
-0.00616921
-0.00985446
-0.014185
-0.0190745
-0.0244422
-0.0302157
-0.0363303
-0.0427281
-0.0493578
-0.0561739
-0.0631358
-0.0702077
-0.0773577
-0.0845571
-0.0917802
-0.0990035
-0.106205
-0.113365
-0.120464
-0.127483
-0.134403
-0.141205
-0.14787
-0.154379
-0.16071
-0.166841
-0.172749
-0.178409
-0.183793
-0.188874
-0.19362
-0.197997
-0.201973
-0.205508
-0.208565
-0.211102
-0.213077
-0.214448
-0.215169
-0.215198
-0.214493
-0.213011
-0.210717
-0.207578
-0.203566
-0.198665
-0.192864
-0.186167
-0.178591
-0.170167
-0.160943
-0.150988
-0.140385
-0.129241
-0.117677
-0.105835
-0.0938682
-0.0819445
-0.0702381
-0.0589268
-0.0481874
-0.0381901
-0.029094
-0.0210428
-0.0141616
-0.00854925
-0.00427329
-0.00142847
-0.000190582
-0.000173949
-0.00114765
-0.00323527
-0.00620341
-0.00991087
-0.0142683
-0.0191891
-0.0245917
-0.0304032
-0.0365583
-0.0429988
-0.049673
-0.0565351
-0.0635444
-0.0706653
-0.077866
-0.0851184
-0.0923972
-0.0996797
-0.106945
-0.114174
-0.121348
-0.128449
-0.13546
-0.142364
-0.149142
-0.155776
-0.162247
-0.168533
-0.174612
-0.180461
-0.186052
-0.191359
-0.19635
-0.200994
-0.205254
-0.209094
-0.212474
-0.215351
-0.217681
-0.219418
-0.220515
-0.220925
-0.220599
-0.219493
-0.217561
-0.214763
-0.211067
-0.206444
-0.200877
-0.19436
-0.1869
-0.178522
-0.169267
-0.159196
-0.148392
-0.136957
-0.125016
-0.112714
-0.100215
-0.0876944
-0.0753421
-0.0633525
-0.0519206
-0.0412368
-0.0314802
-0.022815
-0.0153851
-0.00930688
-0.00466214
-0.00156294
-0.000209858
-0.000174064
-0.00114934
-0.00324135
-0.00621684
-0.00993471
-0.0143055
-0.0192424
-0.0246634
-0.0304953
-0.0366723
-0.0431359
-0.049834
-0.0567206
-0.0637552
-0.0709021
-0.0781298
-0.0854107
-0.09272
-0.100036
-0.107338
-0.114609
-0.12183
-0.128987
-0.136061
-0.143038
-0.149902
-0.156633
-0.163216
-0.16963
-0.175855
-0.181867
-0.187642
-0.193154
-0.198372
-0.203264
-0.207796
-0.211931
-0.215627
-0.218842
-0.22153
-0.223642
-0.225129
-0.22594
-0.226021
-0.225322
-0.223793
-0.221385
-0.218056
-0.213771
-0.208501
-0.202231
-0.194959
-0.186699
-0.177482
-0.167364
-0.156421
-0.144752
-0.132483
-0.119761
-0.106756
-0.0936558
-0.0806636
-0.0679908
-0.0558525
-0.0444601
-0.0340156
-0.0247054
-0.0166952
-0.010121
-0.00508156
-0.00170864
-0.000230937
-0.000173532
-0.00114704
-0.00323652
-0.00620984
-0.00992645
-0.0142972
-0.0192351
-0.0246581
-0.0304926
-0.0366727
-0.0431393
-0.0498402
-0.0567294
-0.0637661
-0.0709149
-0.0781447
-0.0854281
-0.0927411
-0.100063
-0.107374
-0.114657
-0.121896
-0.129077
-0.136184
-0.143203
-0.15012
-0.156918
-0.163582
-0.170093
-0.176432
-0.182579
-0.18851
-0.194199
-0.199619
-0.204738
-0.209523
-0.213935
-0.217936
-0.221481
-0.224524
-0.227015
-0.228901
-0.230128
-0.230639
-0.230378
-0.229288
-0.227315
-0.224407
-0.220518
-0.215612
-0.209661
-0.202651
-0.194586
-0.185487
-0.175399
-0.16439
-0.152555
-0.140017
-0.126924
-0.113453
-0.0998007
-0.0861831
-0.0728298
-0.0599764
-0.0478579
-0.0367006
-0.026716
-0.0180943
-0.0109939
-0.00553295
-0.0018662
-0.000253948
-0.000172372
-0.00114086
-0.00322114
-0.00618303
-0.00988708
-0.0142446
-0.0191687
-0.0245775
-0.0303971
-0.0365612
-0.0430106
-0.049693
-0.056562
-0.063577
-0.0707027
-0.0779083
-0.0851669
-0.0924553
-0.099753
-0.107042
-0.114306
-0.121531
-0.128704
-0.135809
-0.142836
-0.149771
-0.156601
-0.16331
-0.169883
-0.176302
-0.18255
-0.188603
-0.194439
-0.200031
-0.205348
-0.21036
-0.215029
-0.219316
-0.223178
-0.226567
-0.229432
-0.231721
-0.233374
-0.234333
-0.234535
-0.233919
-0.232422
-0.229985
-0.226553
-0.222077
-0.216518
-0.20985
-0.202064
-0.193168
-0.183196
-0.172205
-0.160283
-0.147547
-0.134147
-0.12026
-0.106093
-0.0918748
-0.0778521
-0.0642823
-0.0514251
-0.0395339
-0.0288476
-0.019584
-0.0119271
-0.00601759
-0.0020362
-0.000279017
-0.000170615
-0.00113102
-0.00319575
-0.00613741
-0.00981809
-0.0141497
-0.0190458
-0.0244245
-0.0302117
-0.036341
-0.0427531
-0.0493952
-0.056221
-0.0631899
-0.0702667
-0.0774208
-0.0846261
-0.0918599
-0.0991027
-0.106338
-0.11355
-0.120725
-0.127853
-0.134921
-0.141919
-0.148834
-0.155656
-0.162372
-0.168968
-0.175429
-0.181738
-0.187876
-0.193822
-0.19955
-0.205033
-0.210241
-0.215139
-0.219688
-0.223846
-0.227565
-0.230796
-0.233483
-0.235566
-0.236983
-0.237668
-0.237554
-0.236572
-0.234654
-0.231735
-0.227755
-0.222664
-0.216421
-0.209001
-0.200401
-0.190639
-0.17976
-0.167841
-0.154993
-0.141359
-0.127121
-0.112489
-0.0977059
-0.0830347
-0.0687554
-0.0551536
-0.0425118
-0.0310996
-0.0211654
-0.0129222
-0.00653659
-0.00221922
-0.000306275
-0.000168304
-0.00111778
-0.0031611
-0.00607438
-0.00972156
-0.0140154
-0.0188698
-0.0242031
-0.0299411
-0.0360172
-0.0423718
-0.048952
-0.0557112
-0.062609
-0.0696103
-0.076685
-0.0838073
-0.0909553
-0.0981104
-0.105257
-0.112381
-0.119471
-0.126516
-0.133508
-0.140435
-0.14729
-0.154063
-0.160743
-0.167319
-0.173779
-0.180108
-0.186288
-0.192302
-0.198127
-0.203737
-0.209105
-0.214197
-0.218977
-0.223404
-0.227432
-0.231012
-0.234086
-0.236596
-0.238476
-0.239657
-0.240067
-0.239632
-0.238275
-0.235923
-0.232504
-0.227954
-0.222219
-0.215259
-0.207053
-0.197602
-0.186939
-0.175125
-0.162259
-0.148481
-0.133968
-0.118936
-0.103636
-0.0883488
-0.0733764
-0.0590317
-0.0456284
-0.0334698
-0.0228384
-0.01398
-0.00709092
-0.00241578
-0.000335852
-0.000165499
-0.00110151
-0.00311819
-0.00599574
-0.00960025
-0.0138454
-0.0186455
-0.023919
-0.0295916
-0.0355966
-0.0418739
-0.0483706
-0.0550399
-0.0618413
-0.0687401
-0.0757063
-0.082715
-0.0897448
-0.0967782
-0.103801
-0.1108
-0.117765
-0.124688
-0.131561
-0.138376
-0.145127
-0.151806
-0.158405
-0.164916
-0.171328
-0.177629
-0.183807
-0.189843
-0.195719
-0.201412
-0.206898
-0.212145
-0.217119
-0.221782
-0.226091
-0.229994
-0.233439
-0.236364
-0.238703
-0.240386
-0.241336
-0.241473
-0.240714
-0.238977
-0.236179
-0.232242
-0.227099
-0.220691
-0.21298
-0.20395
-0.193613
-0.182016
-0.169243
-0.155422
-0.140726
-0.125371
-0.109617
-0.0937587
-0.0781205
-0.0630437
-0.048875
-0.0359543
-0.024602
-0.015101
-0.00768131
-0.00262634
-0.000367879
-0.000162273
-0.00108268
-0.00306826
-0.00590379
-0.00945766
-0.0136444
-0.0183787
-0.0235792
-0.0291713
-0.035088
-0.0412689
-0.0476608
-0.0542168
-0.0608966
-0.0676653
-0.0744936
-0.0813571
-0.0882353
-0.0951118
-0.101973
-0.108808
-0.115608
-0.122367
-0.129078
-0.135736
-0.142337
-0.148875
-0.155345
-0.161742
-0.168057
-0.174281
-0.180405
-0.186414
-0.192292
-0.198021
-0.203577
-0.208934
-0.21406
-0.21892
-0.223472
-0.227669
-0.231458
-0.234779
-0.237567
-0.239748
-0.241244
-0.241971
-0.24184
-0.240759
-0.238637
-0.235382
-0.23091
-0.225148
-0.218036
-0.209539
-0.199647
-0.188388
-0.175828
-0.16208
-0.147306
-0.131723
-0.115592
-0.0992217
-0.0829577
-0.0671699
-0.0522399
-0.0385472
-0.0264541
-0.016285
-0.00830826
-0.00285135
-0.000402485
-0.000158718
-0.00106185
-0.00301287
-0.00580137
-0.00929809
-0.0134182
-0.0180769
-0.0231925
-0.0286902
-0.0345025
-0.0405686
-0.0468351
-0.0532548
-0.0597874
-0.0663984
-0.0730589
-0.079745
-0.0864374
-0.0931205
-0.0997822
-0.106413
-0.113007
-0.119557
-0.126061
-0.132516
-0.138918
-0.145266
-0.151557
-0.157788
-0.163954
-0.17005
-0.176067
-0.181996
-0.187824
-0.193535
-0.199111
-0.204527
-0.209758
-0.214769
-0.219523