/*--------------------------------*- C++ -*----------------------------------*\
  =========                 |
  \\      /  F ield         | OpenFOAM: The Open Source CFD Toolbox
   \\    /   O peration     | Website:  https://openfoam.org
    \\  /    A nd           | Version:  dev
     \\/     M anipulation  |
\*---------------------------------------------------------------------------*/
FoamFile
{
    format      ascii;
    class       volScalarField;
    location    "36.45";
    object      Uy;
}
// * * * * * * * * * * * * * * * * * * * * * * * * * * * * * * * * * * * * * //

dimensions      [0 1 -1 0 0 0 0];

internalField   nonuniform List<scalar> 
5184
(
-1.27093e-05
-2.0891e-05
-1.7251e-05
-8.19902e-06
2.66762e-06
1.36181e-05
2.38478e-05
3.30516e-05
4.11103e-05
4.80297e-05
5.38715e-05
5.87204e-05
6.2669e-05
6.58083e-05
6.82234e-05
6.99895e-05
7.1171e-05
7.18203e-05
7.19781e-05
7.16741e-05
7.09276e-05
6.97493e-05
6.81419e-05
6.61025e-05
6.36239e-05
6.06964e-05
5.73093e-05
5.34531e-05
4.91207e-05
4.4309e-05
3.90205e-05
3.32646e-05
2.70585e-05
2.0428e-05
1.3409e-05
6.04723e-06
-1.60126e-06
-9.46997e-06
-1.74824e-05
-2.55526e-05
-3.35862e-05
-4.14816e-05
-4.91315e-05
-5.64251e-05
-6.32495e-05
-6.94929e-05
-7.50465e-05
-7.98072e-05
-8.36805e-05
-8.65828e-05
-8.84433e-05
-8.92069e-05
-8.88352e-05
-8.73085e-05
-8.46264e-05
-8.08086e-05
-7.58943e-05
-6.99423e-05
-6.30302e-05
-5.5254e-05
-4.67277e-05
-3.75845e-05
-2.79794e-05
-1.80949e-05
-8.15623e-06
1.54172e-06
1.05747e-05
1.83056e-05
2.37224e-05
2.51332e-05
1.98519e-05
6.24368e-06
-4.58897e-05
-6.57232e-05
-4.05726e-05
7.6246e-06
6.5678e-05
0.000126001
0.000184313
0.000238368
0.000287025
0.000329842
0.000366779
0.000398025
0.000423893
0.000444749
0.00046097
0.000472915
0.000480907
0.000485221
0.000486081
0.000483658
0.000478072
0.000469402
0.000457686
0.000442932
0.000425129
0.000404253
0.000380281
0.000353194
0.000322993
0.000289706
0.000253392
0.000214155
0.000172144
0.000127563
8.06713e-05
3.17878e-05
-1.87084e-05
-7.0379e-05
-0.000122729
-0.000175211
-0.00022723
-0.000278154
-0.000327322
-0.000374054
-0.000417667
-0.000457484
-0.000492854
-0.000523161
-0.000547843
-0.000566408
-0.000578441
-0.000583624
-0.00058174
-0.000572686
-0.000556479
-0.000533258
-0.000503285
-0.000466952
-0.000424772
-0.000377386
-0.000325563
-0.000270208
-0.000212381
-0.000153337
-9.45848e-05
-3.80038e-05
1.39446e-05
5.79549e-05
8.94343e-05
0.000101886
8.65388e-05
3.64934e-05
-8.13251e-05
-9.50651e-05
-1.91627e-05
0.000105917
0.000254661
0.000410621
0.000563482
0.000707105
0.000838041
0.000954582
0.00105613
0.00114279
0.00121506
0.00127368
0.00131946
0.00135323
0.00137576
0.00138772
0.00138968
0.00138208
0.00136524
0.00133939
0.00130467
0.00126112
0.00120877
0.0011476
0.0010776
0.000998789
0.000911228
0.000815056
0.000710506
0.000597922
0.000477778
0.000350689
0.000217422
7.88998e-05
-6.37969e-05
-0.000209432
-0.000356623
-0.000503851
-0.000649481
-0.000791778
-0.000928941
-0.00105912
-0.00118048
-0.00129119
-0.00138949
-0.00147374
-0.00154245
-0.00159428
-0.00162816
-0.00164323
-0.00163894
-0.00161502
-0.00157156
-0.00150894
-0.00142792
-0.00132959
-0.00121541
-0.00108719
-0.000947087
-0.000797682
-0.000641979
-0.000483513
-0.000326482
-0.000175976
-3.83133e-05
7.84879e-05
0.000164129
0.000205444
0.000186321
9.04098e-05
-9.77711e-05
-7.31912e-05
8.47513e-05
0.00031836
0.00059013
0.00087443
0.00115423
0.00141873
0.00166147
0.00187891
0.00206949
0.00223295
0.00236987
0.00248127
0.00256843
0.00263268
0.00267531
0.00269745
0.0027001
0.00268403
0.00264987
0.00259801
0.00252874
0.00244222
0.00233853
0.0022177
0.00207979
0.00192492
0.00175329
0.00156525
0.00136133
0.00114225
0.000909007
0.000662826
0.000405224
0.000138004
-0.000136744
-0.000416651
-0.000699079
-0.000981151
-0.00125978
-0.00153171
-0.00179355
-0.00204188
-0.00227324
-0.00248424
-0.00267163
-0.00283237
-0.00296368
-0.00306313
-0.0031287
-0.00315886
-0.00315257
-0.00310939
-0.00302948
-0.0029136
-0.00276321
-0.00258038
-0.0023679
-0.00212921
-0.00186845
-0.00159054
-0.00130119
-0.00100706
-0.000715974
-0.000437215
-0.000181925
3.62849e-05
0.000200693
0.000290906
0.000282625
0.000147314
-8.44421e-05
2.08513e-05
0.000295432
0.000668057
0.00109091
0.00153007
0.00196209
0.00237149
0.00274856
0.00308764
0.00338597
0.00364273
0.00385837
0.00403415
0.00417171
0.00427288
0.00433944
0.00437306
0.00437515
0.00434688
0.00428917
0.00420267
0.00408784
0.00394498
0.00377427
0.00357589
0.00335
0.00309689
0.00281699
0.00251099
0.00217981
0.00182474
0.00144742
0.00104991
0.000634688
0.000204673
-0.000236772
-0.000685858
-0.00113839
-0.00158983
-0.00203528
-0.00246965
-0.00288762
-0.00328382
-0.00365287
-0.00398949
-0.00428862
-0.00454552
-0.00475589
-0.00491596
-0.00502261
-0.00507345
-0.0050669
-0.00500229
-0.00487988
-0.00470092
-0.0044677
-0.00418352
-0.00385279
-0.00348095
-0.00307458
-0.00264143
-0.00219049
-0.00173217
-0.00127852
-0.000843605
-0.000443905
-9.89879e-05
0.000167806
0.000328741
0.000351077
0.000194183
-3.75582e-05
0.000197338
0.000626922
0.00117043
0.00177191
0.00239048
0.00299707
0.0035719
0.0041021
0.00457991
0.00500125
0.00536463
0.00567029
0.00591959
0.00611453
0.00625735
0.00635035
0.00639566
0.00639514
0.00635036
0.00626256
0.00613267
0.00596136
0.00574909
0.00549623
0.0052031
0.00487006
0.00449766
0.00408666
0.00363814
0.00315361
0.002635
0.00208482
0.0015061
0.000902484
0.000278239
-0.000361772
-0.0010121
-0.00166673
-0.00231915
-0.00296245
-0.00358934
-0.00419233
-0.00476379
-0.00529614
-0.00578192
-0.00621401
-0.00658574
-0.00689104
-0.0071246
-0.00728205
-0.00736001
-0.00735628
-0.00726991
-0.00710127
-0.00685216
-0.00652582
-0.00612697
-0.00566186
-0.00513825
-0.0045655
-0.00395459
-0.00331822
-0.002671
-0.00202965
-0.00141337
-0.000844298
-0.00034813
4.51598e-05
0.000300623
0.000377443
0.000224574
4.40765e-05
0.000461278
0.00108714
0.00183489
0.00264265
0.00346417
0.00426581
0.00502411
0.00572345
0.00635415
0.00691088
0.00739148
0.00779597
0.00812576
0.00838314
0.00857077
0.00869137
0.00874756
0.00874164
0.00867556
0.0085509
0.00836885
0.00813034
0.00783604
0.00748651
0.00708228
0.006624
0.00611251
0.005549
0.00493508
0.0042729
0.00356524
0.00281555
0.00202804
0.00120769
0.000360288
-0.0005076
-0.00138864
-0.00227478
-0.00315733
-0.00402706
-0.00487431
-0.00568912
-0.00646139
-0.00718106
-0.00783828
-0.00842363
-0.00892827
-0.00934418
-0.00966436
-0.00988297
-0.00999556
-0.00999918
-0.00989255
-0.00967617
-0.00935239
-0.00892548
-0.00840171
-0.00778935
-0.00709872
-0.00634221
-0.00553433
-0.00469182
-0.0038338
-0.00298196
-0.00216089
-0.00139854
-0.00072676
-0.000182045
0.00019379
0.000352618
0.000235056
0.000160457
0.000814542
0.00167987
0.00266645
0.00370854
0.0047561
0.00577208
0.0067302
0.00761264
0.00840814
0.00911036
0.00971656
0.0102266
0.0106419
0.0109652
0.0111993
0.0113476
0.0114129
0.0113982
0.0113056
0.0111372
0.0108943
0.0105782
0.0101897
0.00972974
0.00919902
0.00859852
0.00792947
0.00719355
0.006393
0.00553073
0.00461044
0.00363669
0.00261498
0.00155179
0.000454579
-0.000668206
-0.00180717
-0.00295204
-0.00409175
-0.00521456
-0.0063082
-0.00736005
-0.00835733
-0.00928729
-0.0101375
-0.0108959
-0.0115514
-0.0120939
-0.0125144
-0.0128054
-0.0129614
-0.0129785
-0.012855
-0.0125914
-0.0121908
-0.0116584
-0.0110021
-0.0102324
-0.00936218
-0.00840718
-0.00738565
-0.00631857
-0.0052298
-0.00414619
-0.00309789
-0.00211871
-0.00124663
-0.000524436
-3.66096e-07
0.000271032
0.00022392
0.000310948
0.00125704
0.00240609
0.00366696
0.00497188
0.0062685
0.00751754
0.00869079
0.00976891
0.0107395
0.0115956
0.0123341
0.0129547
0.0134592
0.0138504
0.0141316
0.0143066
0.0143787
0.0143512
0.0142267
0.0140075
0.0136953
0.0132915
0.0127974
0.012214
0.0115424
0.0107838
0.00994006
0.00901331
0.00800651
0.00692341
0.00576873
0.00454826
0.0032689
0.00193873
0.00056702
-0.000835759
-0.00225801
-0.00368708
-0.00510936
-0.00651044
-0.00787527
-0.00918838
-0.0104341
-0.0115968
-0.0126612
-0.0136127
-0.0144374
-0.015123
-0.0156584
-0.0160344
-0.0162439
-0.0162822
-0.016147
-0.015839
-0.0153614
-0.0147208
-0.0139267
-0.0129916
-0.0119314
-0.0107652
-0.00951501
-0.00820638
-0.006868
-0.00553205
-0.00423431
-0.00301448
-0.00191657
-0.000989478
-0.000287371
0.000129574
0.000190516
0.000494645
0.00178754
0.00326491
0.00483607
0.00643267
0.00800141
0.00950192
0.010905
0.0121905
0.0133455
0.0143626
0.0152388
0.0159739
0.0165698
0.0170299
0.017358
0.017558
0.017634
0.0175895
0.0174275
0.0171506
0.0167609
0.01626
0.0156494
0.0149304
0.0141044
0.0131732
0.0121389
0.0110043
0.00977318
0.00845017
0.00704108
0.00555298
0.00399427
0.00237473
0.000705548
-0.00100069
-0.00273007
-0.00446743
-0.00619649
-0.00790001
-0.00956002
-0.011158
-0.0126753
-0.0140932
-0.0153933
-0.0165582
-0.0175714
-0.0184176
-0.0190838
-0.0195587
-0.0198336
-0.0199027
-0.019763
-0.019415
-0.0188625
-0.0181129
-0.0171774
-0.0160708
-0.0148118
-0.0134229
-0.0119303
-0.0103639
-0.00875756
-0.00714875
-0.00557901
-0.00409394
-0.00274354
-0.00158256
-0.00067077
-7.33709e-05
0.000134762
0.000710518
0.00240413
0.00425425
0.00617179
0.00808911
0.00995308
0.0117233
0.0133705
0.0148745
0.0162224
0.0174069
0.0184252
0.0192777
0.0199668
0.020496
0.0208699
0.021093
0.0211696
0.0211037
0.0208987
0.0205575
0.0200824
0.0194754
0.0187382
0.0178724
0.0168798
0.0157624
0.0145231
0.0131652
0.0116932
0.0101128
0.00843095
0.00665597
0.00479786
0.00286815
0.000880018
-0.00115175
-0.00321084
-0.00527949
-0.00733863
-0.00936809
-0.0113468
-0.0132532
-0.0150652
-0.016761
-0.0183191
-0.0197187
-0.0209404
-0.0219663
-0.0227806
-0.0233701
-0.0237241
-0.0238354
-0.0237004
-0.0233189
-0.0226953
-0.0218378
-0.0207591
-0.0194764
-0.0180111
-0.0163891
-0.0146409
-0.0128009
-0.0109081
-0.00900551
-0.00714043
-0.00536441
-0.00373338
-0.00230787
-0.00115301
-0.000338643
5.68258e-05
0.000957487
0.00310452
0.00537121
0.00767103
0.00993803
0.0121203
0.0141785
0.0160839
0.0178171
0.0193658
0.0207235
0.021888
0.0228602
0.0236432
0.0242415
0.0246599
0.0249036
0.0249774
0.0248857
0.0246324
0.0242206
0.0236529
0.0229315
0.0220585
0.0210357
0.0198653
0.0185497
0.0170923
0.015497
0.0137692
0.0119155
0.00994405
0.00786452
0.00568848
0.00342928
0.00110209
-0.00127605
-0.00368637
-0.00610843
-0.00852031
-0.0108988
-0.0132197
-0.015458
-0.0175884
-0.0195855
-0.0214245
-0.0230813
-0.0245332
-0.0257594
-0.0267411
-0.0274627
-0.0279115
-0.0280787
-0.0279594
-0.0275531
-0.0268642
-0.0259016
-0.0246795
-0.0232172
-0.0215389
-0.0196742
-0.0176575
-0.0155281
-0.01333
-0.011112
-0.0089271
-0.00683301
-0.00489159
-0.00316915
-0.00173609
-0.000666805
-4.30757e-05
0.00123446
0.00388615
0.00661238
0.00932988
0.0119753
0.0144988
0.0168629
0.0190404
0.0210134
0.0227706
0.0243069
0.0256211
0.026715
0.0275927
0.0282594
0.0287208
0.0289827
0.0290504
0.0289288
0.0286222
0.0281339
0.027467
0.0266239
0.0256068
0.024418
0.0230598
0.0215351
0.0198479
0.0180027
0.0160057
0.0138644
0.0115881
0.00918787
0.00667687
0.00407021
0.00138511
-0.00135914
-0.00414129
-0.00693819
-0.009725
-0.0124754
-0.0151619
-0.017756
-0.020229
-0.0225519
-0.0246961
-0.026634
-0.0283394
-0.0297882
-0.0309586
-0.0318321
-0.0323936
-0.0326325
-0.0325423
-0.032122
-0.0313754
-0.0303123
-0.0289481
-0.027304
-0.0254072
-0.0232905
-0.0209926
-0.0185575
-0.0160347
-0.0134785
-0.0109481
-0.00850721
-0.00622386
-0.00417021
-0.00242209
-0.0010585
-0.000164809
0.00154035
0.00474633
0.00797394
0.0111438
0.0141958
0.0170833
0.019771
0.0222345
0.0244575
0.0264309
0.028151
0.0296181
0.0308356
0.0318085
0.0325431
0.033046
0.0333237
0.0333822
0.0332269
0.0328624
0.0322926
0.0315206
0.0305492
0.0293809
0.028018
0.0264634
0.0247203
0.0227931
0.0206869
0.0184088
0.0159672
0.0133724
0.0106369
0.00777538
0.00480467
0.00174401
-0.00138507
-0.00455883
-0.00775139
-0.010935
-0.0140801
-0.0171558
-0.0201303
-0.0229708
-0.0256449
-0.0281199
-0.0303646
-0.0323488
-0.0340448
-0.0354274
-0.0364749
-0.0371696
-0.0374984
-0.0374532
-0.0370316
-0.0362373
-0.0350801
-0.0335765
-0.0317497
-0.0296294
-0.0272519
-0.0246601
-0.0219029
-0.019035
-0.0161167
-0.0132135
-0.0103953
-0.00773648
-0.00531541
-0.0032135
-0.00151472
-0.00030841
0.00187403
0.0056822
0.00945176
0.0131077
0.0165941
0.0198676
0.0228966
0.0256595
0.0281427
0.0303397
0.0322488
0.0338722
0.035215
0.0362836
0.0370856
0.0376287
0.0379201
0.0379667
0.0377744
0.0373482
0.0366924
0.0358104
0.0347052
0.0333795
0.0318359
0.0300776
0.0281081
0.0259322
0.0235558
0.0209863
0.0182332
0.0153079
0.0122241
0.00899783
0.00564779
0.0021951
-0.00133651
-0.00492085
-0.00852934
-0.0121312
-0.0156938
-0.0191828
-0.0225626
-0.0257968
-0.0288486
-0.0316818
-0.0342605
-0.0365508
-0.0385209
-0.0401417
-0.041388
-0.0422389
-0.0426785
-0.0426967
-0.0422893
-0.0414593
-0.0402164
-0.0385779
-0.0365687
-0.0342209
-0.0315742
-0.0286758
-0.0255793
-0.0223451
-0.0190396
-0.0157345
-0.0125066
-0.0094368
-0.00660995
-0.00411354
-0.00203695
-0.000474146
0.00223439
0.00669081
0.0110414
0.0152162
0.0191637
0.022845
0.0262325
0.0293081
0.0320617
0.0344896
0.0365928
0.0383758
0.0398457
0.0410108
0.0418799
0.042462
0.0427655
0.042798
0.0425659
0.0420749
0.0413295
0.0403335
0.0390901
0.0376022
0.0358726
0.0339047
0.0317024
0.0292707
0.0266161
0.0237467
0.0206727
0.0174064
0.0139628
0.0103592
0.00661593
0.00275597
-0.00119484
-0.00520793
-0.00925206
-0.0132935
-0.0172964
-0.0212229
-0.0250337
-0.0286884
-0.0321462
-0.0353662
-0.0383084
-0.0409344
-0.0432078
-0.0450955
-0.0465682
-0.0476012
-0.0481754
-0.048278
-0.047903
-0.0470518
-0.0457338
-0.0439667
-0.0417768
-0.0391984
-0.0362748
-0.0330569
-0.0296036
-0.025981
-0.0222616
-0.018524
-0.0148519
-0.0113334
-0.00806017
-0.00512634
-0.00262734
-0.000662552
0.00262027
0.00776904
0.0127383
0.0174634
0.0218979
0.026008
0.0297707
0.0331721
0.036206
0.0388721
0.0411746
0.0431207
0.0447198
0.0459821
0.0469185
0.047539
0.0478534
0.04787
0.0475961
0.0470379
0.0462003
0.0450873
0.0437025
0.0420487
0.0401292
0.0379473
0.0355073
0.0328144
0.0298756
0.0266994
0.0232967
0.0196807
0.0158674
0.0118754
0.00772643
0.00344523
-0.000940367
-0.00539949
-0.00989831
-0.0144003
-0.0188662
-0.0232548
-0.0275229
-0.031626
-0.0355189
-0.0391563
-0.0424933
-0.0454868
-0.0480955
-0.0502815
-0.0520111
-0.0532552
-0.0539911
-0.0542024
-0.0538807
-0.0530256
-0.0516456
-0.0497583
-0.047391
-0.0445803
-0.0413724
-0.0378225
-0.0339945
-0.0299604
-0.0257992
-0.0215966
-0.0174438
-0.0134364
-0.0096737
-0.00625708
-0.00328876
-0.000874462
0.00303047
0.00891364
0.0145373
0.0198428
0.0247894
0.0293487
0.0335027
0.0372427
0.0405666
0.0434782
0.0459852
0.0480979
0.0498284
0.0511893
0.0521932
0.0528521
0.0531766
0.0531764
0.0528595
0.0522325
0.051301
0.0500693
0.0485409
0.0467191
0.0446071
0.0422084
0.0395273
0.0365695
0.033342
0.0298539
0.0261166
0.022144
0.0179528
0.0135629
0.00899731
0.00428229
-0.000552455
-0.00547389
-0.0104457
-0.0154285
-0.02038
-0.0252554
-0.0300076
-0.0345879
-0.0389466
-0.0430334
-0.0467987
-0.0501938
-0.0531723
-0.0556911
-0.0577112
-0.0591988
-0.0601265
-0.0604742
-0.0602302
-0.0593915
-0.0579652
-0.0559685
-0.0534292
-0.0503858
-0.0468874
-0.0429932
-0.0387723
-0.0343027
-0.0296704
-0.0249686
-0.0202963
-0.0157575
-0.0114596
-0.00751212
-0.00402489
-0.00111102
0.00346371
0.0101212
0.0164334
0.022348
0.0278304
0.0328582
0.0374194
0.0415101
0.0451336
0.0482979
0.0510147
0.0532977
0.0551622
0.0566232
0.0576955
0.0583929
0.0587276
0.0587102
0.0583498
0.0576536
0.0566275
0.0552763
0.0536036
0.0516128
0.0493072
0.0466904
0.0437668
0.0405419
0.0370232
0.0332199
0.0291439
0.0248094
0.0202341
0.0154386
0.010447
0.00528708
-9.81636e-06
-0.00540868
-0.0108709
-0.0163543
-0.0218136
-0.0272004
-0.0324638
-0.0375508
-0.0424069
-0.0469769
-0.0512055
-0.0550388
-0.0584244
-0.0613133
-0.0636609
-0.0654277
-0.0665812
-0.0670966
-0.066958
-0.0661596
-0.064706
-0.0626134
-0.0599098
-0.0566351
-0.0528411
-0.048591
-0.043959
-0.0390294
-0.0338954
-0.0286582
-0.0234256
-0.0183102
-0.0134285
-0.00889904
-0.00484025
-0.00137369
0.00391868
0.011388
0.0184208
0.0249717
0.0310125
0.0365274
0.0415106
0.0459641
0.0498964
0.0533205
0.0562524
0.0587097
0.0607108
0.0622738
0.0634158
0.0641526
0.064498
0.0644639
0.0640603
0.0632952
0.062175
0.0607046
0.0588881
0.0567288
0.0542301
0.0513954
0.0482292
0.0447371
0.0409263
0.0368065
0.0323894
0.0276899
0.0227259
0.0175189
0.0120939
0.00647972
0.000709219
-0.00518081
-0.0111496
-0.0171525
-0.0231412
-0.0290638
-0.0348656
-0.0404892
-0.0458753
-0.0509634
-0.0556925
-0.0600026
-0.0638352
-0.0671347
-0.06985
-0.0719355
-0.0733525
-0.0740708
-0.0740695
-0.0733387
-0.0718804
-0.0697088
-0.0668514
-0.063349
-0.0592559
-0.0546391
-0.0495781
-0.0441634
-0.0384962
-0.0326859
-0.0268496
-0.0211097
-0.0155926
-0.0104267
-0.00574022
-0.00166429
0.00439397
0.0127103
0.0204938
0.0277063
0.0343268
0.0403464
0.0457658
0.0505935
0.0548436
0.0585345
0.0616867
0.0643223
0.066463
0.0681303
0.0693438
0.0701213
0.0704786
0.0704289
0.0699833
0.0691506
0.0679376
0.0663497
0.064391
0.0620651
0.059375
0.0563243
0.0529173
0.0491593
0.0450577
0.0406217
0.0358633
0.0307975
0.0254425
0.0198202
0.0139561
0.00788017
0.00162636
-0.00476698
-0.0112572
-0.0177972
-0.0243359
-0.0308181
-0.0371853
-0.0433757
-0.0493249
-0.0549671
-0.0602354
-0.065063
-0.0693849
-0.0731385
-0.0762653
-0.0787126
-0.0804349
-0.0813953
-0.0815674
-0.0809362
-0.0794996
-0.0772695
-0.074272
-0.0705484
-0.0661549
-0.061162
-0.0556545
-0.0497297
-0.0434966
-0.0370739
-0.0305884
-0.0241732
-0.0179658
-0.0121054
-0.00673106
-0.00198496
0.00488807
0.0140839
0.0226462
0.030544
0.037764
0.0443047
0.0501738
0.0553865
0.0599631
0.0639275
0.0673054
0.0701233
0.0724069
0.074181
0.075468
0.0762882
0.0766591
0.0765957
0.07611
0.0752117
0.0739083
0.0722055
0.0701076
0.0676181
0.0647401
0.0614768
0.0578323
0.0538117
0.0494221
0.0446724
0.0395746
0.0341433
0.0283969
0.0223574
0.0160509
0.00950779
0.00276297
-0.00414394
-0.0111686
-0.0182618
-0.0253699
-0.0324346
-0.0393936
-0.0461806
-0.0527264
-0.0589595
-0.0648066
-0.0701944
-0.0750504
-0.0793042
-0.0828895
-0.0857457
-0.0878192
-0.0890657
-0.0894519
-0.0889566
-0.0875729
-0.085309
-0.082189
-0.0782539
-0.0735611
-0.0681847
-0.0622144
-0.0557545
-0.0489223
-0.0418461
-0.0346638
-0.0275198
-0.0205635
-0.0139465
-0.00781994
-0.00233817
0.00539942
0.0155047
0.0248712
0.0334762
0.0413141
0.0483912
0.0547226
0.0603304
0.0652418
0.0694863
0.0730952
0.0760995
0.0785294
0.080413
0.081776
0.0826411
0.0830281
0.0829532
0.0824301
0.0814693
0.0800788
0.0782648
0.0760317
0.0733831
0.0703218
0.0668508
0.0629738
0.0586956
0.0540227
0.0489638
0.0435302
0.0377365
0.0316006
0.0251445
0.0183944
0.0113809
0.00413959
-0.00328893
-0.010859
-0.0185197
-0.0262149
-0.0338835
-0.0414594
-0.0488723
-0.0560479
-0.0629089
-0.0693756
-0.0753675
-0.0808043
-0.0856073
-0.0897015
-0.0930173
-0.0954922
-0.0970734
-0.0977192
-0.0974014
-0.0961067
-0.0938386
-0.0906182
-0.086485
-0.0814975
-0.0757325
-0.0692847
-0.0622653
-0.0548004
-0.0470287
-0.0390995
-0.03117
-0.0234029
-0.015963
-0.00901494
-0.00272675
0.00592633
0.0169681
0.0271621
0.0364941
0.0449667
0.0525942
0.0593995
0.0654122
0.0706659
0.0751969
0.0790417
0.0822367
0.0848163
0.0868125
0.0882542
0.089167
0.0895726
0.0894894
0.0889322
0.0879124
0.086439
0.0845184
0.0821553
0.079353
0.0761144
0.072442
0.0683391
0.0638099
0.0588604
0.0534985
0.0477351
0.0415841
0.0350629
0.0281931
0.0210007
0.0135162
0.00577552
-0.00218021
-0.0103043
-0.0185444
-0.0268423
-0.0351342
-0.0433508
-0.0514175
-0.0592553
-0.0667809
-0.0739082
-0.0805491
-0.0866151
-0.0920186
-0.096675
-0.100505
-0.103436
-0.105405
-0.106361
-0.106268
-0.105104
-0.102867
-0.0995731
-0.0952601
-0.0899863
-0.0838307
-0.0768928
-0.0692906
-0.0611594
-0.052649
-0.0439211
-0.0351467
-0.0265027
-0.018169
-0.010325
-0.00315387
0.00646705
0.0184692
0.0295116
0.0395884
0.0487109
0.0569015
0.0641914
0.0706176
0.0762211
0.0810443
0.0851301
0.0885197
0.0912525
0.0933644
0.0948878
0.0958511
0.0962786
0.0961904
0.0956028
0.0945285
0.092977
0.0909552
0.0884681
0.0855188
0.08211
0.0782439
0.0739231
0.0691512
0.0639334
0.0582769
0.0521917
0.0456907
0.0387908
0.0315127
0.0238818
0.0159284
0.00768819
-0.000797488
-0.00948136
-0.0183099
-0.0272235
-0.0361558
-0.0450345
-0.0537813
-0.0623122
-0.0705383
-0.0783669
-0.0857021
-0.0924468
-0.098504
-0.103779
-0.108181
-0.111627
-0.114042
-0.115365
-0.115549
-0.114564
-0.112398
-0.109064
-0.104595
-0.0990481
-0.0925038
-0.085066
-0.0768595
-0.0680291
-0.0587361
-0.0491558
-0.0394738
-0.0298832
-0.02058
-0.01176
-0.00362304
0.00701972
0.0200033
0.0319121
0.0427495
0.0525352
0.0613004
0.0690844
0.0759322
0.081892
0.087013
0.0913442
0.0949324
0.0978217
0.100052
0.101661
0.102678
0.10313
0.103041
0.102427
0.101303
0.0996788
0.097562
0.0949576
0.091869
0.0882983
0.0842473
0.0797179
0.0747131
0.0692371
0.0632961
0.056899
0.0500577
0.042788
0.0351095
0.0270469
0.0186295
0.00989268
0.000877421
-0.0083688
-0.0177919
-0.0273308
-0.0369175
-0.0464771
-0.0559275
-0.0651804
-0.0741414
-0.0827109
-0.0907855
-0.0982589
-0.105024
-0.110976
-0.116011
-0.120034
-0.122959
-0.124712
-0.125232
-0.124479
-0.122433
-0.119098
-0.114503
-0.108701
-0.101775
-0.0938311
-0.0850013
-0.0754398
-0.0653202
-0.0548321
-0.0441774
-0.0335663
-0.0232128
-0.0133307
-0.00413812
0.00758243
0.021565
0.0343557
0.0459671
0.0564277
0.0657775
0.0740641
0.0813406
0.0876626
0.0930864
0.0976672
0.101458
0.104507
0.106859
0.108555
0.109629
0.11011
0.110023
0.109388
0.108219
0.106528
0.104323
0.101609
0.0983893
0.0946657
0.0904397
0.0857125
0.080486
0.0747633
0.0685497
0.0618526
0.0546829
0.0470547
0.0389866
0.0305017
0.0216284
0.0124011
0.00286004
-0.00694754
-0.0169674
-0.0271378
-0.0373894
-0.047645
-0.0578195
-0.0678204
-0.0775481
-0.0868964
-0.0957542
-0.104006
-0.111535
-0.118223
-0.123955
-0.128623
-0.132125
-0.134374
-0.135296
-0.134837
-0.132966
-0.129677
-0.124992
-0.118961
-0.111665
-0.103214
-0.0937448
-0.0834222
-0.0724322
-0.0609799
-0.0492845
-0.0375751
-0.0260853
-0.0150487
-0.00470331
0.00815317
0.023149
0.0368345
0.0492311
0.0603764
0.0703191
0.0791156
0.0868269
0.0935164
0.0992473
0.104081
0.108077
0.111289
0.113766
0.115552
0.116686
0.1172
0.117119
0.116467
0.115258
0.113507
0.11122
0.108404
0.105063
0.101196
0.0968058
0.0918923
0.0864564
0.0805003
0.0740276
0.0670445
0.0595602
0.0515873
0.0431428
0.0342481
0.0249302
0.0152219
0.00516259
-0.00520147
-0.0158164
-0.0266203
-0.037543
-0.0485056
-0.0594207
-0.0701919
-0.0807147
-0.090877
-0.10056
-0.109639
-0.117985
-0.125471
-0.131966
-0.137348
-0.141501
-0.144319
-0.145714
-0.145618
-0.143985
-0.140797
-0.136067
-0.12984
-0.122193
-0.113238
-0.103118
-0.0920068
-0.0801038
-0.0676301
-0.0548237
-0.0419343
-0.0292168
-0.0169264
-0.00532314
0.00872991
0.02475
0.03934
0.0525307
0.0643687
0.0749114
0.0842237
0.0923749
0.0994361
0.105478
0.110568
0.114772
0.118149
0.120753
0.122633
0.123829
0.124378
0.124307
0.123642
0.1224
0.120594
0.118233
0.115323
0.111869
0.10787
0.103327
0.0982393
0.0926076
0.0864322
0.0797155
0.072462
0.0646792
0.0563777
0.0475726
0.0382836
0.0285355
0.0183596
0.00779336
-0.00311809
-0.0143219
-0.0257566
-0.0373518
-0.0490277
-0.0606949
-0.0722541
-0.0835965
-0.0946041
-0.105151
-0.115103
-0.124321
-0.132665
-0.139991
-0.146159
-0.151037
-0.154503
-0.156451
-0.156793
-0.155469
-0.152446
-0.147726
-0.141343
-0.133372
-0.123924
-0.113147
-0.101223
-0.0883665
-0.0748141
-0.0608245
-0.0466695
-0.0326275
-0.0189772
-0.00600251
0.00931058
0.0263624
0.041864
0.0558554
0.0683919
0.0795399
0.0893727
0.0979678
0.105404
0.111759
0.117109
0.121523
0.125067
0.1278
0.129774
0.131035
0.131622
0.131565
0.130892
0.12962
0.127765
0.125337
0.122343
0.118784
0.114663
0.10998
0.104732
0.0989184
0.0925392
0.0855949
0.0780882
0.0700247
0.061413
0.0522659
0.0426009
0.0324405
0.0218137
0.0107561
-0.00068917
-0.0124708
-0.0245285
-0.0367924
-0.0491824
-0.0616078
-0.0739673
-0.0861483
-0.0980278
-0.109473
-0.120341
-0.130483
-0.139744
-0.147967
-0.154996
-0.16068
-0.164877
-0.167461
-0.168326
-0.167391
-0.164606
-0.159958
-0.153471
-0.145211
-0.135289
-0.123855
-0.111101
-0.0972514
-0.0825638
-0.0673172
-0.0518076
-0.0363387
-0.0212151
-0.00674664
0.00989308
0.0279806
0.044398
0.0591942
0.0724334
0.0841903
0.0945468
0.103589
0.111402
0.118073
0.123683
0.128308
0.13202
0.134883
0.136954
0.138282
0.138908
0.138868
0.13819
0.136894
0.134996
0.132508
0.129436
0.125783
0.121551
0.116739
0.111344
0.105364
0.0987971
0.0916427
0.0839015
0.0755769
0.0666754
0.0572073
0.0471874
0.0366358
0.0255789
0.0140496
0.0020886
-0.0102549
-0.0229223
-0.0358451
-0.0489438
-0.0621275
-0.0752932
-0.0883258
-0.101098
-0.11347
-0.125293
-0.136406
-0.146642
-0.155828
-0.163792
-0.170364
-0.175379
-0.178691
-0.180169
-0.179712
-0.177249
-0.172747
-0.166216
-0.157714
-0.147346
-0.135263
-0.121664
-0.106789
-0.0909106
-0.0743326
-0.0573761
-0.0403727
-0.023655
-0.00756108
0.0104754
0.0295992
0.0469337
0.0625366
0.0764804
0.0888482
0.0997303
0.10922
0.117413
0.1244
0.13027
0.135107
0.138988
0.141981
0.144148
0.145544
0.146212
0.14619
0.145509
0.144193
0.142257
0.139715
0.136573
0.132836
0.128503
0.123574
0.118046
0.111915
0.105177
0.0978313
0.0898754
0.0813109
0.0721418
0.0623759
0.0520251
0.0411068
0.029644
0.0176668
0.00521304
-0.00767097
-0.0209292
-0.034495
-0.0482905
-0.0622253
-0.0761961
-0.0900861
-0.103764
-0.117087
-0.129896
-0.142022
-0.153286
-0.1635
-0.172473
-0.180015
-0.185939
-0.190074
-0.192265
-0.192383
-0.190334
-0.186064
-0.179564
-0.170877
-0.160101
-0.147387
-0.132938
-0.117007
-0.0998857
-0.0819015
-0.0634033
-0.0447526
-0.0263125
-0.00845171
0.0110554
0.0312127
0.049463
0.0658721
0.0805205
0.0934996
0.104908
0.114846
0.123417
0.130719
0.13685
0.141898
0.145946
0.149068
0.151332
0.152795
0.153505
0.153503
0.152822
0.151487
0.149518
0.146927
0.143723
0.139909
0.135487
0.130453
0.124805
0.118538
0.111647
0.104128
0.0959787
0.0871967
0.0777841
0.0677457
0.0570905
0.0458327
0.033992
0.021595
0.00867602
-0.0047219
-0.018546
-0.0327325
-0.0472058
-0.0618772
-0.0766442
-0.0913893
-0.10598
-0.120267
-0.134088
-0.147263
-0.159602
-0.170903
-0.180957
-0.189551
-0.196477
-0.201536
-0.204543
-0.205344
-0.203813
-0.199872
-0.193488
-0.184687
-0.173554
-0.160236
-0.144941
-0.127931
-0.109519
-0.0900546
-0.0699178
-0.0495021
-0.0292038
-0.00942475
0.0116312
0.0328162
0.0519781
0.0691906
0.0845417
0.0981305
0.110063
0.120448
0.129396
0.137013
0.143402
0.148658
0.152871
0.156121
0.158479
0.160007
0.160758
0.160776
0.160096
0.158746
0.156746
0.154112
0.150851
0.146968
0.142465
0.137338
0.131584
0.125196
0.11817
0.110498
0.102175
0.0931995
0.0835687
0.073285
0.0623543
0.0507871
0.0385997
0.0258149
0.012463
-0.0014169
-0.0157759
-0.030554
-0.0456789
-0.0610646
-0.0766103
-0.0921994
-0.107698
-0.122956
-0.137805
-0.152057
-0.165513
-0.177954
-0.189156
-0.198884
-0.206904
-0.212988
-0.216923
-0.21852
-0.217623
-0.214119
-0.207951
-0.19912
-0.187695
-0.173815
-0.157687
-0.139585
-0.119838
-0.0988219
-0.0769483
-0.0546455
-0.0323457
-0.0104867
0.012201
0.0344047
0.0544717
0.0724826
0.0885326
0.102728
0.115182
0.126012
0.135333
0.143261
0.149904
0.155365
0.15974
0.163114
0.165563
0.167154
0.167943
0.167979
0.167299
0.165934
0.163906
0.161231
0.157919
0.153974
0.149399
0.14419
0.138342
0.131849
0.124704
0.116898
0.108426
0.0992797
0.0894572
0.0789569
0.0677814
0.0559377
0.043438
0.0303011
0.0165529
0.00222808
-0.0126291
-0.0279631
-0.0437058
-0.0597751
-0.0760733
-0.092486
-0.10888
-0.125104
-0.140986
-0.156334
-0.170937
-0.184566
-0.196977
-0.207914
-0.21712
-0.224334
-0.229312
-0.231827
-0.231687
-0.228743
-0.222904
-0.214143
-0.202506
-0.188119
-0.171186
-0.151986
-0.130868
-0.108232
-0.0845232
-0.0602073
-0.0357555
-0.0116444
0.0127632
0.0359738
0.0569369
0.0757393
0.0924825
0.10728
0.120251
0.131519
0.14121
0.149443
0.156336
0.161997
0.166528
0.17002
0.172555
0.174204
0.175028
0.175079
0.174397
0.173016
0.17096
0.168247
0.164887
0.160887
0.156247
0.150965
0.145036
0.138452
0.131205
0.123286
0.114684
0.105393
0.0954064
0.0847194
0.0733316
0.0612462
0.0484715
0.0350217
0.020918
0.00619011
-0.00912276
-0.0249703
-0.0412897
-0.0580036
-0.075019
-0.0922248
-0.109491
-0.126666
-0.143576
-0.160026
-0.175798
-0.19065
-0.204323
-0.216541
-0.227018
-0.235467
-0.241604
-0.245164
-0.245915
-0.243666
-0.238285
-0.229709
-0.217957
-0.203134
-0.185437
-0.165148
-0.14263
-0.118312
-0.0926703
-0.0662122
-0.0394509
-0.0129049
0.0133162
0.0375198
0.0593681
0.0789531
0.0963821
0.111774
0.125256
0.136957
0.14701
0.155543
0.162678
0.168531
0.173211
0.176814
0.179427
0.181128
0.181981
0.182042
0.181355
0.179955
0.17787
0.175119
0.171714
0.167662
0.162964
0.157619
0.15162
0.144959
0.137626
0.129611
0.120904
0.111492
0.101369
0.090526
0.0789597
0.0666694
0.0536591
0.0399384
0.0255238
0.0104393
-0.00528149
-0.0215941
-0.0384418
-0.0557533
-0.0734411
-0.0913993
-0.109502
-0.1276
-0.145522
-0.163069
-0.180018
-0.196118
-0.211096
-0.224656
-0.236487
-0.246269
-0.253683
-0.258422
-0.260205
-0.258796
-0.254015
-0.245757
-0.234004
-0.218836
-0.200433
-0.179077
-0.155144
-0.129086
-0.101416
-0.0726848
-0.0434499
-0.0142755
0.0138589
0.0390395
0.0617602
0.0821174
0.100223
0.116201
0.130185
0.142312
0.152718
0.161541
0.168909
0.174945
0.179763
0.183468
0.186152
0.187895
0.18877
0.188833
0.188134
0.186712
0.184595
0.181805
0.178356
0.174255
0.169505
0.164103
0.158044
0.151319
0.143916
0.135825
0.127032
0.117525
0.107293
0.0963259
0.0846158
0.0721587
0.0589543
0.0450075
0.0303295
0.0149388
-0.00113723
-0.0178607
-0.0351815
-0.0530355
-0.071342
-0.0900019
-0.108895
-0.127877
-0.14678
-0.165404
-0.183525
-0.200884
-0.217197
-0.23215
-0.245408
-0.256618
-0.265425
-0.271475
-0.274439
-0.274026
-0.270002
-0.262213
-0.250593
-0.235188
-0.216157
-0.193773
-0.16842
-0.140574
-0.110786
-0.0796491
-0.0477707
-0.0157638
0.0143904
0.0405305
0.0641097
0.0852273
0.103999
0.120554
0.13503
0.14757
0.15832
0.167421
0.17501
0.181217
0.186163
0.189957
0.192699
0.194475
0.19536
0.195417
0.194699
0.193247
0.191094
0.188262
0.184768
0.18062
0.175821
0.170369
0.164259
0.15748
0.150023
0.141872
0.133016
0.123438
0.113125
0.102065
0.0902462
0.0776614
0.0643058
0.0501796
0.0352885
0.0196454
0.00327097
-0.0138038
-0.0315364