/*--------------------------------*- C++ -*----------------------------------*\
  =========                 |
  \\      /  F ield         | OpenFOAM: The Open Source CFD Toolbox
   \\    /   O peration     | Website:  https://openfoam.org
    \\  /    A nd           | Version:  dev
     \\/     M anipulation  |
\*---------------------------------------------------------------------------*/
FoamFile
{
    format      ascii;
    class       surfaceScalarField;
    location    "31.95";
    object      phi;
}
// * * * * * * * * * * * * * * * * * * * * * * * * * * * * * * * * * * * * * //

dimensions      [0 3 -1 0 0 0 0];

internalField   nonuniform List<scalar> 
10224
(
3.37094e-08
-3.49696e-08
8.78139e-08
-5.41055e-08
1.24394e-07
-3.65798e-08
1.25368e-07
-9.73157e-10
8.37453e-08
4.16235e-08
-1.74311e-09
8.54892e-08
-1.29269e-07
1.27527e-07
-2.9553e-07
1.6626e-07
-4.96462e-07
2.00932e-07
-7.27765e-07
2.31303e-07
-9.85169e-07
2.57403e-07
-1.26458e-06
2.79412e-07
-1.56216e-06
2.97581e-07
-1.87436e-06
3.12195e-07
-2.19789e-06
3.23538e-07
-2.52977e-06
3.31877e-07
-2.86722e-06
3.37448e-07
-3.20767e-06
3.40453e-07
-3.54872e-06
3.41052e-07
-3.88809e-06
3.39367e-07
-4.22358e-06
3.35486e-07
-4.55304e-06
3.29459e-07
-4.87435e-06
3.21312e-07
-5.1854e-06
3.11048e-07
-5.48405e-06
2.98654e-07
-5.76816e-06
2.8411e-07
-6.03555e-06
2.67393e-07
-6.28404e-06
2.48487e-07
-6.51142e-06
2.27387e-07
-6.71553e-06
2.04108e-07
-6.89422e-06
1.78687e-07
-7.04541e-06
1.51192e-07
-7.16713e-06
1.21725e-07
-7.25756e-06
9.04267e-08
-7.31503e-06
5.74761e-08
-7.33813e-06
2.30963e-08
-7.32568e-06
-1.24471e-08
-7.27683e-06
-4.88455e-08
-7.19108e-06
-8.57495e-08
-7.06831e-06
-1.22772e-07
-6.90881e-06
-1.59492e-07
-6.71335e-06
-1.95461e-07
-6.48314e-06
-2.30208e-07
-6.21989e-06
-2.6325e-07
-5.92579e-06
-2.941e-07
-5.60352e-06
-3.22275e-07
-5.2562e-06
-3.4731e-07
-4.88744e-06
-3.68766e-07
-4.50119e-06
-3.86241e-07
-4.10181e-06
-3.99382e-07
-3.69392e-06
-4.07891e-07
-3.28238e-06
-4.1154e-07
-2.8722e-06
-4.10173e-07
-2.46849e-06
-4.03714e-07
-2.07632e-06
-3.92174e-07
-1.70067e-06
-3.75647e-07
-1.34635e-06
-3.5432e-07
-1.01788e-06
-3.28466e-07
-7.19427e-07
-2.98448e-07
-4.54711e-07
-2.64715e-07
-2.26906e-07
-2.27804e-07
-3.85575e-08
-1.88347e-07
1.08527e-07
-1.47084e-07
2.13411e-07
-1.04884e-07
2.76208e-07
-6.27971e-08
2.98351e-07
-2.21423e-08
2.83018e-07
1.53342e-08
2.35806e-07
4.72145e-08
1.6578e-07
7.00317e-08
8.72358e-08
7.85493e-08
2.25502e-08
6.46823e-08
2.25372e-08
5.38635e-08
-8.88339e-08
1.12387e-07
-1.12629e-07
1.18208e-07
-4.23994e-08
3.89157e-08
7.8322e-08
-1.41899e-07
2.2244e-07
-4.29559e-07
3.7315e-07
-8.223e-07
5.20267e-07
-1.31398e-06
6.57936e-07
-1.89602e-06
7.82978e-07
-2.55862e-06
8.93907e-07
-3.29151e-06
9.90288e-07
-4.08442e-06
1.07233e-06
-4.92745e-06
1.14061e-06
-5.81114e-06
1.19589e-06
-6.72662e-06
1.23901e-06
-7.66555e-06
1.2708e-06
-8.62012e-06
1.29202e-06
-9.58299e-06
1.30333e-06
-1.05472e-05
1.30527e-06
-1.15061e-05
1.29828e-06
-1.24533e-05
1.28267e-06
-1.33825e-05
1.25864e-06
-1.42875e-05
1.22632e-06
-1.51622e-05
1.18574e-06
-1.60004e-05
1.13692e-06
-1.67962e-05
1.07983e-06
-1.75432e-05
1.01444e-06
-1.82355e-05
9.40743e-07
-1.88669e-05
8.58795e-07
-1.94315e-05
7.68706e-07
-1.99235e-05
6.70679e-07
-2.03373e-05
5.65025e-07
-2.06677e-05
4.52179e-07
-2.091e-05
3.32708e-07
-2.10599e-05
2.07327e-07
-2.11137e-05
7.68999e-08
-2.10686e-05
-5.75572e-08
-2.09225e-05
-1.9488e-07
-2.06745e-05
-3.3376e-07
-2.03245e-05
-4.7276e-07
-1.98737e-05
-6.10328e-07
-1.93243e-05
-7.44817e-07
-1.868e-05
-8.74512e-07
-1.79456e-05
-9.97657e-07
-1.71272e-05
-1.11249e-06
-1.62323e-05
-1.21726e-06
-1.52693e-05
-1.31031e-06
-1.4248e-05
-1.39005e-06
-1.31792e-05
-1.45506e-06
-1.20745e-05
-1.50407e-06
-1.09464e-05
-1.53603e-06
-9.80777e-06
-1.55012e-06
-8.67213e-06
-1.54582e-06
-7.55297e-06
-1.52287e-06
-6.46382e-06
-1.48133e-06
-5.4179e-06
-1.42157e-06
-4.42792e-06
-1.3443e-06
-3.50583e-06
-1.25056e-06
-2.66257e-06
-1.14171e-06
-1.90784e-06
-1.01945e-06
-1.24981e-06
-8.85831e-07
-6.94888e-07
-7.43272e-07
-2.47373e-07
-5.946e-07
9.08884e-08
-4.43144e-07
3.20975e-07
-2.92882e-07
4.47487e-07
-1.48651e-07
4.79422e-07
-1.65975e-08
4.3126e-07
9.53787e-08
3.24444e-07
1.76847e-07
1.88999e-07
2.14001e-07
6.43888e-08
1.89302e-07
8.69227e-08
3.73292e-08
-1.26164e-07
4.33042e-08
-1.18602e-07
-4.32883e-08
4.41952e-08
-2.58738e-07
2.93773e-07
-6.22667e-07
5.86368e-07
-1.14219e-06
8.92674e-07
-1.81558e-06
1.19365e-06
-2.63517e-06
1.47753e-06
-3.58961e-06
1.73741e-06
-4.66536e-06
1.96966e-06
-5.84785e-06
2.17278e-06
-7.1222e-06
2.34668e-06
-8.4737e-06
2.49211e-06
-9.8881e-06
2.61029e-06
-1.13518e-05
2.7027e-06
-1.28518e-05
2.77082e-06
-1.43759e-05
2.8161e-06
-1.59123e-05
2.83979e-06
-1.74501e-05
2.84298e-06
-1.89783e-05
2.82652e-06
-2.04867e-05
2.79105e-06
-2.19651e-05
2.73704e-06
-2.34035e-05
2.66475e-06
-2.47921e-05
2.57433e-06
-2.6121e-05
2.46585e-06
-2.73805e-05
2.33934e-06
-2.85609e-05
2.19482e-06
-2.96526e-05
2.03238e-06
-3.0646e-05
1.8522e-06
-3.15319e-05
1.65463e-06
-3.23014e-05
1.4402e-06
-3.2946e-05
1.20964e-06
-3.34578e-05
9.63968e-07
-3.38296e-05
7.04475e-07
-3.4055e-05
4.32743e-07
-3.41288e-05
1.50667e-07
-3.40468e-05
-1.3955e-07
-3.38062e-05
-4.354e-07
-3.34059e-05
-7.34089e-07
-3.28461e-05
-1.03256e-06
-3.21289e-05
-1.32753e-06
-3.12582e-05
-1.61553e-06
-3.02397e-05
-1.89295e-06
-2.90813e-05
-2.15612e-06
-2.77924e-05
-2.40136e-06
-2.63846e-05
-2.62505e-06
-2.48712e-05
-2.82369e-06
-2.32672e-05
-2.99404e-06
-2.15892e-05
-3.13311e-06
-1.9855e-05
-3.2383e-06
-1.80835e-05
-3.30745e-06
-1.62948e-05
-3.33889e-06
-1.4509e-05
-3.33153e-06
-1.2747e-05
-3.28487e-06
-1.10293e-05
-3.19907e-06
-9.37593e-06
-3.07494e-06
-7.80621e-06
-2.91402e-06
-6.33826e-06
-2.71851e-06
-4.98862e-06
-2.49135e-06
-3.77187e-06
-2.23619e-06
-2.70027e-06
-1.95743e-06
-1.78328e-06
-1.66026e-06
-1.02713e-06
-1.35075e-06
-4.34289e-07
-1.03598e-06
-2.85312e-09
-7.24319e-07
2.74262e-07
-4.25769e-07
4.10126e-07
-1.52464e-07
4.24983e-07
8.05188e-08
3.47465e-07
2.54361e-07
2.15779e-07
3.45683e-07
7.86535e-08
3.26432e-07
1.65581e-07
1.90356e-09
-1.28067e-07
-7.89543e-08
-3.77409e-08
-2.97651e-07
2.62894e-07
-6.8792e-07
6.84042e-07
-1.26808e-06
1.16653e-06
-2.04442e-06
1.66901e-06
-3.01413e-06
2.16337e-06
-4.16797e-06
2.63137e-06
-5.49233e-06
3.06177e-06
-6.97089e-06
3.44822e-06
-8.58581e-06
3.7877e-06
-1.03186e-05
4.07948e-06
-1.21508e-05
4.32426e-06
-1.40641e-05
4.52364e-06
-1.60411e-05
4.67965e-06
-1.80647e-05
4.79449e-06
-2.01189e-05
4.87028e-06
-2.21881e-05
4.90898e-06
-2.42574e-05
4.91225e-06
-2.63123e-05
4.88146e-06
-2.83389e-05
4.81766e-06
-3.03235e-05
4.72159e-06
-3.22525e-05
4.59376e-06
-3.41127e-05
4.4345e-06
-3.58908e-05
4.24398e-06
-3.75738e-05
4.02234e-06
-3.91487e-05
3.76976e-06
-4.06028e-05
3.4865e-06
-4.19236e-05
3.17301e-06
-4.3099e-05
2.82999e-06
-4.41173e-05
2.45847e-06
-4.49675e-05
2.05984e-06
-4.56394e-05
1.63592e-06
-4.61239e-05
1.18899e-06
-4.6413e-05
7.21839e-07
-4.65001e-05
2.37736e-07
-4.63801e-05
-2.59534e-07
-4.60498e-05
-7.65693e-07
-4.55079e-05
-1.276e-06
-4.47552e-05
-1.7853e-06
-4.37946e-05
-2.28806e-06
-4.26317e-05
-2.77847e-06
-4.12741e-05
-3.2505e-06
-3.97322e-05
-3.69803e-06
-3.80187e-05
-4.11493e-06
-3.61485e-05
-4.49518e-06
-3.41392e-05
-4.833e-06
-3.20103e-05
-5.123e-06
-2.97831e-05
-5.36025e-06
-2.7481e-05
-5.54046e-06
-2.51284e-05
-5.66005e-06
-2.2751e-05
-5.7163e-06
-2.03751e-05
-5.70739e-06
-1.80274e-05
-5.63255e-06
-1.57344e-05
-5.49206e-06
-1.3522e-05
-5.28735e-06
-1.14151e-05
-5.02097e-06
-9.43687e-06
-4.6967e-06
-7.60872e-06
-4.3195e-06
-5.94935e-06
-3.89556e-06
-4.47447e-06
-3.43231e-06
-3.19617e-06
-2.93855e-06
-2.12244e-06
-2.42448e-06
-1.25645e-06
-1.90197e-06
-5.95969e-07
-1.3848e-06
-1.32547e-07
-8.89193e-07
1.49321e-07
-4.3433e-07
2.73105e-07
-4.32569e-08
2.71267e-07
2.56205e-07
1.86309e-07
4.30638e-07
7.2218e-08
4.40522e-07
2.37804e-07
-4.20528e-08
-8.60134e-08
-2.30032e-07
1.5024e-07
-6.06556e-07
6.39419e-07
-1.19822e-06
1.2757e-06
-2.01876e-06
1.98707e-06
-3.07136e-06
2.72161e-06
-4.35083e-06
3.44284e-06
-5.84575e-06
4.12629e-06
-7.54025e-06
4.75627e-06
-9.41552e-06
5.32349e-06
-1.1451e-05
5.82319e-06
-1.36253e-05
6.25376e-06
-1.59167e-05
6.61571e-06
-1.83039e-05
6.91084e-06
-2.0766e-05
7.14168e-06
-2.32826e-05
7.31108e-06
-2.58341e-05
7.42185e-06
-2.84018e-05
7.47663e-06
-3.09672e-05
7.47771e-06
-3.35127e-05
7.42698e-06
-3.6021e-05
7.32594e-06
-3.84751e-05
7.17569e-06
-4.08584e-05
6.97701e-06
-4.31543e-05
6.73044e-06
-4.53467e-05
6.43636e-06
-4.74194e-05
6.09509e-06
-4.93567e-05
5.70703e-06
-5.11429e-05
5.27274e-06
-5.2763e-05
4.79305e-06
-5.42022e-05
4.26919e-06
-5.54465e-05
3.70283e-06
-5.6483e-05
3.09624e-06
-5.72993e-05
2.45227e-06
-5.78848e-05
1.77447e-06
-5.823e-05
1.06708e-06
-5.83274e-05
3.35101e-07
-5.81712e-05
-4.15768e-07
-5.77577e-05
-1.17911e-06
-5.70859e-05
-1.94783e-06
-5.61569e-05
-2.71426e-06
-5.49748e-05
-3.47021e-06
-5.35462e-05
-4.20707e-06
-5.18807e-05
-4.91596e-06
-4.99909e-05
-5.58785e-06
-4.78921e-05
-6.21372e-06
-4.56025e-05
-6.78475e-06
-4.31431e-05
-7.29248e-06
-4.05371e-05
-7.72897e-06
-3.78103e-05
-8.08703e-06
-3.49904e-05
-8.36036e-06
-3.21067e-05
-8.54375e-06
-2.91898e-05
-8.63319e-06
-2.62712e-05
-8.62607e-06
-2.33825e-05
-8.52125e-06
-2.05553e-05
-8.31918e-06
-1.78207e-05
-8.02197e-06
-1.52082e-05
-7.63345e-06
-1.27457e-05
-7.1592e-06
-1.04586e-05
-6.60661e-06
-8.36933e-06
-5.98486e-06
-6.49664e-06
-5.30501e-06
-4.85514e-06
-4.58005e-06
-3.45456e-06
-3.82506e-06
-2.29913e-06
-3.05739e-06
-1.38688e-06
-2.29705e-06
-7.08975e-07
-1.5671e-06
-2.4893e-07
-8.94378e-07
1.8116e-08
-3.10299e-07
1.26218e-07
1.48109e-07
1.19518e-07
4.37337e-07
5.36641e-08
5.06376e-07
2.91471e-07
-8.94368e-08
3.42384e-09
-3.95347e-07
4.56151e-07
-9.45113e-07
1.18919e-06
-1.75532e-06
2.08591e-06
-2.83278e-06
3.06453e-06
-4.17573e-06
4.06455e-06
-5.77531e-06
5.04243e-06
-7.61715e-06
5.96813e-06
-9.68278e-06
6.82189e-06
-1.19509e-05
7.5916e-06
-1.43984e-05
8.27073e-06
-1.70014e-05
8.85674e-06
-1.97355e-05
9.34982e-06
-2.25766e-05
9.75191e-06
-2.55009e-05
1.0066e-05
-2.84852e-05
1.02954e-05
-3.1507e-05
1.04437e-05
-3.45445e-05
1.05141e-05
-3.75765e-05
1.05097e-05
-4.05822e-05
1.04327e-05
-4.35414e-05
1.02852e-05
-4.64342e-05
1.00686e-05
-4.92412e-05
9.784e-06
-5.19431e-05
9.43228e-06
-5.45207e-05
9.01403e-06
-5.69555e-05
8.52983e-06
-5.92289e-05
7.98041e-06
-6.13228e-05
7.36671e-06
-6.32199e-05
6.69009e-06
-6.49031e-05
5.95242e-06
-6.63565e-05
5.15624e-06
-6.75651e-05
4.30482e-06
-6.85151e-05
3.40229e-06
-6.91943e-05
2.45369e-06
-6.95922e-05
1.465e-06
-6.97003e-05
4.43193e-07
-6.95123e-05
-6.03785e-07
-6.90244e-05
-1.66706e-06
-6.82353e-05
-2.73687e-06
-6.71469e-05
-3.80266e-06
-6.57639e-05
-4.85322e-06
-6.40942e-05
-5.87678e-06
-6.2149e-05
-6.86122e-06
-5.99426e-05
-7.79424e-06
-5.74927e-05
-8.66358e-06
-5.48202e-05
-9.45724e-06
-5.1949e-05
-1.01637e-05
-4.89057e-05
-1.07722e-05
-4.57197e-05
-1.1273e-05
-4.24225e-05
-1.16576e-05
-3.90476e-05
-1.19187e-05
-3.56297e-05
-1.2051e-05
-3.22048e-05
-1.2051e-05
-2.88091e-05
-1.1917e-05
-2.54786e-05
-1.16497e-05
-2.22486e-05
-1.12519e-05
-1.91532e-05
-1.07289e-05
-1.62241e-05
-1.00883e-05
-1.34905e-05
-9.34017e-06
-1.09783e-05
-8.49706e-06
-8.70924e-06
-7.57407e-06
-6.70038e-06
-6.58891e-06
-4.9634e-06
-5.56203e-06
-3.50397e-06
-4.51682e-06
-2.32105e-06
-3.47997e-06
-1.40626e-06
-2.48188e-06
-7.43302e-07
-1.55734e-06
-3.07328e-07
-7.46276e-07
-6.43554e-08
-9.48622e-08
2.93686e-08
3.43611e-07
2.83173e-08
5.0743e-07
3.19789e-07
-1.37644e-07
1.41068e-07
-5.66322e-07
8.84827e-07
-1.2975e-06
1.92036e-06
-2.33627e-06
3.12468e-06
-3.68094e-06
4.4092e-06
-5.32344e-06
5.70705e-06
-7.25017e-06
6.96915e-06
-9.44301e-06
8.16097e-06
-1.18804e-05
9.25929e-06
-1.45384e-05
1.02496e-05
-1.73913e-05
1.11237e-05
-2.04129e-05
1.18783e-05
-2.35764e-05
1.25133e-05
-2.68552e-05
1.30307e-05
-3.0223e-05
1.34338e-05
-3.36543e-05
1.37266e-05
-3.71239e-05
1.39133e-05
-4.06075e-05
1.39977e-05
-4.40811e-05
1.39833e-05
-4.75216e-05
1.38732e-05
-5.09061e-05
1.36696e-05
-5.42122e-05
1.33746e-05
-5.74177e-05
1.29895e-05
-6.05009e-05
1.25155e-05
-6.34403e-05
1.19534e-05
-6.62147e-05
1.13043e-05
-6.88035e-05
1.05691e-05
-7.11862e-05
9.74949e-06
-7.33434e-05
8.84728e-06
-7.52562e-05
7.86519e-06
-7.69067e-05
6.80675e-06
-7.82783e-05
5.67643e-06
-7.93558e-05
4.47982e-06
-8.01258e-05
3.22365e-06
-8.05767e-05
1.91587e-06
-8.06992e-05
5.65681e-07
-8.04865e-05
-8.16492e-07
-7.99345e-05
-2.21903e-06
-7.90421e-05
-3.62922e-06
-7.78114e-05
-5.03335e-06
-7.62478e-05
-6.41684e-06
-7.43601e-05
-7.76447e-06
-7.21608e-05
-9.06057e-06
-6.96658e-05
-1.02892e-05
-6.68947e-05
-1.14347e-05
-6.38706e-05
-1.24813e-05
-6.06199e-05
-1.34144e-05
-5.71721e-05
-1.422e-05
-5.35597e-05
-1.48855e-05
-4.98174e-05
-1.53998e-05
-4.59824e-05
-1.57537e-05
-4.20933e-05
-1.59402e-05
-3.81896e-05
-1.59546e-05
-3.43118e-05
-1.57949e-05
-3.04998e-05
-1.54617e-05
-2.6793e-05
-1.49587e-05
-2.32292e-05
-1.42927e-05
-1.98442e-05
-1.34733e-05
-1.66707e-05
-1.25137e-05
-1.37378e-05
-1.143e-05
-1.10703e-05
-1.02416e-05
-8.68791e-06
-8.97132e-06
-6.60455e-06
-7.64539e-06
-4.82776e-06
-6.29361e-06
-3.35803e-06
-4.94969e-06
-2.18827e-06
-3.65165e-06
-1.30326e-06
-2.44234e-06
-6.79274e-07
-1.37026e-06
-2.83664e-07
-4.90474e-07
-7.45719e-08
1.34516e-07
-5.77073e-10
4.33437e-07
3.19212e-07
-1.85425e-07
3.26493e-07
-7.38064e-07
1.43747e-06
-1.65392e-06
2.83622e-06
-2.92602e-06
4.39678e-06
-4.54329e-06
6.02646e-06
-6.49038e-06
7.65415e-06
-8.7481e-06
9.22687e-06
-1.12939e-05
1.07068e-05
-1.41027e-05
1.20681e-05
-1.71475e-05
1.32944e-05
-2.04001e-05
1.43764e-05
-2.38318e-05
1.531e-05
-2.74136e-05
1.60951e-05
-3.11167e-05
1.67337e-05
-3.49126e-05
1.72297e-05
-3.87735e-05
1.75876e-05
-4.26722e-05
1.7812e-05
-4.6582e-05
1.79075e-05
-5.04768e-05
1.78781e-05
-5.4331e-05
1.77274e-05
-5.81196e-05
1.74582e-05
-6.18178e-05
1.70728e-05
-6.54013e-05
1.6573e-05
-6.8846e-05
1.59602e-05
-7.21284e-05
1.52358e-05
-7.52251e-05
1.4401e-05
-7.81134e-05
1.34574e-05
-8.07709e-05
1.2407e-05
-8.31763e-05
1.12526e-05
-8.53088e-05
9.99777e-06
-8.71492e-05
8.64708e-06
-8.86791e-05
7.2064e-06
-8.98822e-05
5.68293e-06
-9.07439e-05
4.08526e-06
-9.12515e-05
2.42351e-06
-9.13951e-05
7.09289e-07
-9.11673e-05
-1.04426e-06
-9.05638e-05
-2.82258e-06
-8.95833e-05
-4.60973e-06
-8.8228e-05
-6.3886e-06
-8.65038e-05
-8.14101e-06
-8.44203e-05
-9.84802e-06
-8.19908e-05
-1.14901e-05
-7.92325e-05
-1.30475e-05
-7.61667e-05
-1.45005e-05
-7.28181e-05
-1.58299e-05
-6.92153e-05
-1.70172e-05
-6.53902e-05
-1.80451e-05
-6.13778e-05
-1.88978e-05
-5.72161e-05
-1.95615e-05
-5.2945e-05
-2.00247e-05
-4.86067e-05
-2.02786e-05
-4.42442e-05
-2.03171e-05
-3.99016e-05
-2.01375e-05
-3.56225e-05
-1.97407e-05
-3.14502e-05
-1.9131e-05
-2.74263e-05
-1.83166e-05
-2.35901e-05
-1.73095e-05
-1.9978e-05
-1.61258e-05
-1.66224e-05
-1.47855e-05
-1.35513e-05
-1.33127e-05
-1.07873e-05
-1.17353e-05
-8.3469e-06
-1.00858e-05
-6.24002e-06
-8.40049e-06
-4.46927e-06
-6.72045e-06
-3.02948e-06
-5.09143e-06
-1.90733e-06
-3.56448e-06
-1.08106e-06
-2.19654e-06
-5.20291e-07
-1.05124e-06
-1.8607e-07
-1.99706e-07
-3.10623e-08
2.7843e-07
2.88148e-07
-2.3214e-07
5.58633e-07
-9.07814e-07
2.11314e-06
-2.00841e-06
3.93682e-06
-3.51487e-06
5.90324e-06
-5.40631e-06
7.91791e-06
-7.6596e-06
9.90744e-06
-1.02493e-05
1.18166e-05
-1.31479e-05
1.36054e-05
-1.63263e-05
1.52465e-05
-1.97544e-05
1.67224e-05
-2.34011e-05
1.8023e-05
-2.72352e-05
1.91441e-05
-3.12256e-05
2.00855e-05
-3.53414e-05
2.08495e-05
-3.95522e-05
2.14405e-05
-4.38282e-05
2.18636e-05
-4.81402e-05
2.2124e-05
-5.24596e-05
2.22269e-05
-5.67583e-05
2.21768e-05
-6.10089e-05
2.19779e-05
-6.51841e-05
2.16335e-05
-6.92574e-05
2.11461e-05
-7.32024e-05
2.0518e-05
-7.69932e-05
1.9751e-05
-8.06041e-05
1.88467e-05
-8.401e-05
1.78069e-05
-8.71863e-05
1.66337e-05
-9.0109e-05
1.53297e-05
-9.27549e-05
1.38986e-05
-9.51019e-05
1.23447e-05
-9.7129e-05
1.06742e-05
-9.88167e-05
8.89412e-06
-0.000100147
7.01353e-06
-0.000101105
5.04301e-06
-0.000101676
2.99498e-06
-0.000101851
8.83633e-07
-0.00010162
-1.27502e-06
-0.000100979
-3.46327e-06
-9.99273e-05
-5.66181e-06
-9.8466e-05
-7.84987e-06
-9.66016e-05
-1.00055e-05
-9.43438e-05
-1.21057e-05
-9.17069e-05
-1.4127e-05
-8.87089e-05
-1.60455e-05
-8.53721e-05
-1.78373e-05
-8.17229e-05
-1.94792e-05
-7.77915e-05
-2.09487e-05
-7.36117e-05
-2.22248e-05
-6.92211e-05
-2.32885e-05
-6.46598e-05
-2.41228e-05
-5.99708e-05
-2.47137e-05
-5.51993e-05
-2.50501e-05
-5.03916e-05
-2.51247e-05
-4.55951e-05
-2.4934e-05
-4.08573e-05
-2.44785e-05
-3.62249e-05
-2.37634e-05
-3.17432e-05
-2.27982e-05
-2.74555e-05
-2.15973e-05
-2.34016e-05
-2.01797e-05
-1.96176e-05
-1.85695e-05
-1.61349e-05
-1.67954e-05
-1.29793e-05
-1.4891e-05
-1.01703e-05
-1.28948e-05
-7.7207e-06
-1.08501e-05
-5.63577e-06
-8.80538e-06
-3.9129e-06
-6.81431e-06
-2.54128e-06
-4.9361e-06
-1.50177e-06
-3.23604e-06
-7.66936e-07
-1.78608e-06
-3.0131e-07
-6.65332e-07
-6.20354e-08
3.91549e-08
2.26112e-07
-2.77508e-07
8.36142e-07
-1.07404e-06
2.90966e-06
-2.3573e-06
5.22009e-06
-4.09648e-06
7.64243e-06
-6.26085e-06
1.00823e-05
-8.81912e-06
1.24657e-05
-1.17393e-05
1.47367e-05
-1.49885e-05
1.68546e-05
-1.85334e-05
1.87914e-05
-2.23402e-05
2.05292e-05
-2.6375e-05
2.20579e-05
-3.06041e-05
2.33733e-05
-3.49942e-05
2.44756e-05
-3.95125e-05
2.53678e-05
-4.41267e-05
2.60547e-05
-4.88052e-05
2.65421e-05
-5.35171e-05
2.68359e-05
-5.82321e-05
2.69419e-05
-6.29204e-05
2.68652e-05
-6.75528e-05
2.66104e-05
-7.21006e-05
2.61812e-05
-7.65353e-05
2.55808e-05
-8.08289e-05
2.48116e-05
-8.49537e-05
2.38758e-05
-8.88824e-05
2.27755e-05
-9.25883e-05
2.15128e-05
-9.60451e-05
2.00905e-05
-9.92272e-05
1.85119e-05
-0.00010211
1.67814e-05
-0.00010467
1.49046e-05
-0.000106884
1.28887e-05
-0.000108733
1.07426e-05
-0.000110196
8.47705e-06
-0.000111258
6.1047e-06
-0.000111904
3.6404e-06
-0.000112121
1.10106e-06
-0.000111902
-1.49431e-06
-0.00011124
-4.12473e-06
-0.000110135
-6.76734e-06
-0.000108587
-9.39759e-06
-0.000106603
-1.19895e-05
-0.000104193
-1.4516e-05
-0.00010137
-1.69493e-05
-9.8155e-05
-1.92609e-05
-9.45695e-05
-2.14229e-05
-9.06411e-05
-2.34075e-05
-8.64016e-05
-2.51882e-05
-8.18864e-05
-2.67399e-05
-7.7135e-05
-2.80399e-05
-7.21898e-05
-2.9068e-05
-6.70965e-05
-2.9807e-05
-6.19027e-05
-3.02438e-05
-5.66583e-05
-3.03692e-05
-5.14137e-05
-3.01785e-05
-4.62201e-05
-2.96722e-05
-4.11279e-05
-2.88556e-05
-3.61863e-05
-2.77398e-05
-3.14422e-05
-2.63414e-05
-2.69394e-05
-2.46824e-05
-2.2718e-05
-2.27909e-05
-1.8813e-05
-2.07004e-05
-1.52538e-05
-1.84502e-05
-1.20635e-05
-1.6085e-05
-9.25821e-06
-1.36554e-05
-6.84631e-06
-1.12173e-05
-4.82833e-06
-8.83229e-06
-3.19654e-06
-6.5679e-06
-1.93491e-06
-4.49766e-06
-1.01936e-06
-2.70163e-06
-4.1818e-07
-1.26651e-06
-9.29425e-08
-2.86083e-07
1.33169e-07
-3.21417e-07
1.15756e-06
-1.23588e-06
3.82412e-06
-2.69836e-06
6.68257e-06
-4.66675e-06
9.61082e-06
-7.1006e-06
1.25161e-05
-9.96043e-06
1.53255e-05
-1.32074e-05
1.79837e-05
-1.68032e-05
2.04504e-05
-2.07098e-05
2.2698e-05
-2.48898e-05
2.47092e-05
-2.93063e-05
2.64743e-05
-3.39229e-05
2.79899e-05
-3.87041e-05
2.92568e-05
-4.36153e-05
3.02789e-05
-4.86224e-05
3.10618e-05
-5.36922e-05
3.16119e-05
-5.87924e-05
3.1936e-05
-6.3891e-05
3.20405e-05
-6.89569e-05
3.19311e-05
-7.39593e-05
3.16129e-05
-7.88681e-05
3.109e-05
-8.36534e-05
3.0366e-05
-8.82856e-05
2.94438e-05
-9.27356e-05
2.83258e-05
-9.69747e-05
2.70146e-05
-0.000100975
2.55128e-05
-0.000104708
2.38236e-05
-0.000108147
2.19512e-05
-0.000111267
1.99008e-05
-0.000114041
1.76792e-05
-0.000116447
1.52949e-05
-0.000118463
1.27583e-05
-0.000120068
1.00821e-05
-0.000121245
7.28115e-06
-0.000121977
4.37272e-06
-0.000122252
1.37652e-06
-0.000122061
-1.68537e-06
-0.000121398
-4.78859e-06
-0.000120258
-7.9066e-06
-0.000118645
-1.1011e-05
-0.000116563
-1.40715e-05
-0.000114022
-1.70569e-05
-0.000111037
-1.99347e-05
-0.000107625
-2.26721e-05
-0.000103812
-2.52363e-05
-9.96244e-05
-2.75951e-05
-9.50952e-05
-2.97173e-05
-9.02614e-05
-3.15737e-05
-8.51639e-05
-3.31375e-05
-7.98472e-05
-3.43847e-05
-7.43592e-05
-3.5295e-05
-6.87504e-05
-3.58526e-05
-6.30736e-05
-3.60461e-05
-5.73825e-05
-3.58696e-05
-5.17319e-05
-3.53228e-05
-4.6176e-05
-3.44115e-05
-4.07679e-05
-3.31479e-05
-3.55589e-05
-3.15505e-05
-3.05968e-05
-2.96445e-05
-2.59258e-05
-2.74619e-05
-2.15852e-05
-2.5041e-05
-1.76085e-05
-2.24269e-05
-1.40227e-05
-1.96708e-05
-1.08477e-05
-1.68304e-05
-8.09581e-06
-1.39692e-05
-5.77095e-06
-1.11571e-05
-3.86897e-06
-8.46988e-06
-2.37735e-06
-5.98929e-06
-1.27558e-06
-3.8034e-06
-5.35751e-07
-2.00634e-06
-1.23581e-07
-6.98254e-07
9.58754e-09
-3.63825e-07
1.52138e-06
-1.39286e-06
4.85316e-06
-3.03018e-06
8.31989e-06
-5.22292e-06
1.18036e-05
-7.92116e-06
1.52143e-05
-1.10773e-05
1.84817e-05
-1.46458e-05
2.15521e-05
-1.85824e-05
2.43871e-05
-2.28447e-05
2.69603e-05
-2.73913e-05
2.92557e-05
-3.21821e-05
3.12651e-05
-3.71782e-05
3.2986e-05
-4.2342e-05
3.44206e-05
-4.76368e-05
3.55738e-05
-5.3027e-05
3.64521e-05
-5.84781e-05
3.70629e-05
-6.3956e-05
3.7414e-05
-6.94278e-05
3.75123e-05
-7.4861e-05
3.73642e-05
-8.02235e-05
3.69754e-05
-8.5484e-05
3.63505e-05
-9.06114e-05
3.54934e-05
-9.55748e-05
3.44072e-05
-0.000100344
3.30949e-05
-0.000104889
3.15594e-05
-0.00010918
2.98038e-05
-0.000113188
2.78318e-05
-0.000116885
2.56484e-05
-0.000120244
2.32597e-05
-0.000123238
2.06736e-05
-0.000125843
1.78998e-05
-0.000128035
1.49505e-05
-0.000129794
1.18402e-05
-0.000131098
8.58594e-06
-0.000131933
5.20749e-06
-0.000132284
1.72737e-06
-0.00013214
-1.82922e-06
-0.000131494
-5.43448e-06
-0.000130343
-9.05815e-06
-0.000128686
-1.26677e-05
-0.000126529
-1.62289e-05
-0.00012388
-1.97057e-05
-0.000120753
-2.30611e-05
-0.000117168
-2.62574e-05
-0.000113147
-2.9257e-05
-0.00010872
-3.20227e-05
-0.000103918
-3.45187e-05
-9.8781e-05
-3.67111e-05
-9.33501e-05
-3.85685e-05
-8.76719e-05
-4.00629e-05
-8.17964e-05
-4.11705e-05
-7.57768e-05
-4.18722e-05
-6.96687e-05
-4.21542e-05
-6.35293e-05
-4.20089e-05
-5.7417e-05
-4.14351e-05
-5.13901e-05
-4.04385e-05
-4.55058e-05
-3.90321e-05
-3.98198e-05
-3.72364e-05
-3.43847e-05
-3.50796e-05
-2.92492e-05
-3.25974e-05
-2.44572e-05
-2.9833e-05
-2.00469e-05
-2.68373e-05
-1.60497e-05
-2.3668e-05
-1.249e-05
-2.03901e-05
-9.38407e-06
-1.70751e-05
-6.74012e-06
-1.38011e-05
-4.55781e-06
-1.06522e-05
-2.82844e-06
-7.71866e-06
-1.53521e-06
-5.09663e-06
-6.53916e-07
-2.88763e-06
-1.53976e-07
-1.19819e-06
-1.44388e-07
-4.04718e-07
1.9261e-06
-1.54469e-06
5.99312e-06
-3.35182e-06
1.0127e-05
-5.76303e-06
1.42148e-05
-8.7193e-06
1.81706e-05
-1.21651e-05
2.19275e-05
-1.60481e-05
2.54351e-05
-2.03185e-05
2.86575e-05
-2.4929e-05
3.15708e-05
-2.98344e-05
3.41611e-05
-3.49914e-05
3.64221e-05
-4.03585e-05
3.83532e-05
-4.58959e-05
3.9958e-05
-5.15652e-05
4.1243e-05
-5.73291e-05
4.2216e-05
-6.31517e-05
4.28855e-05
-6.89979e-05
4.32602e-05
-7.48335e-05
4.33479e-05
-8.0625e-05
4.31557e-05
-8.63393e-05
4.26898e-05
-9.19439e-05
4.19552e-05
-9.74067e-05
4.09562e-05
-0.000102696
3.96964e-05
-0.00010778
3.81791e-05
-0.000112628
3.64074e-05
-0.000117209
3.43851e-05
-0.000121494
3.21163e-05
-0.000125452
2.96067e-05
-0.000129056
2.68634e-05
-0.000132277
2.38951e-05
-0.000135091
2.07131e-05
-0.000137471
1.73311e-05
-0.000139396
1.37653e-05
-0.000140846
1.00351e-05
-0.000141801
6.16263e-06
-0.000142247
2.17324e-06
-0.000142171
-1.90476e-06
-0.000141565
-6.04009e-06
-0.000140425
-1.01987e-05
-0.000138748
-1.43442e-05
-0.00013654
-1.84376e-05
-0.000133807
-2.24385e-05
-0.000130563
-2.63051e-05
-0.000126826
-2.99945e-05
-0.000122619
-3.34641e-05
-0.00011797
-3.66715e-05
-0.000112913
-3.95757e-05
-0.000107486
-4.21377e-05
-0.000101733
-4.43213e-05
-9.57023e-05
-4.60941e-05
-8.94447e-05
-4.7428e-05
-8.30165e-05
-4.83004e-05
-7.6476e-05
-4.86947e-05
-6.9884e-05
-4.86009e-05
-6.33027e-05
-4.80164e-05
-5.67945e-05
-4.69467e-05
-5.04214e-05
-4.54052e-05
-4.42438e-05
-4.34141e-05
-3.83192e-05
-4.10042e-05
-3.27016e-05
-3.8215e-05
-2.744e-05
-3.50946e-05
-2.25777e-05
-3.16996e-05
-1.81513e-05
-2.80944e-05
-1.41899e-05
-2.43514e-05
-1.07148e-05
-2.05503e-05
-7.73844e-06
-1.67774e-05
-5.26489e-06
-1.31257e-05
-3.28944e-06
-9.69411e-06
-1.79908e-06
-6.58698e-06
-7.73145e-07
-3.91357e-06
-1.84305e-07
-1.78704e-06
-3.28693e-07
-4.44085e-07
2.37019e-06
-1.69113e-06
7.24017e-06
-3.66257e-06
1.20985e-05
-6.2856e-06
1.68378e-05
-9.49249e-06
2.13775e-05
-1.32201e-05
2.56552e-05
-1.74094e-05
2.96244e-05
-2.20051e-05
3.32531e-05
-2.69551e-05
3.65208e-05
-3.22104e-05
3.94164e-05
-3.77246e-05
4.19362e-05
-4.34535e-05
4.40821e-05
-4.93551e-05
4.58597e-05
-5.53894e-05
4.72772e-05
-6.15175e-05
4.83442e-05
-6.77024e-05
4.90704e-05
-7.39078e-05
4.94656e-05
-8.00986e-05
4.95387e-05
-8.62403e-05
4.92974e-05
-9.2299e-05
4.87485e-05
-9.82414e-05
4.78975e-05
-0.000104034
4.67492e-05
-0.000109646
4.53075e-05
-0.000115042
4.35759e-05
-0.000120193
4.1558e-05
-0.000125066
3.92578e-05
-0.00012963
3.66802e-05
-0.000133854
3.38314e-05
-0.00013771
3.07191e-05
-0.000141168
2.73534e-05
-0.000144202
2.37467e-05
-0.000146785
1.9914e-05
-0.000148893
1.58736e-05
-0.000150505
1.16468e-05
-0.0001516
7.25817e-06
-0.000152163
2.73582e-06
-0.000152179
-1.88886e-06
-0.000151638
-6.58119e-06
-0.000150533
-1.13034e-05
-0.000148863
-1.60147e-05
-0.000146628
-2.06721e-05
-0.000143836
-2.52303e-05
-0.000140499
-2.96423e-05
-0.000136633
-3.38603e-05
-0.000132261
-3.78361e-05
-0.000127411
-4.15218e-05
-0.000122116
-4.4871e-05
-0.000116414
-4.78391e-05
-0.000110351
-5.03847e-05
-0.000103975
-5.24702e-05
-9.73395e-05
-5.40631e-05
-9.05035e-05
-5.51364e-05
-8.35281e-05
-5.56701e-05
-7.64775e-05
-5.56515e-05
-6.94179e-05
-5.50761e-05
-6.24162e-05
-5.39484e-05
-5.55393e-05
-5.22821e-05
-4.88528e-05
-5.01006e-05
-4.24199e-05
-4.74371e-05
-3.63001e-05
-4.43348e-05
-3.05482e-05
-4.08465e-05
-2.52133e-05
-3.70345e-05
-2.03377e-05
-3.297e-05
-1.5956e-05
-2.87331e-05
-1.20946e-05
-2.44117e-05
-8.77103e-06
-2.01009e-05
-5.99398e-06
-1.59028e-05
-3.76298e-06
-1.19251e-05
-2.06885e-06
-8.28111e-06
-8.94307e-07
-5.08812e-06
-2.14845e-07
-2.4665e-06
-5.43537e-07
-4.81904e-07
2.8521e-06
-1.83201e-06
8.59027e-06
-3.96181e-06
1.42283e-05
-6.78935e-06
1.96653e-05
-1.02386e-05
2.48267e-05
-1.4239e-05
2.96556e-05
-1.87253e-05
3.41107e-05
-2.36366e-05
3.81644e-05
-2.89163e-05
4.18005e-05
-3.45116e-05
4.50117e-05
-4.03728e-05
4.77975e-05
-4.64535e-05
5.01627e-05
-5.27094e-05
5.21156e-05
-5.90987e-05
5.36666e-05
-6.55814e-05
5.48269e-05
-7.21192e-05
5.56082e-05
-7.86749e-05
5.60213e-05
-8.52125e-05
5.60763e-05
-9.16969e-05
5.57817e-05
-9.80933e-05
5.51449e-05
-0.000104368
5.41721e-05
-0.000110487
5.28683e-05
-0.000116417
5.12377e-05
-0.000122126
4.92843e-05
-0.000127579
4.70118e-05
-0.000132746
4.44247e-05
-0.000137594
4.15282e-05
-0.000142092
3.83292e-05
-0.000146209
3.48361e-05
-0.000149915
3.10599e-05
-0.000153183
2.70141e-05
-0.000155984
2.27152e-05
-0.000158293
1.81831e-05
-0.000160087
1.3441e-05
-0.000161345
8.516e-06
-0.000162048
3.43867e-06
-0.00016218
-1.75658e-06
-0.00016173
-7.03169e-06
-0.000160688
-1.23452e-05
-0.000159051
-1.76522e-05
-0.000156818
-2.29052e-05
-0.000153994
-2.80541e-05
-0.000150589
-3.30468e-05
-0.000146619
-3.78301e-05
-0.000142105
-4.23501e-05
-0.000137074
-4.65531e-05
-0.000131558
-5.03867e-05
-0.000125597
-5.38004e-05
-0.000119235
-5.67469e-05
-0.000112522
-5.91832e-05
-0.000105514
-6.10713e-05
-9.82707e-05
-6.23795e-05
-9.08571e-05
-6.30837e-05
-8.33409e-05
-6.31677e-05
-7.57924e-05
-6.26246e-05
-6.82833e-05
-6.14574e-05
-6.08859e-05
-5.96795e-05
-5.36714e-05
-5.7315e-05
-4.67091e-05
-5.43995e-05
-4.00648e-05
-5.09792e-05
-3.37997e-05
-4.71116e-05
-2.79693e-05
-4.28648e-05
-2.26222e-05
-3.83171e-05
-1.77992e-05
-3.35562e-05
-1.35324e-05
-2.86785e-05
-9.8449e-06
-2.37884e-05
-6.75033e-06
-1.89974e-05
-4.25272e-06
-1.44227e-05
-2.34681e-06
-1.0187e-05
-1.01856e-06
-6.41637e-06
-2.45944e-07
-3.23911e-06
-7.8948e-07
-5.1814e-07
3.37024e-06
-1.96708e-06
1.00392e-05
-4.24895e-06
1.65101e-05
-7.27311e-06
2.26895e-05
-1.09556e-05
2.85093e-05
-1.52191e-05
3.3919e-05
-1.99918e-05
3.88835e-05
-2.52079e-05
4.33806e-05
-3.08064e-05
4.7399e-05
-3.67306e-05
5.09359e-05
-4.29279e-05
5.39948e-05
-4.93493e-05
5.65841e-05
-5.59487e-05
5.8715e-05
-6.26826e-05
6.04005e-05
-6.95097e-05
6.16541e-05
-7.63908e-05
6.24892e-05
-8.32877e-05
6.29183e-05
-9.01638e-05
6.29524e-05
-9.69834e-05
6.26012e-05
-0.000103711
6.18728e-05
-0.000110313
6.07738e-05
-0.000116754
5.93096e-05
-0.000123001
5.74849e-05
-0.000129021
5.53037e-05
-0.000134779
5.27702e-05
-0.000140244
4.9889e-05
-0.000145381
4.66658e-05
-0.00015016
4.31079e-05
-0.000154548
3.92243e-05
-0.000158515
3.50269e-05
-0.000162031
3.053e-05
-0.000165068
2.57516e-05
-0.000167597
2.0713e-05
-0.000169596
1.54393e-05
-0.000171039
9.95951e-06
-0.000171907
4.3069e-06
-0.000172183
-1.4813e-06
-0.000171851
-7.36382e-06
-0.0001709
-1.32955e-05
-0.000169325
-1.92275e-05
-0.000167122
-2.51077e-05
-0.000164295
-3.08813e-05
-0.000160851
-3.64908e-05
-0.000156804
-4.18775e-05
-0.000152173
-4.69814e-05
-0.000146983
-5.17429e-05
-0.000141267
-5.6103e-05
-0.000135062
-6.00049e-05
-0.000128414
-6.3395e-05
-0.000121373
-6.62237e-05
-0.000113997
-6.84473e-05
-0.000106348
-7.00287e-05
-9.84934e-05
-7.09385e-05
-9.05044e-05
-7.11567e-05
-8.24558e-05
-7.06731e-05
-7.44247e-05
-6.94885e-05
-6.64888e-05
-6.76154e-05
-5.87257e-05
-6.50782e-05
-5.12112e-05
-6.1914e-05
-4.4018e-05
-5.81723e-05
-3.72146e-05
-5.3915e-05
-3.08635e-05
-4.9216e-05
-2.50202e-05
-4.41604e-05
-1.97325e-05
-3.88439e-05
-1.50389e-05
-3.33721e-05
-1.09685e-05
-2.78588e-05
-7.54025e-06
-2.24256e-05
-4.76305e-06
-1.71999e-05
-2.63567e-06
-1.23144e-05
-1.14724e-06
-7.9048e-06
-2.77993e-07
-4.10836e-06
-1.06747e-06
-5.52738e-07
3.92298e-06
-2.09609e-06
1.15825e-05
-4.52335e-06
1.89374e-05
-7.73567e-06
2.59018e-05
-1.16417e-05
3.24153e-05
-1.61573e-05
3.84346e-05
-2.12052e-05
4.39313e-05
-2.67143e-05
4.88897e-05
-3.26194e-05
5.33041e-05
-3.88603e-05
5.71768e-05
-4.53817e-05
6.05161e-05
-5.21319e-05
6.33343e-05
-5.90631e-05
6.56462e-05
-6.61303e-05
6.74677e-05
-7.32911e-05
6.88149e-05
-8.05052e-05
6.97033e-05
-8.77339e-05
7.0147e-05
-9.49399e-05
7.01585e-05
-0.000102087
6.97484e-05