/*--------------------------------*- C++ -*----------------------------------*\
  =========                 |
  \\      /  F ield         | OpenFOAM: The Open Source CFD Toolbox
   \\    /   O peration     | Website:  https://openfoam.org
    \\  /    A nd           | Version:  dev
     \\/     M anipulation  |
\*---------------------------------------------------------------------------*/
FoamFile
{
    format      ascii;
    class       volScalarField;
    location    "31.95";
    object      Uy;
}
// * * * * * * * * * * * * * * * * * * * * * * * * * * * * * * * * * * * * * //

dimensions      [0 1 -1 0 0 0 0];

internalField   nonuniform List<scalar> 
5184
(
-1.27466e-05
-2.09103e-05
-1.72566e-05
-8.19967e-06
2.6679e-06
1.36174e-05
2.38457e-05
3.3048e-05
4.11054e-05
4.80236e-05
5.38642e-05
5.87122e-05
6.26599e-05
6.57987e-05
6.82132e-05
6.99788e-05
7.11599e-05
7.18088e-05
7.19664e-05
7.16624e-05
7.09161e-05
6.97379e-05
6.81308e-05
6.60917e-05
6.36135e-05
6.06863e-05
5.72998e-05
5.34442e-05
4.91126e-05
4.43018e-05
3.90144e-05
3.32597e-05
2.70547e-05
2.04256e-05
1.3408e-05
6.04767e-06
-1.59937e-06
-9.46661e-06
-1.74775e-05
-2.55462e-05
-3.35784e-05
-4.14724e-05
-4.9121e-05
-5.64133e-05
-6.32366e-05
-6.9479e-05
-7.50318e-05
-7.97921e-05
-8.36651e-05
-8.65672e-05
-8.84279e-05
-8.91918e-05
-8.88207e-05
-8.7295e-05
-8.46141e-05
-8.07974e-05
-7.58842e-05
-6.99334e-05
-6.30228e-05
-5.52482e-05
-4.67238e-05
-3.75825e-05
-2.79792e-05
-1.80963e-05
-8.15917e-06
1.53739e-06
1.05697e-05
1.83006e-05
2.37175e-05
2.51278e-05
1.98462e-05
6.24119e-06
-4.59428e-05
-6.57514e-05
-4.05795e-05
7.62338e-06
6.56735e-05
0.000125989
0.000184292
0.000238338
0.000286987
0.000329795
0.000366725
0.000397966
0.000423828
0.00044468
0.000460897
0.000472839
0.000480829
0.000485141
0.000486
0.000483577
0.000477993
0.000469324
0.000457609
0.000442858
0.000425058
0.000404186
0.000380218
0.000353136
0.000322941
0.00028966
0.000253354
0.000214124
0.000172122
0.000127549
8.06667e-05
3.17926e-05
-1.86941e-05
-7.0355e-05
-0.000122695
-0.000175167
-0.000227177
-0.000278092
-0.000327252
-0.000373977
-0.000417583
-0.000457395
-0.000492759
-0.000523063
-0.000547743
-0.000566307
-0.000578342
-0.000583527
-0.000581646
-0.000572598
-0.000556396
-0.000533181
-0.000503216
-0.000466891
-0.000424721
-0.000377346
-0.000325533
-0.000270188
-0.000212372
-0.000153337
-9.4594e-05
-3.80206e-05
1.39225e-05
5.79302e-05
8.94098e-05
0.000101863
8.65197e-05
3.64853e-05
-8.13389e-05
-9.50667e-05
-1.91589e-05
0.000105913
0.000254639
0.000410576
0.000563411
0.000707009
0.000837921
0.000954441
0.00105597
0.00114261
0.00121487
0.00127347
0.00131924
0.00135301
0.00137553
0.00138749
0.00138945
0.00138184
0.00136501
0.00133917
0.00130445
0.00126091
0.00120857
0.00114741
0.00107742
0.000998625
0.000911081
0.000814928
0.000710398
0.000597837
0.000477717
0.000350653
0.000217412
7.89168e-05
-6.37525e-05
-0.00020936
-0.000356524
-0.000503725
-0.000649328
-0.0007916
-0.00092874
-0.0010589
-0.00118024
-0.00129093
-0.00138922
-0.00147347
-0.00154216
-0.001594
-0.00162788
-0.00164296
-0.00163867
-0.00161477
-0.00157132
-0.00150872
-0.00142772
-0.00132942
-0.00121526
-0.00108707
-0.000946994
-0.000797617
-0.000641943
-0.000483502
-0.000326495
-0.00017601
-3.83633e-05
7.84275e-05
0.000164067
0.000205389
0.000186282
9.03938e-05
-9.77587e-05
-7.31709e-05
8.47593e-05
0.00031834
0.000590069
0.000874324
0.00115407
0.00141853
0.00166122
0.00187862
0.00206916
0.0022326
0.00236948
0.00248086
0.00256801
0.00263224
0.00267485
0.00269699
0.00269964
0.00268358
0.00264941
0.00259757
0.00252831
0.00244181
0.00233813
0.00221732
0.00207945
0.00192461
0.00175301
0.00156501
0.00136112
0.00114209
0.000908895
0.000662762
0.000405211
0.000138043
-0.000136652
-0.000416506
-0.000698881
-0.000980902
-0.00125948
-0.00153136
-0.00179316
-0.00204145
-0.00227277
-0.00248375
-0.00267112
-0.00283184
-0.00296313
-0.00306258
-0.00312816
-0.00315833
-0.00315206
-0.0031089
-0.00302901
-0.00291317
-0.00276282
-0.00258004
-0.00236761
-0.00212896
-0.00186826
-0.0015904
-0.0013011
-0.00100702
-0.000715981
-0.000437261
-0.000182001
3.61877e-05
0.000200588
0.000290809
0.000282555
0.000147286
-8.4417e-05
2.08781e-05
0.000295427
0.000667999
0.00109078
0.00152987
0.00196181
0.00237114
0.00274814
0.00308716
0.00338543
0.00364214
0.00385774
0.00403347
0.004171
0.00427215
0.0043387
0.00437231
0.0043744
0.00434614
0.00428843
0.00420195
0.00408714
0.0039443
0.00377363
0.00357528
0.00334944
0.00309638
0.00281655
0.0025106
0.00217949
0.00182449
0.00144725
0.00104982
0.000634675
0.000204744
-0.000236616
-0.000685617
-0.00113807
-0.00158942
-0.0020348
-0.00246909
-0.00288699
-0.00328313
-0.00365213
-0.0039887
-0.00428779
-0.00454467
-0.00475502
-0.00491508
-0.00502173
-0.00507259
-0.00506607
-0.00500149
-0.00487913
-0.00470023
-0.00446707
-0.00418296
-0.0038523
-0.00348054
-0.00307426
-0.00264119
-0.00219033
-0.00173208
-0.00127851
-0.000843649
-0.000443998
-9.91138e-05
0.000167664
0.000328605
0.000350974
0.000194141
-3.75305e-05
0.000197354
0.000626881
0.00117031
0.00177168
0.00239015
0.00299663
0.00357135
0.00410145
0.00457917
0.00500043
0.00536374
0.00566934
0.00591859
0.00611349
0.00625628
0.00634926
0.00639455
0.00639403
0.00634927
0.00626148
0.00613162
0.00596033
0.00574811
0.0054953
0.00520222
0.00486926
0.00449693
0.00408601
0.00363759
0.00315315
0.00263465
0.00208458
0.00150597
0.000902479
0.000278356
-0.000361533
-0.00101173
-0.00166624
-0.00231855
-0.00296174
-0.00358852
-0.00419141
-0.00476279
-0.00529505
-0.00578077
-0.00621281
-0.0065845
-0.00688977
-0.00712333
-0.00728078
-0.00735877
-0.00735507
-0.00726875
-0.00710018
-0.00685115
-0.00652489
-0.00612614
-0.00566114
-0.00513764
-0.004565
-0.00395421
-0.00331795
-0.00267083
-0.00202958
-0.00141339
-0.000844394
-0.000348276
4.49874e-05
0.000300452
0.00037731
0.000224517
4.40976e-05
0.000461263
0.00108704
0.00183467
0.00264229
0.00346367
0.00426516
0.00502332
0.00572253
0.0063531
0.00690973
0.00739024
0.00779464
0.00812437
0.0083817
0.00856928
0.00868987
0.00874604
0.00874012
0.00867406
0.00854941
0.00836741
0.00812894
0.0078347
0.00748524
0.0070811
0.00662291
0.00611153
0.00554813
0.00493434
0.0042723
0.00356478
0.00281524
0.00202789
0.0012077
0.000360463
-0.000507259
-0.00138813
-0.00227411
-0.00315651
-0.00402609
-0.00487319
-0.00568787
-0.00646002
-0.00717958
-0.00783672
-0.00842199
-0.00892658
-0.00934247
-0.00966263
-0.00988125
-0.00999386
-0.00999753
-0.00989097
-0.00967468
-0.00935099
-0.0089242
-0.00840056
-0.00778834
-0.00709786
-0.00634149
-0.00553377
-0.00469141
-0.00383354
-0.00298182
-0.00216088
-0.00139862
-0.000726913
-0.000182238
0.000193593
0.00035246
0.000234987
0.000160464
0.000814477
0.00167968
0.00266609
0.003708
0.00475538
0.00577117
0.00672911
0.00761139
0.00840673
0.00910881
0.0097149
0.0102248
0.0106401
0.0109633
0.0111974
0.0113456
0.011411
0.0113962
0.0113037
0.0111352
0.0108924
0.0105763
0.010188
0.0097281
0.00919749
0.00859711
0.00792821
0.00719244
0.00639206
0.00552997
0.00460986
0.00363631
0.0026148
0.00155182
0.000454823
-0.000667748
-0.0018065
-0.00295116
-0.00409067
-0.00521329
-0.00630675
-0.00735843
-0.00835556
-0.00928538
-0.0101354
-0.0108938
-0.0115493
-0.0120917
-0.0125121
-0.0128032
-0.0129592
-0.0129763
-0.0128529
-0.0125895
-0.012189
-0.0116567
-0.0110006
-0.010231
-0.00936103
-0.00840622
-0.00738487
-0.00631799
-0.0052294
-0.00414596
-0.00309781
-0.00211876
-0.00124677
-0.000524634
-5.79741e-07
0.000270856
0.000223841
0.000310933
0.00125691
0.00240578
0.00366644
0.00497113
0.00626751
0.00751632
0.00868935
0.00976727
0.0107377
0.0115936
0.012332
0.0129525
0.0134569
0.0138479
0.0141291
0.0143041
0.0143762
0.0143487
0.0142242
0.014005
0.0136929
0.0132893
0.0127953
0.012212
0.0115405
0.0107821
0.00993849
0.00901194
0.00800534
0.00692247
0.00576803
0.00454781
0.0032687
0.00193879
0.000567344
-0.000835169
-0.00225716
-0.00368597
-0.005108
-0.00650884
-0.00787345
-0.00918635
-0.0104319
-0.0115944
-0.0126587
-0.01361
-0.0144347
-0.0151202
-0.0156556
-0.0160316
-0.0162412
-0.0162795
-0.0161445
-0.0158365
-0.0153591
-0.0147187
-0.0139247
-0.0129899
-0.0119299
-0.0107639
-0.00951398
-0.00820558
-0.00686743
-0.00553168
-0.00423413
-0.00301446
-0.00191668
-0.000989665
-0.000287588
0.000129388
0.00019043
0.000494601
0.00178732
0.00326445
0.00483534
0.00643166
0.00800011
0.00950034
0.0109032
0.0121884
0.0133432
0.0143601
0.0152361
0.0159711
0.0165669
0.0170269
0.0173549
0.0175549
0.0176309
0.0175864
0.0174245
0.0171476
0.016758
0.0162572
0.0156467
0.0149279
0.0141021
0.0131711
0.012137
0.0110026
0.00977178
0.00844905
0.00704025
0.00555245
0.00399405
0.00237482
0.000705963
-0.000999957
-0.00272902
-0.00446607
-0.00619483
-0.00789806
-0.0095578
-0.0111556
-0.0126726
-0.0140903
-0.0153903
-0.016555
-0.017568
-0.0184143
-0.0190804
-0.0195553
-0.0198302
-0.0198994
-0.0197598
-0.019412
-0.0188596
-0.0181103
-0.017175
-0.0160686
-0.0148099
-0.0134213
-0.011929
-0.0103629
-0.00875678
-0.00714823
-0.00557871
-0.00409383
-0.00274358
-0.00158271
-0.000670976
-7.35577e-05
0.000134672
0.000710436
0.0024038
0.00425361
0.00617081
0.00808779
0.00995142
0.0117213
0.0133682
0.0148719
0.0162195
0.0174038
0.018422
0.0192743
0.0199632
0.0204924
0.0208662
0.0210893
0.0211659
0.0211
0.020895
0.0205539
0.0200789
0.0194721
0.018735
0.0178694
0.016877
0.0157599
0.0145208
0.0131632
0.0116916
0.0101115
0.00842998
0.00665537
0.00479762
0.00286828
0.000880532
-0.00115086
-0.00320958
-0.00527785
-0.00733664
-0.00936577
-0.0113442
-0.0132503
-0.015062
-0.0167576
-0.0183155
-0.0197149
-0.0209365
-0.0219623
-0.0227766
-0.023366
-0.0237201
-0.0238315
-0.0236966
-0.0233153
-0.0226919
-0.0218347
-0.0207562
-0.0194738
-0.0180088
-0.0163871
-0.0146392
-0.0127996
-0.0109071
-0.00900478
-0.00713998
-0.00536419
-0.00373335
-0.00230797
-0.00115319
-0.00033882
5.67365e-05
0.000957359
0.00310405
0.00537036
0.00766978
0.00993636
0.0121183
0.014176
0.0160811
0.017814
0.0193624
0.0207198
0.0218841
0.0228561
0.023639
0.0242372
0.0246555
0.0248992
0.024973
0.0248814
0.0246281
0.0242164
0.0236488
0.0229276
0.0220548
0.0210323
0.0198621
0.0185468
0.0170897
0.0154947
0.0137673
0.011914
0.00994295
0.00786384
0.00568823
0.00342946
0.00110271
-0.00127499
-0.00368488
-0.00610651
-0.00851798
-0.0108961
-0.0132166
-0.0154546
-0.0175846
-0.0195815
-0.0214203
-0.0230769
-0.0245287
-0.0257547
-0.0267364
-0.0274579
-0.0279068
-0.0280741
-0.0279549
-0.0275489
-0.0268601
-0.0258978
-0.024676
-0.023214
-0.0215361
-0.0196718
-0.0176555
-0.0155264
-0.0133287
-0.011111
-0.00892646
-0.00683264
-0.00489146
-0.00316918
-0.00173623
-0.000666962
-4.31606e-05
0.00123428
0.00388553
0.00661129
0.00932831
0.0119732
0.0144963
0.0168599
0.0190371
0.0210096
0.0227666
0.0243026
0.0256165
0.0267102
0.0275878
0.0282544
0.0287157
0.0289776
0.0290453
0.0289238
0.0286172
0.0281291
0.0274623
0.0266194
0.0256026
0.024414
0.0230561
0.0215318
0.0198449
0.0180001
0.0160035
0.0138627
0.0115868
0.00918711
0.0066766
0.00407044
0.00138585
-0.00135791
-0.00413956
-0.00693598
-0.00972232
-0.0124723
-0.0151583
-0.0177521
-0.0202247
-0.0225473
-0.0246912
-0.0266289
-0.0283342
-0.0297828
-0.0309532
-0.0318266
-0.0323882
-0.0326272
-0.0325372
-0.032117
-0.0313707
-0.0303079
-0.028944
-0.0273003
-0.0254039
-0.0232876
-0.0209901
-0.0185555
-0.0160331
-0.0134773
-0.0109472
-0.00850666
-0.00622359
-0.00417015
-0.00242217
-0.00105863
-0.000164886
0.0015401
0.00474554
0.00797258
0.0111419
0.0141934
0.0170802
0.0197675
0.0222305
0.0244531
0.0264261
0.0281459
0.0296128
0.03083
0.0318028
0.0325373
0.0330401
0.0333178
0.0333763
0.0332211
0.0328567
0.0322871
0.0315153
0.0305441
0.0293761
0.0280135
0.0264592
0.0247166
0.0227897
0.020684
0.0184064
0.0159653
0.013371
0.0106361
0.00777509
0.00480495
0.00174485
-0.00138366
-0.00455686
-0.00774888
-0.0109319
-0.0140765
-0.0171518
-0.0201258
-0.022966
-0.0256397
-0.0281144
-0.0303588
-0.0323428
-0.0340387
-0.0354212
-0.0364687
-0.0371634
-0.0374923
-0.0374473
-0.0370259
-0.0362319
-0.035075
-0.0335718
-0.0317454
-0.0296255
-0.0272485
-0.0246572
-0.0219004
-0.019033
-0.0161152
-0.0132123
-0.0103945
-0.00773606
-0.00531524
-0.0032135
-0.00151481
-0.000308476
0.00187372
0.00568123
0.00945011
0.0131054
0.0165911
0.019864
0.0228925
0.0256548
0.0281377
0.0303342
0.032243
0.0338661
0.0352086
0.0362771
0.037079
0.037622
0.0379134
0.03796
0.0377678
0.0373418
0.0366861
0.0358044
0.0346995
0.0333741
0.0318309
0.0300729
0.0281039
0.0259285
0.0235525
0.0209836
0.0182311
0.0153064
0.0122231
0.00899753
0.00564811
0.00219606
-0.00133492
-0.00491864
-0.00852653
-0.0121278
-0.0156899
-0.0191783
-0.0225576
-0.0257913
-0.0288428
-0.0316756
-0.0342541
-0.0365442
-0.038514
-0.0401348
-0.0413811
-0.042232
-0.0426717
-0.04269
-0.0422829
-0.0414531
-0.0402106
-0.0385726
-0.0365637
-0.0342164
-0.0315703
-0.0286723
-0.0255764
-0.0223427
-0.0190377
-0.0157331
-0.0125056
-0.0094362
-0.00660965
-0.00411346
-0.00203699
-0.000474197
0.00223401
0.00668963
0.0110395
0.0152135
0.0191602
0.0228408
0.0262277
0.0293027
0.0320559
0.0344833
0.0365861
0.0383689
0.0398385
0.0410034
0.0418725
0.0424545
0.042758
0.0427905
0.0425585
0.0420677
0.0413225
0.0403268
0.0390837
0.0375961
0.035867
0.0338995
0.0316977
0.0292665
0.0266125
0.0237437
0.0206703
0.0174047
0.0139618
0.0103589
0.00661631
0.00275705
-0.00119308
-0.00520548
-0.00924894
-0.0132898
-0.017292
-0.021218
-0.0250282
-0.0286824
-0.0321397
-0.0353593
-0.0383012
-0.0409269
-0.0432002
-0.0450877
-0.0465604
-0.0475934
-0.0481678
-0.0482706
-0.0478958
-0.0470448
-0.0457272
-0.0439606
-0.0417711
-0.0391933
-0.0362702
-0.0330529
-0.0296002
-0.0259782
-0.0222593
-0.0185223
-0.0148507
-0.0113326
-0.00805971
-0.00512615
-0.00262732
-0.000662586
0.00261981
0.00776765
0.012736
0.0174602
0.0218939
0.0260033
0.0297652
0.033166
0.0361994
0.038865
0.0411671
0.0431129
0.0447117
0.0459739
0.0469101
0.0475307
0.047845
0.0478617
0.047588
0.0470299
0.0461925
0.0450799
0.0436954
0.0420421
0.040123
0.0379416
0.0355021
0.0328099
0.0298716
0.0266961
0.0232941
0.0196789
0.0158663
0.0118751
0.00772685
0.00344641
-0.000938424
-0.00539679
-0.00989489
-0.0143961
-0.0188614
-0.0232493
-0.0275168
-0.0316194
-0.0355118
-0.0391487
-0.0424854
-0.0454786
-0.0480871
-0.050273
-0.0520025
-0.0532466
-0.0539826
-0.0541941
-0.0538727
-0.0530179
-0.0516382
-0.0497514
-0.0473846
-0.0445745
-0.0413672
-0.0378179
-0.0339906
-0.029957
-0.0257965
-0.0215945
-0.0174422
-0.0134353
-0.00967306
-0.00625677
-0.00328867
-0.000874474
0.00302992
0.00891201
0.0145347
0.0198392
0.0247849
0.0293433
0.0334966
0.0372358
0.0405592
0.0434703
0.0459768
0.0480892
0.0498195
0.0511802
0.052184
0.0528428
0.0531674
0.0531672
0.0528505
0.0522238
0.0512925
0.0500611
0.0485331
0.0467118
0.0446003
0.0422021
0.0395217
0.0365645
0.0333377
0.0298504
0.0261138
0.022142
0.0179516
0.0135626
0.00899776
0.00428357
-0.000550344
-0.00547096
-0.010442
-0.015424
-0.0203748
-0.0252495
-0.030001
-0.0345807
-0.0389388
-0.0430252
-0.0467901
-0.0501848
-0.0531631
-0.0556817
-0.0577017
-0.0591893
-0.0601171
-0.0604651
-0.0602212
-0.0593829
-0.057957
-0.0559608
-0.053422
-0.0503793
-0.0468815
-0.042988
-0.0387678
-0.0342989
-0.0296672
-0.0249661
-0.0202944
-0.0157562
-0.0114588
-0.00751166
-0.00402472
-0.00111101
0.00346308
0.0101193
0.0164303
0.0223438
0.0278253
0.0328522
0.0374125
0.0415025
0.0451253
0.0482891
0.0510054
0.0532881
0.0551523
0.0566131
0.0576854
0.0583827
0.0587174
0.0587002
0.0583399
0.057644
0.0566183
0.0552674
0.0535952
0.0516049
0.0492999
0.0466836
0.0437607
0.0405365
0.0370186
0.0332161
0.0291408
0.0248072
0.0202328
0.0154381
0.0104475
0.00528845
-7.54739e-06
-0.00540553
-0.0108669
-0.0163495
-0.021808
-0.027194
-0.0324567
-0.037543
-0.0423985
-0.046968
-0.0511962
-0.0550291
-0.0584144
-0.0613032
-0.0636506
-0.0654174
-0.066571
-0.0670865
-0.0669482
-0.0661501
-0.0646969
-0.0626049
-0.0599019
-0.0566278
-0.0528345
-0.0485851
-0.0439538
-0.039025
-0.0338917
-0.0286553
-0.0234233
-0.0183085
-0.0134275
-0.00889843
-0.00483999
-0.00137365
0.00391796
0.0113859
0.0184174
0.024967
0.0310067
0.0365207
0.0415029
0.0459556
0.0498873
0.0533108
0.0562422
0.0586991
0.0607
0.0622628
0.0634047
0.0641415
0.064487
0.064453
0.0640496
0.0632848
0.0621649
0.060695
0.058879
0.0567203
0.0542221
0.0513881
0.0482226
0.0447313
0.0409213
0.0368023
0.0323861
0.0276875
0.0227245
0.0175185
0.0120944
0.00648118
0.000711635
-0.00517746
-0.0111453
-0.0171473
-0.0231351
-0.029057
-0.034858
-0.0404809
-0.0458664
-0.0509538
-0.0556825
-0.0599922
-0.0638244
-0.0671237
-0.0698389
-0.0719243
-0.0733414
-0.0740598
-0.0740588
-0.0733284
-0.0718704
-0.0696994
-0.0668426
-0.0633409
-0.0592485
-0.0546325
-0.0495722
-0.0441584
-0.038492
-0.0326826
-0.026847
-0.0211078
-0.0155913
-0.0104259
-0.00573985
-0.00166422
0.00439315
0.0127079
0.02049
0.0277012
0.0343204
0.0403389
0.0457574
0.0505842
0.0548336
0.0585239
0.0616757
0.0643108
0.0664513
0.0681183
0.0693317
0.0701093
0.0704667
0.0704172
0.0699718
0.0691393
0.0679267
0.0663393
0.0643812
0.0620558
0.0593665
0.0563165
0.0529102
0.0491531
0.0450523
0.0406172
0.0358598
0.030795
0.025441
0.0198196
0.0139566
0.00788171
0.00162891
-0.00476343
-0.0112526
-0.0177917
-0.0243295
-0.0308109
-0.0371772
-0.0433668
-0.0493154
-0.054957
-0.0602247
-0.0650519
-0.0693734
-0.0731266
-0.0762533
-0.0787005
-0.0804228
-0.0813834
-0.0815558
-0.0809249
-0.0794888
-0.0772592
-0.0742623
-0.0705395
-0.0661467
-0.0611546
-0.055648
-0.0497241
-0.0434919
-0.03707
-0.0305853
-0.024171
-0.0179642
-0.0121044
-0.00673058
-0.00198484
0.00488716
0.0140813
0.0226419
0.0305383
0.037757
0.0442965
0.0501646
0.0553763
0.0599522
0.063916
0.0672934
0.0701109
0.0723942
0.0741681
0.075455
0.0762752
0.0766463
0.076583
0.0760976
0.0751996
0.0738967
0.0721944
0.0700971
0.0676083
0.064731
0.0614685
0.0578248
0.0538051
0.0494163
0.0446677
0.0395708
0.0341406
0.0283953
0.0223569
0.0160514
0.00950938
0.00276563
-0.00414021
-0.0111638
-0.018256
-0.0253632
-0.032427
-0.039385
-0.0461712
-0.0527163
-0.0589487
-0.0647952
-0.0701826
-0.0750381
-0.0792916
-0.0828767
-0.0857327
-0.0878063
-0.0890529
-0.0894393
-0.0889444
-0.0875612
-0.0852978
-0.0821785
-0.078244
-0.073552
-0.0681765
-0.0622072
-0.0557482
-0.0489169
-0.0418417
-0.0346603
-0.0275171
-0.0205616
-0.0139453
-0.00781935
-0.00233801
0.00539841
0.0155018
0.0248666
0.03347
0.0413065
0.0483822
0.0547125
0.0603195
0.06523
0.0694738
0.0730822
0.0760861
0.0785157
0.0803991
0.0817621
0.0826272
0.0830143
0.0829397
0.0824169
0.0814564
0.0800664
0.078253
0.0760206
0.0733726
0.070312
0.0668419
0.0629658
0.0586885
0.0540166
0.0489587
0.0435262
0.0377336
0.0315988
0.0251439
0.0183949
0.0113825
0.00414237
-0.00328505
-0.010854
-0.0185137
-0.0262079
-0.0338755
-0.0414505
-0.0488625
-0.0560373
-0.0628975
-0.0693636
-0.0753549
-0.0807912
-0.0855939
-0.0896879
-0.0930035
-0.0954784
-0.0970597
-0.0977057
-0.0973882
-0.096094
-0.0938265
-0.0906067
-0.0864743
-0.0814876
-0.0757235
-0.0692767
-0.0622583
-0.0547944
-0.0470237
-0.0390955
-0.031167
-0.0234007
-0.0159616
-0.00901421
-0.00272655
0.00592522
0.0169649
0.0271571
0.0364874
0.0449585
0.0525845
0.0593887
0.0654003
0.0706533
0.0751835
0.0790278
0.0822224
0.0848017
0.0867977
0.0882394
0.0891522
0.089558
0.089475
0.0889181
0.0878988
0.0864259
0.0845059
0.0821434
0.0793419
0.0761041
0.0724326
0.0683306
0.0638024
0.0588539
0.0534932
0.0477309
0.041581
0.035061
0.0281924
0.0210011
0.0135179
0.00577838
-0.00217618
-0.0102991
-0.0185381
-0.0268349
-0.0351258
-0.0433414
-0.0514072
-0.0592441
-0.066769
-0.0738956
-0.0805359
-0.0866014
-0.0920044
-0.0966606
-0.10049
-0.103421
-0.105391
-0.106347
-0.106254
-0.10509
-0.102854
-0.0995607
-0.0952485
-0.0899755
-0.0838209
-0.076884
-0.0692829
-0.0611528
-0.0526434
-0.0439166
-0.0351432
-0.0265002
-0.0181674
-0.0103241
-0.00315363
0.00646584
0.0184658
0.0295061
0.0395812
0.048702
0.0568912
0.0641798
0.070605
0.0762075
0.0810301
0.0851152
0.0885044
0.0912369
0.0933486
0.094872
0.0958354
0.0962631
0.0961752
0.0955879
0.0945141
0.0929631
0.090942
0.0884556
0.0855071
0.0820992
0.078234
0.0739142
0.0691434
0.0639267
0.0582713
0.0521872
0.0456875
0.0387888
0.0315119
0.0238822
0.0159301
0.00769113
-0.000793335
-0.00947601
-0.0183034
-0.0272158
-0.036147
-0.0450247
-0.0537706
-0.0623005
-0.0705259
-0.0783537
-0.0856883
-0.0924325
-0.0984891
-0.103764
-0.108165
-0.111611
-0.114027
-0.11535
-0.115534
-0.114549
-0.112384
-0.109051
-0.104583
-0.0990364
-0.0924932
-0.0850563
-0.076851
-0.0680218
-0.0587299
-0.0491507
-0.0394699
-0.0298803
-0.0205781
-0.011759
-0.00362275
0.00701842
0.0199996
0.0319062
0.0427416
0.0525256
0.0612893
0.069072
0.0759187
0.0818775
0.0869978
0.0913284
0.0949162
0.0978052
0.100036
0.101644
0.102661
0.103114
0.103025
0.102411
0.101288
0.0996642
0.0975481
0.0949445
0.0918567
0.0882869
0.0842369
0.0797086
0.0747049
0.06923
0.0632902
0.0568943
0.0500543
0.0427858
0.0351087
0.0270473
0.0186313
0.00989568
0.000881681
-0.0083633
-0.0177852
-0.0273229
-0.0369085
-0.046467
-0.0559164
-0.0651684
-0.0741285
-0.0826972
-0.0907711
-0.0982439
-0.105009
-0.11096
-0.115995
-0.120018
-0.122943
-0.124695
-0.125216
-0.124463
-0.122418
-0.119084
-0.114489
-0.108689
-0.101763
-0.0938206
-0.084992
-0.0754317
-0.0653134
-0.0548265
-0.044173
-0.033563
-0.0232106
-0.0133295
-0.00413777
0.00758103
0.021561
0.0343495
0.0459588
0.0564176
0.0657657
0.074051
0.0813263
0.0876473
0.0930704
0.0976505
0.10144
0.104489
0.106842
0.108538
0.109611
0.110093
0.110007
0.109372
0.108203
0.106513
0.104309
0.101595
0.0983764
0.0946539
0.0904289
0.0857028
0.0804774
0.0747559
0.0685435
0.0618478
0.0546793
0.0470525
0.0389856
0.0305021
0.0216302
0.0124041
0.00286439
-0.00694191
-0.0169605
-0.0271298
-0.0373802
-0.0476346
-0.0578081
-0.067808
-0.0775348
-0.0868823
-0.0957393
-0.103991
-0.111519
-0.118206
-0.123938
-0.128606
-0.132108
-0.134357
-0.135279
-0.13482
-0.13295
-0.129662
-0.124978
-0.118948
-0.111653
-0.103202
-0.0937347
-0.0834134
-0.0724248
-0.0609737
-0.0492797
-0.0375715
-0.0260829
-0.0150473
-0.0047029
0.00815168
0.0231448
0.0368278
0.0492223
0.0603657
0.0703067
0.0791018
0.0868118
0.0935003
0.0992304
0.104064
0.108059
0.111271
0.113748
0.115534
0.116668
0.117182
0.117102
0.11645
0.115242
0.113491
0.111205
0.10839
0.105049
0.101184
0.0967946
0.0918822
0.0864475
0.0804926
0.0740212
0.0670394
0.0595565
0.051585
0.0431418
0.0342485
0.0249319
0.015225
0.00516702
-0.00519573
-0.0158094
-0.026612
-0.0375335
-0.048495
-0.059409
-0.0701791
-0.080701
-0.0908625
-0.100544
-0.109623
-0.117969
-0.125454
-0.131949
-0.137331
-0.141483
-0.144301
-0.145696
-0.1456
-0.143968
-0.140781
-0.136052
-0.129825
-0.12218
-0.113226
-0.103107
-0.0919973
-0.0800956
-0.0676233
-0.0548184
-0.0419303
-0.0292141
-0.0169248
-0.00532268
0.00872834
0.0247456
0.039333
0.0525214
0.0643574
0.0748983
0.0842091
0.0923591
0.0994192
0.10546
0.11055
0.114753
0.11813
0.120734
0.122613
0.12381
0.124359
0.124289
0.123624
0.122383
0.120577
0.118217
0.115309
0.111855
0.107857
0.103315
0.0982289
0.0925984
0.0864243
0.0797089
0.0724568
0.0646753
0.0563753
0.0475716
0.0382839
0.0285373
0.0183627
0.00779786
-0.00311225
-0.0143147
-0.0257482
-0.0373422
-0.0490169
-0.060683
-0.0722411
-0.0835825
-0.0945892
-0.105135
-0.115086
-0.124304
-0.132647
-0.139973
-0.146141
-0.151019
-0.154485
-0.156432
-0.156775
-0.155452
-0.15243
-0.147709
-0.141328
-0.133358
-0.123911
-0.113135
-0.101213
-0.0883576
-0.0748067
-0.0608186
-0.0466651
-0.0326245
-0.0189754
-0.00600199
0.00930892
0.0263577
0.0418567
0.0558457
0.0683801
0.0795262
0.0893575
0.0979513
0.105387
0.111741
0.11709
0.121503
0.125047
0.12778
0.129754
0.131016
0.131602
0.131546
0.130873
0.129602
0.127748
0.125321
0.122327
0.11877
0.11465
0.109968
0.104721
0.0989089
0.0925311
0.0855881
0.0780829
0.0700207
0.0614105
0.0522648
0.0426012
0.0324423
0.0218169
0.0107607
-0.000683254
-0.0124636
-0.02452
-0.0367826
-0.0491714
-0.0615957
-0.0739541
-0.0861341
-0.0980127
-0.109457
-0.120324
-0.130465
-0.139726
-0.147949
-0.154977
-0.160661
-0.164858
-0.167442
-0.168307
-0.167373
-0.164589
-0.159941
-0.153455
-0.145196
-0.135275
-0.123843
-0.11109
-0.0972418
-0.0825558
-0.0673108
-0.0518027
-0.0363354
-0.0212132
-0.00674604
0.00989135
0.0279757
0.0443904
0.0591841
0.072421
0.0841761
0.094531
0.103572
0.111384
0.118054
0.123663
0.128288
0.132
0.134863
0.136933
0.138261
0.138888
0.138849
0.138171
0.136875
0.134978
0.132491
0.12942
0.125769
0.121538
0.116726
0.111333
0.105354
0.0987888
0.0916358
0.083896
0.0755729
0.0666728
0.0572061
0.0471877
0.0366376
0.0255821
0.0140542
0.00209458
-0.0102476
-0.0229137
-0.0358353
-0.0489327
-0.0621152
-0.0752798
-0.0883114
-0.101083
-0.113454
-0.125276
-0.136388
-0.146623
-0.155809
-0.163773
-0.170344
-0.17536
-0.178671
-0.18015
-0.179693
-0.17723
-0.172729
-0.166199
-0.157699
-0.147331
-0.13525
-0.121652
-0.106778
-0.090902
-0.0743256
-0.0573708
-0.0403691
-0.0236529
-0.00756041
0.0104736
0.0295941
0.0469258
0.0625261
0.0764676
0.0888335
0.099714
0.109203
0.117394
0.12438
0.13025
0.135086
0.138966
0.141959
0.144127
0.145522
0.146191
0.14617
0.14549
0.144174
0.142239
0.139698
0.136557
0.132821
0.128489
0.123562
0.118035
0.111905
0.105169
0.0978242
0.0898698
0.0813068
0.0721392
0.0623748
0.0520255
0.0411086
0.0296472
0.0176715
0.00521909
-0.00766357
-0.0209205
-0.0344851
-0.0482793
-0.062213
-0.0761827
-0.0900716
-0.103749
-0.117071
-0.129879
-0.142004
-0.153267
-0.163481
-0.172454
-0.179995
-0.185919
-0.190054
-0.192245
-0.192364
-0.190315
-0.186045
-0.179546
-0.170861
-0.160086
-0.147373
-0.132925
-0.116996
-0.0998765
-0.081894
-0.0633975
-0.0447486
-0.0263102
-0.00845097
0.0110535
0.0312075
0.0494548
0.0658613
0.0805073
0.0934844
0.104891
0.114828
0.123397
0.130699
0.136829
0.141876
0.145924
0.149047
0.15131
0.152773
0.153483
0.153482
0.152802
0.151468
0.1495
0.14691
0.143707
0.139894
0.135472
0.13044
0.124793
0.118528
0.111639
0.104121
0.0959731
0.0871926
0.0777815
0.0677446
0.0570909
0.0458345
0.0339953
0.0215997
0.00868212
-0.00471444
-0.0185372
-0.0327224
-0.0471945
-0.0618648
-0.0766307
-0.0913747
-0.105964
-0.12025
-0.13407
-0.147245
-0.159584
-0.170884
-0.180937
-0.189531
-0.196457
-0.201515
-0.204523
-0.205323
-0.203793
-0.199852
-0.193469
-0.184669
-0.173538
-0.160221
-0.144928
-0.12792
-0.109509
-0.0900466
-0.0699116
-0.0494977
-0.0292013
-0.00942394
0.0116293
0.0328108
0.0519697
0.0691794
0.0845282
0.098115
0.110046
0.12043
0.129376
0.136992
0.14338
0.148636
0.152849
0.156099
0.158457
0.159985
0.160737
0.160755
0.160075
0.158726
0.156727
0.154094
0.150834
0.146953
0.142451
0.137325
0.131572
0.125186
0.118161
0.110491
0.10217
0.0931954
0.0835661
0.0732839
0.0623547
0.050789
0.0386031
0.0258197
0.0124692
-0.00140939
-0.0157671
-0.030544
-0.0456676
-0.0610521
-0.0765968
-0.0921848
-0.107683
-0.12294
-0.137787
-0.152039
-0.165494
-0.177935
-0.189136
-0.198863
-0.206883
-0.212967
-0.216902
-0.218499
-0.217602
-0.214099
-0.207932
-0.199102
-0.187678
-0.173799
-0.157673
-0.139573
-0.119827
-0.0988134
-0.0769416
-0.0546408
-0.0323429
-0.0104858
0.0121991
0.0343992
0.0544631
0.0724712
0.0885188
0.102712
0.115164
0.125992
0.135313
0.143239
0.149882
0.155343
0.159717
0.163091
0.16554
0.167131
0.167921
0.167957
0.167278
0.165914
0.163887
0.161213
0.157902
0.153959
0.149385
0.144177
0.13833
0.131839
0.124695
0.116891
0.10842
0.0992757
0.0894547
0.0789559
0.0677819
0.0559396
0.0434415
0.030306
0.0165592
0.00223564
-0.0126203
-0.027953
-0.0436945
-0.0597626
-0.0760598
-0.0924714
-0.108865
-0.125088
-0.140969
-0.156316
-0.170918
-0.184546
-0.196957
-0.207894
-0.217099
-0.224313
-0.22929
-0.231805
-0.231666
-0.228723
-0.222885
-0.214124
-0.202488
-0.188103
-0.171171
-0.151973
-0.130856
-0.108223
-0.0845161
-0.0602022
-0.0357525
-0.0116434
0.0127612
0.0359683
0.0569282
0.0757278
0.0924685
0.107263
0.120233
0.1315
0.141189
0.149422
0.156314
0.161974
0.166505
0.169997
0.172532
0.174181
0.175006
0.175057
0.174376
0.172996
0.170941
0.168228
0.16487
0.160871
0.156232
0.150952
0.145025
0.138442
0.131197
0.123278
0.114679
0.105389
0.095404
0.0847186
0.0733322
0.0612483
0.048475
0.0350266
0.0209243
0.00619773
-0.00911388
-0.0249602
-0.0412784
-0.0579913
-0.0750055
-0.0922103
-0.109475
-0.126649
-0.143559
-0.160008
-0.175779
-0.19063
-0.204303
-0.21652
-0.226998
-0.235446
-0.241582
-0.245143
-0.245894
-0.243646
-0.238265
-0.22969
-0.217938
-0.203117
-0.185422
-0.165135
-0.142619
-0.118302
-0.0926628
-0.0662068
-0.0394477
-0.0129038
0.0133142
0.0375142
0.0593592
0.0789414
0.0963678
0.111758
0.125237
0.136938
0.146989
0.155521
0.162655
0.168508
0.173187
0.17679
0.179404
0.181105
0.181959
0.18202
0.181333
0.179934
0.17785
0.1751
0.171697
0.167646
0.16295
0.157606
0.151608
0.144949
0.137618
0.129604
0.120898
0.111489
0.101367
0.0905253
0.0789605
0.0666716
0.0536627
0.0399435
0.0255301
0.0104469
-0.00527258
-0.021584
-0.0384306
-0.055741
-0.0734277
-0.091385
-0.109487
-0.127584
-0.145505
-0.163051
-0.179999
-0.196099
-0.211076
-0.224635
-0.236466
-0.246248
-0.253662
-0.258401
-0.260184
-0.258775
-0.253995
-0.245738
-0.233986
-0.218819
-0.200417
-0.179063
-0.155131
-0.129075
-0.101408
-0.0726791
-0.0434465
-0.0142744
0.0138568
0.0390338
0.0617513
0.0821056
0.100209
0.116185
0.130167
0.142292
0.152697
0.161518
0.168886
0.174921
0.17974
0.183444
0.186128
0.187872
0.188747
0.188811
0.188113
0.186691
0.184576
0.181787
0.178339
0.174239
0.169491
0.16409
0.158033
0.151309
0.143908
0.135818
0.127027
0.117522
0.107291
0.0963253
0.0846167
0.072161
0.0589581
0.0450127
0.030336
0.0149465
-0.00112828
-0.0178506
-0.0351703
-0.0530232
-0.0713288
-0.0899877
-0.10888
-0.127861
-0.146763
-0.165387
-0.183506
-0.200865
-0.217177
-0.23213
-0.245387
-0.256598
-0.265403
-0.271453
-0.274417
-0.274005
-0.269982
-0.262193
-0.250574
-0.235171
-0.21614
-0.193758
-0.168407
-0.140564
-0.110778
-0.0796431
-0.047767
-0.0157626
0.0143883
0.0405249
0.0641008
0.0852155
0.103984
0.120537
0.135011
0.14755
0.158299
0.167398
0.174987
0.181193
0.186139
0.189933
0.192675
0.194451
0.195337
0.195395
0.194678
0.193227
0.191074
0.188244
0.184751
0.180604
0.175807
0.170356
0.164247
0.157471
0.150014
0.141866
0.133011
0.123434
0.113123
0.102064
0.0902473
0.0776639
0.0643097
0.0501849
0.0352951
0.0196532
0.00327995
-0.0137937
-0.0315252
-0.0498582
-0.0687203