/*--------------------------------*- C++ -*----------------------------------*\
  =========                 |
  \\      /  F ield         | OpenFOAM: The Open Source CFD Toolbox
   \\    /   O peration     | Website:  https://openfoam.org
    \\  /    A nd           | Version:  dev
     \\/     M anipulation  |
\*---------------------------------------------------------------------------*/
FoamFile
{
    format      ascii;
    class       volScalarField;
    location    "35.1";
    object      p;
}
// * * * * * * * * * * * * * * * * * * * * * * * * * * * * * * * * * * * * * //

dimensions      [0 2 -2 0 0 0 0];

internalField   nonuniform List<scalar> 
5184
(
1.54609e-06
-9.9408e-06
-9.58045e-05
-0.000248696
-0.000448123
-0.000676812
-0.000920529
-0.0011673
-0.00140798
-0.00163543
-0.00184421
-0.00203032
-0.00219081
-0.00232358
-0.00242716
-0.00250055
-0.00254307
-0.00255428
-0.00253391
-0.00248178
-0.00239782
-0.00228201
-0.0021344
-0.00195512
-0.00174441
-0.00150266
-0.00123039
-0.000928372
-0.000597583
-0.000239299
0.000144896
0.000553075
0.000982945
0.00143183
0.00189668
0.00237404
0.00286009
0.00335066
0.00384128
0.00432721
0.00480351
0.00526509
0.00570684
0.00612367
0.00651062
0.006863
0.00717642
0.00744697
0.00767127
0.00784658
0.0079709
0.00804302
0.00806258
0.00803017
0.00794727
0.00781634
0.00764076
0.00742485
0.00717382
0.00689375
0.00659147
0.00627462
0.00595149
0.00563106
0.00532286
0.005037
0.00478397
0.0045744
0.00441826
0.00432398
0.00429704
0.00432432
1.51395e-05
2.68269e-06
-7.19105e-05
-0.000199685
-0.000364955
-0.000555249
-0.000759636
-0.00096851
-0.00117395
-0.00136955
-0.00155027
-0.00171221
-0.00185238
-0.00196857
-0.00205913
-0.00212286
-0.0021589
-0.00216665
-0.00214568
-0.00209571
-0.00201655
-0.00190813
-0.00177045
-0.00160361
-0.00140785
-0.00118351
-0.000931149
-0.00065148
-0.000345463
-1.43186e-05
0.000340449
0.00071702
0.00111325
0.00152664
0.00195435
0.0023932
0.00283967
0.00328994
0.00373991
0.00418526
0.0046215
0.00504401
0.00544815
0.00582935
0.00618314
0.0065053
0.00679193
0.00703954
0.00724514
0.00740636
0.00752147
0.00758948
0.00761019
0.00758423
0.00751306
0.00739903
0.0072453
0.0070559
0.00683563
0.00659004
0.00632538
0.00604853
0.00576692
0.00548849
0.00522154
0.00497465
0.00475649
0.00457544
0.00443879
0.00435249
0.00432393
0.00435152
0.000101847
7.71321e-05
1.7919e-06
-0.000115758
-0.000263484
-0.00043175
-0.000611844
-0.000795931
-0.000977309
-0.00115042
-0.00131075
-0.00145472
-0.00157951
-0.00168296
-0.00176341
-0.00181963
-0.00185069
-0.0018559
-0.00183476
-0.00178691
-0.00171211
-0.00161022
-0.0014812
-0.00132511
-0.00114215
-0.000932628
-0.000697045
-0.000436079
-0.000150626
0.00015817
0.000488899
0.000839856
0.00120903
0.0015941
0.00199241
0.00240098
0.00281656
0.00323557
0.00365422
0.00406849
0.00447421
0.00486711
0.0052429
0.00559733
0.00592629
0.00622589
0.00649254
0.00672304
0.00691468
0.0070653
0.00717336
0.007238
0.00725911
0.00723735
0.00717415
0.00707174
0.00693315
0.00676214
0.0065632
0.00634149
0.00610278
0.00585337
0.00560001
0.00534982
0.00511019
0.00488855
0.00469241
0.0045288
0.00440377
0.00432253
0.00429475
0.00432539
0.000256913
0.00020551
0.000117706
-1.25443e-06
-0.000143705
-0.000301867
-0.000468615
-0.000637576
-0.000803209
-0.000960826
-0.00110655
-0.00123726
-0.00135043
-0.0014441
-0.00151675
-0.0015672
-0.00159453
-0.00159806
-0.00157727
-0.00153175
-0.00146123
-0.00136553
-0.00124454
-0.00109829
-0.0009269
-0.000730646
-0.000509948
-0.00026541
2.15305e-06
0.000291696
0.000601918
0.000931238
0.00127779
0.00163939
0.00201357
0.00239755
0.00278824
0.00318231
0.00357618
0.00396606
0.00434802
0.00471803
0.00507204
0.00540603
0.00571613
0.00599866
0.00625024
0.00646784
0.00664891
0.00679144
0.00689398
0.00695576
0.0069767
0.00695746
0.00689943
0.00680475
0.0066763
0.00651767
0.00633308
0.0061274
0.00590599
0.00567471
0.00543977
0.00520765
0.00498501
0.00477853
0.00459483
0.00444018
0.00432
0.00423935
0.00420831
0.00423357
0.0004617
0.000373102
0.000264506
0.000136801
-7.56492e-06
-0.000162427
-0.000322013
-0.00048132
-0.000635937
-0.000782065
-0.000916522
-0.0010367
-0.00114047
-0.00122617
-0.00129246
-0.00133827
-0.0013628
-0.00136538
-0.00134551
-0.00130277
-0.00123685
-0.00114754
-0.00103469
-0.000898247
-0.000738284
-0.000554986
-0.000348694
-0.000119917
0.000130636
0.000402032
0.000693095
0.00100238
0.00132817
0.00166844
0.00202088
0.00238289
0.00275157
0.00312376
0.00349608
0.00386493
0.00422657
0.00457716
0.00491282
0.00522973
0.00552415
0.00579256
0.00603171
0.00623871
0.0064111
0.00654692
0.00664482
0.00670404
0.00672451
0.00670687
0.00665245
0.00656332
0.00644222
0.00629257
0.00611838
0.00592423
0.00571518
0.00549668
0.00527448
0.00505452
0.00484287
0.00464554
0.00446846
0.00431725
0.00419687
0.00411208
0.00407168
0.00408152
0.000700046
0.000568025
0.000432859
0.000290816
0.000138883
-1.81691e-05
-0.000175733
-0.000330066
-0.00047783
-0.000616102
-0.000742408
-0.000854699
-0.000951305
-0.00103087
-0.00109232
-0.00113477
-0.00115752
-0.00115999
-0.00114171
-0.00110228
-0.00104137
-0.000958719
-0.000854133
-0.000727501
-0.000578808
-0.000408154
-0.000215776
-2.07389e-06
0.000232363
0.000486731
0.000759992
0.00105085
0.00135772
0.00167876
0.00201181
0.00235443
0.00270388
0.00305718
0.00341108
0.00376216
0.00410682
0.00444135
0.004762
0.00506506
0.0053469
0.00560409
0.00583344
0.00603212
0.00619772
0.00632831
0.00642253
0.00647964
0.00649954
0.00648282
0.00643074
0.00634529
0.00622909
0.00608541
0.00591808
0.00573144
0.00553029
0.00531973
0.00510513
0.00489201
0.00468591
0.00449231
0.00431655
0.0041637
0.00403831
0.00394478
0.00388959
0.00387653
0.00095816
0.000779401
0.000613862
0.000453319
0.000289398
0.000125706
-3.41353e-05
-0.000187523
-0.000332123
-0.000465848
-0.000586924
-0.000693882
-0.000785512
-0.000860833
-0.000919041
-0.000959476
-0.000981585
-0.00098489
-0.000968973
-0.000933459
-0.000878011
-0.000802337
-0.000706188
-0.000589382
-0.000451816
-0.000293486
-0.000114518
8.48136e-05
0.000304052
0.000542535
0.000799371
0.00107341
0.00136324
0.00166716
0.00198316
0.00230896
0.00264196
0.00297932
0.00331794
0.00365448
0.00398546
0.00430727
0.00461623
0.00490869
0.00518106
0.00542994
0.00565217
0.0058449
0.00600572
0.00613267
0.00622437
0.00628001
0.00629946
0.00628322
0.00623249
0.00614916
0.00603574
0.00589537
0.00573171
0.00554894
0.00535161
0.00514456
0.00493285
0.00472165
0.00451609
0.00432123
0.00414192
0.00398274
0.00384793
0.00374153
0.00366722
0.00362622
0.00122392
0.000997088
0.000798919
0.00061702
0.000437905
0.000264216
9.87411e-05
-5.69464e-05
-0.000201438
-0.000333436
-0.000451845
-0.000555765
-0.000644459
-0.000717326
-0.000773865
-0.000813647
-0.000836288
-0.000841427
-0.000828717
-0.000797814
-0.00074838
-0.000680089
-0.000592638
-0.000485767
-0.000359275
-0.00021305
-4.70895e-05
0.000138465
0.000343304
0.000566915
0.000808563
0.00106726
0.00134174
0.00163046
0.00193156
0.0022429
0.00256202
0.00288619
0.0032124
0.00353742
0.00385783
0.00417006
0.00447047
0.00475542
0.00502132
0.00526473
0.00548246
0.00567162
0.00582972
0.00595474
0.00604521
0.00610025
0.00611962
0.00610375
0.00605375
0.00597138
0.00585908
0.00571984
0.00555721
0.00537519
0.00517817
0.00497079
0.00475787
0.00454427
0.00433486
0.00413433
0.00394717
0.00377755
0.00362947
0.00350669
0.00340992
0.00333774
0.00148706
0.00121194
0.000979969
0.000774881
0.000578351
0.000392213
0.00021855
5.80055e-05
-8.88644e-05
-0.000221502
-0.000339458
-0.000442383
-0.000530007
-0.000602109
-0.000658496
-0.000698978
-0.000723348
-0.000731372
-0.000722777
-0.000697256
-0.000654469
-0.000594058
-0.00051566
-0.000418931
-0.000303568
-0.000169335
-1.60962e-05
0.000156154
0.00034726
0.000556871
0.000784414
0.00102906
0.00128972
0.00156498
0.00185314
0.00215219
0.00245979
0.0027733
0.00308981
0.00340613
0.00371888
0.00402452
0.00431939
0.00459981
0.00486215
0.0051029
0.00531878
0.00550678
0.00566432
0.00578926
0.00588
0.00593554
0.00595551
0.00594024
0.00589071
0.00580859
0.00569617
0.00555637
0.00539261
0.00520877
0.0050091
0.00479808
0.00458037
0.00436064
0.00414351
0.00393344
0.00373465
0.00355098
0.00338633
0.00324421
0.00312247
0.00301713
0.00173859
0.00141568
0.00114951
0.000920172
0.000704763
0.000504443
0.000320689
0.000153299
2.04524e-06
-0.000133205
-0.000252609
-0.000356349
-0.000444601
-0.00051752
-0.000575214
-0.000617731
-0.000645042
-0.000657038
-0.000653523
-0.000634224
-0.0005988
-0.000546855
-0.000477962
-0.000391685
-0.00028761
-0.000165371
-2.46873e-05
0.000134603
0.000312509
0.000508849
0.00072322
0.000954965
0.00120315
0.00146652
0.00174353
0.00203228
0.00233054
0.00263576
0.00294509
0.00325539
0.00356328
0.00386519
0.00415744
0.00443627
0.00469795
0.00493886
0.00515558
0.00534497
0.00550426
0.00563116
0.00572391
0.00578133
0.00580291
0.00578882
0.0057399
0.00565769
0.00554438
0.00540277
0.00523619
0.00504843
0.00484361
0.00462615
0.00440056
0.00417141
0.00394317
0.00372016
0.00350639
0.00330553
0.00312142
0.00295752
0.00280888
0.00266916
0.00197059
0.00160083
0.00130058
0.00104649
0.000811321
0.000595655
0.000400435
0.000224687
6.74562e-05
-7.20321e-05
-0.000194509
-0.000300656
-0.000391079
-0.000466288
-0.000526685
-0.000572546
-0.000604015
-0.000621101
-0.000623682
-0.000611516
-0.000584251
-0.00054145
-0.000482614
-0.000407209
-0.0003147
-0.000204582
-7.64195e-05
7.0115e-05
0.000235204
0.000418846
0.000620816
0.000840631
0.00107752
0.00133041
0.00159786
0.00187812
0.00216905
0.00246819
0.00277273
0.00307954
0.00338524
0.00368622
0.00397872
0.00425887
0.00452282
0.00476678
0.00498715
0.00518059
0.00534415
0.00547529
0.00557206
0.00563307
0.0056576
0.00564564
0.00559787
0.00551568
0.00540114
0.00525693
0.0050863
0.00489296
0.00468097
0.00445469
0.00421858
0.00397714
0.00373482
0.00349584
0.00326413
0.00304327
0.0028372
0.00264942
0.00247234
0.00229742
0.0021759
0.00176049
0.00142664
0.00114773
0.000892375
0.000660647
0.000453014
0.000267785
0.000103332
-4.1725e-05
-0.000168653
-0.000278606
-0.000372594
-0.000451467
-0.000515901
-0.000566387
-0.000603233
-0.000626556
-0.0006363
-0.000632243
-0.000614017
-0.000581136
-0.000533019
-0.000469025
-0.000388489
-0.000290757
-0.000175231
-4.14048e-05
0.000111087
0.00028243
0.000472588
0.000681262
0.000907857
0.00115145
0.00141077
0.00168416
0.00196961
0.00226471
0.00256669
0.00287244
0.00317854
0.00348132
0.00377691
0.00406131
0.00433049
0.00458048
0.00480745
0.00500782
0.00517837
0.00531632
0.00541943
0.00548607
0.00551528
0.00550682
0.00546116
0.00537954
0.00526387
0.00511672
0.00494126
0.00474113
0.00452038
0.00428332
0.00403444
0.00377825
0.00351921
0.00326157
0.00300928
0.00276593
0.00253565
0.0023221
0.00211526
0.00190446
0.00234797
0.00188828
0.00152158
0.00121808
0.000942455
0.000694298
0.000473643
0.00027813
0.000105492
-4.62149e-05
-0.000178765
-0.000293755
-0.000392575
-0.000476393
-0.000546141
-0.000602511
-0.000645955
-0.000676692
-0.000694716
-0.000699815
-0.000691597
-0.000669513
-0.000632894
-0.000580981
-0.000512969
-0.000428044
-0.000325432
-0.000204442
-6.45134e-05
9.47392e-05
0.000273477
0.000471595
0.000688682
0.000923986
0.00117638
0.00144435
0.00172597
0.00201891
0.00232044
0.00262744
0.00293644
0.00324369
0.0035452
0.00383681
0.00411429
0.00437341
0.0046101
0.00482049
0.00500103
0.00514865
0.00526079
0.00533549
0.00537152
0.00536836
0.00532624
0.00524619
0.00512996
0.00497999
0.00479936
0.00459168
0.00436098
0.0041116
0.00384807
0.003575
0.00329693
0.00301824
0.00274298
0.00247484
0.00221828
0.00197723
0.00173934
0.00149195
0.00248072
0.00197825
0.00157961
0.001252
0.000956273
0.000691589
0.000457572
0.000251222
6.96685e-05
-8.95667e-05
-0.000228736
-0.000349853
-0.000454665
-0.000544633
-0.000620926
-0.000684419
-0.000735695
-0.000775054
-0.000802529
-0.000817909
-0.000820761
-0.000810466
-0.000786252
-0.000747233
-0.000692452
-0.000620925
-0.000531691
-0.00042386
-0.000296664
-0.000149507
1.79821e-05
0.000205906
0.000414048
0.000641837
0.000888311
0.00115209
0.00143135
0.00172384
0.00202686
0.00233729
0.00265161
0.00296597
0.00327624
0.00357807
0.00386699
0.00413852
0.00438825
0.00461199
0.00480584
0.00496635
0.00509057
0.00517621
0.00522165
0.00522606
0.00518939
0.00511241
0.00499667
0.00484449
0.00465883
0.00444327
0.00420186
0.00393899
0.0036593
0.00336754
0.00306842
0.00276651
0.00246607
0.00217102
0.0018862
0.00161596
0.00134569
0.00106079
0.00256842
0.00202477
0.00159526
0.00124417
0.000928723
0.000647625
0.00040011
0.000182568
-8.44756e-06
-0.000175927
-0.000322573
-0.000450794
-0.000562669
-0.000659932
-0.000743969
-0.000815817
-0.000876173
-0.000925404
-0.000963566
-0.000990433
-0.00100552
-0.00100813
-0.000997369
-0.000972215
-0.000931546
-0.000874198
-0.000799009
-0.000704876
-0.000590811
-0.000455993
-0.000299825
-0.000121984
7.75263e-05
0.000298329
0.000539638
0.000800222
0.00107838
0.00137194
0.00167824
0.00199416
0.00231613
0.0026402
0.00296206
0.00327718
0.00358081
0.00386816
0.0041345
0.00437522
0.00458602
0.00476301
0.00490282
0.0050027
0.00506065
0.00507543
0.00504665
0.00497477
0.00486113
0.00470783
0.00451777
0.00429447
0.00404201
0.00376487
0.00346786
0.00315589
0.00283395
0.00250688
0.00217922
0.0018552
0.00154018
0.00123903
0.000934913
0.00061132
0.00260566
0.00202252
0.00156332
0.00118954
0.000854886
0.000557643
0.000296657
6.77225e-05
-0.000133162
-0.000309474
-0.000464347
-0.000600562
-0.000720506
-0.000826166
-0.000919125
-0.00100057
-0.00107128
-0.00113168
-0.00118184
-0.00122149
-0.0012501
-0.00126685
-0.00127075
-0.0012606
-0.00123512
-0.00119294
-0.00113269
-0.00105303
-0.000952752
-0.00083078
-0.000686279
-0.000518686
-0.000327776
-0.000113709
0.000122923
0.000381057
0.00065913
0.000955063
0.00126625
0.00158957
0.00192142
0.00225772
0.00259402
0.00292554
0.00324726
0.00355406
0.00384079
0.00410242
0.00433418
0.00453168
0.00469104
0.00480902
0.0048831
0.00491161
0.00489374
0.00482958
0.00472019
0.00456746
0.00437414
0.00414372
0.00388032
0.00358854
0.00327337
0.00293999
0.00259369
0.00223967
0.00188287
0.00152789
0.00118074
0.000846851
0.000507213
0.00014338
0.00258731
0.00196643
0.00147883
0.00108325
0.000730033
0.000417038
0.000142726
-9.76856e-05
-0.000308737
-0.000494375
-0.000658146
-0.000803179
-0.000932154
-0.00104729
-0.00115035
-0.00124263
-0.00132501
-0.00139794
-0.00146148
-0.00151533
-0.00155886
-0.00159116
-0.00161108
-0.00161728
-0.00160827
-0.00158247
-0.0015383
-0.00147416
-0.0013886
-0.00128027
-0.00114809
-0.000991222
-0.000809193
-0.000601922
-0.000369784
-0.000113649
0.000165081
0.000464444
0.000781907
0.00111437
0.00145818
0.00180918
0.00216273
0.00251382
0.00285714
0.00318717
0.00349834
0.00378513
0.00404226
0.00426474
0.00444814
0.0045886
0.00468306
0.00472928
0.00472596
0.00467278
0.00457042
0.00442053
0.00422569
0.00398931
0.00371556
0.00340919
0.00307539
0.00271968
0.00234771
0.00196514
0.00157735
0.00118946
0.000808162
0.00043959
6.25064e-05
-0.000343513
0.00250844
0.00185171
0.00133708
0.000920682
0.000549633
0.000221375
-6.60259e-05
-0.000317914
-0.000539353
-0.000734744
-0.000908026
-0.00106266
-0.0012016
-0.00132728
-0.00144162
-0.00154603
-0.00164145
-0.00172834
-0.00180674
-0.0018763
-0.0019363
-0.0019857
-0.0020232
-0.00204727
-0.00205624
-0.0020483
-0.00202161
-0.00197434
-0.00190473
-0.00181118
-0.00169229
-0.00154697
-0.00137445
-0.00117439
-0.000946905
-0.000692648
-0.000412833
-0.000109272
0.000215602
0.00055873
0.000916443
0.00128448
0.00165806
0.00203191
0.00240041
0.00275764
0.00309756
0.00341411
0.0037014
0.00395384
0.00416629
0.00433424
0.00445394
0.00452254
0.00453813
0.00449989
0.00440805
0.00426394
0.00406992
0.00382933
0.00354635
0.00322588
0.00287339
0.00249474
0.00209604
0.00168346
0.00126293
0.000840145
0.000422612
1.72475e-05
-0.000399488
-0.000850081
0.00236442
0.0016738
0.00113358
0.000697436
0.000309372
-3.35913e-05
-0.000333775
-0.000597078
-0.000829072
-0.0010346
-0.00121797
-0.00138297
-0.0015328
-0.0016701
-0.00179693
-0.00191479
-0.00202466
-0.00212702
-0.00222187
-0.00230879
-0.00238694
-0.00245516
-0.00251199
-0.00255571
-0.00258442
-0.00259607
-0.00258857
-0.0025598
-0.00250772
-0.00243042
-0.00232619
-0.00219361
-0.00203162
-0.00183956
-0.00161728
-0.00136516
-0.00108419
-0.000775999
-0.000442883
-8.78267e-05
0.000285504
0.000672785
0.00106907
0.00146887
0.00186621
0.00225476
0.00262797
0.00297921
0.0033019
0.00358974
0.00383685
0.00403793
0.00418847
0.00428484
0.00432447
0.00430589
0.00422882
0.00409418
0.00390406
0.00366165
0.00337114
0.00303759
0.00266675
0.0022649
0.00183865
0.00139477
0.000939814
0.00048015
2.41963e-05
-0.000420254
-0.000879156
-0.00137717
0.00215081
0.00142838
0.000864137
0.000409367
5.1621e-06
-0.000351889
-0.000664502
-0.000939115
-0.0011818
-0.00139781
-0.00159184
-0.00176795
-0.00192961
-0.00207962
-0.00222018
-0.00235286
-0.00247868
-0.00259811
-0.0027111
-0.00281715
-0.00291531
-0.00300426
-0.00308238
-0.00314773
-0.00319819
-0.00323146
-0.00324516
-0.00323689
-0.00320427
-0.00314507
-0.00305725
-0.00293904
-0.00278902
-0.0026062
-0.0023901
-0.0021408
-0.00185902
-0.00154616
-0.00120432
-0.000836395
-0.000445992
-3.74805e-05
0.000384066
0.000812922
0.00124279
0.00166691
0.00207819
0.00246934
0.00283309
0.00316232
0.00345029
0.00369084
0.00387854
0.00400891
0.00407853
0.0040852
0.00402801
0.00390736
0.00372499
0.00348388
0.00318821
0.00284317
0.00245482
0.00202988
0.00157554
0.00109924
0.000608257
0.000109709
-0.000386964
-0.000872991
-0.0013769
-0.00192566
0.00186346
0.00111142
0.000524784
5.25859e-05
-0.000366831
-0.000737311
-0.00106196
-0.00134775
-0.00160123
-0.00182808
-0.00203332
-0.00222131
-0.00239575
-0.00255959
-0.00271515
-0.00286409
-0.00300743
-0.00314562
-0.00327856
-0.00340565
-0.00352583
-0.00363761
-0.00373918
-0.0038284
-0.0039029
-0.00396011
-0.00399736
-0.00401192
-0.00400108
-0.00396226
-0.00389303
-0.00379125
-0.00365511
-0.00348324
-0.00327479
-0.00302947
-0.00274769
-0.00243056
-0.00207996
-0.0016986
-0.00129001
-0.000858549
-0.000409395
5.15212e-05
0.000517581
0.000981582
0.00143586
0.00187247
0.00228332
0.00266043
0.0029961
0.00328316
0.00351515
0.00368659
0.00379308
0.00383154
0.00380027
0.00369906
0.00352917
0.00329332
0.00299559
0.00264131
0.00223683
0.00178937
0.00130673
0.000797112
0.000268586
-0.000270862
-0.00081066
-0.00134096
-0.00189304
-0.00249637
0.00149851
0.000719181
0.000111859
-0.000376514
-0.00081017
-0.00119338
-0.00152966
-0.00182648
-0.00209086
-0.00232888
-0.00254589
-0.00274654
-0.00293471
-0.00311355
-0.00328545
-0.00345213
-0.00361463
-0.00377338
-0.00392819
-0.00407838
-0.00422274
-0.00435965
-0.00448706
-0.00460264
-0.00470374
-0.00478752
-0.004851
-0.0048911
-0.00490477
-0.00488901
-0.00484102
-0.00475821
-0.00463837
-0.00447967
-0.00428085
-0.00404122
-0.00376078
-0.0034403
-0.00308138
-0.00268649
-0.002259
-0.00180323
-0.0013244
-0.000828621
-0.000322811
0.000185387
0.000687737
0.00117556
0.00163995
0.00207192
0.00246274
0.00280408
0.00308834
0.00330884
0.00346006
0.00353787
0.00353962
0.00346432
0.00331264
0.00308692
0.0027911
0.00243057
0.00201198
0.00154306
0.0010323
0.000488705
-7.87387e-05
-0.000661093
-0.00124653
-0.00182399
-0.00242775
-0.00308994
0.00105238
0.000248212
-0.000377995
-0.000881236
-0.00132812
-0.00172334
-0.00207081
-0.0023785
-0.00265388
-0.00290341
-0.00313277
-0.00334687
-0.00354978
-0.00374479
-0.00393441
-0.00412038
-0.00430377
-0.00448495
-0.00466368
-0.00483916
-0.00501004
-0.00517453
-0.0053304
-0.00547506
-0.0056056
-0.0057189
-0.00581163
-0.00588037
-0.00592167
-0.00593213
-0.00590848
-0.00584771
-0.0057471
-0.00560437
-0.00541774
-0.00518607
-0.0049089
-0.00458658
-0.00422034
-0.00381235
-0.00336576
-0.00288475
-0.00237456
-0.0018414
-0.00129248
-0.000735841
-0.000180317
0.000364678
0.000889321
0.00138361
0.00183761
0.00224176
0.00258711
0.00286563
0.0030705
0.00319631
0.00323931
0.00319754
0.00307092
0.00286127
0.00257228
0.00220934
0.0017794
0.00129068
0.000752413
0.000174506
-0.000433065
-0.0010603
-0.00169396
-0.00232168
-0.00298094
-0.00370679
0.000521863
-0.000304588
-0.000947801
-0.00146455
-0.00192361
-0.0023301
-0.00268832
-0.00300672
-0.0032932
-0.00355459
-0.00379688
-0.00402522
-0.00424389
-0.0044563
-0.00466505
-0.00487193
-0.00507798
-0.00528356
-0.00548835
-0.00569143
-0.00589133
-0.00608606
-0.00627319
-0.00644989
-0.006613
-0.00675905
-0.0068844
-0.00698525
-0.00705773
-0.00709799
-0.00710231
-0.00706715
-0.00698928
-0.00686588
-0.00669462
-0.00647381
-0.00620248
-0.00588047
-0.00550856
-0.00508852
-0.0046232
-0.00411659
-0.00357381
-0.00300116
-0.00240605
-0.00179693
-0.00118318
-0.000574989
1.68851e-05
0.00058132
0.00110711
0.00158329
0.00199941
0.00234591
0.00261443
0.0027981
0.00289182
0.00289245
0.00279896
0.00261249
0.00233634
0.00197583
0.00153813
0.00103198
0.000467372
-0.00014481
-0.000793494
-0.00146749
-0.00215203
-0.00283328
-0.0035522
-0.004347
-9.59035e-05
-0.000941953
-0.00160022
-0.00212908
-0.00259924
-0.00301623
-0.00338474
-0.00371367
-0.00401136
-0.00428496
-0.00454078
-0.00478418
-0.00501964
-0.00525069
-0.00548002
-0.00570944
-0.00594001
-0.00617203
-0.00640511
-0.00663822
-0.00686974
-0.00709752
-0.00731891
-0.00753085
-0.00772987
-0.00791223
-0.00807389
-0.00821068
-0.00831829
-0.00839241
-0.00842878
-0.00842334
-0.00837229
-0.00827219
-0.00812011
-0.00791375
-0.00765152
-0.00733267
-0.00695744
-0.00652711
-0.00604412
-0.00551216
-0.00493618
-0.00432244
-0.0036785
-0.00301315
-0.00233631
-0.00165893
-0.000992722
-0.000350001
0.000256663
0.000814751
0.00131216
0.00173759
0.00208091
0.00233354
0.00248877
0.00254202
0.0024911
0.00233624
0.00208019
0.00172807
0.00128718
0.000766768
0.000177626
-0.000468327
-0.00115882
-0.00188136
-0.00261944
-0.00335762
-0.00414068
-0.0050102
-0.000803365
-0.00166623
-0.00233753
-0.00287706
-0.00335721
-0.00378392
-0.00416225
-0.00450155
-0.00481053
-0.0050967
-0.00536662
-0.00562591
-0.00587919
-0.00613014
-0.00638149
-0.00663513
-0.00689209
-0.00715263
-0.00741629
-0.00768194
-0.00794781
-0.00821158
-0.0084704
-0.00872095
-0.00895949
-0.00918194
-0.00938392
-0.00956082
-0.0097079
-0.00982034
-0.00989335
-0.00992227
-0.00990267
-0.00983047
-0.00970205
-0.00951441
-0.00926526
-0.00895319
-0.00857777
-0.00813968
-0.00764086
-0.00708456
-0.00647545
-0.00581967
-0.00512483
-0.00439996
-0.00365549
-0.00290309
-0.00215547
-0.00142614
-0.000729147
-7.86776e-05
0.000511327
0.00102761
0.00145802
0.00179198
0.0020209
0.00213847
0.00214103
0.00202767
0.00180036
0.00146384
0.00102547
0.000494928
-0.000116184
-0.000794837
-0.00152746
-0.00230011
-0.0030944
-0.00389306
-0.004745
-0.00569548
-0.00160254
-0.00247934
-0.0031616
-0.00371032
-0.00419933
-0.00463497
-0.00502264
-0.00537212
-0.00569247
-0.00599154
-0.00627614
-0.00655211
-0.00682423
-0.00709631
-0.00737115
-0.00765067
-0.0079359
-0.00822706
-0.00852364
-0.00882438
-0.0091274
-0.00943019
-0.00972972
-0.0100224
-0.0103042
-0.0105708
-0.0108174
-0.0110389
-0.0112301
-0.0113857
-0.0115004
-0.0115688
-0.0115859
-0.0115468
-0.0114472
-0.0112832
-0.0110519
-0.010751
-0.0103793
-0.00993688
-0.0094249
-0.00884613
-0.00820481
-0.00750682
-0.0067597
-0.00597266
-0.00515651
-0.00432362
-0.00348765
-0.00266337
-0.00186635
-0.00111257
-0.000417984
0.000201976
0.000732887
0.00116187
0.0014781
0.00167324
0.00174179
0.00168141
0.00149301
0.00118075
0.000751877
0.000216435
-0.000413181
-0.00112278
-0.00189739
-0.00272147
-0.00357452
-0.00443728
-0.00536314
-0.0064013
-0.00249497
-0.00338275
-0.00407386
-0.00463027
-0.005127
-0.00557075
-0.00596727
-0.00632671
-0.0066585
-0.00697077
-0.00727059
-0.007564
-0.00785595
-0.00815034
-0.00845008
-0.0087571
-0.00907245
-0.00939632
-0.00972812
-0.0100665
-0.0104095
-0.0107544
-0.011098
-0.0114365
-0.0117655
-0.0120804
-0.012376
-0.0126468
-0.0128872
-0.0130913
-0.0132531
-0.0133666
-0.013426
-0.0134258
-0.0133607
-0.0132261
-0.0130182
-0.0127337
-0.0123706
-0.011928
-0.0114065
-0.0108081
-0.0101364
-0.00939693
-0.00859703
-0.00774592
-0.00685474
-0.00593641
-0.00500553
-0.00407813
-0.00317133
-0.00230302
-0.0014913
-0.000754016
-0.000108143
0.000430823
0.000849463
0.00113699
0.00128575
0.00129154
0.00115392
0.000876174
0.000465243
-6.86033e-05
-0.000712209
-0.00145019
-0.00226605
-0.00314253
-0.00405677
-0.0049873
-0.00599233
-0.00712533
-0.00348172
-0.00437749
-0.0050753
-0.00563788
-0.00614117
-0.0065922
-0.00699704
-0.00736622
-0.00770946
-0.00803519
-0.00835071
-0.00866225
-0.00897493
-0.00929276
-0.00961872
-0.00995479
-0.010302
-0.0106606
-0.0110299
-0.0114085
-0.0117942
-0.0121843
-0.0125753
-0.0129632
-0.0133435
-0.013711
-0.0140602
-0.0143854
-0.0146801
-0.0149381
-0.0151528
-0.0153174
-0.0154253
-0.0154703
-0.0154462
-0.0153473
-0.0151689
-0.0149069
-0.014558
-0.0141206
-0.0135942
-0.0129799
-0.0122807
-0.0115016
-0.0106494
-0.00973333
-0.00876461
-0.00775667
-0.00672492
-0.0056866
-0.00466043
-0.00366626
-0.00272449
-0.00185559
-0.00107936
-0.000414246
0.00012334
0.000519745
0.000764674
0.000851688
0.000778542
0.000547326
0.000164399
-0.000359911
-0.00101178
-0.0017746
-0.00263028
-0.00355966
-0.00453731
-0.00553925
-0.00662893
-0.00786435
-0.00456332
-0.00546407
-0.00616642
-0.00673365
-0.00724234
-0.0076998
-0.00811243
-0.00849106
-0.00884572
-0.00918508
-0.0095167
-0.00984698
-0.0101812
-0.0105234
-0.0108768
-0.0112434
-0.0116241
-0.0120193
-0.0124282
-0.0128494
-0.0132806
-0.0137189
-0.0141606
-0.0146016
-0.015037
-0.0154615
-0.0158691
-0.0162535
-0.0166081
-0.0169257
-0.0171992
-0.0174212
-0.0175843
-0.0176812
-0.0177049
-0.0176488
-0.0175069
-0.0172741
-0.016946
-0.0165199
-0.0159941
-0.0153689
-0.0146463
-0.0138304
-0.0129276
-0.0119468
-0.0108991
-0.0097983
-0.00866055
-0.00750418
-0.00634948
-0.00521828
-0.00413342
-0.00311815
-0.00219538
-0.00138688
-0.000712439
-0.000189064
0.000169821
0.000355013
0.000362008
0.000191267
-0.000151779
-0.000656985
-0.00130998
-0.00209298
-0.0029862
-0.00396842
-0.00501136
-0.00608829
-0.00726825
-0.00861409
-0.00573981
-0.00664252
-0.00734727
-0.00791765
-0.00843056
-0.00889359
-0.00931342
-0.00970116
-0.0100671
-0.0104202
-0.0107682
-0.0111177
-0.011474
-0.0118415
-0.0122234
-0.0126216
-0.0130374
-0.0134709
-0.0139214
-0.0143873
-0.0148665
-0.0153558
-0.0158515
-0.0163491
-0.0168435
-0.0173292
-0.0177998
-0.0182486
-0.0186683
-0.0190514
-0.01939
-0.019676
-0.019901
-0.020057
-0.0201358
-0.0201299
-0.0200321
-0.019836
-0.0195361
-0.0191284
-0.0186099
-0.0179797
-0.0172388
-0.0163903
-0.0154399
-0.0143958
-0.013269
-0.0120733
-0.0108255
-0.00954488
-0.00825319
-0.00697425
-0.0057334
-0.00455683
-0.00347081
-0.00250077
-0.00167033
-0.00100035
-0.000507929
-0.000205623
-0.000100754
-0.000195006
-0.000484308
-0.000959023
-0.00160444
-0.00240163
-0.00332911
-0.0043634
-0.00547311
-0.00662844
-0.00790443
-0.00936904
-0.00701065
-0.00791238
-0.00861744
-0.00918947
-0.00970543
-0.0101732
-0.0105996
-0.010996
-0.011373
-0.0117398
-0.0121043
-0.0124732
-0.0128521
-0.0132455
-0.0136566
-0.0140875
-0.0145395
-0.0150127
-0.0155064
-0.0160192
-0.0165486
-0.0170915
-0.017644
-0.0182016
-0.0187588
-0.0193097
-0.0198478
-0.0203659
-0.0208562
-0.0213106
-0.0217205
-0.022077
-0.022371
-0.0225934
-0.0227351
-0.0227873
-0.0227416
-0.0225903
-0.0223267
-0.0219452
-0.0214416
-0.0208136
-0.0200608
-0.0191851
-0.0181913
-0.0170868
-0.0158822
-0.0145911
-0.0132305
-0.0118206
-0.0103845
-0.00894788
-0.00753862
-0.00618597
-0.00491975
-0.00376937
-0.00276275
-0.0019251
-0.00127784
-0.000837506
-0.000614891
-0.000614446
-0.000833992
-0.00126482
-0.00189215
-0.00269607
-0.00365332
-0.00473808
-0.0059155
-0.00715241
-0.00853021
-0.0101223
-0.00837478
-0.00927268
-0.00997603
-0.0105483
-0.0110661
-0.0115376
-0.0119699
-0.0123746
-0.0127623
-0.0131425
-0.0135234
-0.0139118
-0.0143135
-0.0147331
-0.0151738
-0.0156381
-0.0161271
-0.0166411
-0.0171795
-0.0177407
-0.0183222
-0.018921
-0.019533
-0.0201535
-0.0207768
-0.0213969
-0.0220067
-0.0225988
-0.0231649
-0.0236962
-0.0241835
-0.0246171
-0.0249871
-0.0252834
-0.0254957
-0.0256141
-0.025629
-0.0255312
-0.0253126
-0.024966
-0.0244857
-0.0238679
-0.0231107
-0.0222147
-0.0211832
-0.0200228
-0.0187431
-0.0173575
-0.015883
-0.0143404
-0.0127537
-0.0111507
-0.00956147
-0.00801845
-0.00655518
-0.00520537
-0.00400161
-0.00297404
-0.00214903
-0.00154782
-0.00118544
-0.0010698
-0.00120129
-0.00157264
-0.00216941
-0.00297088
-0.00395207
-0.00508467
-0.00633008
-0.00765139
-0.00913681
-0.0108654
-0.00983061
-0.010722
-0.0114217
-0.0119928
-0.0125114
-0.0129858
-0.0134232
-0.0138354
-0.0142333
-0.0146266
-0.0150235
-0.0154311
-0.0158554
-0.0163011
-0.0167717
-0.0172695
-0.017796
-0.0183515
-0.0189354
-0.0195462
-0.0201814
-0.0208379
-0.0215115
-0.0221974
-0.0228899
-0.0235825
-0.024268
-0.0249384
-0.0255851
-0.0261987
-0.0267692
-0.0272864
-0.0277392
-0.0281167
-0.0284076
-0.0286005
-0.0286845
-0.0286492
-0.0284846
-0.0281822
-0.0277344
-0.0271358
-0.0263828
-0.0254744
-0.0244124
-0.0232019
-0.0218517
-0.0203744
-0.0187866
-0.0171095
-0.015368
-0.0135912
-0.0118117
-0.0100649
-0.00838832
-0.00682004
-0.00539777
-0.00415712
-0.00313007
-0.00234335
-0.00181704
-0.0015634
-0.00158611
-0.00188007
-0.00243161
-0.00321955
-0.00421727
-0.0053939
-0.0067068
-0.0081149
-0.00971362
-0.011588
-0.011376
-0.0122584
-0.0129527
-0.0135213
-0.0140396
-0.0145159
-0.0149576
-0.0153766
-0.015784
-0.0161896
-0.0166018
-0.017028
-0.0174744
-0.0179457
-0.0184457
-0.0189769
-0.0195409
-0.020138
-0.0207678
-0.0214288
-0.0221186
-0.0228341
-0.023571
-0.0243244
-0.0250885
-0.0258566
-0.0266211
-0.0273737
-0.0281053
-0.028806
-0.0294653
-0.030072
-0.0306143
-0.0310801
-0.0314571
-0.0317326
-0.0318945
-0.0319306
-0.0318295
-0.0315808
-0.0311754
-0.0306058
-0.0298665
-0.0289548
-0.0278706
-0.0266176
-0.0252031
-0.0236385
-0.0219401
-0.0201287
-0.0182298
-0.0162739
-0.0142955
-0.0123331
-0.0104278
-0.00862253
-0.00696039
-0.00548296
-0.00422849
-0.00323004
-0.00251365
-0.00209687
-0.00198763
-0.00218375
-0.00267305
-0.00343426
-0.00443936
-0.00565483
-0.00703373
-0.00853044
-0.010248
-0.0122775
-0.0130085
-0.0138797
-0.014567
-0.0151319
-0.0156488
-0.016126
-0.016571
-0.0169958
-0.0174118
-0.0178286
-0.0182552
-0.018699
-0.0191664
-0.0196624
-0.0201909
-0.0207546
-0.0213554
-0.0219936
-0.022669
-0.0233803