/*--------------------------------*- C++ -*----------------------------------*\
  =========                 |
  \\      /  F ield         | OpenFOAM: The Open Source CFD Toolbox
   \\    /   O peration     | Website:  https://openfoam.org
    \\  /    A nd           | Version:  dev
     \\/     M anipulation  |
\*---------------------------------------------------------------------------*/
FoamFile
{
    format      ascii;
    class       surfaceScalarField;
    location    "35.1";
    object      phi;
}
// * * * * * * * * * * * * * * * * * * * * * * * * * * * * * * * * * * * * * //

dimensions      [0 3 -1 0 0 0 0];

internalField   nonuniform List<scalar> 
10224
(
3.38391e-08
-3.48495e-08
8.78912e-08
-5.4051e-08
1.24452e-07
-3.65619e-08
1.25418e-07
-9.66185e-10
8.37893e-08
4.16281e-08
-1.70689e-09
8.5496e-08
-1.29244e-07
1.27537e-07
-2.95521e-07
1.66276e-07
-4.96473e-07
2.00952e-07
-7.27801e-07
2.31327e-07
-9.85232e-07
2.57432e-07
-1.26468e-06
2.79443e-07
-1.56229e-06
2.97615e-07
-1.87452e-06
3.12231e-07
-2.1981e-06
3.23576e-07
-2.53002e-06
3.31916e-07
-2.86751e-06
3.37489e-07
-3.208e-06
3.40494e-07
-3.54909e-06
3.41093e-07
-3.8885e-06
3.39409e-07
-4.22403e-06
3.35528e-07
-4.55353e-06
3.295e-07
-4.87488e-06
3.21352e-07
-5.18597e-06
3.11087e-07
-5.48466e-06
2.98691e-07
-5.76881e-06
2.84145e-07
-6.03623e-06
2.67426e-07
-6.28475e-06
2.48517e-07
-6.51217e-06
2.27415e-07
-6.7163e-06
2.04132e-07
-6.89501e-06
1.78707e-07
-7.04621e-06
1.51208e-07
-7.16795e-06
1.21737e-07
-7.25839e-06
9.0434e-08
-7.31586e-06
5.74785e-08
-7.33896e-06
2.30934e-08
-7.3265e-06
-1.24552e-08
-7.27764e-06
-4.8859e-08
-7.19187e-06
-8.57684e-08
-7.06908e-06
-1.22796e-07
-6.90956e-06
-1.59521e-07
-6.71406e-06
-1.95494e-07
-6.48382e-06
-2.30245e-07
-6.22052e-06
-2.63292e-07
-5.92638e-06
-2.94145e-07
-5.60406e-06
-3.22324e-07
-5.25669e-06
-3.47362e-07
-4.88787e-06
-3.68819e-07
-4.50158e-06
-3.86295e-07
-4.10214e-06
-3.99436e-07
-3.6942e-06
-4.07945e-07
-3.28261e-06
-4.11593e-07
-2.87238e-06
-4.10224e-07
-2.46862e-06
-4.03762e-07
-2.0764e-06
-3.92218e-07
-1.70072e-06
-3.75688e-07
-1.34636e-06
-3.54357e-07
-1.01786e-06
-3.28499e-07
-7.19385e-07
-2.98476e-07
-4.54649e-07
-2.64736e-07
-2.26829e-07
-2.27819e-07
-3.84722e-08
-1.88356e-07
1.08616e-07
-1.47088e-07
2.13498e-07
-1.04883e-07
2.76289e-07
-6.27922e-08
2.98421e-07
-2.21333e-08
2.83073e-07
1.53465e-08
2.35846e-07
4.72281e-08
1.65805e-07
7.00436e-08
8.72451e-08
7.85579e-08
2.25486e-08
6.4688e-08
2.25405e-08
5.39388e-08
-8.87878e-08
1.12478e-07
-1.12592e-07
1.18296e-07
-4.2382e-08
3.89944e-08
7.83343e-08
-1.41837e-07
2.22459e-07
-4.29524e-07
3.73182e-07
-8.22304e-07
5.20315e-07
-1.31403e-06
6.58001e-07
-1.89614e-06
7.8306e-07
-2.55882e-06
8.94003e-07
-3.29179e-06
9.90399e-07
-4.0848e-06
1.07245e-06
-4.92792e-06
1.14074e-06
-5.81172e-06
1.19603e-06
-6.72731e-06
1.23916e-06
-7.66635e-06
1.27096e-06
-8.62105e-06
1.29218e-06
-9.58404e-06
1.30349e-06
-1.05484e-05
1.30543e-06
-1.15074e-05
1.29844e-06
-1.24547e-05
1.28283e-06
-1.3384e-05
1.2588e-06
-1.42891e-05
1.22647e-06
-1.51639e-05
1.18589e-06
-1.60023e-05
1.13707e-06
-1.67981e-05
1.07996e-06
-1.75453e-05
1.01456e-06
-1.82376e-05
9.40858e-07
-1.88691e-05
8.58898e-07
-1.94338e-05
7.68795e-07
-1.99258e-05
6.70754e-07
-2.03397e-05
5.65085e-07
-2.06702e-05
4.52222e-07
-2.09125e-05
3.32734e-07
-2.10623e-05
2.07335e-07
-2.11161e-05
7.68889e-08
-2.1071e-05
-5.75873e-08
-2.09249e-05
-1.94929e-07
-2.06768e-05
-3.33828e-07
-2.03268e-05
-4.72848e-07
-1.98759e-05
-6.10434e-07
-1.93264e-05
-7.4494e-07
-1.8682e-05
-8.74651e-07
-1.79475e-05
-9.9781e-07
-1.7129e-05
-1.11265e-06
-1.62339e-05
-1.21744e-06
-1.52707e-05
-1.3105e-06
-1.42493e-05
-1.39025e-06
-1.31804e-05
-1.45526e-06
-1.20755e-05
-1.50426e-06
-1.09473e-05
-1.53622e-06
-9.80853e-06
-1.55032e-06
-8.67274e-06
-1.54601e-06
-7.55346e-06
-1.52305e-06
-6.46418e-06
-1.48149e-06
-5.41815e-06
-1.42172e-06
-4.42806e-06
-1.34444e-06
-3.50588e-06
-1.25068e-06
-2.66255e-06
-1.14181e-06
-1.90776e-06
-1.01953e-06
-1.24969e-06
-8.85892e-07
-6.94732e-07
-7.43313e-07
-2.47199e-07
-5.94622e-07
9.1067e-08
-4.43149e-07
3.21147e-07
-2.92871e-07
4.47641e-07
-1.48627e-07
4.79548e-07
-1.65643e-08
4.31352e-07
9.54189e-08
3.24503e-07
1.7689e-07
1.89028e-07
2.1404e-07
6.43991e-08
1.8933e-07
8.69316e-08
3.73687e-08
-1.26158e-07
4.33703e-08
-1.18596e-07
-4.32175e-08
4.42037e-08
-2.58681e-07
2.93796e-07
-6.22641e-07
5.86417e-07
-1.14222e-06
8.92756e-07
-1.81568e-06
1.19377e-06
-2.63536e-06
1.47769e-06
-3.5899e-06
1.7376e-06
-4.66578e-06
1.96988e-06
-5.84841e-06
2.17303e-06
-7.12292e-06
2.34696e-06
-8.47458e-06
2.4924e-06
-9.88916e-06
2.61061e-06
-1.1353e-05
2.70303e-06
-1.28532e-05
2.77117e-06
-1.43775e-05
2.81645e-06
-1.59142e-05
2.84015e-06
-1.74521e-05
2.84334e-06
-1.89805e-05
2.82688e-06
-2.04891e-05
2.79141e-06
-2.19677e-05
2.73739e-06
-2.34063e-05
2.66508e-06
-2.47951e-05
2.57466e-06
-2.61242e-05
2.46617e-06
-2.73838e-05
2.33964e-06
-2.85644e-05
2.19509e-06
-2.96561e-05
2.03263e-06
-3.06497e-05
1.85243e-06
-3.15357e-05
1.65483e-06
-3.23053e-05
1.44036e-06
-3.295e-05
1.20976e-06
-3.34618e-05
9.64058e-07
-3.38336e-05
7.04526e-07
-3.4059e-05
4.32754e-07
-3.41328e-05
1.50637e-07
-3.40507e-05
-1.39621e-07
-3.38102e-05
-4.35514e-07
-3.34097e-05
-7.34244e-07
-3.28498e-05
-1.03276e-06
-3.21325e-05
-1.32776e-06
-3.12616e-05
-1.6158e-06
-3.0243e-05
-1.89326e-06
-2.90844e-05
-2.15646e-06
-2.77953e-05
-2.40173e-06
-2.63873e-05
-2.62543e-06
-2.48737e-05
-2.8241e-06
-2.32695e-05
-2.99446e-06
-2.15912e-05
-3.13354e-06
-1.98567e-05
-3.23873e-06
-1.80851e-05
-3.30788e-06
-1.62961e-05
-3.33931e-06
-1.45102e-05
-3.33194e-06
-1.2748e-05
-3.28526e-06
-1.103e-05
-3.19943e-06
-9.37646e-06
-3.07528e-06
-7.80658e-06
-2.91432e-06
-6.33848e-06
-2.71877e-06
-4.98871e-06
-2.49158e-06
-3.77186e-06
-2.23638e-06
-2.70018e-06
-1.95758e-06
-1.78313e-06
-1.66037e-06
-1.02694e-06
-1.35081e-06
-4.34085e-07
-1.03601e-06
-2.64881e-09
-7.24309e-07
2.74452e-07
-4.25728e-07
4.10287e-07
-1.524e-07
4.25106e-07
8.05993e-08
3.47547e-07
2.54446e-07
2.15824e-07
3.45761e-07
7.8671e-08
3.26488e-07
1.656e-07
1.92538e-09
-1.28084e-07
-7.8917e-08
-3.77547e-08
-2.97619e-07
2.62904e-07
-6.87916e-07
6.84093e-07
-1.26813e-06
1.16663e-06
-2.04455e-06
1.66917e-06
-3.01436e-06
2.16359e-06
-4.16834e-06
2.63166e-06
-5.49286e-06
3.06212e-06
-6.9716e-06
3.44862e-06
-8.58671e-06
3.78815e-06
-1.03197e-05
4.07997e-06
-1.21521e-05
4.32479e-06
-1.40657e-05
4.5242e-06
-1.60429e-05
4.68024e-06
-1.80668e-05
4.79509e-06
-2.01213e-05
4.8709e-06
-2.21907e-05
4.90961e-06
-2.42603e-05
4.91288e-06
-2.63155e-05
4.88209e-06
-2.83424e-05
4.81827e-06
-3.03272e-05
4.72219e-06
-3.22564e-05
4.59435e-06
-3.41168e-05
4.43506e-06
-3.58952e-05
4.24452e-06
-3.75784e-05
4.02285e-06
-3.91535e-05
3.77023e-06
-4.06078e-05
3.48692e-06
-4.19288e-05
3.17339e-06
-4.31043e-05
2.83032e-06
-4.41227e-05
2.45874e-06
-4.49729e-05
2.06005e-06
-4.5645e-05
1.63606e-06
-4.61295e-05
1.18907e-06
-4.64186e-05
7.21852e-07
-4.65056e-05
2.37678e-07
-4.63856e-05
-2.59662e-07
-4.60552e-05
-7.65893e-07
-4.55132e-05
-1.27627e-06
-4.47603e-05
-1.78564e-06
-4.37996e-05
-2.28847e-06
-4.26365e-05
-2.77894e-06
-4.12787e-05
-3.25103e-06
-3.97365e-05
-3.69861e-06
-3.80227e-05
-4.11555e-06
-3.61523e-05
-4.49584e-06
-3.41427e-05
-4.8337e-06
-3.20135e-05
-5.12372e-06
-2.9786e-05
-5.36099e-06
-2.74835e-05
-5.5412e-06
-2.51306e-05
-5.66079e-06
-2.27529e-05
-5.71702e-06
-2.03768e-05
-5.70809e-06
-1.80288e-05
-5.63322e-06
-1.57355e-05
-5.49269e-06
-1.35229e-05
-5.28792e-06
-1.14157e-05
-5.0215e-06
-9.43733e-06
-4.69717e-06
-7.609e-06
-4.3199e-06
-5.94948e-06
-3.89589e-06
-4.47448e-06
-3.43258e-06
-3.1961e-06
-2.93875e-06
-2.1223e-06
-2.42461e-06
-1.25627e-06
-1.90203e-06
-5.95771e-07
-1.38481e-06
-1.32355e-07
-8.89148e-07
1.49489e-07
-4.34244e-07
2.73236e-07
-4.31434e-08
2.71356e-07
2.5633e-07
1.8636e-07
4.30756e-07
7.22368e-08
4.4061e-07
2.37838e-07
-4.20441e-08
-8.60402e-08
-2.30024e-07
1.50224e-07
-6.06572e-07
6.39451e-07
-1.19828e-06
1.2758e-06
-2.01891e-06
1.98726e-06
-3.07163e-06
2.72188e-06
-4.35125e-06
3.44321e-06
-5.84635e-06
4.12675e-06
-7.54105e-06
4.75682e-06
-9.41655e-06
5.32412e-06
-1.14523e-05
5.82389e-06
-1.36269e-05
6.25453e-06
-1.59186e-05
6.61653e-06
-1.83061e-05
6.9117e-06
-2.07685e-05
7.14258e-06
-2.32854e-05
7.312e-06
-2.58373e-05
7.4228e-06
-2.84053e-05
7.47759e-06
-3.0971e-05
7.47867e-06
-3.35169e-05
7.42794e-06
-3.60255e-05
7.32688e-06
-3.84799e-05
7.17661e-06
-4.08635e-05
6.97791e-06
-4.31597e-05
6.7313e-06
-4.53524e-05
6.43717e-06
-4.74254e-05
6.09585e-06
-4.93629e-05
5.70774e-06
-5.11493e-05
5.27338e-06
-5.27696e-05
4.79362e-06
-5.42089e-05
4.26967e-06
-5.54534e-05
3.70324e-06
-5.64899e-05
3.09655e-06
-5.73064e-05
2.45249e-06
-5.78919e-05
1.77458e-06
-5.82371e-05
1.06709e-06
-5.83344e-05
3.35005e-07
-5.81781e-05
-4.15972e-07
-5.77646e-05
-1.17942e-06
-5.70926e-05
-1.94825e-06
-5.61635e-05
-2.71479e-06
-5.49811e-05
-3.47083e-06
-5.35523e-05
-4.20779e-06
-5.18865e-05
-4.91676e-06
-4.99964e-05
-5.58873e-06
-4.78973e-05
-6.21467e-06
-4.56074e-05
-6.78576e-06
-4.31475e-05
-7.29353e-06
-4.05412e-05
-7.73005e-06
-3.78141e-05
-8.08813e-06
-3.49938e-05
-8.36148e-06
-3.21097e-05
-8.54486e-06
-2.91925e-05
-8.63428e-06
-2.62734e-05
-8.62713e-06
-2.33844e-05
-8.52226e-06
-2.05569e-05
-8.32013e-06
-1.7822e-05
-8.02285e-06
-1.52092e-05
-7.63425e-06
-1.27465e-05
-7.15992e-06
-1.04592e-05
-6.60724e-06
-8.36966e-06
-5.98539e-06
-6.4968e-06
-5.30544e-06
-4.85518e-06
-4.58038e-06
-3.4545e-06
-3.82529e-06
-2.29901e-06
-3.05753e-06
-1.38673e-06
-2.29709e-06
-7.08812e-07
-1.56707e-06
-2.48779e-07
-8.94284e-07
1.82386e-08
-3.10162e-07
1.26304e-07
1.48268e-07
1.19568e-07
4.37491e-07
5.36808e-08
5.06494e-07
2.9152e-07
-8.94384e-08
3.39811e-09
-3.95368e-07
4.56153e-07
-9.45184e-07
1.18927e-06
-1.75548e-06
2.0861e-06
-2.83306e-06
3.06484e-06
-4.17616e-06
4.06498e-06
-5.77594e-06
5.04299e-06
-7.61801e-06
5.96882e-06
-9.68389e-06
6.82271e-06
-1.19523e-05
7.59252e-06
-1.44002e-05
8.27175e-06
-1.70035e-05
8.85785e-06
-1.97379e-05
9.351e-06
-2.25794e-05
9.75314e-06
-2.5504e-05
1.00672e-05
-2.84887e-05
1.02967e-05
-3.1511e-05
1.0445e-05
-3.45489e-05
1.05155e-05
-3.75812e-05
1.0511e-05
-4.05873e-05
1.0434e-05
-4.35469e-05
1.02865e-05
-4.64402e-05
1.00699e-05
-4.92475e-05
9.78526e-06
-5.19497e-05
9.43349e-06
-5.45277e-05
9.01517e-06
-5.69627e-05
8.5309e-06
-5.92364e-05
7.98139e-06
-6.13306e-05
7.3676e-06
-6.32279e-05
6.69088e-06
-6.49113e-05
5.9531e-06
-6.63648e-05
5.15679e-06
-6.75735e-05
4.30524e-06
-6.85236e-05
3.40258e-06
-6.92029e-05
2.45383e-06
-6.96008e-05
1.465e-06
-6.97088e-05
4.43045e-07
-6.95207e-05
-6.04082e-07
-6.90326e-05
-1.6675e-06
-6.82434e-05
-2.73746e-06
-6.71548e-05
-3.8034e-06
-6.57715e-05
-4.85409e-06
-6.41016e-05
-5.87778e-06
-6.2156e-05
-6.86234e-06
-5.99492e-05
-7.79547e-06
-5.7499e-05
-8.66491e-06
-5.48261e-05
-9.45865e-06
-5.19545e-05
-1.01652e-05
-4.89108e-05
-1.07738e-05
-4.57243e-05
-1.12746e-05
-4.24267e-05
-1.16591e-05
-3.90513e-05
-1.19202e-05
-3.5633e-05
-1.20526e-05
-3.22077e-05
-1.20525e-05
-2.88115e-05
-1.19184e-05
-2.54807e-05
-1.1651e-05
-2.22503e-05
-1.12532e-05
-1.91545e-05
-1.07301e-05
-1.62251e-05
-1.00893e-05
-1.34913e-05
-9.34107e-06
-1.09789e-05
-8.49783e-06
-8.70961e-06
-7.5747e-06
-6.70058e-06
-6.58941e-06
-4.96347e-06
-5.56239e-06
-3.50395e-06
-4.51705e-06
-2.32096e-06
-3.48008e-06
-1.40615e-06
-2.48189e-06
-7.43186e-07
-1.55725e-06
-3.07227e-07
-7.46128e-07
-6.42812e-08
-9.46788e-08
2.94136e-08
3.43796e-07
2.83312e-08
5.07575e-07
3.19852e-07
-1.37654e-07
1.41052e-07
-5.66372e-07
8.8487e-07
-1.29763e-06
1.92052e-06
-2.33651e-06
3.12498e-06
-3.68134e-06
4.40966e-06
-5.32404e-06
5.70769e-06
-7.25101e-06
6.96996e-06
-9.44413e-06
8.16194e-06
-1.18818e-05
9.26042e-06
-1.45402e-05
1.02508e-05
-1.73935e-05
1.11251e-05
-2.04155e-05
1.18798e-05
-2.35794e-05
1.25149e-05
-2.68586e-05
1.30323e-05
-3.02269e-05
1.34355e-05
-3.36586e-05
1.37284e-05
-3.71287e-05
1.39151e-05
-4.06127e-05
1.39995e-05
-4.40868e-05
1.39852e-05
-4.75278e-05
1.3875e-05
-5.09127e-05
1.36714e-05
-5.42192e-05
1.33763e-05
-5.74251e-05
1.29912e-05
-6.05087e-05
1.25171e-05
-6.34485e-05
1.19549e-05
-6.62233e-05
1.13057e-05
-6.88123e-05
1.05704e-05
-7.11954e-05
9.75065e-06
-7.33528e-05
8.84831e-06
-7.52658e-05
7.86607e-06
-7.69164e-05
6.80746e-06
-7.82882e-05
5.67698e-06
-7.93658e-05
4.48019e-06
-8.01358e-05
3.22383e-06
-8.05866e-05
1.91585e-06
-8.07091e-05
5.65469e-07
-8.04962e-05
-8.169e-07
-7.99441e-05
-2.21964e-06
-7.90515e-05
-3.63002e-06
-7.78206e-05
-5.03433e-06
-7.62567e-05
-6.418e-06
-7.43687e-05
-7.7658e-06
-7.2169e-05
-9.06206e-06
-6.96735e-05
-1.02909e-05
-6.6902e-05
-1.14364e-05
-6.38775e-05
-1.24832e-05
-6.06263e-05
-1.34164e-05
-5.71781e-05
-1.4222e-05
-5.35651e-05
-1.48875e-05
-4.98224e-05
-1.54018e-05
-4.59869e-05
-1.57557e-05
-4.20972e-05
-1.59422e-05
-3.81931e-05
-1.59566e-05
-3.43148e-05
-1.57967e-05
-3.05024e-05
-1.54635e-05
-2.67952e-05
-1.49604e-05
-2.3231e-05
-1.42942e-05
-1.98457e-05
-1.34747e-05
-1.66718e-05
-1.25149e-05
-1.37386e-05
-1.1431e-05
-1.10709e-05
-1.02424e-05
-8.6883e-06
-8.97202e-06
-6.60477e-06
-7.64592e-06
-4.82786e-06
-6.29397e-06
-3.35804e-06
-4.94989e-06
-2.18823e-06
-3.65171e-06
-1.30319e-06
-2.44229e-06
-6.79204e-07
-1.37012e-06
-2.83608e-07
-4.90278e-07
-7.45363e-08
1.34723e-07
-5.65764e-10
4.33604e-07
3.19286e-07
-1.85444e-07
3.26496e-07
-7.38144e-07
1.43757e-06
-1.65411e-06
2.83649e-06
-2.92637e-06
4.39724e-06
-4.54383e-06
6.02713e-06
-6.49118e-06
7.65504e-06
-8.74919e-06
9.22797e-06
-1.12953e-05
1.07081e-05
-1.41045e-05
1.20696e-05
-1.71497e-05
1.3296e-05
-2.04028e-05
1.43782e-05
-2.38349e-05
1.5312e-05
-2.74172e-05
1.60971e-05
-3.11207e-05
1.67359e-05
-3.49172e-05
1.7232e-05
-3.87786e-05
1.75899e-05
-4.26778e-05
1.78143e-05
-4.65881e-05
1.79098e-05
-5.04834e-05
1.78805e-05
-5.43382e-05
1.77297e-05
-5.81272e-05
1.74605e-05
-6.18259e-05
1.7075e-05
-6.54099e-05
1.65751e-05
-6.88551e-05
1.59623e-05
-7.21378e-05
1.52377e-05
-7.52349e-05
1.44028e-05
-7.81235e-05
1.3459e-05
-8.07814e-05
1.24085e-05
-8.3187e-05
1.12539e-05
-8.53198e-05
9.99887e-06
-8.71603e-05
8.64797e-06
-8.86904e-05
7.20707e-06
-8.98936e-05
5.68337e-06
-9.07552e-05
4.08546e-06
-9.12628e-05
2.42347e-06
-9.14063e-05
7.09002e-07
-9.11784e-05
-1.0448e-06
-9.05747e-05
-2.82336e-06
-8.9594e-05
-4.61076e-06
-8.82385e-05
-6.38985e-06
-8.6514e-05
-8.14249e-06
-8.44301e-05
-9.84971e-06
-8.20001e-05
-1.1492e-05
-7.92414e-05
-1.30496e-05
-7.61751e-05
-1.45028e-05
-7.2826e-05
-1.58323e-05
-6.92227e-05
-1.70197e-05
-6.53971e-05
-1.80476e-05
-6.13842e-05
-1.89004e-05
-5.72219e-05
-1.95641e-05
-5.29503e-05
-2.00273e-05
-4.86114e-05
-2.02811e-05
-4.42484e-05
-2.03196e-05
-3.99052e-05
-2.01399e-05
-3.56257e-05
-1.9743e-05
-3.14529e-05
-1.91331e-05
-2.74286e-05
-1.83185e-05
-2.3592e-05
-1.73113e-05
-1.99795e-05
-1.61274e-05
-1.66235e-05
-1.47869e-05
-1.35522e-05
-1.33138e-05
-1.07879e-05
-1.17363e-05
-8.3473e-06
-1.00865e-05
-6.24026e-06
-8.401e-06
-4.46939e-06
-6.72076e-06
-3.02952e-06
-5.09157e-06
-1.90732e-06
-3.56448e-06
-1.08103e-06
-2.19642e-06
-5.20257e-07
-1.05105e-06
-1.86046e-07
-1.99488e-07
-3.10537e-08
2.78612e-07
2.88232e-07
-2.32167e-07
5.58663e-07
-9.07923e-07
2.11332e-06
-2.00866e-06
3.93722e-06
-3.51531e-06
5.90389e-06
-5.407e-06
7.91882e-06
-7.66059e-06
9.90862e-06
-1.02506e-05
1.1818e-05
-1.31496e-05
1.36071e-05
-1.63285e-05
1.52485e-05
-1.9757e-05
1.67245e-05
-2.34042e-05
1.80254e-05
-2.72388e-05
1.91466e-05
-3.12298e-05
2.00881e-05
-3.53461e-05
2.08522e-05
-3.95575e-05
2.14434e-05
-4.38341e-05
2.18665e-05
-4.81467e-05
2.21269e-05
-5.24666e-05
2.22298e-05
-5.67659e-05
2.21797e-05
-6.1017e-05
2.19808e-05
-6.51928e-05
2.16363e-05
-6.92666e-05
2.11488e-05
-7.32121e-05
2.05206e-05
-7.70033e-05
1.97535e-05
-8.06147e-05
1.88491e-05
-8.4021e-05
1.78091e-05
-8.71977e-05
1.66357e-05
-9.01207e-05
1.53315e-05
-9.27669e-05
1.39001e-05
-9.51141e-05
1.23461e-05
-9.71414e-05
1.06752e-05
-9.88292e-05
8.89492e-06
-0.00010016
7.01405e-06
-0.000101118
5.04324e-06
-0.000101689
2.9949e-06
-0.000101863
8.83259e-07
-0.000101632
-1.2757e-06
-0.000100992
-3.46425e-06
-9.99393e-05
-5.66308e-06
-9.84777e-05
-7.85143e-06
-9.66129e-05
-1.00073e-05
-9.43547e-05
-1.21078e-05
-9.17174e-05
-1.41294e-05
-8.87189e-05
-1.6048e-05
-8.53816e-05
-1.784e-05
-8.17319e-05
-1.9482e-05
-7.77999e-05
-2.09517e-05
-7.36195e-05
-2.22279e-05
-6.92283e-05
-2.32917e-05
-6.46664e-05
-2.4126e-05
-5.99768e-05
-2.47169e-05
-5.52047e-05
-2.50533e-05
-5.03964e-05
-2.51278e-05
-4.55994e-05
-2.4937e-05
-4.0861e-05
-2.44814e-05
-3.6228e-05
-2.37661e-05
-3.17459e-05
-2.28007e-05
-2.74577e-05
-2.15995e-05
-2.34034e-05
-2.01817e-05
-1.96191e-05
-1.85713e-05
-1.6136e-05
-1.67969e-05
-1.29801e-05
-1.48922e-05
-1.01709e-05
-1.28957e-05
-7.72111e-06
-1.08508e-05
-5.63602e-06
-8.80585e-06
-3.91303e-06
-6.81456e-06
-2.54133e-06
-4.93618e-06
-1.50178e-06
-3.23597e-06
-7.66928e-07
-1.78591e-06
-3.01299e-07
-6.65118e-07
-6.20301e-08
3.93439e-08
2.26202e-07
-2.77544e-07
8.36207e-07
-1.07417e-06
2.90995e-06
-2.35761e-06
5.22065e-06
-4.09703e-06
7.6433e-06
-6.26168e-06
1.00835e-05
-8.8203e-06
1.24672e-05
-1.17409e-05
1.47385e-05
-1.49905e-05
1.68567e-05
-1.85359e-05
1.87938e-05
-2.23432e-05
2.05318e-05
-2.63786e-05
2.20607e-05
-3.06083e-05
2.33763e-05
-3.4999e-05
2.44788e-05
-3.95179e-05
2.53711e-05
-4.41327e-05
2.60581e-05
-4.88118e-05
2.65456e-05
-5.35243e-05
2.68394e-05
-5.82399e-05
2.69454e-05
-6.29289e-05
2.68687e-05
-6.7562e-05
2.66139e-05
-7.21103e-05
2.61846e-05
-7.65455e-05
2.55841e-05
-8.08397e-05
2.48147e-05
-8.4965e-05
2.38788e-05
-8.88942e-05
2.27783e-05
-9.26005e-05
2.15154e-05
-9.60577e-05
2.00929e-05
-9.92402e-05
1.8514e-05
-0.000102123
1.67832e-05
-0.000104683
1.49062e-05
-0.000106898
1.289e-05
-0.000108747
1.07436e-05
-0.00011021
8.47765e-06
-0.000111272
6.10495e-06
-0.000111917
3.64029e-06
-0.000112135
1.10059e-06
-0.000111915
-1.49515e-06
-0.000111254
-4.12593e-06
-0.000110148
-6.76888e-06
-0.0001086
-9.39947e-06
-0.000106615
-1.19917e-05
-0.000104205
-1.45185e-05
-0.000101382
-1.6952e-05
-9.81661e-05
-1.9264e-05
-9.458e-05
-2.14262e-05
-9.0651e-05
-2.3411e-05
-8.64109e-05
-2.51918e-05
-8.18951e-05
-2.67437e-05
-7.71431e-05
-2.80438e-05
-7.21972e-05
-2.90718e-05
-6.71032e-05
-2.98109e-05
-6.19089e-05
-3.02477e-05
-5.66638e-05
-3.03729e-05
-5.14186e-05
-3.01821e-05
-4.62244e-05
-2.96756e-05
-4.11316e-05
-2.88588e-05
-3.61894e-05
-2.77428e-05
-3.14448e-05
-2.63441e-05
-2.69417e-05
-2.46849e-05
-2.27198e-05
-2.27931e-05
-1.88144e-05
-2.07023e-05
-1.52549e-05
-1.84517e-05
-1.20643e-05
-1.60863e-05
-9.25878e-06
-1.36564e-05
-6.8467e-06
-1.12179e-05
-4.82857e-06
-8.83269e-06
-3.19667e-06
-6.56808e-06
-1.93497e-06
-4.49766e-06
-1.01938e-06
-2.7015e-06
-4.18183e-07
-1.26632e-06
-9.29407e-08
-2.85898e-07
1.33261e-07
-3.21461e-07
1.15767e-06
-1.23605e-06
3.82454e-06
-2.69873e-06
6.68334e-06
-4.6674e-06
9.61197e-06
-7.10157e-06
1.25177e-05
-9.9618e-06
1.53275e-05
-1.32092e-05
1.7986e-05
-1.68055e-05
2.0453e-05
-2.07127e-05
2.2701e-05
-2.48933e-05
2.47124e-05
-2.93103e-05
2.64778e-05
-3.39276e-05
2.79936e-05
-3.87095e-05
2.92607e-05
-4.36213e-05
3.02829e-05
-4.86291e-05
3.10659e-05
-5.36996e-05
3.16161e-05
-5.88004e-05
3.19402e-05
-6.38997e-05
3.20447e-05
-6.89662e-05
3.19353e-05
-7.39694e-05
3.1617e-05
-7.88788e-05
3.1094e-05
-8.36646e-05
3.03699e-05
-8.82974e-05
2.94475e-05
-9.2748e-05
2.83294e-05
-9.69876e-05
2.70179e-05
-0.000100988
2.55159e-05
-0.000104722
2.38264e-05
-0.000108161
2.19537e-05
-0.000111281
1.9903e-05
-0.000114056
1.76811e-05
-0.000116462
1.52964e-05
-0.000118478
1.27594e-05
-0.000120083
1.00828e-05
-0.00012126
7.28142e-06
-0.000121992
4.37257e-06
-0.000122267
1.37594e-06
-0.000122076
-1.68637e-06
-0.000121412
-4.79001e-06
-0.000120273
-7.90843e-06
-0.000118659
-1.10132e-05
-0.000116576
-1.40741e-05
-0.000114035
-1.70599e-05
-0.000111049
-1.9938e-05
-0.000107637
-2.26757e-05
-0.000103823
-2.52402e-05
-9.96352e-05
-2.75991e-05
-9.51055e-05
-2.97216e-05
-9.0271e-05
-3.15781e-05
-8.51728e-05
-3.3142e-05
-7.98554e-05
-3.43892e-05
-7.43667e-05
-3.52996e-05
-6.87573e-05
-3.58571e-05
-6.30797e-05
-3.60505e-05
-5.7388e-05
-3.58738e-05
-5.17368e-05
-3.53269e-05
-4.61802e-05
-3.44154e-05
-4.07716e-05
-3.31515e-05
-3.5562e-05
-3.15538e-05
-3.05994e-05
-2.96475e-05
-2.59279e-05
-2.74645e-05
-2.15869e-05
-2.50433e-05
-1.76098e-05
-2.24288e-05
-1.40237e-05
-1.96724e-05
-1.08485e-05
-1.68316e-05
-8.09633e-06
-1.39701e-05
-5.7713e-06
-1.11577e-05
-3.86918e-06
-8.4702e-06
-2.37746e-06
-5.98938e-06
-1.27563e-06
-3.80333e-06
-5.35767e-07
-2.00618e-06
-1.23583e-07
-6.98082e-07
9.67882e-09
-3.63877e-07
1.52154e-06
-1.39306e-06
4.85371e-06
-3.03061e-06
8.32089e-06
-5.22366e-06
1.1805e-05
-7.92227e-06
1.52163e-05
-1.10789e-05
1.84841e-05
-1.46478e-05
2.15549e-05
-1.85851e-05
2.43903e-05
-2.28479e-05
2.69639e-05
-2.73951e-05
2.92596e-05
-3.21866e-05
3.12692e-05
-3.71834e-05
3.29904e-05
-4.23479e-05
3.44252e-05
-4.76434e-05
3.55785e-05
-5.30344e-05
3.64569e-05
-5.84861e-05
3.70678e-05
-6.39648e-05
3.74189e-05
-6.94373e-05
3.75172e-05
-7.48712e-05
3.73691e-05
-8.02345e-05
3.69802e-05
-8.54956e-05
3.63552e-05
-9.06236e-05
3.54979e-05
-9.55876e-05
3.44115e-05
-0.000100357
3.3099e-05
-0.000104903
3.15632e-05
-0.000109194
2.98073e-05
-0.000113203
2.78351e-05
-0.0001169
2.56513e-05
-0.00012026
2.32622e-05
-0.000123254
2.06757e-05
-0.000125859
1.79015e-05
-0.000128052
1.49518e-05
-0.00012981
1.1841e-05
-0.000131115
8.58622e-06
-0.000131949
5.20729e-06
-0.0001323
1.72668e-06
-0.000132156
-1.8304e-06
-0.00013151
-5.43614e-06
-0.000130358
-9.06027e-06
-0.000128701
-1.26703e-05
-0.000126543
-1.62319e-05
-0.000123894
-1.97091e-05
-0.000120767
-2.30649e-05
-0.000117181
-2.62615e-05
-0.00011316
-2.92614e-05
-0.000108732
-3.20274e-05
-0.00010393
-3.45237e-05
-9.87915e-05
-3.67162e-05
-9.33598e-05
-3.85737e-05
-8.76809e-05
-4.00682e-05
-8.18047e-05
-4.11758e-05
-7.57844e-05
-4.18774e-05
-6.96755e-05
-4.21593e-05
-6.35355e-05
-4.20139e-05
-5.74225e-05
-4.14399e-05
-5.13949e-05
-4.0443e-05
-4.551e-05
-3.90363e-05
-3.98234e-05
-3.72403e-05
-3.43877e-05
-3.50832e-05
-2.92517e-05
-3.26005e-05
-2.44593e-05
-2.98358e-05
-2.00485e-05
-2.68396e-05
-1.6051e-05
-2.36699e-05
-1.24909e-05
-2.03916e-05
-9.38474e-06
-1.70763e-05
-6.74057e-06
-1.38019e-05
-4.5581e-06
-1.06527e-05
-2.8286e-06
-7.71887e-06
-1.53529e-06
-5.09664e-06
-6.53946e-07
-2.88752e-06
-1.53981e-07
-1.19805e-06
-1.44302e-07
-4.04778e-07
1.92632e-06
-1.54491e-06
5.99384e-06
-3.3523e-06
1.01283e-05
-5.76386e-06
1.42166e-05
-8.72055e-06
1.8173e-05
-1.21669e-05
2.19304e-05
-1.60504e-05
2.54385e-05
-2.03214e-05
2.86613e-05
-2.49326e-05
3.1575e-05
-2.98386e-05
3.41657e-05
-3.49963e-05
3.64269e-05
-4.03642e-05
3.83583e-05
-4.59024e-05
3.99634e-05
-5.15724e-05
4.12485e-05
-5.73371e-05
4.22216e-05
-6.31605e-05
4.28912e-05
-6.90075e-05
4.32659e-05
-7.48438e-05
4.33536e-05
-8.0636e-05
4.31613e-05
-8.63511e-05
4.26953e-05
-9.19564e-05
4.19605e-05
-9.74199e-05
4.09614e-05
-0.00010271
3.97014e-05
-0.000107794
3.81838e-05
-0.000112643
3.64118e-05
-0.000117225
3.43891e-05
-0.00012151
3.212e-05
-0.000125468
2.961e-05
-0.000129072
2.68662e-05
-0.000132294
2.38975e-05
-0.000135108
2.0715e-05
-0.000137488
1.73325e-05
-0.000139414
1.37662e-05
-0.000140863
1.00354e-05
-0.000141818
6.16238e-06
-0.000142264
2.17243e-06
-0.000142188
-1.90612e-06
-0.000141582
-6.042e-06
-0.000140441
-1.02012e-05
-0.000138764
-1.43471e-05
-0.000136555
-1.84411e-05
-0.000133822
-2.24424e-05
-0.000130577
-2.63094e-05
-0.00012684
-2.99992e-05
-0.000122632
-3.34692e-05
-0.000117983
-3.66769e-05
-0.000112925
-3.95813e-05
-0.000107498
-4.21435e-05
-0.000101744
-4.43272e-05
-9.57121e-05
-4.61001e-05
-8.94538e-05
-4.74341e-05
-8.30248e-05
-4.83064e-05
-7.64835e-05
-4.87006e-05
-6.98908e-05
-4.86066e-05
-6.33088e-05
-4.80219e-05
-5.67999e-05
-4.69519e-05
-5.04261e-05
-4.54101e-05
-4.42478e-05
-4.34186e-05
-3.83226e-05
-4.10083e-05
-3.27044e-05
-3.82187e-05
-2.74423e-05
-3.50979e-05
-2.25795e-05
-3.17024e-05
-1.81527e-05
-2.80967e-05
-1.4191e-05
-2.43533e-05
-1.07156e-05
-2.05517e-05
-7.739e-06
-1.67785e-05
-5.26526e-06
-1.31264e-05
-3.28966e-06
-9.69447e-06
-1.79919e-06
-6.5871e-06
-7.73188e-07
-3.91353e-06
-1.84313e-07
-1.78692e-06
-3.28614e-07
-4.44152e-07
2.37047e-06
-1.69138e-06
7.24107e-06
-3.66311e-06
1.21e-05
-6.28652e-06
1.684e-05
-9.49387e-06
2.13803e-05
-1.3222e-05
2.56586e-05
-1.74119e-05
2.96284e-05
-2.20083e-05
3.32576e-05
-2.6959e-05
3.65257e-05
-3.2215e-05
3.94217e-05
-3.77299e-05
4.19418e-05
-4.34596e-05
4.4088e-05
-4.93621e-05
4.58658e-05
-5.53971e-05
4.72835e-05
-6.15261e-05
4.83506e-05
-6.77118e-05
4.90769e-05
-7.39181e-05
4.94721e-05
-8.01096e-05
4.95451e-05
-8.62521e-05
4.93038e-05
-9.23115e-05
4.87547e-05
-9.82546e-05
4.79036e-05
-0.000104048
4.67551e-05
-0.00010966
4.53131e-05
-0.000115058
4.35812e-05
-0.000120209
4.1563e-05
-0.000125082
3.92624e-05
-0.000129646
3.66844e-05
-0.000133871
3.38351e-05
-0.000137728
3.07223e-05
-0.000141186
2.73561e-05
-0.00014422
2.37488e-05
-0.000146803
1.99156e-05
-0.000148912
1.58746e-05
-0.000150523
1.16471e-05
-0.000151619
7.25787e-06
-0.000152181
2.7349e-06
-0.000152197
-1.89041e-06
-0.000151656
-6.58335e-06
-0.000150551
-1.13061e-05
-0.00014888
-1.60181e-05
-0.000146645
-2.0676e-05
-0.000143852
-2.52347e-05
-0.000140515
-2.96472e-05
-0.000136648
-3.38656e-05
-0.000132276
-3.78418e-05
-0.000127425
-4.15279e-05
-0.000122129
-4.48773e-05
-0.000116426
-4.78457e-05
-0.000110362
-5.03914e-05
-0.000103985
-5.24771e-05
-9.73493e-05
-5.40699e-05
-9.05125e-05
-5.51432e-05
-8.35363e-05
-5.56768e-05
-7.64849e-05
-5.5658e-05
-6.94245e-05
-5.50824e-05
-6.24221e-05
-5.39543e-05
-5.55445e-05
-5.22877e-05
-4.88573e-05
-5.01058e-05
-4.24237e-05
-4.74419e-05
-3.63033e-05
-4.43392e-05
-3.05508e-05
-4.08503e-05
-2.52155e-05
-3.70378e-05
-2.03394e-05
-3.29728e-05
-1.59573e-05
-2.87354e-05
-1.20955e-05
-2.44135e-05
-8.77171e-06
-2.01023e-05
-5.99443e-06
-1.59037e-05
-3.76325e-06
-1.19257e-05
-2.069e-06
-8.28136e-06
-8.94364e-07
-5.08816e-06
-2.14857e-07
-2.46643e-06
-5.43471e-07
-4.81978e-07
2.85245e-06
-1.83228e-06
8.59137e-06
-3.9624e-06
1.42301e-05
-6.79036e-06
1.96679e-05
-1.02401e-05
2.48301e-05
-1.42411e-05
2.96596e-05
-1.8728e-05
3.41153e-05
-2.364e-05
3.81696e-05
-2.89205e-05
4.18062e-05
-3.45165e-05
4.50177e-05
-4.03786e-05
4.78039e-05
-4.646e-05
5.01694e-05
-5.27168e-05
5.21226e-05
-5.9107e-05
5.36737e-05
-6.55906e-05
5.48342e-05
-7.21292e-05
5.56155e-05
-7.86858e-05
5.60287e-05
-8.52242e-05
5.60836e-05
-9.17093e-05
5.57889e-05
-9.81066e-05
5.5152e-05
-0.000104382
5.4179e-05
-0.000110502
5.28749e-05
-0.000116433
5.1244e-05
-0.000122142
4.92902e-05
-0.000127596
4.70173e-05
-0.000132763
4.44298e-05
-0.000137612
4.15328e-05
-0.00014211
3.83333e-05
-0.000146227
3.48396e-05
-0.000149934
3.10628e-05
-0.000153201
2.70164e-05
-0.000156003
2.27169e-05
-0.000158312
1.81841e-05
-0.000160107
1.34414e-05
-0.000161364
8.51565e-06
-0.000162067
3.43762e-06
-0.000162199
-1.75831e-06
-0.000161748
-7.0341e-06
-0.000160706
-1.23482e-05
-0.000159068
-1.76559e-05
-0.000156835
-2.29095e-05
-0.000154011
-2.8059e-05
-0.000150606
-3.30523e-05
-0.000146635
-3.7836e-05
-0.00014212
-4.23564e-05
-0.000137089
-4.65598e-05
-0.000131572
-5.03937e-05
-0.00012561
-5.38077e-05
-0.000119247
-5.67544e-05
-0.000112533
-5.91908e-05
-0.000105524
-6.10789e-05
-9.82804e-05
-6.23872e-05
-9.0866e-05
-6.30912e-05
-8.33489e-05
-6.3175e-05
-7.57996e-05
-6.26317e-05
-6.82897e-05
-6.14642e-05
-6.08916e-05
-5.96859e-05
-5.36764e-05
-5.7321e-05
-4.67133e-05
-5.44049e-05
-4.00684e-05
-5.09841e-05
-3.38027e-05
-4.7116e-05
-2.79717e-05
-4.28687e-05
-2.26241e-05
-3.83204e-05
-1.78007e-05
-3.35589e-05
-1.35335e-05
-2.86806e-05
-9.84569e-06
-2.37901e-05
-6.75086e-06
-1.89985e-05
-4.25304e-06
-1.44235e-05
-2.34698e-06
-1.01874e-05
-1.01863e-06
-6.41651e-06
-2.45959e-07
-3.2391e-06
-7.89431e-07
-5.1822e-07
3.37067e-06
-1.96737e-06
1.00405e-05
-4.24958e-06
1.65123e-05
-7.27419e-06
2.26925e-05
-1.09573e-05
2.85131e-05
-1.52213e-05
3.39236e-05
-1.99947e-05
3.88887e-05
-2.52116e-05
4.33864e-05
-3.08108e-05
4.74054e-05
-3.67358e-05
5.09427e-05
-4.2934e-05
5.40021e-05
-4.93563e-05
5.65917e-05
-5.59565e-05
5.87228e-05
-6.26913e-05
6.04085e-05
-6.95194e-05
6.16623e-05
-7.64013e-05
6.24975e-05
-8.32991e-05
6.29265e-05
-9.01761e-05
6.29606e-05
-9.69965e-05
6.26093e-05
-0.000103725
6.18807e-05
-0.000110328
6.07814e-05
-0.00011677
5.9317e-05
-0.000123017
5.74919e-05
-0.000129038
5.53103e-05
-0.000134797
5.27763e-05
-0.000140261
4.98947e-05
-0.0001454
4.66709e-05
-0.000150179
4.31124e-05
-0.000154567
3.92282e-05
-0.000158535
3.50301e-05
-0.000162051
3.05326e-05
-0.000165087
2.57535e-05
-0.000167617
2.07141e-05
-0.000169616
1.54396e-05
-0.000171059
9.95911e-06
-0.000171927
4.30574e-06
-0.000172202
-1.48321e-06
-0.00017187
-7.36648e-06
-0.000170919
-1.32989e-05
-0.000169344
-1.92316e-05
-0.000167141
-2.51125e-05
-0.000164313
-3.08867e-05
-0.000160869
-3.64968e-05
-0.000156821
-4.1884e-05
-0.000152189
-4.69884e-05
-0.000146998
-5.17503e-05
-0.000141281
-5.61108e-05
-0.000135076
-6.0013e-05
-0.000128427
-6.34033e-05
-0.000121385
-6.62322e-05
-0.000114009
-6.84558e-05
-0.000106359
-7.00372e-05
-9.85029e-05
-7.09469e-05
-9.0513e-05
-7.11649e-05
-8.24636e-05
-7.06811e-05
-7.44317e-05
-6.94961e-05
-6.6495e-05
-6.76226e-05
-5.87311e-05
-6.50849e-05
-5.12158e-05
-6.19202e-05
-4.4022e-05
-5.8178e-05
-3.72179e-05
-5.39201e-05
-3.08662e-05
-4.92204e-05
-2.50224e-05
-4.41642e-05
-1.97342e-05
-3.88471e-05
-1.50402e-05
-3.33747e-05
-1.09694e-05
-2.78608e-05
-7.54086e-06
-2.2427e-05
-4.76343e-06
-1.72009e-05
-2.63587e-06
-1.2315e-05
-1.14733e-06
-7.90506e-06
-2.78012e-07
-4.10841e-06
-1.06744e-06
-5.52824e-07
3.9235e-06
-2.0964e-06
1.15841e-05
-4.52403e-06
1.894e-05
-7.73682e-06
2.59053e-05
-1.16434e-05
3.24197e-05
-1.61597e-05
3.84399e-05
-2.12083e-05
4.39373e-05
-2.67181e-05
4.88963e-05
-3.26241e-05
5.33113e-05
-3.88659e-05
5.71846e-05
-4.53881e-05
6.05243e-05
-5.21392e-05
6.33429e-05
-5.90714e-05
6.5655e-05
-6.61395e-05
6.74766e-05
-7.33012e-05
6.8824e-05
-8.05162e-05
6.97124e-05
-8.77458e-05
7.01561e-05
-9.49527e-05
7.01675e-05
-0.000102101
6.97573e-05
-0.000109154
6.89343e-05