/*--------------------------------*- C++ -*----------------------------------*\
  =========                 |
  \\      /  F ield         | OpenFOAM: The Open Source CFD Toolbox
   \\    /   O peration     | Website:  https://openfoam.org
    \\  /    A nd           | Version:  dev
     \\/     M anipulation  |
\*---------------------------------------------------------------------------*/
FoamFile
{
    format      ascii;
    class       volVectorField;
    location    "35.1";
    object      U;
}
// * * * * * * * * * * * * * * * * * * * * * * * * * * * * * * * * * * * * * //

dimensions      [0 1 -1 0 0 0 0];

internalField   nonuniform List<vector> 
5184
(
(1.23372e-05 -1.27003e-05 0)
(4.51896e-05 -2.08854e-05 0)
(8.03537e-05 -1.7248e-05 0)
(9.60156e-05 -8.19702e-06 0)
(8.21895e-05 2.66873e-06 0)
(3.6493e-05 1.36182e-05 0)
(-4.05274e-05 2.38471e-05 0)
(-0.000146853 3.30505e-05 0)
(-0.00027969 4.1109e-05 0)
(-0.000435983 4.80281e-05 0)
(-0.000612609 5.38696e-05 0)
(-0.000806534 5.87183e-05 0)
(-0.00101489 6.26667e-05 0)
(-0.00123501 6.58059e-05 0)
(-0.00146444 6.82208e-05 0)
(-0.00170092 6.99867e-05 0)
(-0.00194237 7.11679e-05 0)
(-0.00218688 7.18171e-05 0)
(-0.00243266 7.19749e-05 0)
(-0.00267804 7.1671e-05 0)
(-0.0029214 7.09246e-05 0)
(-0.00316119 6.97463e-05 0)
(-0.00339587 6.8139e-05 0)
(-0.00362392 6.60997e-05 0)
(-0.00384382 6.36212e-05 0)
(-0.00405402 6.06938e-05 0)
(-0.00425296 5.73068e-05 0)
(-0.00443908 5.34508e-05 0)
(-0.00461079 4.91185e-05 0)
(-0.00476651 4.43071e-05 0)
(-0.00490469 3.90189e-05 0)
(-0.0050238 3.32633e-05 0)
(-0.00512238 2.70575e-05 0)
(-0.00519905 2.04274e-05 0)
(-0.00525255 1.34088e-05 0)
(-0.00528176 6.04732e-06 0)
(-0.00528575 -1.60086e-06 0)
(-0.00526379 -9.46926e-06 0)
(-0.00521536 -1.74813e-05 0)
(-0.00514025 -2.55511e-05 0)
(-0.00503852 -3.35843e-05 0)
(-0.00491053 -4.14792e-05 0)
(-0.00475701 -4.91288e-05 0)
(-0.004579 -5.6422e-05 0)
(-0.0043779 -6.32462e-05 0)
(-0.00415548 -6.94894e-05 0)
(-0.00391382 -7.50428e-05 0)
(-0.00365535 -7.98034e-05 0)
(-0.00338281 -8.36766e-05 0)
(-0.00309919 -8.65788e-05 0)
(-0.00280773 -8.84393e-05 0)
(-0.00251187 -8.9203e-05 0)
(-0.00221516 -8.88314e-05 0)
(-0.00192128 -8.7305e-05 0)
(-0.00163388 -8.46233e-05 0)
(-0.00135661 -8.08058e-05 0)
(-0.00109302 -7.58918e-05 0)
(-0.000846463 -6.99401e-05 0)
(-0.000620097 -6.30283e-05 0)
(-0.00041677 -5.52523e-05 0)
(-0.000238981 -4.67265e-05 0)
(-8.88066e-05 -3.75837e-05 0)
(3.2164e-05 -2.79791e-05 0)
(0.000122917 -1.80952e-05 0)
(0.00018312 -8.15709e-06 0)
(0.000213277 1.54038e-06 0)
(0.000214975 1.05732e-05 0)
(0.000191266 1.83043e-05 0)
(0.000147181 2.37207e-05 0)
(9.08164e-05 2.51302e-05 0)
(3.66376e-05 1.9848e-05 0)
(6.2287e-06 6.24247e-06 0)
(2.08568e-05 -4.58765e-05 0)
(6.56533e-05 -6.57114e-05 0)
(9.47618e-05 -4.05641e-05 0)
(7.28668e-05 7.62994e-06 0)
(-1.88715e-05 6.56796e-05 0)
(-0.00018727 0.000125999 0)
(-0.000432912 0.000184308 0)
(-0.000752582 0.00023836 0)
(-0.00114073 0.000287015 0)
(-0.00159058 0.00032983 0)
(-0.00209479 0.000366765 0)
(-0.0026459 0.00039801 0)
(-0.0032366 0.000423876 0)
(-0.0038599 0.000444731 0)
(-0.00450919 0.000460951 0)
(-0.00517829 0.000472896 0)
(-0.00586137 0.000480887 0)
(-0.00655301 0.0004852 0)
(-0.00724806 0.00048606 0)
(-0.00794164 0.000483637 0)
(-0.00862905 0.000478052 0)
(-0.00930573 0.000469382 0)
(-0.00996722 0.000457666 0)
(-0.0106091 0.000442913 0)
(-0.0112269 0.000425111 0)
(-0.0118163 0.000404236 0)
(-0.0123729 0.000380264 0)
(-0.0128922 0.000353179 0)
(-0.0133698 0.00032298 0)
(-0.0138014 0.000289694 0)
(-0.0141829 0.000253382 0)
(-0.0145099 0.000214147 0)
(-0.0147788 0.000172139 0)
(-0.0149858 0.00012756 0)
(-0.0151276 8.06701e-05 0)
(-0.0152015 3.1789e-05 0)
(-0.015205 -1.87049e-05 0)
(-0.0151365 -7.03731e-05 0)
(-0.0149947 -0.000122721 0)
(-0.0147792 -0.0001752 0)
(-0.0144906 -0.000227216 0)
(-0.0141299 -0.000278138 0)
(-0.0136994 -0.000327304 0)
(-0.013202 -0.000374035 0)
(-0.0126417 -0.000417646 0)
(-0.0120234 -0.000457461 0)
(-0.0113528 -0.00049283 0)
(-0.0106366 -0.000523136 0)
(-0.00988205 -0.000547818 0)
(-0.00909737 -0.000566382 0)
(-0.00829122 -0.000578416 0)
(-0.00747279 -0.000583599 0)
(-0.0066516 -0.000581716 0)
(-0.0058374 -0.000572663 0)
(-0.00503998 -0.000556458 0)
(-0.00426899 -0.000533238 0)
(-0.00353383 -0.000503267 0)
(-0.00284341 -0.000466936 0)
(-0.00220602 -0.000424759 0)
(-0.00162914 -0.000377375 0)
(-0.00111923 -0.000325554 0)
(-0.00068161 -0.000270202 0)
(-0.00032018 -0.000212379 0)
(-3.72287e-05 -0.000153337 0)
(0.000166879 -9.45877e-05 0)
(0.000294066 -3.80092e-05 0)
(0.000349082 1.39377e-05 0)
(0.0003402 5.79477e-05 0)
(0.000279915 8.94273e-05 0)
(0.000186086 0.000101878 0)
(8.63883e-05 8.65308e-05 0)
(1.96858e-05 3.64893e-05 0)
(1.7644e-05 -8.13177e-05 0)
(4.13559e-05 -9.50511e-05 0)
(1.96401e-05 -1.91502e-05 0)
(-8.39551e-05 0.000105924 0)
(-0.000290218 0.00025466 0)
(-0.000607897 0.000410612 0)
(-0.00103826 0.000563464 0)
(-0.00157748 0.000707081 0)
(-0.00221841 0.00083801 0)
(-0.00295184 0.000954546 0)
(-0.00376751 0.00105609 0)
(-0.0046547 0.00114274 0)
(-0.00560268 0.00121501 0)
(-0.006601 0.00127362 0)
(-0.0076396 0.0013194 0)
(-0.00870892 0.00135317 0)
(-0.00979986 0.0013757 0)
(-0.0109038 0.00138766 0)
(-0.0120126 0.00138962 0)
(-0.0131184 0.00138202 0)
(-0.0142136 0.00136518 0)
(-0.0152907 0.00133934 0)
(-0.0163427 0.00130461 0)
(-0.0173623 0.00126107 0)
(-0.0183425 0.00120872 0)
(-0.0192762 0.00114755 0)
(-0.0201564 0.00107756 0)
(-0.0209761 0.000998747 0)
(-0.0217285 0.00091119 0)
(-0.0224068 0.000815023 0)
(-0.0230043 0.000710478 0)
(-0.0235149 0.0005979 0)
(-0.0239326 0.000477762 0)
(-0.0242519 0.00035068 0)
(-0.0244679 0.000217419 0)
(-0.0245765 7.89039e-05 0)
(-0.0245741 -6.37859e-05 0)
(-0.0244583 -0.000209414 0)
(-0.0242276 -0.000356598 0)
(-0.0238817 -0.000503819 0)
(-0.0234213 -0.000649442 0)
(-0.0228487 -0.000791733 0)
(-0.0221673 -0.000928889 0)
(-0.0213819 -0.00105907 0)
(-0.0204989 -0.00118042 0)
(-0.0195257 -0.00129112 0)
(-0.0184714 -0.00138942 0)
(-0.0173462 -0.00147367 0)
(-0.0161615 -0.00154237 0)
(-0.0149296 -0.00159421 0)
(-0.013664 -0.00162809 0)
(-0.0123785 -0.00164316 0)
(-0.0110879 -0.00163887 0)
(-0.00980695 -0.00161496 0)
(-0.00855049 -0.00157149 0)
(-0.00733326 -0.00150888 0)
(-0.0061695 -0.00142786 0)
(-0.00507275 -0.00132955 0)
(-0.00405556 -0.00121537 0)
(-0.00312919 -0.00108715 0)
(-0.00230339 -0.000947062 0)
(-0.00158604 -0.000797664 0)
(-0.000982898 -0.00064197 0)
(-0.000497178 -0.00048351 0)
(-0.000129195 -0.000326486 0)
(0.000124121 -0.000175986 0)
(0.000269868 -3.83277e-05 0)
(0.000319898 7.84705e-05 0)
(0.000291347 0.000164112 0)
(0.000207447 0.00020543 0)
(0.000102474 0.000186312 0)
(2.49826e-05 9.04038e-05 0)
(8.8448e-06 -9.77642e-05 0)
(-6.99375e-06 -7.31762e-05 0)
(-0.000107557 8.47633e-05 0)
(-0.000322345 0.000318362 0)
(-0.000669604 0.000590119 0)
(-0.00115774 0.000874406 0)
(-0.00178751 0.00115419 0)
(-0.00255414 0.00141868 0)
(-0.00344908 0.00166141 0)
(-0.00446131 0.00187883 0)
(-0.00557834 0.0020694 0)
(-0.00678696 0.00223286 0)
(-0.00807378 0.00236977 0)
(-0.00942552 0.00248117 0)
(-0.0108293 0.00256832 0)
(-0.0122727 0.00263257 0)
(-0.0137437 0.00267519 0)
(-0.015231 0.00269733 0)
(-0.0167237 0.00269998 0)
(-0.0182112 0.00268392 0)
(-0.0196832 0.00264975 0)
(-0.0211298 0.0025979 0)
(-0.0225413 0.00252864 0)
(-0.0239079 0.00244212 0)
(-0.0252203 0.00233843 0)
(-0.0264687 0.0022176 0)
(-0.027644 0.00207971 0)
(-0.0287369 0.00192484 0)
(-0.0297382 0.00175322 0)
(-0.030639 0.00156519 0)
(-0.0314309 0.00136128 0)
(-0.0321055 0.00114221 0)
(-0.0326552 0.000908979 0)
(-0.0330731 0.000662809 0)
(-0.0333529 0.000405221 0)
(-0.0334893 0.000138014 0)
(-0.0334782 -0.000136721 0)
(-0.0333164 -0.000416614 0)
(-0.0330024 -0.000699029 0)
(-0.0325359 -0.000981088 0)
(-0.0319182 -0.0012597 0)
(-0.0311525 -0.00153162 0)
(-0.0302433 -0.00179345 0)
(-0.0291973 -0.00204177 0)
(-0.0280227 -0.00227312 0)
(-0.0267294 -0.00248411 0)
(-0.0253294 -0.0026715 0)
(-0.0238357 -0.00283223 0)
(-0.0222633 -0.00296354 0)
(-0.0206283 -0.00306299 0)
(-0.0189479 -0.00312857 0)
(-0.0172402 -0.00315872 0)
(-0.0155241 -0.00315244 0)
(-0.0138187 -0.00310927 0)
(-0.0121432 -0.00302936 0)
(-0.0105165 -0.00291349 0)
(-0.00895708 -0.00276311 0)
(-0.00748229 -0.00258029 0)
(-0.0061083 -0.00236783 0)
(-0.00484959 -0.00212914 0)
(-0.00371868 -0.00186841 0)
(-0.00272565 -0.00159051 0)
(-0.00187785 -0.00130116 0)
(-0.00117941 -0.00100705 0)
(-0.000630783 -0.000715977 0)
(-0.000228275 -0.000437227 0)
(3.65946e-05 -0.000181945 0)
(0.000177728 3.62586e-05 0)
(0.000214856 0.000200664 0)
(0.000174146 0.000290879 0)
(9.30516e-05 0.000282607 0)
(2.40327e-05 0.000147305 0)
(-2.12185e-06 -8.44342e-05 0)
(-6.7284e-05 2.08643e-05 0)
(-0.000264105 0.000295438 0)
(-0.000609783 0.000668049 0)
(-0.00111682 0.00109088 0)
(-0.00179142 0.00153002 0)
(-0.00263259 0.00196202 0)
(-0.00363397 0.00237141 0)
(-0.00478543 0.00274845 0)
(-0.00607424 0.00308752 0)
(-0.00748605 0.00338583 0)
(-0.00900562 0.00364258 0)
(-0.0106174 0.00385821 0)
(-0.0123057 0.00403397 0)
(-0.0140553 0.00417153 0)
(-0.0158514 0.00427269 0)
(-0.0176796 0.00433926 0)
(-0.0195261 0.00437287 0)
(-0.0213775 0.00437496 0)
(-0.0232208 0.00434669 0)
(-0.0250435 0.00428898 0)
(-0.0268332 0.00420249 0)
(-0.0285779 0.00408766 0)
(-0.0302655 0.00394481 0)
(-0.0318844 0.00377411 0)
(-0.0334229 0.00357573 0)
(-0.0348695 0.00334986 0)
(-0.0362129 0.00309676 0)
(-0.037442 0.00281688 0)
(-0.038546 0.00251089 0)
(-0.0395146 0.00217973 0)
(-0.040338 0.00182468 0)
(-0.0410071 0.00144738 0)
(-0.0415136 0.00104989 0)
(-0.0418502 0.000634685 0)
(-0.0420107 0.000204691 0)
(-0.0419903 -0.000236732 0)
(-0.0417856 -0.000685796 0)
(-0.0413948 -0.00113831 0)
(-0.0408179 -0.00158972 0)
(-0.0400568 -0.00203516 0)
(-0.0391153 -0.0024695 0)
(-0.0379993 -0.00288746 0)
(-0.0367167 -0.00328365 0)
(-0.0352775 -0.00365268 0)
(-0.033694 -0.00398929 0)
(-0.0319801 -0.00428841 0)
(-0.0301519 -0.00454531 0)
(-0.0282271 -0.00475567 0)
(-0.0262249 -0.00491574 0)
(-0.024166 -0.00502239 0)
(-0.022072 -0.00507323 0)
(-0.0199653 -0.00506669 0)
(-0.0178687 -0.00500208 0)
(-0.0158052 -0.00487969 0)
(-0.0137973 -0.00470074 0)
(-0.011867 -0.00446753 0)
(-0.010035 -0.00418338 0)
(-0.00832071 -0.00385266 0)
(-0.00674135 -0.00348085 0)
(-0.0053119 -0.0030745 0)
(-0.00404449 -0.00264137 0)
(-0.00294799 -0.00219045 0)
(-0.00202754 -0.00173215 0)
(-0.00128408 -0.00127852 0)
(-0.000713838 -0.000843619 0)
(-0.000307829 -0.000443931 0)
(-5.12727e-05 -9.90218e-05 0)
(7.6713e-05 0.000167767 0)
(0.000103637 0.000328703 0)
(6.75266e-05 0.000351049 0)
(1.967e-05 0.00019417 0)
(-1.3694e-05 -3.75509e-05 0)
(-0.000132837 0.000197345 0)
(-0.000435846 0.000626917 0)
(-0.000924696 0.00117041 0)
(-0.00160402 0.00177185 0)
(-0.00247638 0.00239039 0)
(-0.00353794 0.00299696 0)
(-0.00477999 0.00357176 0)
(-0.00619045 0.00410194 0)
(-0.00775479 0.00457972 0)
(-0.00945687 0.00500104 0)
(-0.0112796 0.0053644 0)
(-0.0132056 0.00567005 0)
(-0.0152172 0.00591934 0)
(-0.0172972 0.00611426 0)
(-0.0194287 0.00625708 0)
(-0.0215952 0.00635007 0)
(-0.0237807 0.00639538 0)
(-0.0259697 0.00639486 0)
(-0.0281473 0.00635008 0)
(-0.0302985 0.00626229 0)
(-0.0324091 0.00613241 0)
(-0.0344648 0.0059611 0)
(-0.0364516 0.00574885 0)
(-0.0383559 0.005496 0)
(-0.0401639 0.00520288 0)
(-0.0418623 0.00486986 0)
(-0.043438 0.00449748 0)
(-0.044878 0.0040865 0)
(-0.04617 0.00363801 0)
(-0.0473021 0.00315349 0)
(-0.048263 0.00263492 0)
(-0.0490425 0.00208476 0)
(-0.0496311 0.00150607 0)
(-0.0500206 0.000902484 0)
(-0.0502041 0.000278271 0)
(-0.0501761 -0.00036171 0)
(-0.0499331 -0.001012 0)
(-0.0494732 -0.0016666 0)
(-0.0487966 -0.002319 0)
(-0.0479056 -0.00296227 0)
(-0.0468047 -0.00358913 0)
(-0.0455008 -0.00419209 0)
(-0.0440031 -0.00476354 0)
(-0.0423232 -0.00529586 0)
(-0.0404748 -0.00578163 0)
(-0.0384743 -0.00621371 0)
(-0.0363397 -0.00658542 0)
(-0.0340914 -0.00689071 0)
(-0.0317513 -0.00712428 0)
(-0.0293429 -0.00728173 0)
(-0.0268909 -0.0073597 0)
(-0.0244208 -0.00735597 0)
(-0.0219585 -0.00726961 0)
(-0.0195304 -0.00710099 0)
(-0.0171622 -0.00685191 0)
(-0.0148789 -0.00652559 0)
(-0.0127043 -0.00612676 0)
(-0.0106606 -0.00566168 0)
(-0.00876769 -0.0051381 0)
(-0.00704278 -0.00456538 0)
(-0.00549999 -0.00395449 0)
(-0.0041498 -0.00331816 0)
(-0.00299857 -0.00267096 0)
(-0.00204807 -0.00202963 0)
(-0.00129504 -0.00141338 0)
(-0.00073069 -0.000844327 0)
(-0.000340291 -0.000348171 0)
(-0.000102878 4.51125e-05 0)
(9.18793e-06 0.000300576 0)
(3.25134e-05 0.000377406 0)
(1.36248e-05 0.000224558 0)
(-2.51868e-05 4.40813e-05 0)
(-0.000200024 0.000461276 0)
(-0.000614124 0.00108712 0)
(-0.001253 0.00183484 0)
(-0.0021122 0.00264256 0)
(-0.00318956 0.00346405 0)
(-0.00447752 0.00426565 0)
(-0.00596435 0.00502391 0)
(-0.00763557 0.00572322 0)
(-0.0094746 0.00635388 0)
(-0.0114635 0.00691059 0)
(-0.0135834 0.00739116 0)
(-0.0158151 0.00779563 0)
(-0.0181394 0.00812541 0)
(-0.0205371 0.00838277 0)
(-0.0229897 0.00857039 0)
(-0.0254788 0.00869099 0)
(-0.0279866 0.00874718 0)
(-0.0304958 0.00874125 0)
(-0.0329893 0.00867518 0)
(-0.0354507 0.00855052 0)
(-0.0378636 0.00836849 0)
(-0.0402121 0.00812999 0)
(-0.0424802 0.0078357 0)
(-0.0446524 0.00748619 0)
(-0.0467134 0.00708198 0)
(-0.0486481 0.00662372 0)
(-0.0504416 0.00611226 0)
(-0.0520796 0.00554878 0)
(-0.0535483 0.00493489 0)
(-0.0548343 0.00427275 0)
(-0.0559252 0.00356513 0)
(-0.0568095 0.00281548 0)
(-0.0574769 0.002028 0)
(-0.0579182 0.0012077 0)
(-0.0581261 0.000360336 0)
(-0.0580945 -0.00050751 0)
(-0.0578196 -0.00138851 0)
(-0.0572994 -0.0022746 0)
(-0.0565342 -0.00315712 0)
(-0.0555268 -0.00402681 0)
(-0.0542822 -0.00487402 0)
(-0.0528081 -0.0056888 0)
(-0.0511146 -0.00646104 0)
(-0.0492147 -0.00718068 0)
(-0.0471237 -0.00783788 0)
(-0.0448594 -0.00842321 0)
(-0.0424421 -0.00892784 0)
(-0.039894 -0.00934375 0)
(-0.0372395 -0.00966392 0)
(-0.0345046 -0.00988253 0)
(-0.0317165 -0.00999513 0)
(-0.0289036 -0.00999876 0)
(-0.0260947 -0.00989215 0)
(-0.0233189 -0.00967579 0)
(-0.0206049 -0.00935203 0)
(-0.0179806 -0.00892516 0)
(-0.0154727 -0.00840142 0)
(-0.0131058 -0.0077891 0)
(-0.0109024 -0.00709851 0)
(-0.00888208 -0.00634203 0)
(-0.00706091 -0.00553419 0)
(-0.00545114 -0.00469172 0)
(-0.00406063 -0.00383374 0)
(-0.00289236 -0.00298193 0)
(-0.00194406 -0.00216089 0)
(-0.00120778 -0.00139857 0)
(-0.00066956 -0.000726805 0)
(-0.000309194 -0.000182098 0)
(-9.98403e-05 0.000193736 0)
(-7.70329e-06 0.000352574 0)
(6.86356e-06 0.000235036 0)
(-3.63424e-05 0.000160458 0)
(-0.000266962 0.000814526 0)
(-0.000793814 0.00167983 0)
(-0.00158577 0.00266636 0)
(-0.00262866 0.0037084 0)
(-0.00391494 0.00475592 0)
(-0.00543263 0.00577185 0)
(-0.00716645 0.00672992 0)
(-0.00909906 0.00761232 0)
(-0.0112116 0.00840778 0)
(-0.0134841 0.00910996 0)
(-0.015896 0.00971614 0)
(-0.0184264 0.0102261 0)
(-0.0210544 0.0106415 0)
(-0.0237595 0.0109647 0)
(-0.0265213 0.0111988 0)
(-0.02932 0.0113471 0)
(-0.0321361 0.0114124 0)
(-0.0349508 0.0113977 0)
(-0.0377454 0.0113051 0)
(-0.0405016 0.0111367 0)
(-0.0432016 0.0108938 0)
(-0.0458277 0.0105777 0)
(-0.0483625 0.0101893 0)
(-0.0507888 0.00972932 0)
(-0.0530897 0.00919863 0)
(-0.0552486 0.00859816 0)
(-0.0572492 0.00792915 0)
(-0.0590759 0.00719328 0)
(-0.0607133 0.00639277 0)
(-0.062147 0.00553054 0)
(-0.0633635 0.0046103 0)
(-0.0643503 0.0036366 0)
(-0.0650961 0.00261494 0)
(-0.065591 0.0015518 0)
(-0.065827 0.000454645 0)
(-0.0657977 -0.000668085 0)
(-0.0654988 -0.001807 0)
(-0.0649283 -0.00295181 0)
(-0.0640865 -0.00409147 0)
(-0.0629763 -0.00521423 0)
(-0.0616032 -0.00630783 0)
(-0.0599755 -0.00735964 0)
(-0.0581041 -0.00835688 0)
(-0.056003 -0.0092868 0)
(-0.0536886 -0.0101369 0)
(-0.0511803 -0.0108954 0)
(-0.0484999 -0.0115509 0)
(-0.0456715 -0.0120933 0)
(-0.0427215 -0.0125138 0)
(-0.0396779 -0.0128049 0)
(-0.0365705 -0.0129608 0)
(-0.03343 -0.0129779 0)
(-0.0302879 -0.0128544 0)
(-0.0271759 -0.0125909 0)
(-0.0241255 -0.0121903 0)
(-0.0211672 -0.011658 0)
(-0.0183305 -0.0110017 0)
(-0.0156426 -0.010232 0)
(-0.0131286 -0.00936189 0)
(-0.0108102 -0.00840694 0)
(-0.00870578 -0.00738545 0)
(-0.00682963 -0.00631843 0)
(-0.00519132 -0.0052297 0)
(-0.00379547 -0.00414614 0)
(-0.00264123 -0.00309788 0)
(-0.001722 -0.00211873 0)
(-0.00102524 -0.00124667 0)
(-0.000532091 -0.000524491 0)
(-0.000217206 -4.24584e-07 0)
(-5.04547e-05 0.000270983 0)
(-8.23193e-08 0.000223898 0)
(-4.70643e-05 0.000310943 0)
(-0.000332666 0.00125701 0)
(-0.00097192 0.00240601 0)
(-0.00191737 0.00366683 0)
(-0.003145 0.00497169 0)
(-0.00464145 0.00626825 0)
(-0.00638991 0.00751723 0)
(-0.00837108 0.00869042 0)
(-0.0105645 0.00976849 0)
(-0.0129486 0.0107391 0)
(-0.0155015 0.0115951 0)
(-0.0182006 0.0123336 0)
(-0.0210234 0.0129542 0)
(-0.0239475 0.0134586 0)
(-0.0269509 0.0138497 0)
(-0.0300119 0.014131 0)
(-0.0331092 0.0143059 0)
(-0.036222 0.0143781 0)
(-0.03933 0.0143506 0)
(-0.042413 0.0142261 0)
(-0.0454515 0.0140069 0)
(-0.0484262 0.0136947 0)
(-0.0513178 0.013291 0)
(-0.0541077 0.0127969 0)
(-0.0567772 0.0122135 0)
(-0.059308 0.0115419 0)
(-0.0616823 0.0107834 0)
(-0.0638824 0.00993966 0)
(-0.0658914 0.00901297 0)
(-0.0676929 0.00800621 0)
(-0.0692713 0.00692317 0)
(-0.0706121 0.00576856 0)
(-0.0717018 0.00454815 0)
(-0.0725282 0.00326885 0)
(-0.0730809 0.00193875 0)
(-0.073351 0.000567108 0)
(-0.0733318 -0.000835603 0)
(-0.0730185 -0.00225779 0)
(-0.0724089 -0.0036868 0)
(-0.0715031 -0.00510901 0)
(-0.0703042 -0.00651003 0)
(-0.0688177 -0.0078748 0)
(-0.0670525 -0.00918786 0)
(-0.0650199 -0.0104335 0)
(-0.0627347 -0.0115962 0)
(-0.0602143 -0.0126606 0)
(-0.0574791 -0.013612 0)
(-0.0545523 -0.0144367 0)
(-0.0514595 -0.0151223 0)
(-0.0482289 -0.0156577 0)
(-0.0448905 -0.0160337 0)
(-0.0414761 -0.0162432 0)
(-0.0380187 -0.0162815 0)
(-0.0345523 -0.0161464 0)
(-0.0311111 -0.0158384 0)
(-0.0277291 -0.0153609 0)
(-0.0244398 -0.0147203 0)
(-0.021275 -0.0139262 0)
(-0.0182648 -0.0129911 0)
(-0.0154368 -0.011931 0)
(-0.0128154 -0.0107649 0)
(-0.0104213 -0.00951475 0)
(-0.00827089 -0.00820618 0)
(-0.006376 -0.00686786 0)
(-0.00474317 -0.00553196 0)
(-0.00337343 -0.00423427 0)
(-0.00226201 -0.00301448 0)
(-0.00139819 -0.0019166 0)
(-0.000764995 -0.000989531 0)
(-0.000339004 -0.00028743 0)
(-9.41812e-05 0.000129524 0)
(-6.94251e-06 0.000190493 0)
(-5.73405e-05 0.000494634 0)
(-0.000396653 0.00178748 0)
(-0.0011467 0.00326479 0)
(-0.00224428 0.00483588 0)
(-0.00365564 0.00643242 0)
(-0.00536144 0.00800108 0)
(-0.00733976 0.00950152 0)
(-0.00956702 0.0109045 0)
(-0.0120193 0.01219 0)
(-0.0146723 0.0133449 0)
(-0.0175018 0.014362 0)
(-0.0204833 0.0152381 0)
(-0.0235926 0.0159732 0)
(-0.0268059 0.0165691 0)
(-0.0300998 0.0170292 0)
(-0.0334512 0.0173572 0)
(-0.0368378 0.0175572 0)
(-0.0402373 0.0176332 0)
(-0.0436283 0.0175887 0)
(-0.0469894 0.0174268 0)
(-0.0502999 0.0171499 0)
(-0.053539 0.0167602 0)
(-0.0566866 0.0162593 0)
(-0.0597226 0.0156487 0)
(-0.062627 0.0149297 0)
(-0.0653806 0.0141038 0)
(-0.0679641 0.0131726 0)
(-0.0703589 0.0121384 0)
(-0.0725469 0.0110039 0)
(-0.0745106 0.00977283 0)
(-0.0762334 0.00844989 0)
(-0.0776998 0.00704088 0)
(-0.0788954 0.00555286 0)
(-0.0798073 0.00399422 0)
(-0.0804242 0.00237476 0)
(-0.0807366 0.00070566 0)
(-0.0807371 -0.0010005 0)
(-0.0804206 -0.0027298 0)
(-0.0797842 -0.00446708 0)
(-0.0788282 -0.00619606 0)
(-0.077555 -0.00789951 0)
(-0.0759706 -0.00955945 0)
(-0.0740836 -0.0111574 0)
(-0.0719059 -0.0126746 0)
(-0.0694526 -0.0140924 0)
(-0.0667419 -0.0153926 0)
(-0.063795 -0.0165574 0)
(-0.0606362 -0.0175705 0)
(-0.0572924 -0.0184168 0)
(-0.0537933 -0.0190829 0)
(-0.0501706 -0.0195578 0)
(-0.046458 -0.0198327 0)
(-0.0426908 -0.0199018 0)
(-0.0389052 -0.0197622 0)
(-0.0351379 -0.0194142 0)
(-0.0314256 -0.0188618 0)
(-0.0278044 -0.0181122 0)
(-0.024309 -0.0171768 0)
(-0.0209722 -0.0160702 0)
(-0.0178245 -0.0148114 0)
(-0.0148928 -0.0134225 0)
(-0.0122007 -0.01193 0)
(-0.00976714 -0.0103637 0)
(-0.00760629 -0.00875737 0)
(-0.0057271 -0.00714863 0)
(-0.00413284 -0.00557894 0)
(-0.00282094 -0.00409392 0)
(-0.00178293 -0.00274355 0)
(-0.00100403 -0.0015826 0)
(-0.000463019 -0.000670826 0)
(-0.000138065 -7.3421e-05 0)
(-1.36012e-05 0.000134738 0)
(-6.71888e-05 0.000710497 0)
(-0.000458698 0.00240404 0)
(-0.00131715 0.00425408 0)
(-0.00256429 0.00617154 0)
(-0.00415686 0.00808877 0)
(-0.00606957 0.00995265 0)
(-0.00827526 0.0117228 0)
(-0.0107459 0.01337 0)
(-0.0134539 0.0148739 0)
(-0.0163722 0.0162216 0)
(-0.019474 0.0174061 0)
(-0.0227328 0.0184244 0)
(-0.0261228 0.0192769 0)
(-0.0296188 0.0199659 0)
(-0.0331959 0.0204951 0)
(-0.03683 0.020869 0)
(-0.0404974 0.021092 0)
(-0.0441752 0.0211686 0)
(-0.0478404 0.0211027 0)
(-0.051471 0.0208977 0)
(-0.0550449 0.0205565 0)
(-0.0585406 0.0200815 0)
(-0.0619366 0.0194745 0)
(-0.0652118 0.0187374 0)
(-0.0683454 0.0178716 0)
(-0.0713168 0.0168791 0)
(-0.074106 0.0157618 0)
(-0.0766931 0.0145225 0)
(-0.0790591 0.0131647 0)
(-0.0811856 0.0116928 0)
(-0.0830549 0.0101125 0)
(-0.0846507 0.00843071 0)
(-0.0859577 0.00665583 0)
(-0.0869621 0.0047978 0)
(-0.0876517 0.00286819 0)
(-0.0880165 0.000880156 0)
(-0.0880482 -0.00115152 0)
(-0.087741 -0.00321051 0)
(-0.0870918 -0.00527907 0)
(-0.0861001 -0.00733812 0)
(-0.0847681 -0.00936749 0)
(-0.0831013 -0.0113462 0)
(-0.0811085 -0.0132525 0)
(-0.0788016 -0.0150644 0)
(-0.0761957 -0.0167602 0)
(-0.0733094 -0.0183182 0)
(-0.0701647 -0.0197177 0)
(-0.0667866 -0.0209394 0)
(-0.0632032 -0.0219653 0)
(-0.0594453 -0.0227796 0)
(-0.0555463 -0.023369 0)
(-0.0515417 -0.0237231 0)
(-0.0474688 -0.0238344 0)
(-0.0433661 -0.0236994 0)
(-0.0392729 -0.023318 0)
(-0.0352284 -0.0226945 0)
(-0.0312716 -0.021837 0)
(-0.0274401 -0.0207584 0)
(-0.0237698 -0.0194757 0)
(-0.020294 -0.0180105 0)
(-0.017043 -0.0163886 0)
(-0.014043 -0.0146405 0)
(-0.011316 -0.0128006 0)
(-0.00887896 -0.0109078 0)
(-0.00674361 -0.00900533 0)
(-0.00491579 -0.00714032 0)
(-0.0033955 -0.00536436 0)
(-0.0021768 -0.00373338 0)
(-0.00124735 -0.0023079 0)
(-0.000588238 -0.00115306 0)
(-0.000181781 -0.000338689 0)
(-2.00318e-05 5.68033e-05 0)
(-7.66332e-05 0.000957454 0)
(-0.000518695 0.00310439 0)
(-0.00148268 0.00537099 0)
(-0.00287595 0.00767071 0)
(-0.00464613 0.0099376 0)
(-0.00676203 0.0121198 0)
(-0.00919127 0.0141778 0)
(-0.0119013 0.0160832 0)
(-0.0148609 0.0178163 0)
(-0.0180399 0.0193649 0)
(-0.0214089 0.0207225 0)
(-0.0249396 0.021887 0)
(-0.0286044 0.0228592 0)
(-0.0323765 0.0236422 0)
(-0.03623 0.0242404 0)
(-0.0401395 0.0246588 0)
(-0.0440805 0.0249025 0)
(-0.0480288 0.0249763 0)
(-0.0519609 0.0248846 0)
(-0.0558536 0.0246313 0)
(-0.0596841 0.0242195 0)
(-0.0634297 0.0236518 0)
(-0.0670684 0.0229305 0)
(-0.0705779 0.0220576 0)
(-0.0739367 0.0210349 0)
(-0.0771232 0.0198645 0)
(-0.0801164 0.018549 0)
(-0.0828956 0.0170916 0)
(-0.0854409 0.0154964 0)
(-0.0877329 0.0137687 0)
(-0.0897531 0.0119152 0)
(-0.0914842 0.00994378 0)
(-0.09291 0.00786436 0)
(-0.0940159 0.00568843 0)
(-0.0947888 0.00342933 0)
(-0.0952178 0.00110225 0)
(-0.0952938 -0.00127578 0)
(-0.0950103 -0.00368599 0)
(-0.0943633 -0.00610794 0)
(-0.0933516 -0.00851971 0)
(-0.091977 -0.0108981 0)
(-0.0902444 -0.0132189 0)
(-0.0881621 -0.0154571 0)
(-0.0857417 -0.0175874 0)
(-0.0829985 -0.0195845 0)
(-0.0799512 -0.0214235 0)
(-0.0766218 -0.0230802 0)
(-0.0730362 -0.0245321 0)
(-0.0692231 -0.0257582 0)
(-0.0652146 -0.0267399 0)
(-0.0610455 -0.0274615 0)
(-0.0567531 -0.0279103 0)
(-0.0523764 -0.0280775 0)
(-0.0479564 -0.0279582 0)
(-0.0435349 -0.027552 0)
(-0.0391538 -0.0268631 0)
(-0.0348552 -0.0259006 0)
(-0.0306797 -0.0246786 0)
(-0.0266666 -0.0232164 0)
(-0.0228524 -0.0215382 0)
(-0.0192708 -0.0196736 0)
(-0.0159513 -0.017657 0)
(-0.0129193 -0.0155276 0)
(-0.0101949 -0.0133297 0)
(-0.00779278 -0.0111117 0)
(-0.00572192 -0.00892694 0)
(-0.00398513 -0.00683292 0)
(-0.00257925 -0.00489156 0)
(-0.00149457 -0.00316916 0)
(-0.000714505 -0.00173613 0)
(-0.000225328 -0.000666845 0)
(-2.62608e-05 -4.30959e-05 0)
(-8.56952e-05 0.00123442 0)
(-0.000576596 0.00388599 0)
(-0.0016429 0.0066121 0)
(-0.00317828 0.00932948 0)
(-0.00512161 0.0119747 0)
(-0.00743599 0.0144982 0)
(-0.0100839 0.0168621 0)
(-0.0130283 0.0190396 0)
(-0.0162342 0.0210124 0)
(-0.0196684 0.0227696 0)
(-0.023299 0.0243058 0)
(-0.0270955 0.0256199 0)
(-0.0310287 0.0267138 0)
(-0.0350705 0.0275915 0)
(-0.0391936 0.0282581 0)
(-0.0433717 0.0287195 0)
(-0.0475793 0.0289814 0)
(-0.0517914 0.0290491 0)
(-0.0559837 0.0289275 0)
(-0.0601322 0.0286209 0)
(-0.0642134 0.0281327 0)
(-0.0682039 0.0274658 0)
(-0.0720808 0.0266228 0)
(-0.0758213 0.0256058 0)
(-0.0794028 0.024417 0)
(-0.0828032 0.0230588 0)
(-0.0860006 0.0215343 0)
(-0.0889735 0.0198471 0)
(-0.0917011 0.018002 0)
(-0.0941632 0.0160051 0)
(-0.0963405 0.013864 0)
(-0.0982146 0.0115878 0)
(-0.0997686 0.00918768 0)
(-0.100987 0.00667681 0)
(-0.101855 0.00407028 0)
(-0.102362 0.00138531 0)
(-0.102497 -0.00135882 0)
(-0.102253 -0.00414085 0)
(-0.101625 -0.00693762 0)
(-0.10061 -0.00972431 0)
(-0.09921 -0.0124746 0)
(-0.0974288 -0.015161 0)
(-0.095274 -0.017755 0)
(-0.0927567 -0.0202279 0)
(-0.0898917 -0.0225507 0)
(-0.0866976 -0.0246948 0)
(-0.0831966 -0.0266327 0)
(-0.0794147 -0.0283381 0)
(-0.0753814 -0.0297868 0)
(-0.0711296 -0.0309572 0)
(-0.0666955 -0.0318307 0)
(-0.0621178 -0.0323923 0)
(-0.0574378 -0.0326311 0)
(-0.0526985 -0.032541 0)
(-0.0479444 -0.0321207 0)
(-0.0432205 -0.0313742 0)
(-0.0385717 -0.0303112 0)
(-0.0340424 -0.0289471 0)
(-0.0296751 -0.0273031 0)
(-0.0255102 -0.0254063 0)
(-0.021585 -0.0232897 0)
(-0.0179328 -0.0209919 0)
(-0.0145826 -0.018557 0)
(-0.0115581 -0.0160343 0)
(-0.0088777 -0.0134782 0)
(-0.00655344 -0.0109479 0)
(-0.00459137 -0.00850707 0)
(-0.00299137 -0.00622379 0)
(-0.00174642 -0.0041702 0)
(-0.000842267 -0.00242211 0)
(-0.000268927 -0.00105853 0)
(-3.23467e-05 -0.000164826 0)
(-9.43897e-05 0.00154028 0)
(-0.00063236 0.00474612 0)
(-0.00179754 0.00797359 0)
(-0.00347054 0.0111433 0)
(-0.00558189 0.0141952 0)
(-0.00808922 0.0170825 0)
(-0.01095 0.0197701 0)
(-0.0141227 0.0222334 0)
(-0.0175688 0.0244563 0)
(-0.0212518 0.0264297 0)
(-0.0251375 0.0281497 0)
(-0.0291933 0.0296168 0)
(-0.0333883 0.0308341 0)
(-0.0376929 0.031807 0)
(-0.0420788 0.0325416 0)
(-0.0465187 0.0330445 0)
(-0.0509863 0.0333222 0)
(-0.0554557 0.0333807 0)
(-0.0599022 0.0332254 0)
(-0.0643009 0.032861 0)
(-0.0686278 0.0322912 0)
(-0.072859 0.0315193 0)
(-0.0769708 0.0305479 0)
(-0.0809399 0.0293797 0)
(-0.0847432 0.0280169 0)
(-0.0883576 0.0264623 0)
(-0.0917607 0.0247194 0)
(-0.0949303 0.0227922 0)
(-0.0978447 0.0206862 0)
(-0.100483 0.0184082 0)
(-0.102825 0.0159667 0)
(-0.104852 0.0133721 0)
(-0.106545 0.0106367 0)
(-0.107888 0.00777532 0)
(-0.108866 0.00480475 0)
(-0.109465 0.00174423 0)
(-0.109675 -0.00138471 0)
(-0.109488 -0.00455832 0)
(-0.108896 -0.00775075 0)
(-0.107896 -0.0109342 0)
(-0.10649 -0.0140792 0)
(-0.104678 -0.0171548 0)
(-0.102469 -0.0201291 0)
(-0.0998716 -0.0229696 0)
(-0.0969011 -0.0256435 0)
(-0.0935751 -0.0281185 0)
(-0.0899156 -0.0303631 0)
(-0.0859488 -0.0323473 0)
(-0.0817045 -0.0340432 0)
(-0.0772165 -0.0354258 0)
(-0.0725218 -0.0364733 0)
(-0.0676609 -0.037168 0)
(-0.062677 -0.0374968 0)
(-0.0576153 -0.0374517 0)
(-0.0525231 -0.0370302 0)
(-0.0474485 -0.0362359 0)
(-0.0424397 -0.0350788 0)
(-0.0375448 -0.0335753 0)
(-0.0328103 -0.0317486 0)
(-0.0282805 -0.0296284 0)
(-0.0239969 -0.0272511 0)
(-0.0199971 -0.0246594 0)
(-0.016314 -0.0219022 0)
(-0.0129755 -0.0190345 0)
(-0.0100037 -0.0161163 0)
(-0.00741454 -0.0132132 0)
(-0.0052174 -0.0103951 0)
(-0.00341542 -0.00773638 0)
(-0.00200442 -0.00531536 0)
(-0.0009724 -0.0032135 0)
(-0.00031295 -0.00151474 0)
(-3.83675e-05 -0.000308423 0)
(-0.000102725 0.00187395 0)
(-0.000685946 0.00568195 0)
(-0.00194633 0.00945133 0)
(-0.00375209 0.0131072 0)
(-0.0060258 0.0165933 0)
(-0.00871982 0.0198667 0)
(-0.0117868 0.0228955 0)
(-0.015181 0.0256583 0)
(-0.0188601 0.0281414 0)
(-0.0227849 0.0303383 0)
(-0.0269185 0.0322473 0)
(-0.0312263 0.0338707 0)
(-0.0356758 0.0352133 0)
(-0.0402361 0.0362819 0)
(-0.0448777 0.0370839 0)
(-0.0495726 0.0376269 0)
(-0.0542934 0.0379184 0)
(-0.0590141 0.037965 0)
(-0.0637088 0.0377727 0)
(-0.0683527 0.0373466 0)
(-0.0729209 0.0366908 0)
(-0.0773892 0.0358089 0)
(-0.0817334 0.0347037 0)
(-0.0859297 0.0333781 0)
(-0.0899544 0.0318347 0)
(-0.093784 0.0300764 0)
(-0.0973953 0.0281071 0)
(-0.100766 0.0259313 0)
(-0.103873 0.0235549 0)
(-0.106695 0.0209856 0)
(-0.10921 0.0182327 0)
(-0.1114 0.0153075 0)
(-0.113244 0.0122238 0)
(-0.114725 0.00899776 0)
(-0.115828 0.00564788 0)
(-0.116537 0.00219536 0)
(-0.11684 -0.0013361 0)
(-0.116727 -0.00492028 0)
(-0.11619 -0.00852862 0)
(-0.115226 -0.0121304 0)
(-0.113832 -0.0156928 0)
(-0.11201 -0.0191817 0)
(-0.109765 -0.0225613 0)
(-0.107106 -0.0257954 0)
(-0.104047 -0.0288472 0)
(-0.100605 -0.0316802 0)
(-0.0968014 -0.0342589 0)
(-0.0926617 -0.0365491 0)
(-0.0882162 -0.0385191 0)
(-0.083499 -0.0401399 0)
(-0.0785485 -0.0413863 0)
(-0.0734062 -0.0422372 0)
(-0.0681173 -0.0426768 0)
(-0.0627296 -0.042695 0)
(-0.0572929 -0.0422877 0)
(-0.0518587 -0.0414577 0)
(-0.0464789 -0.0402149 0)
(-0.0412054 -0.0385766 0)
(-0.0360891 -0.0365674 0)
(-0.0311788 -0.0342197 0)
(-0.0265204 -0.0315732 0)
(-0.0221563 -0.0286749 0)
(-0.0181239 -0.0255785 0)
(-0.0144557 -0.0223445 0)
(-0.0111781 -0.0190391 0)
(-0.00831094 -0.0157341 0)
(-0.00586759 -0.0125063 0)
(-0.00385457 -0.00943665 0)
(-0.00227065 -0.00660987 0)
(-0.00110609 -0.00411352 0)
(-0.000357869 -0.00203696 0)
(-4.44135e-05 -0.000474155 0)
(-0.0001107 0.00223429 0)
(-0.000737292 0.00669051 0)
(-0.00208903 0.0110409 0)
(-0.00402233 0.0152155 0)
(-0.0064522 0.0191628 0)
(-0.00932605 0.0228439 0)
(-0.0125919 0.0262312 0)
(-0.0161999 0.0293067 0)
(-0.0201042 0.0320602 0)
(-0.0242628 0.034488 0)
(-0.0286363 0.0365911 0)
(-0.0331882 0.038374 0)
(-0.0378844 0.0398439 0)
(-0.0426927 0.0410089 0)
(-0.0475826 0.041878 0)
(-0.0525252 0.0424601 0)
(-0.0574926 0.0427636 0)
(-0.0624581 0.0427961 0)
(-0.0673955 0.042564 0)
(-0.0722795 0.042073 0)
(-0.0770849 0.0413277 0)
(-0.081787 0.0403318 0)
(-0.0863615 0.0390885 0)
(-0.090784 0.0376006 0)
(-0.0950304 0.0358712 0)
(-0.0990769 0.0339034 0)