/*--------------------------------*- C++ -*----------------------------------*\
  =========                 |
  \\      /  F ield         | OpenFOAM: The Open Source CFD Toolbox
   \\    /   O peration     | Website:  https://openfoam.org
    \\  /    A nd           | Version:  dev
     \\/     M anipulation  |
\*---------------------------------------------------------------------------*/
FoamFile
{
    format      ascii;
    class       volScalarField;
    location    "35.1";
    object      Ux;
}
// * * * * * * * * * * * * * * * * * * * * * * * * * * * * * * * * * * * * * //

dimensions      [0 1 -1 0 0 0 0];

internalField   nonuniform List<scalar> 
5184
(
1.23372e-05
4.51896e-05
8.03537e-05
9.60156e-05
8.21895e-05
3.6493e-05
-4.05274e-05
-0.000146853
-0.00027969
-0.000435983
-0.000612609
-0.000806534
-0.00101489
-0.00123501
-0.00146444
-0.00170092
-0.00194237
-0.00218688
-0.00243266
-0.00267804
-0.0029214
-0.00316119
-0.00339587
-0.00362392
-0.00384382
-0.00405402
-0.00425296
-0.00443908
-0.00461079
-0.00476651
-0.00490469
-0.0050238
-0.00512238
-0.00519905
-0.00525255
-0.00528176
-0.00528575
-0.00526379
-0.00521536
-0.00514025
-0.00503852
-0.00491053
-0.00475701
-0.004579
-0.0043779
-0.00415548
-0.00391382
-0.00365535
-0.00338281
-0.00309919
-0.00280773
-0.00251187
-0.00221516
-0.00192128
-0.00163388
-0.00135661
-0.00109302
-0.000846463
-0.000620097
-0.00041677
-0.000238981
-8.88066e-05
3.2164e-05
0.000122917
0.00018312
0.000213277
0.000214975
0.000191266
0.000147181
9.08164e-05
3.66376e-05
6.2287e-06
2.08568e-05
6.56533e-05
9.47618e-05
7.28668e-05
-1.88715e-05
-0.00018727
-0.000432912
-0.000752582
-0.00114073
-0.00159058
-0.00209479
-0.0026459
-0.0032366
-0.0038599
-0.00450919
-0.00517829
-0.00586137
-0.00655301
-0.00724806
-0.00794164
-0.00862905
-0.00930573
-0.00996722
-0.0106091
-0.0112269
-0.0118163
-0.0123729
-0.0128922
-0.0133698
-0.0138014
-0.0141829
-0.0145099
-0.0147788
-0.0149858
-0.0151276
-0.0152015
-0.015205
-0.0151365
-0.0149947
-0.0147792
-0.0144906
-0.0141299
-0.0136994
-0.013202
-0.0126417
-0.0120234
-0.0113528
-0.0106366
-0.00988205
-0.00909737
-0.00829122
-0.00747279
-0.0066516
-0.0058374
-0.00503998
-0.00426899
-0.00353383
-0.00284341
-0.00220602
-0.00162914
-0.00111923
-0.00068161
-0.00032018
-3.72287e-05
0.000166879
0.000294066
0.000349082
0.0003402
0.000279915
0.000186086
8.63883e-05
1.96858e-05
1.7644e-05
4.13559e-05
1.96401e-05
-8.39551e-05
-0.000290218
-0.000607897
-0.00103826
-0.00157748
-0.00221841
-0.00295184
-0.00376751
-0.0046547
-0.00560268
-0.006601
-0.0076396
-0.00870892
-0.00979986
-0.0109038
-0.0120126
-0.0131184
-0.0142136
-0.0152907
-0.0163427
-0.0173623
-0.0183425
-0.0192762
-0.0201564
-0.0209761
-0.0217285
-0.0224068
-0.0230043
-0.0235149
-0.0239326
-0.0242519
-0.0244679
-0.0245765
-0.0245741
-0.0244583
-0.0242276
-0.0238817
-0.0234213
-0.0228487
-0.0221673
-0.0213819
-0.0204989
-0.0195257
-0.0184714
-0.0173462
-0.0161615
-0.0149296
-0.013664
-0.0123785
-0.0110879
-0.00980695
-0.00855049
-0.00733326
-0.0061695
-0.00507275
-0.00405556
-0.00312919
-0.00230339
-0.00158604
-0.000982898
-0.000497178
-0.000129195
0.000124121
0.000269868
0.000319898
0.000291347
0.000207447
0.000102474
2.49826e-05
8.8448e-06
-6.99375e-06
-0.000107557
-0.000322345
-0.000669604
-0.00115774
-0.00178751
-0.00255414
-0.00344908
-0.00446131
-0.00557834
-0.00678696
-0.00807378
-0.00942552
-0.0108293
-0.0122727
-0.0137437
-0.015231
-0.0167237
-0.0182112
-0.0196832
-0.0211298
-0.0225413
-0.0239079
-0.0252203
-0.0264687
-0.027644
-0.0287369
-0.0297382
-0.030639
-0.0314309
-0.0321055
-0.0326552
-0.0330731
-0.0333529
-0.0334893
-0.0334782
-0.0333164
-0.0330024
-0.0325359
-0.0319182
-0.0311525
-0.0302433
-0.0291973
-0.0280227
-0.0267294
-0.0253294
-0.0238357
-0.0222633
-0.0206283
-0.0189479
-0.0172402
-0.0155241
-0.0138187
-0.0121432
-0.0105165
-0.00895708
-0.00748229
-0.0061083
-0.00484959
-0.00371868
-0.00272565
-0.00187785
-0.00117941
-0.000630783
-0.000228275
3.65946e-05
0.000177728
0.000214856
0.000174146
9.30516e-05
2.40327e-05
-2.12185e-06
-6.7284e-05
-0.000264105
-0.000609783
-0.00111682
-0.00179142
-0.00263259
-0.00363397
-0.00478543
-0.00607424
-0.00748605
-0.00900562
-0.0106174
-0.0123057
-0.0140553
-0.0158514
-0.0176796
-0.0195261
-0.0213775
-0.0232208
-0.0250435
-0.0268332
-0.0285779
-0.0302655
-0.0318844
-0.0334229
-0.0348695
-0.0362129
-0.037442
-0.038546
-0.0395146
-0.040338
-0.0410071
-0.0415136
-0.0418502
-0.0420107
-0.0419903
-0.0417856
-0.0413948
-0.0408179
-0.0400568
-0.0391153
-0.0379993
-0.0367167
-0.0352775
-0.033694
-0.0319801
-0.0301519
-0.0282271
-0.0262249
-0.024166
-0.022072
-0.0199653
-0.0178687
-0.0158052
-0.0137973
-0.011867
-0.010035
-0.00832071
-0.00674135
-0.0053119
-0.00404449
-0.00294799
-0.00202754
-0.00128408
-0.000713838
-0.000307829
-5.12727e-05
7.6713e-05
0.000103637
6.75266e-05
1.967e-05
-1.3694e-05
-0.000132837
-0.000435846
-0.000924696
-0.00160402
-0.00247638
-0.00353794
-0.00477999
-0.00619045
-0.00775479
-0.00945687
-0.0112796
-0.0132056
-0.0152172
-0.0172972
-0.0194287
-0.0215952
-0.0237807
-0.0259697
-0.0281473
-0.0302985
-0.0324091
-0.0344648
-0.0364516
-0.0383559
-0.0401639
-0.0418623
-0.043438
-0.044878
-0.04617
-0.0473021
-0.048263
-0.0490425
-0.0496311
-0.0500206
-0.0502041
-0.0501761
-0.0499331
-0.0494732
-0.0487966
-0.0479056
-0.0468047
-0.0455008
-0.0440031
-0.0423232
-0.0404748
-0.0384743
-0.0363397
-0.0340914
-0.0317513
-0.0293429
-0.0268909
-0.0244208
-0.0219585
-0.0195304
-0.0171622
-0.0148789
-0.0127043
-0.0106606
-0.00876769
-0.00704278
-0.00549999
-0.0041498
-0.00299857
-0.00204807
-0.00129504
-0.00073069
-0.000340291
-0.000102878
9.18793e-06
3.25134e-05
1.36248e-05
-2.51868e-05
-0.000200024
-0.000614124
-0.001253
-0.0021122
-0.00318956
-0.00447752
-0.00596435
-0.00763557
-0.0094746
-0.0114635
-0.0135834
-0.0158151
-0.0181394
-0.0205371
-0.0229897
-0.0254788
-0.0279866
-0.0304958
-0.0329893
-0.0354507
-0.0378636
-0.0402121
-0.0424802
-0.0446524
-0.0467134
-0.0486481
-0.0504416
-0.0520796
-0.0535483
-0.0548343
-0.0559252
-0.0568095
-0.0574769
-0.0579182
-0.0581261
-0.0580945
-0.0578196
-0.0572994
-0.0565342
-0.0555268
-0.0542822
-0.0528081
-0.0511146
-0.0492147
-0.0471237
-0.0448594
-0.0424421
-0.039894
-0.0372395
-0.0345046
-0.0317165
-0.0289036
-0.0260947
-0.0233189
-0.0206049
-0.0179806
-0.0154727
-0.0131058
-0.0109024
-0.00888208
-0.00706091
-0.00545114
-0.00406063
-0.00289236
-0.00194406
-0.00120778
-0.00066956
-0.000309194
-9.98403e-05
-7.70329e-06
6.86356e-06
-3.63424e-05
-0.000266962
-0.000793814
-0.00158577
-0.00262866
-0.00391494
-0.00543263
-0.00716645
-0.00909906
-0.0112116
-0.0134841
-0.015896
-0.0184264
-0.0210544
-0.0237595
-0.0265213
-0.02932
-0.0321361
-0.0349508
-0.0377454
-0.0405016
-0.0432016
-0.0458277
-0.0483625
-0.0507888
-0.0530897
-0.0552486
-0.0572492
-0.0590759
-0.0607133
-0.062147
-0.0633635
-0.0643503
-0.0650961
-0.065591
-0.065827
-0.0657977
-0.0654988
-0.0649283
-0.0640865
-0.0629763
-0.0616032
-0.0599755
-0.0581041
-0.056003
-0.0536886
-0.0511803
-0.0484999
-0.0456715
-0.0427215
-0.0396779
-0.0365705
-0.03343
-0.0302879
-0.0271759
-0.0241255
-0.0211672
-0.0183305
-0.0156426
-0.0131286
-0.0108102
-0.00870578
-0.00682963
-0.00519132
-0.00379547
-0.00264123
-0.001722
-0.00102524
-0.000532091
-0.000217206
-5.04547e-05
-8.23193e-08
-4.70643e-05
-0.000332666
-0.00097192
-0.00191737
-0.003145
-0.00464145
-0.00638991
-0.00837108
-0.0105645
-0.0129486
-0.0155015
-0.0182006
-0.0210234
-0.0239475
-0.0269509
-0.0300119
-0.0331092
-0.036222
-0.03933
-0.042413
-0.0454515
-0.0484262
-0.0513178
-0.0541077
-0.0567772
-0.059308
-0.0616823
-0.0638824
-0.0658914
-0.0676929
-0.0692713
-0.0706121
-0.0717018
-0.0725282
-0.0730809
-0.073351
-0.0733318
-0.0730185
-0.0724089
-0.0715031
-0.0703042
-0.0688177
-0.0670525
-0.0650199
-0.0627347
-0.0602143
-0.0574791
-0.0545523
-0.0514595
-0.0482289
-0.0448905
-0.0414761
-0.0380187
-0.0345523
-0.0311111
-0.0277291
-0.0244398
-0.021275
-0.0182648
-0.0154368
-0.0128154
-0.0104213
-0.00827089
-0.006376
-0.00474317
-0.00337343
-0.00226201
-0.00139819
-0.000764995
-0.000339004
-9.41812e-05
-6.94251e-06
-5.73405e-05
-0.000396653
-0.0011467
-0.00224428
-0.00365564
-0.00536144
-0.00733976
-0.00956702
-0.0120193
-0.0146723
-0.0175018
-0.0204833
-0.0235926
-0.0268059
-0.0300998
-0.0334512
-0.0368378
-0.0402373
-0.0436283
-0.0469894
-0.0502999
-0.053539
-0.0566866
-0.0597226
-0.062627
-0.0653806
-0.0679641
-0.0703589
-0.0725469
-0.0745106
-0.0762334
-0.0776998
-0.0788954
-0.0798073
-0.0804242
-0.0807366
-0.0807371
-0.0804206
-0.0797842
-0.0788282
-0.077555
-0.0759706
-0.0740836
-0.0719059
-0.0694526
-0.0667419
-0.063795
-0.0606362
-0.0572924
-0.0537933
-0.0501706
-0.046458
-0.0426908
-0.0389052
-0.0351379
-0.0314256
-0.0278044
-0.024309
-0.0209722
-0.0178245
-0.0148928
-0.0122007
-0.00976714
-0.00760629
-0.0057271
-0.00413284
-0.00282094
-0.00178293
-0.00100403
-0.000463019
-0.000138065
-1.36012e-05
-6.71888e-05
-0.000458698
-0.00131715
-0.00256429
-0.00415686
-0.00606957
-0.00827526
-0.0107459
-0.0134539
-0.0163722
-0.019474
-0.0227328
-0.0261228
-0.0296188
-0.0331959
-0.03683
-0.0404974
-0.0441752
-0.0478404
-0.051471
-0.0550449
-0.0585406
-0.0619366
-0.0652118
-0.0683454
-0.0713168
-0.074106
-0.0766931
-0.0790591
-0.0811856
-0.0830549
-0.0846507
-0.0859577
-0.0869621
-0.0876517
-0.0880165
-0.0880482
-0.087741
-0.0870918
-0.0861001
-0.0847681
-0.0831013
-0.0811085
-0.0788016
-0.0761957
-0.0733094
-0.0701647
-0.0667866
-0.0632032
-0.0594453
-0.0555463
-0.0515417
-0.0474688
-0.0433661
-0.0392729
-0.0352284
-0.0312716
-0.0274401
-0.0237698
-0.020294
-0.017043
-0.014043
-0.011316
-0.00887896
-0.00674361
-0.00491579
-0.0033955
-0.0021768
-0.00124735
-0.000588238
-0.000181781
-2.00318e-05
-7.66332e-05
-0.000518695
-0.00148268
-0.00287595
-0.00464613
-0.00676203
-0.00919127
-0.0119013
-0.0148609
-0.0180399
-0.0214089
-0.0249396
-0.0286044
-0.0323765
-0.03623
-0.0401395
-0.0440805
-0.0480288
-0.0519609
-0.0558536
-0.0596841
-0.0634297
-0.0670684
-0.0705779
-0.0739367
-0.0771232
-0.0801164
-0.0828956
-0.0854409
-0.0877329
-0.0897531
-0.0914842
-0.09291
-0.0940159
-0.0947888
-0.0952178
-0.0952938
-0.0950103
-0.0943633
-0.0933516
-0.091977
-0.0902444
-0.0881621
-0.0857417
-0.0829985
-0.0799512
-0.0766218
-0.0730362
-0.0692231
-0.0652146
-0.0610455
-0.0567531
-0.0523764
-0.0479564
-0.0435349
-0.0391538
-0.0348552
-0.0306797
-0.0266666
-0.0228524
-0.0192708
-0.0159513
-0.0129193
-0.0101949
-0.00779278
-0.00572192
-0.00398513
-0.00257925
-0.00149457
-0.000714505
-0.000225328
-2.62608e-05
-8.56952e-05
-0.000576596
-0.0016429
-0.00317828
-0.00512161
-0.00743599
-0.0100839
-0.0130283
-0.0162342
-0.0196684
-0.023299
-0.0270955
-0.0310287
-0.0350705
-0.0391936
-0.0433717
-0.0475793
-0.0517914
-0.0559837
-0.0601322
-0.0642134
-0.0682039
-0.0720808
-0.0758213
-0.0794028
-0.0828032
-0.0860006
-0.0889735
-0.0917011
-0.0941632
-0.0963405
-0.0982146
-0.0997686
-0.100987
-0.101855
-0.102362
-0.102497
-0.102253
-0.101625
-0.10061
-0.09921
-0.0974288
-0.095274
-0.0927567
-0.0898917
-0.0866976
-0.0831966
-0.0794147
-0.0753814
-0.0711296
-0.0666955
-0.0621178
-0.0574378
-0.0526985
-0.0479444
-0.0432205
-0.0385717
-0.0340424
-0.0296751
-0.0255102
-0.021585
-0.0179328
-0.0145826
-0.0115581
-0.0088777
-0.00655344
-0.00459137
-0.00299137
-0.00174642
-0.000842267
-0.000268927
-3.23467e-05
-9.43897e-05
-0.00063236
-0.00179754
-0.00347054
-0.00558189
-0.00808922
-0.01095
-0.0141227
-0.0175688
-0.0212518
-0.0251375
-0.0291933
-0.0333883
-0.0376929
-0.0420788
-0.0465187
-0.0509863
-0.0554557
-0.0599022
-0.0643009
-0.0686278
-0.072859
-0.0769708
-0.0809399
-0.0847432
-0.0883576
-0.0917607
-0.0949303
-0.0978447
-0.100483
-0.102825
-0.104852
-0.106545
-0.107888
-0.108866
-0.109465
-0.109675
-0.109488
-0.108896
-0.107896
-0.10649
-0.104678
-0.102469
-0.0998716
-0.0969011
-0.0935751
-0.0899156
-0.0859488
-0.0817045
-0.0772165
-0.0725218
-0.0676609
-0.062677
-0.0576153
-0.0525231
-0.0474485
-0.0424397
-0.0375448
-0.0328103
-0.0282805
-0.0239969
-0.0199971
-0.016314
-0.0129755
-0.0100037
-0.00741454
-0.0052174
-0.00341542
-0.00200442
-0.0009724
-0.00031295
-3.83675e-05
-0.000102725
-0.000685946
-0.00194633
-0.00375209
-0.0060258
-0.00871982
-0.0117868
-0.015181
-0.0188601
-0.0227849
-0.0269185
-0.0312263
-0.0356758
-0.0402361
-0.0448777
-0.0495726
-0.0542934
-0.0590141
-0.0637088
-0.0683527
-0.0729209
-0.0773892
-0.0817334
-0.0859297
-0.0899544
-0.093784
-0.0973953
-0.100766
-0.103873
-0.106695
-0.10921
-0.1114
-0.113244
-0.114725
-0.115828
-0.116537
-0.11684
-0.116727
-0.11619
-0.115226
-0.113832
-0.11201
-0.109765
-0.107106
-0.104047
-0.100605
-0.0968014
-0.0926617
-0.0882162
-0.083499
-0.0785485
-0.0734062
-0.0681173
-0.0627296
-0.0572929
-0.0518587
-0.0464789
-0.0412054
-0.0360891
-0.0311788
-0.0265204
-0.0221563
-0.0181239
-0.0144557
-0.0111781
-0.00831094
-0.00586759
-0.00385457
-0.00227065
-0.00110609
-0.000357869
-4.44135e-05
-0.0001107
-0.000737292
-0.00208903
-0.00402233
-0.0064522
-0.00932605
-0.0125919
-0.0161999
-0.0201042
-0.0242628
-0.0286363
-0.0331882
-0.0378844
-0.0426927
-0.0475826
-0.0525252
-0.0574926
-0.0624581
-0.0673955
-0.0722795
-0.0770849
-0.081787
-0.0863615
-0.090784
-0.0950304
-0.0990769
-0.1029
-0.106476
-0.109782
-0.112795
-0.115495
-0.117859
-0.119867
-0.121502
-0.122745
-0.12358
-0.123995
-0.123976
-0.123516
-0.122607
-0.121247
-0.119435
-0.117175
-0.114475
-0.111346
-0.107805
-0.103872
-0.0995722
-0.0949361
-0.0899979
-0.0847966
-0.0793753
-0.0737808
-0.0680632
-0.0622755
-0.0564723
-0.0507096
-0.0450436
-0.0395297
-0.0342218
-0.0291707
-0.0244239
-0.0200242
-0.0160089
-0.0124092
-0.00924949
-0.00654723
-0.00431265
-0.00254764
-0.00124472
-0.000404226
-5.05823e-05
-0.00011831
-0.000786315
-0.00222535
-0.00428062
-0.00686002
-0.00990622
-0.0133629
-0.0171762
-0.0212972
-0.0256808
-0.0302855
-0.0350729
-0.0400072
-0.0450552
-0.0501854
-0.0553682
-0.0605751
-0.0657789
-0.0709531
-0.0760721
-0.0811104
-0.0860433
-0.0908459
-0.0954937
-0.0999625
-0.104228
-0.108266
-0.112053
-0.115564
-0.118778
-0.121671
-0.124222
-0.126409
-0.128212
-0.129612
-0.130593
-0.131139
-0.131235
-0.130873
-0.130042
-0.128738
-0.126958
-0.124705
-0.121984
-0.118806
-0.115184
-0.111139
-0.106694
-0.10188
-0.0967298
-0.0912843
-0.0855872
-0.0796872
-0.0736366
-0.0674915
-0.06131
-0.0551522
-0.0490791
-0.043151
-0.0374271
-0.031964
-0.0268149
-0.0220281
-0.0176465
-0.0137066
-0.0102379
-0.00726225
-0.00479396
-0.00283819
-0.00138985
-0.00045261
-5.69762e-05
-0.000125542
-0.00083291
-0.00235495
-0.0045263
-0.00724811
-0.0104586
-0.0140974
-0.018107
-0.0224352
-0.0270343
-0.0318607
-0.036874
-0.0420373
-0.0473161
-0.052678
-0.0580928
-0.0635315
-0.0689666
-0.0743714
-0.0797199
-0.0849867
-0.0901468
-0.0951753
-0.100048
-0.104739
-0.109225
-0.113482
-0.117485
-0.121209
-0.124632
-0.12773
-0.130479
-0.132858
-0.134845
-0.136421
-0.137566
-0.138263
-0.138496
-0.138253
-0.137524
-0.136299
-0.134576
-0.132354
-0.129635
-0.126429
-0.122748
-0.118609
-0.114036
-0.109057
-0.103707
-0.0980255
-0.0920575
-0.0858534
-0.0794679
-0.0729597
-0.0663911
-0.0598263
-0.0533312
-0.0469717
-0.0408128
-0.0349173
-0.0293446
-0.0241493
-0.0193805
-0.0150806
-0.0112844
-0.00801906
-0.00530312
-0.00314534
-0.00154313
-0.000503642
-6.37004e-05
-0.000132378
-0.000876953
-0.00247748
-0.00475863
-0.00761528
-0.0109816
-0.0147931
-0.0189891
-0.0235143
-0.0283186
-0.0333563
-0.0385855
-0.0439677
-0.0494675
-0.0550518
-0.0606897
-0.066352
-0.0720107
-0.0776392
-0.0832113
-0.0887015
-0.0940849
-0.0993365
-0.104432
-0.109346
-0.114055
-0.118533
-0.122756
-0.1267
-0.13034
-0.133652
-0.136613
-0.139198
-0.141386
-0.143154
-0.144482
-0.145351
-0.145744
-0.145644
-0.14504
-0.14392
-0.142279
-0.140112
-0.137421
-0.134211
-0.130492
-0.126281
-0.121598
-0.116472
-0.110936
-0.105029
-0.0987974
-0.0922927
-0.0855719
-0.0786967
-0.0717331
-0.06475
-0.0578184
-0.0510103
-0.0443968
-0.0380475
-0.0320287
-0.026402
-0.0212233
-0.0165416
-0.0123978
-0.0088244
-0.00584501
-0.00347225
-0.00170627
-0.000557964
-7.08613e-05
-0.000138795
-0.000918298
-0.00259252
-0.00497684
-0.00796028
-0.0114731
-0.0154475
-0.0198193
-0.0245306
-0.029529
-0.0347669
-0.0402008
-0.0457911
-0.0515014
-0.0572979
-0.0631492
-0.0690259
-0.0748999
-0.0807443
-0.0865331
-0.092241
-0.0978428
-0.103314
-0.10863
-0.113766
-0.118697
-0.1234
-0.127848
-0.132017
-0.135882
-0.139418
-0.142601
-0.145406
-0.14781
-0.149788
-0.151319
-0.152381
-0.152955
-0.153022
-0.152568
-0.15158
-0.150046
-0.147962
-0.145325
-0.142137
-0.138407
-0.134147
-0.129377
-0.124123
-0.118417
-0.112298
-0.105813
-0.0990137
-0.0919597
-0.0847155
-0.0773509
-0.0699394
-0.0625578
-0.0552839
-0.0481961
-0.0413712
-0.0348829
-0.0288006
-0.0231878
-0.0181006
-0.0135868
-0.00968517
-0.00642462
-0.00382218
-0.00188103
-0.00061623
-7.85667e-05
-0.000144767
-0.000956786
-0.00269964
-0.0051801
-0.00828178
-0.0119315
-0.016058
-0.0205944
-0.0254802
-0.0306608
-0.0360868
-0.0417136
-0.0475002
-0.0534094
-0.059407
-0.0654612
-0.0715423
-0.077622
-0.0836737
-0.0896714
-0.0955899
-0.101404
-0.10709
-0.112624
-0.11798
-0.123133
-0.128061
-0.132736
-0.137135
-0.141232
-0.145001
-0.148417
-0.151454
-0.154088
-0.156293
-0.158045
-0.159321
-0.160098
-0.160358
-0.160079
-0.159248
-0.157851
-0.155877
-0.153323
-0.150186
-0.146472
-0.14219
-0.137358
-0.131999
-0.126143
-0.119829
-0.113104
-0.10602
-0.0986376
-0.0910252
-0.0832558
-0.0754079
-0.0675638
-0.0598083
-0.0522268
-0.044904
-0.0379222
-0.031359
-0.0252863
-0.0197683
-0.0148605
-0.0106084
-0.00704705
-0.00419843
-0.00206922
-0.000679104
-8.69248e-05
-0.000150268
-0.000992249
-0.00279837
-0.00536754
-0.00857846
-0.0123547
-0.0166222
-0.0213112
-0.0263589
-0.031709
-0.0373105
-0.0431171
-0.0490874
-0.0551832
-0.0613698
-0.0676151
-0.0738893
-0.0801642
-0.0864133
-0.0926108
-0.0987317
-0.104752
-0.110647
-0.116392
-0.121964
-0.127339
-0.132491
-0.137395
-0.142027
-0.14636
-0.150369
-0.154027
-0.157308
-0.160185
-0.162632
-0.164623
-0.166132
-0.167136
-0.16761
-0.167534
-0.166888
-0.165655
-0.163823
-0.161381
-0.158326
-0.154658
-0.150384
-0.145518
-0.14008
-0.134099
-0.127612
-0.120663
-0.113307
-0.105606
-0.0976297
-0.0894549
-0.0811651
-0.0728484
-0.0645966
-0.0565029
-0.0486606
-0.0411608
-0.0340907
-0.0275311
-0.0215555
-0.0162277
-0.011601
-0.00771738
-0.00460434
-0.00227264
-0.000747255
-9.60447e-05
-0.000155268
-0.00102451
-0.00288826
-0.00553831
-0.00884894
-0.0127409
-0.0171374
-0.0219664
-0.0271629
-0.032669
-0.038432
-0.044405
-0.0505452
-0.056814
-0.0631764
-0.0696
-0.0760549
-0.0825132
-0.0889484
-0.0953351
-0.101649
-0.107866
-0.113962
-0.119913
-0.125696
-0.131287
-0.136661
-0.141794
-0.146659
-0.151232
-0.155485
-0.159392
-0.162926
-0.166058
-0.168762
-0.171008
-0.17277
-0.174021
-0.174734
-0.174885
-0.174451
-0.173413
-0.171752
-0.169455
-0.166515
-0.162927
-0.158693
-0.153825
-0.148339
-0.142261
-0.135625
-0.128476
-0.120866
-0.112859
-0.104527
-0.0959502
-0.0872163
-0.0784197
-0.0696592
-0.0610363
-0.0526536
-0.0446118
-0.0370081
-0.029934
-0.0234725
-0.0176972
-0.01267
-0.0084407
-0.00504323
-0.0024931
-0.000821355
-0.000106036
-0.000159736
-0.0010534
-0.00296883
-0.00569155
-0.00909191
-0.0130882
-0.0176012
-0.0225568
-0.0278882
-0.0335359
-0.039446
-0.0455705
-0.051866
-0.0582933
-0.0648171
-0.0714049
-0.0780268
-0.0846552
-0.0912637
-0.0978276
-0.104323
-0.110726
-0.117013
-0.123162
-0.129149
-0.13495
-0.140542
-0.145899
-0.150997
-0.15581
-0.16031
-0.164471
-0.168265
-0.171662
-0.174633
-0.177149
-0.17918
-0.180698
-0.181672
-0.182075
-0.181882
-0.181067
-0.179609
-0.177492
-0.1747
-0.171228
-0.167071
-0.162236
-0.156737
-0.150594
-0.14384
-0.136517
-0.128677
-0.120383
-0.111709
-0.102738
-0.0935618
-0.0842815
-0.0750028
-0.0658361
-0.0568935
-0.0482863
-0.0401228
-0.0325056
-0.0255291
-0.0192773
-0.0138221
-0.00922197
-0.0055184
-0.00273239
-0.000902075
-0.000117009
-0.000163643
-0.00107874
-0.00303965
-0.00582643
-0.00930609
-0.0133948
-0.0180112
-0.0230794
-0.0285311
-0.0343052
-0.040347
-0.0466074
-0.0530425
-0.0596126
-0.0662822
-0.0730187
-0.0797925
-0.0865761
-0.0933437
-0.100071
-0.106734
-0.11331
-0.119778
-0.126113
-0.132293
-0.138297
-0.144099
-0.149675
-0.155002
-0.160052
-0.164799
-0.169216
-0.173273
-0.176941
-0.180189
-0.182987
-0.185303
-0.187105
-0.188361
-0.18904
-0.189113
-0.188552
-0.18733
-0.185425
-0.18282
-0.1795
-0.17546
-0.170698
-0.165223
-0.159054
-0.152218
-0.144754
-0.136712
-0.128156
-0.119159
-0.109806
-0.100196
-0.0904324
-0.0806301
-0.0709079
-0.0613881
-0.0521936
-0.0434445
-0.0352559
-0.0277344
-0.020976
-0.0150637
-0.0100661
-0.00603309
-0.00299232
-0.000990089
-0.000129077
-0.000166963
-0.00110038
-0.0031003
-0.0059422
-0.00949032
-0.013659
-0.0183652
-0.0235315
-0.029088
-0.0349728
-0.0411299
-0.0475097
-0.0540675
-0.0607637
-0.0675622
-0.0744307
-0.0813398
-0.0882622
-0.0951726
-0.102047
-0.108863
-0.115598
-0.122231
-0.128739
-0.135101
-0.141295
-0.147297
-0.153084
-0.158632
-0.163914
-0.168905
-0.173575
-0.177897
-0.181839
-0.185371
-0.188459
-0.191071
-0.193172
-0.194729
-0.195706
-0.196071
-0.195792
-0.194838
-0.193181
-0.1908
-0.187673
-0.18379
-0.179144
-0.173738
-0.167585
-0.160708
-0.153141
-0.144934
-0.136145
-0.126851
-0.117137
-0.107105
-0.0968651
-0.0865383
-0.0762529
-0.066142
-0.0563404
-0.0469813
-0.0381933
-0.0300967
-0.0228007
-0.016401
-0.0109777
-0.00659049
-0.00327465
-0.00108607
-0.000142351
-0.00016967
-0.00111818
-0.00315042
-0.00603822
-0.00964358
-0.0138794
-0.0186613
-0.0239104
-0.0295559
-0.0355347
-0.04179
-0.0482717
-0.0549346
-0.0617387
-0.0686481
-0.0756305
-0.0826566
-0.0896996
-0.0967349
-0.103739
-0.11069
-0.117567
-0.124349
-0.131014
-0.137542
-0.143912
-0.150101
-0.156086
-0.161844
-0.167349
-0.172576
-0.177495
-0.182078
-0.186295
-0.190112
-0.193496
-0.196413
-0.198825
-0.200698
-0.201993
-0.202673
-0.202703
-0.202048
-0.200675
-0.198555
-0.195664
-0.191982
-0.187498
-0.182208
-0.176118
-0.169247
-0.161623
-0.153292
-0.14431
-0.134751
-0.124704
-0.11427
-0.103566
-0.0927192
-0.0818679
-0.0711558
-0.0607303
-0.0507388
-0.0413246
-0.032623
-0.0247581
-0.0178399
-0.0119614
-0.00719367
-0.00358111
-0.00119068
-0.000156947
-0.000171744
-0.00113204
-0.00318972
-0.00611393
-0.00976503
-0.0140548
-0.0188979
-0.0242143
-0.0299322
-0.0359876
-0.0423234
-0.0488886
-0.0556378
-0.0625308
-0.0695317
-0.0766083
-0.0837316
-0.0908754
-0.0980156
-0.10513
-0.112196
-0.119195
-0.126106
-0.132909
-0.139585
-0.146113
-0.152472
-0.15864
-0.164594
-0.170309
-0.17576
-0.180919
-0.185757
-0.190242
-0.194343
-0.198024
-0.20125
-0.203983
-0.206184
-0.207813
-0.20883
-0.209194
-0.208867
-0.207812
-0.205992
-0.203378
-0.199944
-0.195671
-0.190548
-0.184574
-0.177761
-0.170132
-0.161726
-0.152596
-0.142815
-0.132468
-0.12166
-0.110512
-0.099158
-0.0877441
-0.0764257
-0.0653637
-0.0547203
-0.0446547
-0.0353191
-0.0268541
-0.0193854
-0.0130213
-0.00784559
-0.00391341
-0.00130458
-0.000172983
-0.000173171
-0.00114186
-0.003218
-0.00616899
-0.00985412
-0.0141845
-0.0190738
-0.0244414
-0.0302147
-0.036329
-0.0427267
-0.0493562
-0.056172
-0.0631338
-0.0702055
-0.0773552
-0.0845545
-0.0917774
-0.0990006
-0.106202
-0.113362
-0.120461
-0.127479
-0.134399
-0.141201
-0.147867
-0.154375
-0.160706
-0.166837
-0.172745
-0.178405
-0.183789
-0.18887
-0.193615
-0.197993
-0.201968
-0.205504
-0.20856
-0.211098
-0.213073
-0.214443
-0.215165
-0.215194
-0.214488
-0.213007
-0.210713
-0.207574
-0.203563
-0.198661
-0.19286
-0.186164
-0.178588
-0.170163
-0.16094
-0.150985
-0.140382
-0.129238
-0.117675
-0.105832
-0.0938663
-0.0819429
-0.0702366
-0.0589256
-0.0481864
-0.0381893
-0.0290934
-0.0210424
-0.0141613
-0.00854906
-0.00427319
-0.00142844
-0.000190578
-0.000173943
-0.00114761
-0.00323517
-0.00620321
-0.00991055
-0.0142679
-0.0191885
-0.0245909
-0.0304022
-0.0365572
-0.0429975
-0.0496715
-0.0565333
-0.0635425
-0.0706632
-0.0778638
-0.0851159
-0.0923946
-0.0996769
-0.106942
-0.114171
-0.121344
-0.128446
-0.135457
-0.14236
-0.149139
-0.155773
-0.162243
-0.168529
-0.174608
-0.180457
-0.186048
-0.191355
-0.196346
-0.20099
-0.20525
-0.20909
-0.21247
-0.215347
-0.217677
-0.219414
-0.220512
-0.220921
-0.220596
-0.219489
-0.217557
-0.21476
-0.211063
-0.20644
-0.200873
-0.194356
-0.186897
-0.178519
-0.169264
-0.159194
-0.148389
-0.136954
-0.125014
-0.112712
-0.100213
-0.0876927
-0.0753406
-0.0633512
-0.0519196
-0.0412359
-0.0314796
-0.0228145
-0.0153848
-0.00930668
-0.00466204
-0.0015629
-0.000209852
-0.000174059
-0.00114931
-0.00324125
-0.00621666
-0.00993441
-0.0143051
-0.0192418
-0.0246627
-0.0304944
-0.0366713
-0.0431346
-0.0498326
-0.056719
-0.0637534
-0.0709001
-0.0781277
-0.0854084
-0.0927176
-0.100033
-0.107336
-0.114606
-0.121827
-0.128984
-0.136058
-0.143035
-0.149898
-0.15663
-0.163213
-0.169627
-0.175851
-0.181863
-0.187639
-0.19315
-0.198368
-0.20326
-0.207793
-0.211927
-0.215623
-0.218838
-0.221526
-0.223639
-0.225126
-0.225936
-0.226018
-0.225319
-0.223789
-0.221381
-0.218053
-0.213767
-0.208498
-0.202228
-0.194956
-0.186696
-0.17748
-0.167362
-0.156418
-0.14475
-0.13248
-0.119759
-0.106754
-0.0936541
-0.0806621
-0.0679896
-0.0558514
-0.0444593
-0.034015
-0.0247049
-0.0166949
-0.0101208
-0.00508146
-0.0017086
-0.000230932
-0.000173527
-0.00114701
-0.00323643
-0.00620967
-0.00992619
-0.0142968
-0.0192345
-0.0246575
-0.0304918
-0.0366717
-0.0431382
-0.049839
-0.0567279
-0.0637645
-0.0709132
-0.0781428
-0.085426
-0.0927389
-0.10006
-0.107371
-0.114654
-0.121894
-0.129074
-0.136181
-0.143201
-0.150117
-0.156915
-0.163578
-0.170089
-0.176429
-0.182576
-0.188507
-0.194196
-0.199616
-0.204735
-0.209519
-0.213932
-0.217933
-0.221478
-0.224521
-0.227011
-0.228898
-0.230124
-0.230636
-0.230375
-0.229285
-0.227312
-0.224404
-0.220515
-0.215609
-0.209658
-0.202649
-0.194583
-0.185485
-0.175396
-0.164387
-0.152552
-0.140014
-0.126922
-0.113451
-0.099799
-0.0861817
-0.0728286
-0.0599754
-0.0478571
-0.0367
-0.0267155
-0.0180939
-0.0109937
-0.00553284
-0.00186616
-0.000253942
-0.000172368
-0.00114084
-0.00322106
-0.00618288
-0.00988685
-0.0142442
-0.0191683
-0.0245769
-0.0303963
-0.0365603
-0.0430096
-0.0496918
-0.0565607
-0.0635756
-0.0707012
-0.0779066
-0.0851651
-0.0924534
-0.099751
-0.10704
-0.114304
-0.121529
-0.128701
-0.135807
-0.142834
-0.149769
-0.156598
-0.163307
-0.16988
-0.1763
-0.182547
-0.1886
-0.194436
-0.200028
-0.205346
-0.210357
-0.215027
-0.219314
-0.223175
-0.226564
-0.22943
-0.231718
-0.233371
-0.23433
-0.234532
-0.233916
-0.232419
-0.229982
-0.22655
-0.222074
-0.216515
-0.209848
-0.202062
-0.193166
-0.183193
-0.172202
-0.160281
-0.147545
-0.134145
-0.120259
-0.106092
-0.0918734
-0.0778509
-0.0642813
-0.0514243
-0.0395332
-0.0288471
-0.0195837
-0.0119269
-0.00601747
-0.00203616
-0.000279011
-0.000170611
-0.00113099
-0.00319568
-0.00613729
-0.00981789
-0.0141494
-0.0190454
-0.024424
-0.0302111
-0.0363403
-0.0427522
-0.0493942
-0.0562199
-0.0631886
-0.0702653
-0.0774194
-0.0846246
-0.0918583
-0.0991009
-0.106336
-0.113548
-0.120723
-0.127851
-0.134919
-0.141916
-0.148832
-0.155654
-0.162369
-0.168965
-0.175426
-0.181736
-0.187874
-0.193819
-0.199548
-0.205031
-0.210239
-0.215137
-0.219686
-0.223843
-0.227563
-0.230794
-0.23348
-0.235564
-0.236981
-0.237666
-0.237552
-0.23657
-0.234652
-0.231733
-0.227753
-0.222661
-0.216418
-0.208999
-0.200399
-0.190637
-0.179758
-0.167839
-0.154991
-0.141358
-0.127119
-0.112488
-0.0977045
-0.0830336
-0.0687544
-0.0551528
-0.0425111
-0.0310991
-0.021165
-0.012922
-0.00653648
-0.00221918
-0.000306269
-0.000168302
-0.00111776
-0.00316105
-0.00607428
-0.0097214
-0.0140152
-0.0188695
-0.0242027
-0.0299406
-0.0360166
-0.0423711
-0.0489511
-0.0557103
-0.062608
-0.0696092
-0.0766837
-0.0838059
-0.0909539
-0.0981089
-0.105255
-0.112379
-0.119469
-0.126515
-0.133506
-0.140433
-0.147288
-0.154061
-0.160741
-0.167318
-0.173777
-0.180106
-0.186287
-0.1923
-0.198125
-0.203735
-0.209103
-0.214195
-0.218975
-0.223402
-0.227431
-0.23101
-0.234084
-0.236594
-0.238474
-0.239655
-0.240066
-0.23963
-0.238274
-0.235921
-0.232502
-0.227952
-0.222217
-0.215257
-0.207051
-0.197601
-0.186937
-0.175123
-0.162258
-0.14848
-0.133967
-0.118935
-0.103635
-0.0883477
-0.0733754
-0.0590309
-0.0456278
-0.0334693
-0.022838
-0.0139798
-0.0070908
-0.00241573
-0.000335846
-0.000165497
-0.0011015
-0.00311815
-0.00599566
-0.00960013
-0.0138452
-0.0186452
-0.0239187
-0.0295912
-0.0355961
-0.0418734
-0.0483699
-0.0550391
-0.0618405
-0.0687392
-0.0757053
-0.0827139
-0.0897437
-0.096777
-0.103799
-0.110798
-0.117764
-0.124687
-0.131559
-0.138375
-0.145125
-0.151804
-0.158404
-0.164914
-0.171327
-0.177628
-0.183805
-0.189841
-0.195717
-0.201411
-0.206896
-0.212143
-0.217118
-0.221781
-0.226089
-0.229993
-0.233438
-0.236362
-0.238702
-0.240385
-0.241334
-0.241471
-0.240713
-0.238976
-0.236177
-0.232241
-0.227097
-0.22069
-0.212979
-0.203949
-0.193612
-0.182014
-0.169241
-0.15542
-0.140724
-0.12537
-0.109616
-0.0937577
-0.0781196
-0.063043
-0.0488744
-0.0359538
-0.0246017
-0.0151008
-0.00768119
-0.0026263
-0.000367872
-0.000162272
-0.00108267
-0.00306824
-0.00590374
-0.00945758
-0.0136442
-0.0183786
-0.023579
-0.029171
-0.0350876
-0.0412685
-0.0476603
-0.0542163
-0.060896
-0.0676646
-0.0744929
-0.0813563
-0.0882345
-0.0951109
-0.101972
-0.108807
-0.115607
-0.122366
-0.129077
-0.135735
-0.142336
-0.148874
-0.155344
-0.161741
-0.168056
-0.174281
-0.180404
-0.186413
-0.192292
-0.19802
-0.203576
-0.208933
-0.21406
-0.21892
-0.223472
-0.227669
-0.231458
-0.234779
-0.237566
-0.239747
-0.241243
-0.24197
-0.241839
-0.240759
-0.238636
-0.235381
-0.230909
-0.225146
-0.218035
-0.209538
-0.199646
-0.188387
-0.175826
-0.162078
-0.147305
-0.131722
-0.115591
-0.0992207
-0.0829569
-0.0671691
-0.0522394
-0.0385467
-0.0264538
-0.0162848
-0.00830815
-0.00285131
-0.000402478
-0.000158718
-0.00106185
-0.00301286
-0.00580134
-0.00929805
-0.0134182
-0.0180768
-0.0231924
-0.02869
-0.0345023
-0.0405684
-0.0468348
-0.0532545
-0.059787
-0.066398
-0.0730584
-0.0797445
-0.0864369
-0.09312
-0.0997817
-0.106413
-0.113006
-0.119557
-0.126061
-0.132515
-0.138918
-0.145266
-0.151557
-0.157788
-0.163954
-0.17005
-0.176067
-0.181995
-0.187823
-0.193535
-0.199111
-0.204527
-0.209758
-0.214769
-0.219523
-0.223976