/*--------------------------------*- C++ -*----------------------------------*\
  =========                 |
  \\      /  F ield         | OpenFOAM: The Open Source CFD Toolbox
   \\    /   O peration     | Website:  https://openfoam.org
    \\  /    A nd           | Version:  dev
     \\/     M anipulation  |
\*---------------------------------------------------------------------------*/
FoamFile
{
    format      ascii;
    class       volTensorField;
    location    "0.4";
    object      grad(U);
}
// * * * * * * * * * * * * * * * * * * * * * * * * * * * * * * * * * * * * * //

dimensions      [0 0 -1 0 0 0 0];

internalField   nonuniform List<tensor> 
400
(
(0.0394593 -0.0139023 0 0.0175925 -0.0419829 0 0 0 0)
(-0.143041 0.081505 0 -0.14704 0.175627 0 0 0 0)
(-0.362237 0.0773565 0 -0.687007 0.418197 0 0 0 0)
(-0.520057 0.0481105 0 -1.52004 0.591993 0 0 0 0)
(-0.598845 0.0176763 0 -2.52704 0.678908 0 0 0 0)
(-0.602562 -0.0087858 0 -3.58712 0.68221 0 0 0 0)
(-0.541558 -0.0301306 0 -4.58734 0.612965 0 0 0 0)
(-0.42866 -0.0463201 0 -5.43133 0.485306 0 0 0 0)
(-0.27734 -0.0575878 0 -6.04352 0.314236 0 0 0 0)
(-0.10127 -0.063992 0 -6.37073 0.115152 0 0 0 0)
(0.08532 -0.065294 0 -6.38335 -0.0958515 0 0 0 0)
(0.26721 -0.0610159 0 -6.07682 -0.301552 0 0 0 0)
(0.428 -0.0505908 0 -5.47329 -0.48342 0 0 0 0)
(0.550382 -0.0335782 0 -4.62292 -0.621955 0 0 0 0)
(0.61703 -0.0099738 0 -3.60408 -0.697796 0 0 0 0)
(0.612588 0.0193078 0 -2.52103 -0.693905 0 0 0 0)
(0.526865 0.0517625 0 -1.49677 -0.599303 0 0 0 0)
(0.359713 0.0807766 0 -0.659991 -0.41459 0 0 0 0)
(0.135432 0.0818785 0 -0.12967 -0.164954 0 0 0 0)
(-0.0464298 -0.0172024 0 0.0225286 0.0489857 0 0 0 0)
(-0.168907 0.147547 0 -0.0782022 0.13421 0 0 0 0)
(-0.561559 0.378675 0 -0.385272 0.562503 0 0 0 0)
(-1.01076 0.339009 0 -0.941229 0.96602 0 0 0 0)
(-1.31997 0.2126 0 -1.65112 1.25231 0 0 0 0)
(-1.46824 0.072541 0 -2.43884 1.3901 0 0 0 0)
(-1.45774 -0.057157 0 -3.23542 1.37776 0 0 0 0)
(-1.30265 -0.166773 0 -3.97186 1.22982 0 0 0 0)
(-1.02752 -0.252409 0 -4.58614 0.969606 0 0 0 0)
(-0.66206 -0.312566 0 -5.02823 0.624754 0 0 0 0)
(-0.23856 -0.346096 0 -5.26269 0.225436 0 0 0 0)
(0.20859 -0.351411 0 -5.27009 -0.196136 0 0 0 0)
(0.64285 -0.326552 0 -5.04816 -0.605733 0 0 0 0)
(1.0259 -0.269812 0 -4.61243 -0.967417 0 0 0 0)
(1.31883 -0.180798 0 -3.99651 -1.24472 0 0 0 0)
(1.48486 -0.061976 0 -3.2512 -1.40328 0 0 0 0)
(1.49472 0.079185 0 -2.44199 -1.41521 0 0 0 0)
(1.33417 0.227552 0 -1.64291 -1.26583 0 0 0 0)
(1.00739 0.353573 0 -0.927745 -0.96228 0 0 0 0)
(0.547088 0.381698 0 -0.374507 -0.546085 0 0 0 0)
(0.153571 0.13317 0 -0.0744727 -0.121124 0 0 0 0)
(-0.424015 0.68281 0 -0.0850787 0.364933 0 0 0 0)
(-1.00607 0.913315 0 -0.40801 1.05762 0 0 0 0)
(-1.62809 0.767165 0 -0.960934 1.63049 0 0 0 0)
(-2.01767 0.47219 0 -1.61987 2.01637 0 0 0 0)
(-2.18314 0.14312 0 -2.30943 2.18545 0 0 0 0)
(-2.13558 -0.16906 0 -2.97797 2.1378 0 0 0 0)
(-1.89228 -0.43828 0 -3.57846 1.89379 0 0 0 0)
(-1.48503 -0.651391 0 -4.07008 1.48618 0 0 0 0)
(-0.95389 -0.801757 0 -4.42063 0.954819 0 0 0 0)
(-0.34313 -0.884882 0 -4.60738 0.343821 0 0 0 0)
(0.29985 -0.896463 0 -4.6176 -0.29949 0 0 0 0)
(0.92487 -0.832297 0 -4.44908 -0.924985 0 0 0 0)
(1.47965 -0.68958 0 -4.11056 -1.4804 0 0 0 0)
(1.91161 -0.46944 0 -3.62218 -1.91318 0 0 0 0)
(2.17155 -0.18046 0 -3.01571 -2.17418 0 0 0 0)
(2.22088 0.15676 0 -2.33411 -2.22376 0 0 0 0)
(2.04111 0.50469 0 -1.62906 -2.04035 0 0 0 0)
(1.62812 0.800518 0 -0.958074 -1.63028 0 0 0 0)
(0.988704 0.923035 0 -0.401209 -1.03688 0 0 0 0)
(0.40255 0.650007 0 -0.081905 -0.345241 0 0 0 0)
(-0.661996 1.5701 0 -0.0750354 0.578636 0 0 0 0)
(-1.43741 1.64424 0 -0.382479 1.52178 0 0 0 0)
(-2.22262 1.29776 0 -0.92162 2.22865 0 0 0 0)
(-2.66847 0.76756 0 -1.55438 2.66963 0 0 0 0)
(-2.82634 0.19397 0 -2.19794 2.83448 0 0 0 0)
(-2.72677 -0.34882 0 -2.80374 2.73547 0 0 0 0)
(-2.39476 -0.81839 0 -3.33448 2.40225 0 0 0 0)
(-1.86969 -1.19138 0 -3.76177 1.87574 0 0 0 0)
(-1.19936 -1.45492 0 -4.06519 1.20355 0 0 0 0)
(-0.43553 -1.6004 0 -4.23075 0.43749 0 0 0 0)
(0.36689 -1.62022 0 -4.24976 -0.367403 0 0 0 0)
(1.14989 -1.50747 0 -4.1191 -1.15296 0 0 0 0)
(1.8528 -1.25801 0 -3.84111 -1.85827 0 0 0 0)
(2.41368 -0.87457 0 -3.42517 -2.42124 0 0 0 0)
(2.77293 -0.37255 0 -2.88996 -2.78222 0 0 0 0)
(2.88137 0.21301 0 -2.26571 -2.8904 0 0 0 0)
(2.71021 0.82103 0 -1.59559 -2.71234 0 0 0 0)
(2.23524 1.35704 0 -0.93718 -2.24141 0 0 0 0)
(1.42326 1.66674 0 -0.382218 -1.50399 0 0 0 0)
(0.636685 1.51529 0 -0.0726849 -0.554945 0 0 0 0)
(-0.881529 2.78323 0 -0.0679312 0.773595 0 0 0 0)
(-1.85265 2.56333 0 -0.36266 1.96544 0 0 0 0)
(-2.79999 1.91501 0 -0.89076 2.80307 0 0 0 0)
(-3.29399 1.07802 0 -1.5086 3.28747 0 0 0 0)
(-3.4325 0.20896 0 -2.12717 3.43406 0 0 0 0)
(-3.27212 -0.60129 0 -2.6974 3.27442 0 0 0 0)
(-2.85031 -1.29801 0 -3.18722 2.85197 0 0 0 0)
(-2.21574 -1.85009 0 -3.57661 2.21723 0 0 0 0)
(-1.42287 -2.24001 0 -3.85403 1.42416 0 0 0 0)
(-0.5277 -2.45584 0 -4.01185 0.52878 0 0 0 0)
(0.4115 -2.48691 0 -4.0446 -0.41085 0 0 0 0)
(1.33352 -2.32316 0 -3.94724 -1.33358 0 0 0 0)
(2.17358 -1.95786 0 -3.71609 -2.17432 0 0 0 0)
(2.86276 -1.39339 0 -3.35104 -2.86434 0 0 0 0)
(3.33101 -0.64962 0 -2.85996 -3.3339 0 0 0 0)
(3.51525 0.22664 0 -2.26407 -3.51787 0 0 0 0)
(3.36964 1.15368 0 -1.60288 -3.36447 0 0 0 0)
(2.84149 2.00887 0 -0.9384 -2.84529 0 0 0 0)
(1.8532 2.6095 0 -0.374928 -1.96301 0 0 0 0)
(0.857453 2.70894 0 -0.067615 -0.750376 0 0 0 0)
(-1.09259 4.30913 0 -0.066111 0.959939 0 0 0 0)
(-2.26024 3.67371 0 -0.358509 2.40207 0 0 0 0)
(-3.36856 2.61979 0 -0.88453 3.37231 0 0 0 0)
(-3.90488 1.39855 0 -1.49444 3.89562 0 0 0 0)
(-4.01514 0.18092 0 -2.09407 4.01561 0 0 0 0)
(-3.78682 -0.93091 0 -2.63441 3.78813 0 0 0 0)
(-3.27397 -1.87558 0 -3.08874 3.27468 0 0 0 0)
(-2.5365 -2.61919 0 -3.44527 2.53717 0 0 0 0)
(-1.6346 -3.14337 0 -3.7009 1.63544 0 0 0 0)
(-0.6261 -3.43541 0 -3.8551 0.627087 0 0 0 0)
(0.4315 -3.48258 0 -3.905 -0.430614 0 0 0 0)
(1.4784 -3.27094 0 -3.8439 -1.4778 0 0 0 0)
(2.449 -2.78877 0 -3.66172 -2.44883 0 0 0 0)
(3.26981 -2.03415 0 -3.34828 -3.2704 0 0 0 0)
(3.8599 -1.02608 0 -2.89956 -3.86202 0 0 0 0)
(4.13845 0.18244 0 -2.32702 -4.14037 0 0 0 0)
(4.03588 1.49361 0 -1.6655 -4.02849 0 0 0 0)
(3.46319 2.7585 0 -0.98095 -3.46845 0 0 0 0)
(2.29404 3.76165 0 -0.391288 -2.4349 0 0 0 0)
(1.07923 4.22868 0 -0.069639 -0.94535 0 0 0 0)
(-1.30615 6.14524 0 -0.069248 1.14793 0 0 0 0)
(-2.67107 4.9757 0 -0.37068 2.84261 0 0 0 0)
(-3.93592 3.40856 0 -0.9041 3.94114 0 0 0 0)
(-4.50353 1.72132 0 -1.50761 4.49237 0 0 0 0)
(-4.57247 0.10147 0 -2.08162 4.57275 0 0 0 0)
(-4.26679 -1.34222 0 -2.57987 4.26795 0 0 0 0)
(-3.66117 -2.54897 0 -2.9841 3.66154 0 0 0 0)
(-2.8279 -3.48933 0 -3.294 2.82846 0 0 0 0)
(-1.8327 -4.15009 0 -3.5175 1.83344 0 0 0 0)
(-0.7318 -4.52189 0 -3.6627 0.732683 0 0 0 0)
(0.4227 -4.5918 0 -3.7311 -0.421715 0 0 0 0)
(1.5768 -4.34138 0 -3.7146 -1.5761 0 0 0 0)
(2.6692 -3.75046 0 -3.5961 -2.66891 0 0 0 0)
(3.62492 -2.80658 0 -3.3534 -3.62535 0 0 0 0)
(4.35227 -1.51959 0 -2.96721 -4.35455 0 0 0 0)
(4.74931 0.06017 0 -2.43391 -4.75157 0 0 0 0)
(4.71571 1.8256 0 -1.77845 -4.70699 0 0 0 0)
(4.1157 3.60246 0 -1.06702 -4.12348 0 0 0 0)
(2.76451 5.1326 0 -0.43314 -2.93918 0 0 0 0)
(1.31838 6.08919 0 -0.078856 -1.1549 0 0 0 0)
(-1.53252 8.29967 0 -0.077155 1.34697 0 0 0 0)
(-3.0951 6.46692 0 -0.39866 3.29818 0 0 0 0)
(-4.50549 4.26955 0 -0.94639 4.51216 0 0 0 0)
(-5.0824 2.03016 0 -1.53676 5.06894 0 0 0 0)
(-5.0874 -0.0435 0 -2.06405 5.08704 0 0 0 0)
(-4.6893 -1.84212 0 -2.48937 4.68987 0 0 0 0)
(-3.9881 -3.31507 0 -2.8089 3.98766 0 0 0 0)
(-3.0699 -4.44729 0 -3.0396 3.06963 0 0 0 0)
(-2.0033 -5.23915 0 -3.2054 2.00351 0 0 0 0)
(-0.8397 -5.69057 0 -3.3262 0.84022 0 0 0 0)
(0.3796 -5.79136 0 -3.4106 -0.37881 0 0 0 0)
(1.6134 -5.51813 0 -3.4505 -1.61237 0 0 0 0)
(2.8102 -4.83802 0 -3.4212 -2.80932 0 0 0 0)
(3.8987 -3.71979 0 -3.2856 -3.89861 0 0 0 0)
(4.77939 -2.1523 0 -3.00372 -4.78146 0 0 0 0)
(5.32721 -0.17 0 -2.54837 -5.32952 0 0 0 0)
(5.40277 2.1217 0 -1.92487 -5.39223 0 0 0 0)
(4.8085 4.52631 0 -1.19217 -4.81922 0 0 0 0)
(3.28221 6.73023 0 -0.50043 -3.49554 0 0 0 0)
(1.59122 8.32276 0 -0.095459 -1.39379 0 0 0 0)
(-1.78196 10.7904 0 -0.09076 1.56644 0 0 0 0)
(-3.54031 8.14089 0 -0.4441 3.77878 0 0 0 0)
(-5.07402 5.17932 0 -1.00899 5.08246 0 0 0 0)
(-5.62119 2.2962 0 -1.56764 5.6049 0 0 0 0)
(-5.52508 -0.2776 0 -2.0085 5.5235 0 0 0 0)
(-5.01164 -2.4416 0 -2.3078 5.0111 0 0 0 0)
(-4.2114 -4.16921 0 -2.4857 4.20962 0 0 0 0)
(-3.2244 -5.47348 0 -2.5843 3.22287 0 0 0 0)
(-2.1193 -6.3795 0 -2.6501 2.11857 0 0 0 0)
(-0.937 -6.90421 0 -2.72 0.93697 0 0 0 0)
(0.2984 -7.04439 0 -2.8122 -0.2979 0 0 0 0)
(1.5662 -6.77189 0 -2.9211 -1.56517 0 0 0 0)
(2.8341 -6.0367 0 -3.0151 -2.8327 0 0 0 0)
(4.0424 -4.77872 0 -3.0396 -4.0415 0 0 0 0)
(5.0895 -2.9505 0 -2.9272 -5.0911 0 0 0 0)
(5.82816 -0.5506 0 -2.61619 -5.83 0 0 0 0)
(6.07191 2.3359 0 -2.07748 -6.059 0 0 0 0)
(5.54014 5.49915 0 -1.34876 -5.5544 0 0 0 0)
(3.86122 8.55803 0 -0.59428 -4.12101 0 0 0 0)
(1.91427 10.9785 0 -0.120722 -1.67695 0 0 0 0)
(-2.06737 13.6449 0 -0.113231 1.81814 0 0 0 0)
(-4.01332 9.98294 0 -0.51381 4.29362 0 0 0 0)
(-5.62903 6.09567 0 -1.09318 5.6396 0 0 0 0)
(-6.08191 2.4712 0 -1.58381 6.0616 0 0 0 0)
(-5.82756 -0.6373 0 -1.87264 5.8239 0 0 0 0)
(-5.1665 -3.156 0 -1.9647 5.1641 0 0 0 0)
(-4.2646 -5.1033 0 -1.9179 4.261 0 0 0 0)
(-3.2343 -6.53834 0 -1.8096 3.23111 0 0 0 0)
(-2.139 -7.52505 0 -1.7159 2.13677 0 0 0 0)
(-1.0018 -8.10704 0 -1.6955 1.00074 0 0 0 0)
(0.1785 -8.2935 0 -1.78 -0.17839 0 0 0 0)
(1.4105 -8.05293 0 -1.9688 -1.40934 0 0 0 0)
(2.6917 -7.31435 0 -2.2254 -2.68972 0 0 0 0)
(3.9866 -5.97819 0 -2.4776 -3.9847 0 0 0 0)
(5.2028 -3.9408 0 -2.6253 -5.2034 0 0 0 0)
(6.17693 -1.1379 0 -2.5593 -6.1777 0 0 0 0)
(6.6702 2.3973 0 -2.19548 -6.6537 0 0 0 0)
(6.2917 6.4643 0 -1.52661 -6.3103 0 0 0 0)
(4.51024 10.6077 0 -0.71918 -4.82775 0 0 0 0)
(2.30623 14.1207 0 -0.158084 -2.02146 0 0 0 0)
(-2.40901 16.9022 0 -0.151771 2.12114 0 0 0 0)
(-4.52026 11.9624 0 -0.62286 4.85277 0 0 0 0)
(-6.14402 6.9473 0 -1.2042 6.1567 0 0 0 0)
(-6.40065 2.4805 0 -1.562 6.3744 0 0 0 0)
(-5.90597 -1.1751 0 -1.5962 5.899 0 0 0 0)
(-5.0569 -4.0045 0 -1.3644 5.0515 0 0 0 0)
(-4.0563 -6.1022 0 -0.9806 4.0499 0 0 0 0)
(-3.0224 -7.59771 0 -0.5693 3.017 0 0 0 0)
(-2.0052 -8.60987 0 -0.2413 2.00123 0 0 0 0)
(-1.0011 -9.21937 0 -0.0796 0.9987 0 0 0 0)
(0.0251 -9.45447 0 -0.1316 -0.02577 0 0 0 0)
(1.1208 -9.28322 0 -0.4053 -1.11974 0 0 0 0)
(2.3253 -8.61206 0 -0.8637 -2.32249 0 0 0 0)
(3.6425 -7.2924 0 -1.4208 -3.6389 0 0 0 0)
(5.0078 -5.1435 0 -1.943 -5.0064 0 0 0 0)
(6.25798 -2.0009 0 -2.2629 -6.2564 0 0 0 0)
(7.1046 2.2033 0 -2.21503 -7.0822 0 0 0 0)
(7.01644 7.3251 0 -1.70975 -7.0401 0 0 0 0)
(5.22975 12.8469 0 -0.8849 -5.6207 0 0 0 0)
(2.79153 17.8277 0 -0.214852 -2.45048 0 0 0 0)
(-2.84201 20.6188 0 -0.220763 2.50996 0 0 0 0)
(-5.06575 14.0185 0 -0.79797 5.467 0 0 0 0)
(-6.56817 7.6173 0 -1.34622 6.5818 0 0 0 0)
(-6.47391 2.2135 0 -1.45707 6.438 0 0 0 0)
(-5.62996 -1.9602 0 -1.0804 5.6174 0 0 0 0)
(-4.5509 -5.0051 0 -0.3652 4.5411 0 0 0 0)
(-3.4695 -7.1378 0 0.4952 3.4595 0 0 0 0)
(-2.495 -8.58701 0 1.3202 2.4869 0 0 0 0)
(-1.6493 -9.54335 0 1.9645 1.6434 0 0 0 0)
(-0.8921 -10.134 0 2.3242 0.88849 0 0 0 0)
(-0.1472 -10.4119 0 2.3372 0.14604 0 0 0 0)
(0.6784 -10.3497 0 1.9844 -0.67707 0 0 0 0)
(1.6762 -9.83351 0 1.2953 -1.6719 0 0 0 0)
(2.9073 -8.6621 0 0.3586 -2.9009 0 0 0 0)
(4.3607 -6.5583 0 -0.6671 -4.3558 0 0 0 0)
(5.9049 -3.2137 0 -1.5537 -5.8982 0 0 0 0)
(7.22335 1.6136 0 -2.02938 -7.1905 0 0 0 0)
(7.62183 7.9258 0 -1.86601 -7.6493 0 0 0 0)
(6.00514 15.1973 0 -1.10765 -6.4917 0 0 0 0)
(3.40598 22.1919 0 -0.305076 -2.99998 0 0 0 0)
(-3.42774 24.8791 0 -0.34667 3.04751 0 0 0 0)
(-5.64571 16.0342 0 -1.0788 6.1403 0 0 0 0)
(-6.80312 7.9183 0 -1.50293 6.8127 0 0 0 0)
(-6.13483 1.5161 0 -1.16466 6.0816 0 0 0 0)
(-4.8141 -3.072 0 -0.1452 4.792 0 0 0 0)
(-3.4813 -6.1624 0 1.2569 3.4652 0 0 0 0)
(-2.3709 -8.1564 0 2.7469 2.3564 0 0 0 0)
(-1.5531 -9.41381 0 4.0909 1.5423 0 0 0 0)
(-1.0012 -10.2083 0 5.1214 0.99393 0 0 0 0)
(-0.6284 -10.7167 0 5.7269 0.62431 0 0 0 0)
(-0.3147 -11.02 0 5.8393 0.31376 0 0 0 0)
(0.0789 -11.1012 0 5.4281 -0.07641 0 0 0 0)
(0.6995 -10.8359 0 4.5049 -0.6927 0 0 0 0)
(1.6801 -9.9763 0 3.1405 -1.6691 0 0 0 0)
(3.0955 -8.1408 0 1.4925 -3.0836 0 0 0 0)
(4.8957 -4.8356 0 -0.1676 -4.8785 0 0 0 0)
(6.79229 0.4522 0 -1.4499 -6.74 0 0 0 0)
(7.93817 8.0239 0 -1.92025 -7.9633 0 0 0 0)
(6.79068 17.4962 0 -1.40628 -7.401 0 0 0 0)
(4.20426 27.3194 0 -0.453392 -3.7285 0 0 0 0)
(-4.26748 29.8066 0 -0.571592 3.84069 0 0 0 0)
(-6.22201 17.7837 0 -1.50339 6.8398 0 0 0 0)
(-6.65403 7.5586 0 -1.57884 6.6464 0 0 0 0)
(-5.11618 0.1928 0 -0.4371 5.0346 0 0 0 0)
(-3.2084 -4.5766 0 1.5506 3.1729 0 0 0 0)
(-1.6588 -7.4407 0 3.8668 1.6356 0 0 0 0)
(-0.6355 -9.0607 0 6.11418 0.6174 0 0 0 0)
(-0.1205 -9.94948 0 8.03375 0.1087 0 0 0 0)
(-0.0133 -10.4613 0 9.47016 0.00669 0 0 0 0)
(-0.1742 -10.8142 0 10.3335 0.17158 0 0 0 0)
(-0.446 -11.1127 0 10.5684 0.446965 0 0 0 0)
(-0.656 -11.3561 0 10.1377 0.661 0 0 0 0)
(-0.6114 -11.4262 0 9.02344 0.622 0 0 0 0)
(-0.1051 -11.053 0 7.2484 0.1223 0 0 0 0)
(1.0526 -9.7677 0 4.921 -1.0312 0 0 0 0)
(2.9625 -6.8701 0 2.3012 -2.9294 0 0 0 0)
(5.4707 -1.4712 0 -0.1325 -5.3866 0 0 0 0)
(7.66545 7.2648 0 -1.68732 -7.6728 0 0 0 0)
(7.472 19.4321 0 -1.77593 -8.2313 0 0 0 0)
(5.26565 33.3214 0 -0.694401 -4.72429 0 0 0 0)
(-5.50272 35.5596 0 -0.935724 5.06129 0 0 0 0)
(-6.65296 18.8399 0 -2.02818 7.4125 0 0 0 0)
(-5.73683 6.1131 0 -1.23738 5.6835 0 0 0 0)
(-3.00539 -1.9574 0 1.29431 2.8867 0 0 0 0)
(-0.5102 -6.471 0 4.64663 0.4645 0 0 0 0)
(1.08228 -8.7179 0 8.05171 -1.107 0 0 0 0)
(1.79605 -9.6833 0 11.0705 -1.8116 0 0 0 0)
(1.80288 -10.0245 0 13.4949 -1.8098 0 0 0 0)
(1.29857 -10.1454 0 15.2468 -1.29965 0 0 0 0)
(0.4698 -10.2765 0 16.3037 -0.46727 0 0 0 0)
(-0.51055 -10.5306 0 16.6509 0.515941 0 0 0 0)
(-1.46602 -10.9261 0 16.2564 1.47485 0 0 0 0)
(-2.18977 -11.3746 0 15.065 2.2042 0 0 0 0)
(-2.42234 -11.6295 0 13.0174 2.4449 0 0 0 0)
(-1.8517 -11.1925 0 10.1035 1.8822 0 0 0 0)
(-0.1578 -9.191 0 6.46591 0.2085 0 0 0 0)
(2.80377 -4.2912 0 2.55489 -2.6766 0 0 0 0)
(6.29474 5.1792 0 -0.71274 -6.2524 0 0 0 0)
(7.7836 20.4447 0 -2.08399 -8.6917 0 0 0 0)
(6.67459 40.275 0 -1.04176 -6.1137 0 0 0 0)
(-7.23138 42.2804 0 -1.36822 7.0076 0 0 0 0)
(-6.52367 18.4059 0 -2.25148 7.381 0 0 0 0)
(-3.33154 3.0328 0 0.49643 3.1328 0 0 0 0)
(0.76783 -5.0262 0 5.25515 -0.9691 0 0 0 0)
(3.549 -8.5703 0 10.2773 -3.6248 0 0 0 0)
(4.76506 -9.7168 0 14.695 -4.8002 0 0 0 0)
(4.80769 -9.7635 0 18.2183 -4.8234 0 0 0 0)
(4.05577 -9.43753 0 20.8307 -4.0577 0 0 0 0)
(2.79548 -9.11881 0 22.6203 -2.7898 0 0 0 0)
(1.22998 -8.99862 0 23.6833 -1.22036 0 0 0 0)
(-0.49326 -9.17054 0 24.0744 0.505716 0 0 0 0)
(-2.2419 -9.66785 0 23.7826 2.25826 0 0 0 0)
(-3.85047 -10.4561 0 22.7195 3.87434 0 0 0 0)
(-5.06661 -11.375 0 20.7228 5.1039 0 0 0 0)
(-5.49884 -12.0041 0 17.5948 5.5559 0 0 0 0)
(-4.58614 -11.4289 0 13.211 4.6862 0 0 0 0)
(-1.70795 -7.9321 0 7.74335 1.9317 0 0 0 0)
(3.02657 1.2497 0 2.05871 -2.8349 0 0 0 0)
(7.14298 19.5708 0 -1.77398 -8.1205 0 0 0 0)
(8.3914 48.1268 0 -1.34819 -8.1028 0 0 0 0)
(-9.12242 49.9482 0 -1.20997 9.8517 0 0 0 0)
(-4.78831 14.9651 0 -0.60767 5.3622 0 0 0 0)
(1.7698 -2.237 0 6.08437 -2.4215 0 0 0 0)
(6.77553 -8.715 0 13.8622 -7.2346 0 0 0 0)
(8.9296 -10.3021 0 20.2681 -9.1507 0 0 0 0)
(9.02319 -9.9165 0 24.9598 -9.1381 0 0 0 0)
(7.93185 -8.9408 0 28.1794 -7.9889 0 0 0 0)
(6.20496 -7.99092 0 30.2764 -6.22839 0 0 0 0)
(4.1511 -7.30806 0 31.5725 -4.15574 0 0 0 0)
(1.9239 -6.98094 0 32.3026 -1.91683 0 0 0 0)
(-0.4112 -7.05199 0 32.5977 0.42793 0 0 0 0)
(-2.821 -7.5575 0 32.4794 2.84933 0 0 0 0)
(-5.2496 -8.52895 0 31.8489 5.29642 0 0 0 0)
(-7.54699 -9.94794 0 30.4638 7.62719 0 0 0 0)
(-9.36346 -11.6102 0 27.9257 9.5056 0 0 0 0)
(-10.0093 -12.8152 0 23.7165 10.2692 0 0 0 0)
(-8.34856 -11.8123 0 17.3447 8.836 0 0 0 0)
(-3.22259 -4.873 0 8.88736 3.8546 0 0 0 0)
(4.3767 15.1768 0 0.86109 -4.9318 0 0 0 0)
(9.79676 56.4983 0 -0.78258 -10.5644 0 0 0 0)
(-9.04902 57.4943 0 3.35328 10.015 0 0 0 0)
(0.77067 6.1327 0 8.55576 -2.2799 0 0 0 0)
(11.1383 -9.564 0 21.2399 -12.0389 0 0 0 0)
(14.9515 -11.7554 0 31.2537 -15.1924 0 0 0 0)
(14.6466 -10.4738 0 36.9946 -14.7026 0 0 0 0)
(12.6764 -8.555 0 39.9145 -12.6603 0 0 0 0)
(10.1243 -6.85379 0 41.2089 -10.081 0 0 0 0)
(7.4489 -5.60437 0 41.6336 -7.4086 0 0 0 0)
(4.8217 -4.80725 0 41.6743 -4.79389 0 0 0 0)
(2.2551 -4.41495 0 41.6257 -2.24066 0 0 0 0)
(-0.3165 -4.40438 0 41.6438 0.317745 0 0 0 0)
(-2.9907 -4.79936 0 41.7759 2.97832 0 0 0 0)
(-5.866 -5.67829 0 41.9576 5.83995 0 0 0 0)
(-8.9898 -7.16582 0 41.9694 8.95831 0 0 0 0)
(-12.2462 -9.36209 0 41.3514 12.2467 0 0 0 0)
(-15.1671 -12.0985 0 39.2731 15.2636 0 0 0 0)
(-16.5371 -14.3467 0 34.3006 16.8137 0 0 0 0)
(-13.457 -12.5181 0 24.5096 14.3757 0 0 0 0)
(-2.52696 5.1518 0 11.1227 4.4953 0 0 0 0)
(8.31289 63.623 0 4.63424 -9.162 0 0 0 0)
(2.78662 57.6833 0 32.9253 -9.3085 0 0 0 0)
(13.0983 -7.0888 0 45.7113 -20.8264 0 0 0 0)
(24.4677 -15.1495 0 57.9362 -22.4414 0 0 0 0)
(22.5302 -11.3787 0 62.3945 -19.6404 0 0 0 0)
(17.5904 -7.76995 0 61.6315 -15.7377 0 0 0 0)
(13.2375 -5.29485 0 59.0145 -12.0147 0 0 0 0)
(9.651 -3.68915 0 56.1148 -8.81867 0 0 0 0)
(6.6704 -2.70386 0 53.5704 -6.13417 0 0 0 0)
(4.1432 -2.14012 0 51.6559 -3.83281 0 0 0 0)
(1.8934 -1.8693 0 50.4903 -1.76293 0 0 0 0)
(-0.261 -1.83301 0 50.1289 0.22948 0 0 0 0)
(-2.5072 -2.0353 0 50.6079 2.30501 0 0 0 0)
(-5.0561 -2.54896 0 51.9529 4.64492 0 0 0 0)
(-8.1532 -3.54124 0 54.1497 7.4624 0 0 0 0)
(-12.0598 -5.30492 0 57.0506 10.9914 0 0 0 0)
(-17.0601 -8.24815 0 60.144 15.3896 0 0 0 0)
(-23.112 -12.7002 0 61.9207 20.4148 0 0 0 0)
(-26.4004 -17.1914 0 58.7142 24.6476 0 0 0 0)
(-15.4987 -8.3609 0 47.0497 24.0744 0 0 0 0)
(-5.96022 61.165 0 33.7278 11.815 0 0 0 0)
(69.5876 27.3594 0 169.231 -42.7952 0 0 0 0)
(25.7816 -7.00015 0 158.394 -42.2475 0 0 0 0)
(27.8215 -8.37798 0 130.351 -28.7062 0 0 0 0)
(18.6468 -5.05174 0 106.105 -18.72 0 0 0 0)
(11.2666 -2.8481 0 89.1744 -12.2758 0 0 0 0)
(7.1597 -1.63598 0 77.2483 -8.10197 0 0 0 0)
(4.6802 -0.973279 0 68.7772 -5.34498 0 0 0 0)
(2.99 -0.618516 0 62.9171 -3.43954 0 0 0 0)
(1.7416 -0.436007 0 59.1168 -2.02261 0 0 0 0)
(0.7281 -0.352656 0 57.0323 -0.863411 0 0 0 0)
(-0.1989 -0.336441 0 56.4953 0.199353 0 0 0 0)
(-1.1667 -0.383917 0 57.4922 1.30604 0 0 0 0)
(-2.3242 -0.5209 0 60.1692 2.61857 0 0 0 0)
(-3.8921 -0.819364 0 64.8725 4.3759 0 0 0 0)
(-6.2519 -1.43487 0 72.2145 6.97917 0 0 0 0)
(-10.297 -2.67507 0 83.1842 11.1157 0 0 0 0)
(-17.9669 -5.08873 0 99.5716 17.9024 0 0 0 0)
(-28.3281 -8.85851 0 124.263 28.9046 0 0 0 0)
(-27.5133 -7.68079 0 154.3 43.9523 0 0 0 0)
(-72.4646 27.7336 0 167.275 44.9463 0 0 0 0)
)
;

boundaryField
{
    movingWall
    {
        type            extrapolatedCalculated;
        value           nonuniform List<tensor> 
20
(
(69.5876 27.3594 0 280.158 -58.4364 0 0 0 0)
(25.7816 -7.00015 0 241.491 -51.0012 0 0 0 0)
(27.8215 -8.37798 0 177.032 -30.4358 0 0 0 0)
(18.6468 -5.05174 0 130.205 -17.4893 0 0 0 0)
(11.2666 -2.8481 0 102.445 -10.2288 0 0 0 0)
(7.1597 -1.63598 0 85.1388 -6.09688 0 0 0 0)
(4.6802 -0.973279 0 73.806 -3.68493 0 0 0 0)
(2.99 -0.618516 0 66.418 -2.20376 0 0 0 0)
(1.7416 -0.436007 0 61.846 -1.21087 0 0 0 0)
(0.7281 -0.352656 0 59.4516 -0.459736 0 0 0 0)
(-0.1989 -0.336441 0 58.9336 0.199756 0 0 0 0)
(-1.1667 -0.383917 0 60.2472 0.886028 0 0 0 0)
(-2.3242 -0.5209 0 63.6004 1.73542 0 0 0 0)
(-3.8921 -0.819364 0 69.544 2.96963 0 0 0 0)
(-6.2519 -1.43487 0 79.1688 5.01288 0 0 0 0)
(-10.297 -2.67507 0 94.5516 8.70912 0 0 0 0)
(-17.9669 -5.08873 0 120.357 15.7132 0 0 0 0)
(-28.3281 -8.85851 0 166.419 29.064 0 0 0 0)
(-27.5133 -7.68079 0 233.669 51.1472 0 0 0 0)
(-72.4646 27.7336 0 276.472 59.7872 0 0 0 0)
)
;
    }
    fixedWalls
    {
        type            extrapolatedCalculated;
        value           nonuniform List<tensor> 
60
(
(0.101358 -0.100178 0 0.0175925 -0.0419829 0 0 0 0)
(-0.0309885 -0.0677536 0 -0.0782022 0.13421 0 0 0 0)
(-0.21145 0.43666 0 -0.0850787 0.364933 0 0 0 0)
(-0.371303 1.39198 0 -0.0750354 0.578636 0 0 0 0)
(-0.511592 2.7512 0 -0.0679312 0.773595 0 0 0 0)
(-0.643028 4.48636 0 -0.066111 0.959939 0 0 0 0)
(-0.776036 6.59096 0 -0.069248 1.14793 0 0 0 0)
(-0.92002 9.07808 0 -0.077155 1.34697 0 0 0 0)
(-1.08466 11.9788 0 -0.09076 1.56644 0 0 0 0)
(-1.28306 15.3438 0 -0.113231 1.81814 0 0 0 0)
(-1.53758 19.2514 0 -0.151771 2.12114 0 0 0 0)
(-1.89014 23.8284 0 -0.220763 2.50996 0 0 0 0)
(-2.42063 29.2912 0 -0.34667 3.04751 0 0 0 0)
(-3.27682 36.0184 0 -0.571592 3.84069 0 0 0 0)
(-4.707 44.654 0 -0.935724 5.06129 0 0 0 0)
(-7.01972 56.2636 0 -1.36822 7.0076 0 0 0 0)
(-10.1799 72.6844 0 -1.20997 9.8517 0 0 0 0)
(-11.8596 95.6704 0 3.35328 10.015 0 0 0 0)
(3.23324 112.744 0 32.9253 -9.3085 0 0 0 0)
(119.842 58.4364 0 169.231 -42.7952 0 0 0 0)
(-0.107146 -0.104956 0 0.0225286 0.0489857 0 0 0 0)
(0.017032 -0.0909868 0 -0.0744727 -0.121124 0 0 0 0)
(0.190744 0.37954 0 -0.081905 -0.345241 0 0 0 0)
(0.344652 1.28998 0 -0.0726849 -0.554945 0 0 0 0)
(0.481484 2.59932 0 -0.067615 -0.750376 0 0 0 0)
(0.615112 4.29148 0 -0.069639 -0.94535 0 0 0 0)
(0.76004 6.38072 0 -0.078856 -1.1549 0 0 0 0)
(0.930536 8.91108 0 -0.095459 -1.39379 0 0 0 0)
(1.14188 11.9559 0 -0.120722 -1.67695 0 0 0 0)
(1.41342 15.6189 0 -0.158084 -2.02146 0 0 0 0)
(1.77421 20.0417 0 -0.214852 -2.45048 0 0 0 0)
(2.27283 25.4208 0 -0.305076 -2.99998 0 0 0 0)
(2.99452 32.0416 0 -0.453392 -3.7285 0 0 0 0)
(4.0864 40.3348 0 -0.694401 -4.72429 0 0 0 0)
(5.77212 50.9388 0 -1.04176 -6.1137 0 0 0 0)
(8.25344 64.7896 0 -1.34819 -8.1028 0 0 0 0)
(11.1649 83.35 0 -0.78258 -10.5644 0 0 0 0)
(11.3838 107.047 0 4.63424 -9.162 0 0 0 0)
(-7.37208 119.998 0 33.7278 11.815 0 0 0 0)
(-123.528 59.7872 0 167.275 44.9463 0 0 0 0)
(0.0394593 -0.0139023 0 0.101358 -0.100178 0 0 0 0)
(-0.143041 0.081505 0 0.0564788 0.0445688 0 0 0 0)
(-0.362237 0.0773565 0 -0.470804 0.225842 0 0 0 0)
(-0.520057 0.0481105 0 -1.39247 0.353995 0 0 0 0)
(-0.598845 0.0176763 0 -2.55103 0.418284 0 0 0 0)
(-0.602562 -0.0087858 0 -3.78785 0.4247 0 0 0 0)
(-0.541558 -0.0301306 0 -4.96128 0.383141 0 0 0 0)
(-0.42866 -0.0463201 0 -5.95408 0.304178 0 0 0 0)
(-0.27734 -0.0575878 0 -6.67592 0.19786 0 0 0 0)
(-0.10127 -0.063992 0 -7.06344 0.0738264 0 0 0 0)
(0.08532 -0.065294 0 -7.081 -0.0581076 0 0 0 0)
(0.26721 -0.0610159 0 -6.72216 -0.18735 0 0 0 0)
(0.428 -0.0505908 0 -6.01216 -0.302171 0 0 0 0)
(0.550382 -0.0335782 0 -5.01016 -0.389713 0 0 0 0)
(0.61703 -0.0099738 0 -3.81063 -0.436484 0 0 0 0)
(0.612588 0.0193078 0 -2.54204 -0.429608 0 0 0 0)
(0.526865 0.0517625 0 -1.36028 -0.359253 0 0 0 0)
(0.359713 0.0807766 0 -0.43458 -0.222558 0 0 0 0)
(0.135432 0.0818785 0 0.0785728 -0.0361463 0 0 0 0)
(-0.0464298 -0.0172024 0 0.107146 0.104956 0 0 0 0)
)
;
    }
    frontAndBack
    {
        type            empty;
    }
}


// ************************************************************************* //
