/*--------------------------------*- C++ -*----------------------------------*\
  =========                 |
  \\      /  F ield         | OpenFOAM: The Open Source CFD Toolbox
   \\    /   O peration     | Website:  https://openfoam.org
    \\  /    A nd           | Version:  dev
     \\/     M anipulation  |
\*---------------------------------------------------------------------------*/
FoamFile
{
    format      ascii;
    class       volVectorField;
    location    "16.2";
    object      U;
}
// * * * * * * * * * * * * * * * * * * * * * * * * * * * * * * * * * * * * * //

dimensions      [0 1 -1 0 0 0 0];

internalField   nonuniform List<vector> 
5184
(
(1.22987e-05 -1.27078e-05 0)
(4.50668e-05 -2.08512e-05 0)
(8.01272e-05 -1.71959e-05 0)
(9.56743e-05 -8.14835e-06 0)
(8.1758e-05 2.70518e-06 0)
(3.60099e-05 1.36375e-05 0)
(-4.10095e-05 2.3852e-05 0)
(-0.000147279 3.30381e-05 0)
(-0.000280014 4.10809e-05 0)
(-0.000436156 4.79861e-05 0)
(-0.000612589 5.3815e-05 0)
(-0.000806285 5.86525e-05 0)
(-0.00101438 6.25914e-05 0)
(-0.00123422 6.57228e-05 0)
(-0.00146333 6.81315e-05 0)
(-0.00169948 6.98924e-05 0)
(-0.00194059 7.10694e-05 0)
(-0.00218474 7.17149e-05 0)
(-0.00243016 7.18697e-05 0)
(-0.00267516 7.15637e-05 0)
(-0.00291815 7.08162e-05 0)
(-0.00315756 6.96377e-05 0)
(-0.00339186 6.80309e-05 0)
(-0.00361954 6.59928e-05 0)
(-0.00383907 6.35161e-05 0)
(-0.00404892 6.05915e-05 0)
(-0.00424753 5.72085e-05 0)
(-0.00443333 5.33579e-05 0)
(-0.00460474 4.90323e-05 0)
(-0.00476019 4.42286e-05 0)
(-0.00489813 3.8949e-05 0)
(-0.00501703 3.32029e-05 0)
(-0.00511544 2.70075e-05 0)
(-0.00519198 2.03892e-05 0)
(-0.00524539 1.33835e-05 0)
(-0.00527456 6.03588e-06 0)
(-0.00527855 -1.598e-06 0)
(-0.00525663 -9.4519e-06 0)
(-0.0052083 -1.74493e-05 0)
(-0.00513334 -2.55044e-05 0)
(-0.0050318 -3.35228e-05 0)
(-0.00490406 -4.14035e-05 0)
(-0.00475082 -4.90395e-05 0)
(-0.00457314 -5.63201e-05 0)
(-0.00437241 -6.3133e-05 0)
(-0.00415039 -6.93663e-05 0)
(-0.00390916 -7.49116e-05 0)
(-0.00365115 -7.96661e-05 0)
(-0.00337907 -8.35352e-05 0)
(-0.00309593 -8.64351e-05 0)
(-0.00280496 -8.82955e-05 0)
(-0.00250957 -8.90613e-05 0)
(-0.00221334 -8.86945e-05 0)
(-0.0019199 -8.71752e-05 0)
(-0.00163293 -8.45028e-05 0)
(-0.00135606 -8.06963e-05 0)
(-0.00109282 -7.57949e-05 0)
(-0.000846579 -6.98573e-05 0)
(-0.00062048 -6.2961e-05 0)
(-0.000417371 -5.52018e-05 0)
(-0.000239746 -4.66936e-05 0)
(-8.96817e-05 -3.75688e-05 0)
(3.12335e-05 -2.79818e-05 0)
(0.000121984 -1.81143e-05 0)
(0.000182237 -8.1914e-06 0)
(0.000212488 1.49178e-06 0)
(0.00021432 1.05137e-05 0)
(0.00019077 1.82383e-05 0)
(0.000146854 2.36555e-05 0)
(9.06476e-05 2.50766e-05 0)
(3.65887e-05 1.9819e-05 0)
(6.22775e-06 6.24354e-06 0)
(2.07982e-05 -4.58252e-05 0)
(6.54313e-05 -6.55352e-05 0)
(9.43239e-05 -4.03471e-05 0)
(7.22315e-05 7.81866e-06 0)
(-1.96289e-05 6.57995e-05 0)
(-0.000188044 0.000126027 0)
(-0.000433577 0.000184242 0)
(-0.000753006 0.000238196 0)
(-0.00114079 0.000286757 0)
(-0.00159016 0.000329487 0)
(-0.00209377 0.000366345 0)
(-0.00264418 0.000397522 0)
(-0.0032341 0.00042333 0)
(-0.00385655 0.000444134 0)
(-0.00450493 0.000460313 0)
(-0.00517305 0.000472223 0)
(-0.00585512 0.000480187 0)
(-0.00654572 0.00048448 0)
(-0.0072397 0.000485324 0)
(-0.0079322 0.000482891 0)
(-0.00861852 0.000477302 0)
(-0.00929412 0.000468635 0)
(-0.00995454 0.000456927 0)
(-0.0105953 0.000442187 0)
(-0.0112122 0.000424405 0)
(-0.0118006 0.000403556 0)
(-0.0123562 0.000379618 0)
(-0.0128746 0.000352573 0)
(-0.0133514 0.000322422 0)
(-0.0137823 0.000289192 0)
(-0.0141631 0.000252942 0)
(-0.0144896 0.000213775 0)
(-0.014758 0.000171841 0)
(-0.0149646 0.000127343 0)
(-0.0151063 8.05391e-05 0)
(-0.0151801 3.17484e-05 0)
(-0.0151836 -1.86519e-05 0)
(-0.0151152 -7.02247e-05 0)
(-0.0149737 -0.000122476 0)
(-0.0147587 -0.00017486 0)
(-0.0144707 -0.000226783 0)
(-0.0141107 -0.000277614 0)
(-0.013681 -0.000326695 0)
(-0.0131845 -0.000373346 0)
(-0.0126253 -0.000416887 0)
(-0.0120081 -0.000456641 0)
(-0.0113387 -0.000491959 0)
(-0.0106237 -0.000522226 0)
(-0.00987054 -0.000546882 0)
(-0.0090872 -0.000565433 0)
(-0.0082824 -0.000577467 0)
(-0.0074653 -0.000582664 0)
(-0.00664542 -0.00058081 0)
(-0.00583248 -0.0005718 0)
(-0.00503625 -0.000555649 0)
(-0.00426638 -0.000532496 0)
(-0.00353224 -0.000502603 0)
(-0.00284272 -0.000466358 0)
(-0.00220611 -0.000424276 0)
(-0.00162988 -0.000376993 0)
(-0.00112048 -0.000325277 0)
(-0.000683231 -0.000270031 0)
(-0.000322029 -0.000212313 0)
(-3.91657e-05 -0.000153372 0)
(0.000164982 -9.47145e-05 0)
(0.000292325 -3.82179e-05 0)
(0.000347596 1.36676e-05 0)
(0.000339037 5.76405e-05 0)
(0.00027911 8.91163e-05 0)
(0.000185628 0.000101608 0)
(8.62072e-05 8.63549e-05 0)
(1.96524e-05 3.64459e-05 0)
(1.75814e-05 -8.11219e-05 0)
(4.1116e-05 -9.4646e-05 0)
(1.91792e-05 -1.87117e-05 0)
(-8.45778e-05 0.000106264 0)
(-0.000290878 0.000254816 0)
(-0.000608431 0.000410534 0)
(-0.00103848 0.000563131 0)
(-0.0015772 0.000706487 0)
(-0.00221743 0.000837167 0)
(-0.00295 0.000953471 0)
(-0.00376463 0.00105481 0)
(-0.00465063 0.00114127 0)
(-0.00559731 0.00121338 0)
(-0.0065942 0.00127186 0)
(-0.00763128 0.00131752 0)
(-0.00869899 0.0013512 0)
(-0.00978827 0.00137365 0)
(-0.0108905 0.00138555 0)
(-0.0119976 0.00138747 0)
(-0.0131016 0.00137985 0)
(-0.014195 0.00136301 0)
(-0.0152704 0.00133718 0)
(-0.0163207 0.00130248 0)
(-0.0173386 0.00125899 0)
(-0.0183171 0.0012067 0)
(-0.0192493 0.00114562 0)
(-0.020128 0.00107573 0)
(-0.0209463 0.000997046 0)
(-0.0216974 0.000909632 0)
(-0.0223745 0.000813628 0)
(-0.0229711 0.000709265 0)
(-0.0234809 0.000596887 0)
(-0.0238979 0.000476966 0)
(-0.0242167 0.000350116 0)
(-0.0244324 0.000217101 0)
(-0.0245408 7.88413e-05 0)
(-0.0245385 -6.35844e-05 0)
(-0.0244231 -0.000208944 0)
(-0.0241929 -0.000355858 0)
(-0.0238477 -0.000502812 0)
(-0.0233883 -0.000648174 0)
(-0.0228168 -0.000790214 0)
(-0.0221367 -0.000927135 0)
(-0.0213528 -0.0010571 0)
(-0.0204714 -0.00117825 0)
(-0.0195001 -0.00128879 0)
(-0.0184477 -0.00138695 0)
(-0.0173245 -0.00147109 0)
(-0.0161418 -0.00153972 0)
(-0.0149121 -0.00159152 0)
(-0.0136485 -0.0016254 0)
(-0.0123653 -0.00164051 0)
(-0.0110767 -0.0016363 0)
(-0.00979774 -0.0016125 0)
(-0.00854319 -0.00156918 0)
(-0.00732774 -0.00150675 0)
(-0.00616562 -0.00142594 0)
(-0.00507035 -0.00132786 0)
(-0.00405444 -0.00121395 0)
(-0.00312916 -0.001086 0)
(-0.00230425 -0.000946188 0)
(-0.00158757 -0.000797076 0)
(-0.000984883 -0.000641664 0)
(-0.000499413 -0.000483475 0)
(-0.000131489 -0.000326699 0)
(0.000121946 -0.000176413 0)
(0.000267962 -3.8922e-05 0)
(0.000318366 7.77723e-05 0)
(0.000290252 0.000163389 0)
(0.000206798 0.00020478 0)
(0.000102202 0.00018585 0)
(2.49271e-05 9.02384e-05 0)
(8.78907e-06 -9.74318e-05 0)
(-7.19364e-06 -7.25663e-05 0)
(-0.000107899 8.53624e-05 0)
(-0.000322717 0.000318744 0)
(-0.000669829 0.000590146 0)
(-0.00115761 0.000873999 0)
(-0.00178677 0.00115331 0)
(-0.00255255 0.00141732 0)
(-0.00344641 0.00165959 0)
(-0.00445733 0.00187658 0)
(-0.00557284 0.00206676 0)
(-0.00677976 0.00222987 0)
(-0.0080647 0.00236648 0)
(-0.00941443 0.00247762 0)
(-0.0108161 0.00256456 0)
(-0.0122572 0.00262864 0)
(-0.0137259 0.00267112 0)
(-0.0152109 0.00269316 0)
(-0.0167012 0.00269574 0)
(-0.0181862 0.00267965 0)
(-0.0196558 0.00264548 0)
(-0.0211001 0.00259367 0)
(-0.0225092 0.00252448 0)
(-0.0238736 0.00243806 0)
(-0.0251836 0.00233451 0)
(-0.02643 0.00221387 0)
(-0.0276034 0.00207619 0)
(-0.0286944 0.00192157 0)
(-0.029694 0.00175024 0)
(-0.0305933 0.00156254 0)
(-0.0313838 0.00135899 0)
(-0.0320573 0.00114032 0)
(-0.0326062 0.000907511 0)
(-0.0330235 0.000661795 0)
(-0.033303 0.000404682 0)
(-0.0334393 0.000137971 0)
(-0.0334284 -0.000136255 0)
(-0.0332671 -0.000415632 0)
(-0.0329538 -0.00069753 0)
(-0.0324883 -0.000979079 0)
(-0.031872 -0.0012572 0)
(-0.0311078 -0.00152864 0)
(-0.0302004 -0.00179003 0)
(-0.0291564 -0.00203793 0)
(-0.027984 -0.00226891 0)
(-0.0266932 -0.00247959 0)
(-0.0252957 -0.00266671 0)
(-0.0238047 -0.00282725 0)
(-0.0222351 -0.00295841 0)
(-0.0206029 -0.00305779 0)
(-0.0189253 -0.00312337 0)
(-0.0172205 -0.0031536 0)
(-0.0155072 -0.00314746 0)
(-0.0138045 -0.00310449 0)
(-0.0121315 -0.00302486 0)
(-0.0105073 -0.00290933 0)
(-0.00895012 -0.00275933 0)
(-0.00747737 -0.00257696 0)
(-0.00610517 -0.00236496 0)
(-0.00484801 -0.00212679 0)
(-0.00371838 -0.00186658 0)
(-0.00272637 -0.00158921 0)
(-0.00187931 -0.00130039 0)
(-0.00118135 -0.00100678 0)
(-0.00063295 -0.000716168 0)
(-0.000230443 -0.000437819 0)
(3.46192e-05 -0.000182855 0)
(0.000176092 3.51399e-05 0)
(0.000213654 0.000199474 0)
(0.000173414 0.000289783 0)
(9.27376e-05 0.000281794 0)
(2.39673e-05 0.000146977 0)
(-2.16308e-06 -8.40054e-05 0)
(-6.73996e-05 2.15863e-05 0)
(-0.000264218 0.000296052 0)
(-0.000609717 0.000668271 0)
(-0.00111634 0.00109053 0)
(-0.00179026 0.00152898 0)
(-0.00263046 0.00196024 0)
(-0.00363058 0.00236888 0)
(-0.00478049 0.00274521 0)
(-0.0060675 0.00308361 0)
(-0.00747726 0.00338132 0)
(-0.00899457 0.00363752 0)
(-0.0106038 0.00385268 0)
(-0.0122895 0.00402805 0)
(-0.0140364 0.00416527 0)
(-0.0158296 0.00426616 0)
(-0.0176549 0.00433252 0)
(-0.0194984 0.00436599 0)
(-0.0213467 0.00436799 0)
(-0.023187 0.00433969 0)
(-0.0250066 0.004282 0)
(-0.0267933 0.00419558 0)
(-0.028535 0.00408089 0)
(-0.0302198 0.00393822 0)
(-0.031836 0.00376777 0)
(-0.0333719 0.0035697 0)
(-0.0348161 0.00334419 0)
(-0.0361572 0.00309152 0)
(-0.0373842 0.00281213 0)
(-0.0384864 0.00250668 0)
(-0.0394535 0.00217612 0)
(-0.0402756 0.00182172 0)
(-0.0409437 0.00144511 0)
(-0.0414495 0.00104836 0)
(-0.0417857 0.000633929 0)
(-0.0419462 0.000204735 0)
(-0.0419261 -0.00023587 0)
(-0.041722 -0.000684107 0)
(-0.0413322 -0.0011358 0)
(-0.0407566 -0.00158639 0)
(-0.0399971 -0.00203104 0)
(-0.0390576 -0.00246463 0)
(-0.0379438 -0.00288188 0)
(-0.0366637 -0.00327741 0)
(-0.0352274 -0.00364586 0)
(-0.0336468 -0.00398197 0)
(-0.0319361 -0.00428067 0)
(-0.0301113 -0.00453725 0)
(-0.0281899 -0.00474739 0)
(-0.0261912 -0.00490735 0)
(-0.0241358 -0.00501399 0)
(-0.0220453 -0.00506494 0)
(-0.0199421 -0.00505862 0)
(-0.0178488 -0.00499434 0)
(-0.0157885 -0.00487236 0)
(-0.0137837 -0.00469394 0)
(-0.0118562 -0.00446134 0)
(-0.0100269 -0.00417786 0)
(-0.00831486 -0.00384788 0)
(-0.00673753 -0.00347685 0)
(-0.0053098 -0.00307133 0)
(-0.00404378 -0.00263903 0)
(-0.00294836 -0.00218892 0)
(-0.00202867 -0.00173141 0)
(-0.00128567 -0.0012785 0)
(-0.00071563 -0.000844235 0)
(-0.000309576 -0.000445059 0)
(-5.27877e-05 -0.000100501 0)
(7.55618e-05 0.000166137 0)
(0.000102916 0.000327162 0)
(6.72111e-05 0.000349873 0)
(1.96034e-05 0.000193669 0)
(-1.37148e-05 -3.70797e-05 0)
(-0.000132834 0.000198042 0)
(-0.000435645 0.000627334 0)
(-0.000924045 0.0011702 0)
(-0.00160262 0.00177078 0)
(-0.0024739 0.00238833 0)
(-0.00353405 0.00299385 0)
(-0.00477437 0.0035676 0)
(-0.00618277 0.00409677 0)
(-0.00774475 0.00457362 0)
(-0.00944422 0.00499408 0)
(-0.0112641 0.00535668 0)
(-0.013187 0.00566167 0)
(-0.0151954 0.0059104 0)
(-0.017272 0.00610487 0)
(-0.0193999 0.00624731 0)
(-0.0215628 0.00634003 0)
(-0.0237446 0.00638514 0)
(-0.02593 0.00638451 0)
(-0.0281038 0.00633971 0)
(-0.0302514 0.00625198 0)
(-0.0323584 0.00612223 0)
(-0.0344106 0.00595115 0)
(-0.0363941 0.0057392 0)
(-0.0382951 0.00548674 0)
(-0.0401001 0.00519409 0)
(-0.0417956 0.00486164 0)
(-0.0433686 0.00448991 0)
(-0.0448063 0.00407965 0)
(-0.0460962 0.00363197 0)
(-0.0472265 0.00314835 0)
(-0.048186 0.00263073 0)
(-0.0489644 0.0020816 0)
(-0.0495522 0.00150399 0)
(-0.0499413 0.000901534 0)
(-0.0501248 0.000278486 0)
(-0.0500973 -0.000360307 0)
(-0.0498551 -0.0010094 0)
(-0.0493964 -0.00166281 0)
(-0.0487214 -0.00231403 0)
(-0.0478324 -0.00295616 0)
(-0.0467339 -0.00358194 0)
(-0.0454326 -0.00418389 0)
(-0.0439379 -0.0047544 0)
(-0.0422612 -0.00528589 0)
(-0.0404164 -0.00577094 0)
(-0.0384196 -0.00620242 0)
(-0.036289 -0.00657367 0)
(-0.0340448 -0.00687864 0)
(-0.0317088 -0.00711204 0)
(-0.0293046 -0.00726948 0)
(-0.0268567 -0.00734759 0)
(-0.0243907 -0.00734417 0)
(-0.0219325 -0.00725825 0)
(-0.0195082 -0.00709023 0)
(-0.0171436 -0.00684186 0)
(-0.0148637 -0.00651639 0)
(-0.0126923 -0.00611852 0)
(-0.0106515 -0.00565448 0)
(-0.00876104 -0.00513201 0)
(-0.0070383 -0.00456044 0)
(-0.00549733 -0.00395072 0)
(-0.00414859 -0.00331554 0)
(-0.00299846 -0.00266946 0)
(-0.00204873 -0.00202916 0)
(-0.00129615 -0.00141381 0)
(-0.000731962 -0.000845509 0)
(-0.000341499 -0.000349886 0)
(-0.00010385 4.31288e-05 0)
(8.55422e-06 0.000298643 0)
(3.22276e-05 0.000375893 0)
(1.35627e-05 0.000223891 0)
(-2.51848e-05 4.45273e-05 0)
(-0.000199882 0.000461772 0)
(-0.000613545 0.00108708 0)
(-0.00125165 0.00183386 0)
(-0.00210971 0.00264039 0)
(-0.00318555 0.00346052 0)
(-0.0044716 0.00426072 0)
(-0.00595616 0.00501758 0)
(-0.00762475 0.00571556 0)
(-0.00946084 0.00634499 0)
(-0.0114465 0.00690058 0)
(-0.0135629 0.00738016 0)
(-0.0157909 0.00778377 0)
(-0.0181112 0.00811282 0)
(-0.020505 0.00836959 0)
(-0.0229533 0.00855674 0)
(-0.0254382 0.00867699 0)
(-0.0279417 0.00873295 0)
(-0.0304466 0.00872691 0)
(-0.0329358 0.00866084 0)
(-0.035393 0.00853629 0)
(-0.0378017 0.00835448 0)
(-0.0401461 0.00811632 0)
(-0.0424103 0.00782249 0)
(-0.0445789 0.00747354 0)
(-0.0466364 0.00707002 0)
(-0.0485678 0.00661256 0)
(-0.0503583 0.00610202 0)
(-0.0519937 0.00553956 0)
(-0.05346 0.0049268 0)
(-0.054744 0.00426589 0)
(-0.0558333 0.00355959 0)
(-0.0567164 0.00281135 0)
(-0.057383 0.00202536 0)
(-0.057824 0.00120659 0)
(-0.0580319 0.000360818 0)
(-0.0580009 -0.000505415 0)
(-0.057727 -0.00138479 0)
(-0.0572082 -0.00226927 0)
(-0.056445 -0.00315021 0)
(-0.0554399 -0.00401837 0)
(-0.054198 -0.00486412 0)
(-0.0527269 -0.00567753 0)
(-0.0510369 -0.00644852 0)
(-0.0491408 -0.00716704 0)
(-0.0470538 -0.00782327 0)
(-0.0447938 -0.0084078 0)
(-0.042381 -0.0089118 0)
(-0.0398375 -0.00932728 0)
(-0.0371878 -0.00964722 0)
(-0.0344577 -0.0098658 0)
(-0.0316744 -0.00997857 0)
(-0.0288662 -0.00998259 0)
(-0.0260619 -0.00987656 0)
(-0.0232906 -0.00966097 0)
(-0.0205808 -0.00933816 0)
(-0.0179605 -0.0089124 0)
(-0.0154563 -0.00838991 0)
(-0.0130928 -0.00777896 0)
(-0.0108924 -0.00708982 0)
(-0.00887475 -0.00633487 0)
(-0.00705585 -0.00552857 0)
(-0.00544796 -0.00468764 0)
(-0.00405893 -0.00383113 0)
(-0.00289177 -0.0029807 0)
(-0.00194423 -0.00216089 0)
(-0.00120837 -0.00139959 0)
(-0.00067031 -0.000728579 0)
(-0.000309886 -0.000184299 0)
(-0.000100329 0.000191507 0)
(-7.93669e-06 0.000350784 0)
(6.8101e-06 0.000234226 0)
(-3.63141e-05 0.000160801 0)
(-0.000266661 0.000814624 0)
(-0.000792811 0.00167903 0)
(-0.00158363 0.00266423 0)
(-0.00262495 0.00370467 0)
(-0.00390921 0.00475043 0)
(-0.00542446 0.00576456 0)
(-0.00715542 0.00672086 0)
(-0.0090848 0.00760158 0)
(-0.0111938 0.00839549 0)
(-0.0134624 0.00909627 0)
(-0.0158701 0.0097012 0)
(-0.0183962 0.0102101 0)
(-0.0210196 0.0106246 0)
(-0.02372 0.0109471 0)
(-0.0264769 0.0111806 0)
(-0.0292707 0.0113285 0)
(-0.032082 0.0113936 0)
(-0.0348917 0.0113787 0)
(-0.0376814 0.0112862 0)
(-0.0404328 0.011118 0)
(-0.0431281 0.0108754 0)
(-0.0457497 0.0105598 0)
(-0.0482801 0.010172 0)
(-0.0507022 0.00971286 0)
(-0.0529992 0.0091831 0)
(-0.0551545 0.00858371 0)
(-0.0571518 0.00791592 0)
(-0.0589755 0.00718141 0)
(-0.0606104 0.00638241 0)
(-0.062042 0.00552181 0)
(-0.0632568 0.00460331 0)
(-0.0642423 0.00363145 0)
(-0.0649872 0.00261173 0)
(-0.0654819 0.0015506 0)
(-0.065718 0.000455498 0)
(-0.0656893 -0.000665145 0)
(-0.0653916 -0.00180196 0)
(-0.0648228 -0.0029447 0)
(-0.0639831 -0.00408232 0)
(-0.0628755 -0.00520311 0)
(-0.0615055 -0.00629484 0)
(-0.0598812 -0.00734489 0)
(-0.0580138 -0.00834052 0)
(-0.0559168 -0.00926901 0)
(-0.053607 -0.0101179 0)
(-0.0511035 -0.0108753 0)
(-0.0484281 -0.01153 0)
(-0.0456049 -0.0120719 0)
(-0.0426602 -0.012492 0)
(-0.039622 -0.012783 0)
(-0.0365199 -0.0129392 0)
(-0.0333848 -0.0129568 0)
(-0.0302479 -0.012834 0)
(-0.0271409 -0.0125715 0)
(-0.0240954 -0.012172 0)
(-0.0211417 -0.0116411 0)
(-0.0183093 -0.0109864 0)
(-0.0156253 -0.0102184 0)
(-0.0131148 -0.00935011 0)
(-0.0107996 -0.00839707 0)
(-0.00869798 -0.00737754 0)
(-0.00682415 -0.00631245 0)
(-0.00518775 -0.00522561 0)
(-0.00379339 -0.00414381 0)
(-0.00264024 -0.00309713 0)
(-0.00172176 -0.00211932 0)
(-0.00102541 -0.00124828 0)
(-0.000532424 -0.000526731 0)
(-0.000217507 -2.81675e-06 0)
(-5.06197e-05 0.000268999 0)
(-1.24594e-07 0.000222978 0)
(-4.7008e-05 0.000311099 0)
(-0.000332195 0.00125649 0)
(-0.000970459 0.00240414 0)
(-0.00191438 0.00366314 0)
(-0.00313997 0.00496592 0)
(-0.00463388 0.00626026 0)
(-0.00637932 0.007507 0)
(-0.00835703 0.00867801 0)
(-0.0105466 0.00975403 0)
(-0.0129265 0.0107227 0)
(-0.0154748 0.0115771 0)
(-0.0181691 0.012314 0)
(-0.0209868 0.0129334 0)
(-0.0239057 0.0134367 0)
(-0.0269038 0.013827 0)
(-0.0299593 0.0141076 0)
(-0.033051 0.0142821 0)
(-0.0361583 0.014354 0)
(-0.0392607 0.0143264 0)
(-0.0423383 0.014202 0)
(-0.0453715 0.0139831 0)
(-0.0483409 0.0136714 0)
(-0.0512275 0.0132684 0)
(-0.0540125 0.0127751 0)
(-0.0566774 0.0121928 0)
(-0.059204 0.0115224 0)
(-0.0615743 0.0107653 0)
(-0.0637709 0.00992317 0)
(-0.0657767 0.00899823 0)
(-0.0675754 0.0079934 0)
(-0.0691515 0.00691243 0)
(-0.0704905 0.00576002 0)
(-0.0715788 0.00454195 0)
(-0.0724044 0.00326508 0)
(-0.0729568 0.0019375 0)
(-0.0732272 0.000568433 0)
(-0.0732088 -0.000831669 0)
(-0.0728968 -0.00225124 0)
(-0.072289 -0.00367766 0)
(-0.0713857 -0.00509735 0)
(-0.0701896 -0.00649592 0)
(-0.0687066 -0.00785837 0)
(-0.0669451 -0.00916925 0)
(-0.0649169 -0.0104129 0)
(-0.0626363 -0.0115738 0)
(-0.0601208 -0.0126366 0)
(-0.0573909 -0.0135868 0)
(-0.0544696 -0.0144105 0)
(-0.0513826 -0.0150953 0)
(-0.0481578 -0.0156303 0)
(-0.0448253 -0.0160062 0)
(-0.0414168 -0.016216 0)
(-0.0379654 -0.0162548 0)
(-0.0345048 -0.0161205 0)
(-0.0310692 -0.0158136 0)
(-0.0276927 -0.0153375 0)
(-0.0244085 -0.0146986 0)
(-0.0212485 -0.0139064 0)
(-0.0182429 -0.0129735 0)
(-0.015419 -0.0119156 0)
(-0.0128013 -0.0107518 0)
(-0.0104104 -0.00950405 0)
(-0.00826286 -0.00819786 0)
(-0.00637032 -0.00686186 0)
(-0.0047394 -0.00552815 0)
(-0.00337114 -0.00423243 0)
(-0.0022608 -0.00301434 0)
(-0.00139769 -0.0019178 0)
(-0.000764912 -0.0009916 0)
(-0.000339086 -0.000289828 0)
(-9.42668e-05 0.000127448 0)
(-6.97196e-06 0.0001895 0)
(-5.72549e-05 0.000494512 0)
(-0.000396006 0.00178611 0)
(-0.00114476 0.00326149 0)
(-0.00224041 0.00483019 0)
(-0.00364924 0.0064241 0)
(-0.00535195 0.00799002 0)
(-0.00732665 0.00948774 0)
(-0.00954982 0.0108881 0)
(-0.0119976 0.0121711 0)
(-0.0146457 0.0133238 0)
(-0.01747 0.0143389 0)
(-0.0204459 0.0152133 0)
(-0.0235495 0.0159469 0)
(-0.026757 0.0165416 0)
(-0.0300448 0.0170007 0)
(-0.0333901 0.017328 0)
(-0.0367705 0.0175276 0)
(-0.0401639 0.0176033 0)
(-0.0435488 0.0175588 0)
(-0.0469039 0.017397 0)
(-0.0502085 0.0171206 0)
(-0.0534419 0.0167315 0)
(-0.056584 0.0162315 0)
(-0.0596147 0.0156221 0)
(-0.0625142 0.0149044 0)
(-0.0652632 0.0140801 0)
(-0.0678424 0.0131506 0)
(-0.0702334 0.0121184 0)
(-0.0724179 0.0109861 0)
(-0.0743787 0.00975739 0)
(-0.076099 0.00843701 0)
(-0.0775635 0.00703072 0)
(-0.0787577 0.00554556 0)
(-0.0796688 0.00398991 0)
(-0.0802855 0.00237352 0)
(-0.0805982 0.000707557 0)
(-0.0805996 -0.000995431 0)
(-0.0802845 -0.00272156 0)
(-0.0796503 -0.00445571 0)
(-0.0786968 -0.00618162 0)
(-0.0774268 -0.00788212 0)
(-0.0758461 -0.00953925 0)
(-0.0739632 -0.0111346 0)
(-0.0717902 -0.0126494 0)
(-0.0693419 -0.014065 0)
(-0.0666366 -0.0153633 0)
(-0.0636954 -0.0165266 0)
(-0.0605425 -0.0175384 0)
(-0.057205 -0.0183838 0)
(-0.0537122 -0.0190494 0)
(-0.0500959 -0.0195241 0)
(-0.0463898 -0.0197993 0)
(-0.0426291 -0.019869 0)
(-0.0388498 -0.0197303 0)
(-0.0350888 -0.0193837 0)
(-0.0313825 -0.0188329 0)
(-0.027767 -0.0180853 0)
(-0.0242771 -0.017152 0)
(-0.0209454 -0.016048 0)
(-0.0178023 -0.0147917 0)
(-0.0148749 -0.0134057 0)
(-0.0121866 -0.011916 0)
(-0.00975635 -0.0103525 0)
(-0.00759834 -0.00874901 0)
(-0.0057215 -0.00714291 0)
(-0.00412913 -0.00557564 0)
(-0.00281868 -0.00409272 0)
(-0.00178171 -0.00274404 0)
(-0.00100349 -0.00158426 0)
(-0.00046286 -0.00067305 0)
(-0.000138064 -7.54735e-05 0)
(-1.36168e-05 0.000133717 0)
(-6.70733e-05 0.000710006 0)
(-0.00045787 0.00240158 0)
(-0.00131473 0.00424898 0)
(-0.00255952 0.0061634 0)
(-0.00414906 0.00807737 0)
(-0.00605812 0.00993795 0)
(-0.00825958 0.0117049 0)
(-0.0107255 0.0133489 0)
(-0.0134283 0.01485 0)
(-0.0163411 0.0161952 0)
(-0.0194369 0.0173773 0)
(-0.0226896 0.0183937 0)
(-0.0260732 0.0192444 0)
(-0.0295626 0.0199321 0)
(-0.033133 0.0204602 0)
(-0.0367604 0.0208333 0)
(-0.0404211 0.0210559 0)
(-0.0440921 0.0211323 0)
(-0.0477507 0.0210665 0)
(-0.0513748 0.0208618 0)
(-0.0549423 0.0205212 0)
(-0.0584318 0.020047 0)
(-0.0618218 0.0194412 0)
(-0.0650914 0.0187054 0)
(-0.0682197 0.0178414 0)
(-0.0711862 0.0168507 0)
(-0.0739708 0.0157356 0)
(-0.0765538 0.0144988 0)
(-0.0789162 0.0131436 0)
(-0.0810396 0.0116746 0)
(-0.0829063 0.0100974 0)
(-0.0845001 0.00841886 0)
(-0.0858057 0.00664741 0)
(-0.0868092 0.00479295 0)
(-0.0874987 0.00286701 0)
(-0.0878638 0.000882713 0)
(-0.0878965 -0.00114519 0)
(-0.087591 -0.00320042 0)
(-0.086944 -0.00526526 0)
(-0.085955 -0.00732068 0)
(-0.0846264 -0.00934656 0)
(-0.0829636 -0.0113219 0)
(-0.0809753 -0.0132251 0)
(-0.0786732 -0.0150342 0)
(-0.0760727 -0.0167274 0)
(-0.0731922 -0.0182831 0)
(-0.0700537 -0.0196808 0)
(-0.066682 -0.020901 0)
(-0.0631052 -0.0219258 0)
(-0.0593541 -0.0227394 0)
(-0.055462 -0.0233286 0)
(-0.0514645 -0.0236829 0)
(-0.0473986 -0.0237949 0)
(-0.0433028 -0.0236609 0)
(-0.0392163 -0.0232811 0)
(-0.0351785 -0.0226594 0)
(-0.031228 -0.0218042 0)
(-0.0274025 -0.0207281 0)
(-0.0237379 -0.0194483 0)
(-0.0202673 -0.0179861 0)
(-0.0170211 -0.0163675 0)
(-0.0140254 -0.0146226 0)
(-0.0113023 -0.0127861 0)
(-0.0088686 -0.0108967 0)
(-0.00673607 -0.00899727 0)
(-0.00491057 -0.00713515 0)
(-0.00339212 -0.00536174 0)
(-0.0021748 -0.00373285 0)
(-0.00124632 -0.0023089 0)
(-0.000587826 -0.00115491 0)
(-0.000181689 -0.000340594 0)
(-2.00332e-05 5.5798e-05 0)
(-7.64882e-05 0.000956503 0)
(-0.000517688 0.0031006 0)
(-0.00147977 0.00536374 0)
(-0.00287027 0.00765965 0)
(-0.00463692 0.0099226 0)
(-0.00674861 0.0121009 0)
(-0.00917302 0.0141551 0)
(-0.0118777 0.0160569 0)
(-0.0148315 0.0177867 0)
(-0.0180042 0.0193324 0)
(-0.0213666 0.0206874 0)
(-0.0248905 0.0218496 0)
(-0.0285482 0.0228199 0)
(-0.0323132 0.0236015 0)
(-0.0361594 0.0241985 0)
(-0.0400616 0.0246161 0)
(-0.0439952 0.0248593 0)
(-0.0479363 0.024933 0)
(-0.0518612 0.0248415 0)
(-0.0557469 0.0245886 0)
(-0.0595705 0.0241776 0)
(-0.0633095 0.0236111 0)
(-0.0669418 0.0228912 0)
(-0.0704454 0.02202 0)
(-0.0737985 0.0209993 0)
(-0.0769798 0.0198313 0)
(-0.0799681 0.0185184 0)
(-0.0827431 0.0170639 0)
(-0.0852845 0.0154719 0)
(-0.0875732 0.0137476 0)
(-0.0895908 0.0118977 0)
(-0.0913198 0.00993017 0)
(-0.0927441 0.0078548 0)
(-0.0938492 0.00568305 0)
(-0.0946219 0.00342825 0)
(-0.0950513 0.00110555 0)
(-0.0951284 -0.00126808 0)
(-0.0948467 -0.0036739 0)
(-0.0942021 -0.00609153 0)
(-0.0931933 -0.00849908 0)
(-0.0918223 -0.0108734 0)
(-0.0900938 -0.0131903 0)
(-0.0880162 -0.0154249 0)
(-0.0856011 -0.0175519 0)
(-0.0828635 -0.019546 0)
(-0.0798223 -0.0213823 0)
(-0.0764994 -0.0230368 0)
(-0.0729206 -0.0244869 0)
(-0.0691146 -0.0257117 0)
(-0.0651134 -0.0266926 0)
(-0.0609517 -0.0274138 0)
(-0.0566667 -0.0278628 0)
(-0.0522976 -0.0280307 0)
(-0.047885 -0.0279126 0)
(-0.0434708 -0.0275081 0)
(-0.0390969 -0.0268213 0)
(-0.0348052 -0.0258613 0)
(-0.0306363 -0.0246422 0)
(-0.0266294 -0.0231832 0)
(-0.0228211 -0.0215085 0)
(-0.0192448 -0.0196476 0)
(-0.0159303 -0.0176348 0)
(-0.0129026 -0.0155093 0)
(-0.010182 -0.0133152 0)
(-0.00778324 -0.0111009 0)
(-0.00571513 -0.00891949 0)
(-0.00398059 -0.0068285 0)
(-0.00257645 -0.0048897 0)
(-0.00149304 -0.00316924 0)
(-0.000713831 -0.00173742 0)
(-0.000225142 -0.000668473 0)
(-2.62479e-05 -4.40377e-05 0)
(-8.55213e-05 0.00123291 0)
(-0.000575411 0.00388061 0)
(-0.00163951 0.00660233 0)
(-0.00317171 0.00931505 0)
(-0.00511102 0.0119556 0)
(-0.00742063 0.0144744 0)
(-0.0100631 0.016834 0)
(-0.0130015 0.0190073 0)
(-0.0162009 0.0209765 0)
(-0.0196282 0.0227303 0)
(-0.0232516 0.0242637 0)
(-0.0270407 0.0255753 0)
(-0.0309663 0.0266671 0)
(-0.0350002 0.0275432 0)
(-0.0391154 0.0282087 0)
(-0.0432857 0.0286692 0)
(-0.0474854 0.0289306 0)
(-0.0516897 0.0289983 0)
(-0.0558743 0.028877 0)
(-0.0600153 0.0285711 0)
(-0.0640892 0.0280839 0)
(-0.0680727 0.0274184 0)
(-0.0719429 0.0265771 0)
(-0.0756771 0.0255622 0)
(-0.0792527 0.0243758 0)
(-0.0826476 0.0230204 0)
(-0.0858399 0.021499 0)
(-0.0888083 0.0198153 0)
(-0.0915319 0.0179739 0)
(-0.0939906 0.015981 0)
(-0.0961651 0.0138441 0)
(-0.0980371 0.0115723 0)
(-0.0995896 0.00917694 0)
(-0.100807 0.00667091 0)
(-0.101675 0.00406933 0)
(-0.102182 0.00138939 0)
(-0.102319 -0.00134968 0)
(-0.102076 -0.00412666 0)
(-0.10145 -0.00691847 0)
(-0.100439 -0.00970031 0)
(-0.0990427 -0.0124459 0)
(-0.0972658 -0.0151278 0)
(-0.0951159 -0.0177177 0)
(-0.092604 -0.0201868 0)
(-0.089745 -0.0225061 0)
(-0.0865573 -0.0246472 0)
(-0.0830631 -0.0265825 0)
(-0.0792883 -0.0282858 0)
(-0.0752624 -0.029733 0)
(-0.0710184 -0.0309024 0)
(-0.0665921 -0.0317754 0)
(-0.0620223 -0.0323371 0)
(-0.0573503 -0.0325766 0)
(-0.052619 -0.0324878 0)
(-0.0478728 -0.0320693 0)
(-0.0431565 -0.0313251 0)
(-0.0385153 -0.0302649 0)
(-0.0339931 -0.028904 0)
(-0.0296326 -0.0272636 0)
(-0.0254741 -0.0253708 0)
(-0.0215548 -0.0232584 0)
(-0.0179081 -0.0209649 0)
(-0.0145628 -0.0185343 0)
(-0.0115427 -0.016016 0)
(-0.0088661 -0.0134641 0)
(-0.00654505 -0.0109377 0)
(-0.00458565 -0.00850047 0)
(-0.00298774 -0.00622025 0)
(-0.00174438 -0.00416908 0)
(-0.000841327 -0.00242262 0)
(-0.000268648 -0.00105975 0)
(-3.23197e-05 -0.000165657 0)
(-9.41881e-05 0.00153814 0)
(-0.000631004 0.00473893 0)
(-0.00179368 0.00796095 0)
(-0.00346311 0.0111251 0)
(-0.00556996 0.0141714 0)
(-0.00807198 0.0170533 0)
(-0.0109267 0.019736 0)
(-0.0140929 0.0221947 0)
(-0.0175318 0.0244134 0)
(-0.0212074 0.026383 0)
(-0.0250852 0.0280999 0)
(-0.029133 0.0295643 0)
(-0.0333197 0.0307795 0)
(-0.0376159 0.0317506 0)
(-0.0419934 0.0324839 0)
(-0.0464249 0.032986 0)
(-0.050884 0.0332633 0)
(-0.0553452 0.0333219 0)
(-0.0597835 0.0331671 0)
(-0.0641744 0.0328036 0)
(-0.0684936 0.0322351 0)
(-0.0727174 0.0314648 0)
(-0.0768222 0.0304956 0)
(-0.0807847 0.0293298 0)
(-0.0845817 0.0279699 0)
(-0.0881904 0.0264186 0)
(-0.0915883 0.0246792 0)
(-0.0947532 0.022756 0)
(-0.0976635 0.0206543 0)
(-0.100298 0.0183809 0)
(-0.102637 0.0159443 0)
(-0.104662 0.0133548 0)
(-0.106353 0.0106248 0)
(-0.107695 0.00776888 0)
(-0.108673 0.00480395 0)
(-0.109273 0.00174915 0)
(-0.109484 -0.00137405 0)
(-0.109299 -0.00454195 0)
(-0.108709 -0.00772874 0)
(-0.107713 -0.0109067 0)
(-0.10631 -0.0140464 0)
(-0.104503 -0.0171169 0)
(-0.102299 -0.0200866 0)
(-0.0997075 -0.0229227 0)
(-0.096743 -0.0255927 0)
(-0.0934237 -0.0280642 0)
(-0.0897713 -0.0303058 0)
(-0.0858119 -0.0322875 0)
(-0.0815754 -0.0339816 0)
(-0.0770954 -0.035363 0)
(-0.072409 -0.0364099 0)
(-0.0675565 -0.0371046 0)
(-0.062581 -0.0374341 0)
(-0.0575278 -0.0373903 0)
(-0.0524439 -0.0369707 0)
(-0.0473775 -0.0361789 0)
(-0.0423768 -0.0350249 0)
(-0.0374896 -0.033525 0)
(-0.0327624 -0.0317022 0)
(-0.0282397 -0.0295864 0)
(-0.0239626 -0.0272137 0)
(-0.0199687 -0.0246268 0)
(-0.0162911 -0.0218746 0)
(-0.0129575 -0.0190118 0)
(-0.00999005 -0.0160985 0)
(-0.00740453 -0.0131998 0)
(-0.00521048 -0.0103859 0)
(-0.00341097 -0.00773082 0)
(-0.00200186 -0.00531277 0)
(-0.000971194 -0.00321303 0)
(-0.000312578 -0.00151541 0)
(-3.83267e-05 -0.000309096 0)
(-0.000102496 0.00187108 0)
(-0.000684426 0.00567272 0)
(-0.00194203 0.00943548 0)
(-0.00374383 0.0130847 0)
(-0.00601258 0.0165644 0)
(-0.00870079 0.0198316 0)
(-0.0117612 0.0228548 0)
(-0.0151482 0.0256124 0)
(-0.0188197 0.0280909 0)
(-0.0227364 0.0302837 0)
(-0.0268616 0.0321892 0)
(-0.0311608 0.0338097 0)
(-0.0356015 0.0351501 0)
(-0.0401528 0.0362169 0)
(-0.0447855 0.0370176 0)
(-0.0494714 0.0375598 0)
(-0.0541834 0.037851 0)
(-0.0588953 0.0378978 0)
(-0.0635816 0.0377062 0)
(-0.0682171 0.0372812 0)
(-0.0727773 0.036627 0)
(-0.0772379 0.0357471 0)
(-0.0815748 0.0346444 0)
(-0.0857642 0.0333217 0)
(-0.0897824 0.0317816 0)
(-0.0936061 0.0300271 0)
(-0.097212 0.0280619 0)
(-0.100578 0.0258906 0)
(-0.10368 0.0235191 0)
(-0.106499 0.0209551 0)
(-0.109011 0.0182076 0)
(-0.111198 0.0152883 0)
(-0.113041 0.0122106 0)
(-0.114522 0.00899076 0)
(-0.115624 0.00564722 0)
(-0.116333 0.00220112 0)
(-0.116637 -0.00132389 0)
(-0.116526 -0.00490166 0)
(-0.115993 -0.00850369 0)
(-0.115031 -0.0120993 0)
(-0.113641 -0.0156558 0)
(-0.111824 -0.019139 0)
(-0.109584 -0.0225133 0)
(-0.106931 -0.0257425 0)
(-0.103879 -0.0287898 0)
(-0.100443 -0.0316189 0)
(-0.0966467 -0.0341942 0)
(-0.0925147 -0.0364816 0)
(-0.0880772 -0.0384495 0)
(-0.0833685 -0.0400688 0)
(-0.0784265 -0.0413143 0)
(-0.073293 -0.0421652 0)
(-0.0680129 -0.0426054 0)
(-0.0626341 -0.0426249 0)
(-0.0572063 -0.0422196 0)
(-0.0517808 -0.0413923 0)
(-0.0464095 -0.0401529 0)
(-0.0411443 -0.0385184 0)
(-0.0360359 -0.0365136 0)
(-0.0311331 -0.0341707 0)
(-0.0264819 -0.0315293 0)
(-0.0221242 -0.0286363 0)
(-0.0180979 -0.0255455 0)
(-0.0144351 -0.022317 0)
(-0.0111623 -0.019017 0)
(-0.00829931 -0.0157172 0)
(-0.00585947 -0.0124942 0)
(-0.00384929 -0.00942874 0)
(-0.00226758 -0.00660551 0)
(-0.00110462 -0.00411185 0)
(-0.000357404 -0.00203696 0)
(-4.43592e-05 -0.000474622 0)
(-0.000110447 0.00223061 0)
(-0.000735618 0.00667902 0)
(-0.00208432 0.0110215 0)
(-0.0040133 0.0151884 0)
(-0.0064378 0.0191282 0)
(-0.00930535 0.0228024 0)
(-0.0125641 0.0261834 0)
(-0.0161644 0.0292531 0)
(-0.0200606 0.0320015 0)
(-0.0242105 0.0344249 0)
(-0.0285751 0.0365242 0)
(-0.0331178 0.0383041 0)
(-0.0378047 0.0397715 0)
(-0.0426036 0.0409346 0)
(-0.047484 0.0418025 0)
(-0.0524173 0.0423839 0)
(-0.0573754 0.0426872 0)
(-0.0623318 0.04272 0)
(-0.0672604 0.0424889 0)
(-0.0721357 0.0419993 0)
(-0.0769327 0.0412559 0)
(-0.0816269 0.0402623 0)
(-0.0861938 0.0390219 0)
(-0.0906091 0.0375374 0)
(-0.0948489 0.0358118 0)