/*--------------------------------*- C++ -*----------------------------------*\
  =========                 |
  \\      /  F ield         | OpenFOAM: The Open Source CFD Toolbox
   \\    /   O peration     | Website:  https://openfoam.org
    \\  /    A nd           | Version:  dev
     \\/     M anipulation  |
\*---------------------------------------------------------------------------*/
FoamFile
{
    format      ascii;
    class       volScalarField;
    location    "16.2";
    object      Ux;
}
// * * * * * * * * * * * * * * * * * * * * * * * * * * * * * * * * * * * * * //

dimensions      [0 1 -1 0 0 0 0];

internalField   nonuniform List<scalar> 
5184
(
1.22987e-05
4.50668e-05
8.01272e-05
9.56743e-05
8.1758e-05
3.60099e-05
-4.10095e-05
-0.000147279
-0.000280014
-0.000436156
-0.000612589
-0.000806285
-0.00101438
-0.00123422
-0.00146333
-0.00169948
-0.00194059
-0.00218474
-0.00243016
-0.00267516
-0.00291815
-0.00315756
-0.00339186
-0.00361954
-0.00383907
-0.00404892
-0.00424753
-0.00443333
-0.00460474
-0.00476019
-0.00489813
-0.00501703
-0.00511544
-0.00519198
-0.00524539
-0.00527456
-0.00527855
-0.00525663
-0.0052083
-0.00513334
-0.0050318
-0.00490406
-0.00475082
-0.00457314
-0.00437241
-0.00415039
-0.00390916
-0.00365115
-0.00337907
-0.00309593
-0.00280496
-0.00250957
-0.00221334
-0.0019199
-0.00163293
-0.00135606
-0.00109282
-0.000846579
-0.00062048
-0.000417371
-0.000239746
-8.96817e-05
3.12335e-05
0.000121984
0.000182237
0.000212488
0.00021432
0.00019077
0.000146854
9.06476e-05
3.65887e-05
6.22775e-06
2.07982e-05
6.54313e-05
9.43239e-05
7.22315e-05
-1.96289e-05
-0.000188044
-0.000433577
-0.000753006
-0.00114079
-0.00159016
-0.00209377
-0.00264418
-0.0032341
-0.00385655
-0.00450493
-0.00517305
-0.00585512
-0.00654572
-0.0072397
-0.0079322
-0.00861852
-0.00929412
-0.00995454
-0.0105953
-0.0112122
-0.0118006
-0.0123562
-0.0128746
-0.0133514
-0.0137823
-0.0141631
-0.0144896
-0.014758
-0.0149646
-0.0151063
-0.0151801
-0.0151836
-0.0151152
-0.0149737
-0.0147587
-0.0144707
-0.0141107
-0.013681
-0.0131845
-0.0126253
-0.0120081
-0.0113387
-0.0106237
-0.00987054
-0.0090872
-0.0082824
-0.0074653
-0.00664542
-0.00583248
-0.00503625
-0.00426638
-0.00353224
-0.00284272
-0.00220611
-0.00162988
-0.00112048
-0.000683231
-0.000322029
-3.91657e-05
0.000164982
0.000292325
0.000347596
0.000339037
0.00027911
0.000185628
8.62072e-05
1.96524e-05
1.75814e-05
4.1116e-05
1.91792e-05
-8.45778e-05
-0.000290878
-0.000608431
-0.00103848
-0.0015772
-0.00221743
-0.00295
-0.00376463
-0.00465063
-0.00559731
-0.0065942
-0.00763128
-0.00869899
-0.00978827
-0.0108905
-0.0119976
-0.0131016
-0.014195
-0.0152704
-0.0163207
-0.0173386
-0.0183171
-0.0192493
-0.020128
-0.0209463
-0.0216974
-0.0223745
-0.0229711
-0.0234809
-0.0238979
-0.0242167
-0.0244324
-0.0245408
-0.0245385
-0.0244231
-0.0241929
-0.0238477
-0.0233883
-0.0228168
-0.0221367
-0.0213528
-0.0204714
-0.0195001
-0.0184477
-0.0173245
-0.0161418
-0.0149121
-0.0136485
-0.0123653
-0.0110767
-0.00979774
-0.00854319
-0.00732774
-0.00616562
-0.00507035
-0.00405444
-0.00312916
-0.00230425
-0.00158757
-0.000984883
-0.000499413
-0.000131489
0.000121946
0.000267962
0.000318366
0.000290252
0.000206798
0.000102202
2.49271e-05
8.78907e-06
-7.19364e-06
-0.000107899
-0.000322717
-0.000669829
-0.00115761
-0.00178677
-0.00255255
-0.00344641
-0.00445733
-0.00557284
-0.00677976
-0.0080647
-0.00941443
-0.0108161
-0.0122572
-0.0137259
-0.0152109
-0.0167012
-0.0181862
-0.0196558
-0.0211001
-0.0225092
-0.0238736
-0.0251836
-0.02643
-0.0276034
-0.0286944
-0.029694
-0.0305933
-0.0313838
-0.0320573
-0.0326062
-0.0330235
-0.033303
-0.0334393
-0.0334284
-0.0332671
-0.0329538
-0.0324883
-0.031872
-0.0311078
-0.0302004
-0.0291564
-0.027984
-0.0266932
-0.0252957
-0.0238047
-0.0222351
-0.0206029
-0.0189253
-0.0172205
-0.0155072
-0.0138045
-0.0121315
-0.0105073
-0.00895012
-0.00747737
-0.00610517
-0.00484801
-0.00371838
-0.00272637
-0.00187931
-0.00118135
-0.00063295
-0.000230443
3.46192e-05
0.000176092
0.000213654
0.000173414
9.27376e-05
2.39673e-05
-2.16308e-06
-6.73996e-05
-0.000264218
-0.000609717
-0.00111634
-0.00179026
-0.00263046
-0.00363058
-0.00478049
-0.0060675
-0.00747726
-0.00899457
-0.0106038
-0.0122895
-0.0140364
-0.0158296
-0.0176549
-0.0194984
-0.0213467
-0.023187
-0.0250066
-0.0267933
-0.028535
-0.0302198
-0.031836
-0.0333719
-0.0348161
-0.0361572
-0.0373842
-0.0384864
-0.0394535
-0.0402756
-0.0409437
-0.0414495
-0.0417857
-0.0419462
-0.0419261
-0.041722
-0.0413322
-0.0407566
-0.0399971
-0.0390576
-0.0379438
-0.0366637
-0.0352274
-0.0336468
-0.0319361
-0.0301113
-0.0281899
-0.0261912
-0.0241358
-0.0220453
-0.0199421
-0.0178488
-0.0157885
-0.0137837
-0.0118562
-0.0100269
-0.00831486
-0.00673753
-0.0053098
-0.00404378
-0.00294836
-0.00202867
-0.00128567
-0.00071563
-0.000309576
-5.27877e-05
7.55618e-05
0.000102916
6.72111e-05
1.96034e-05
-1.37148e-05
-0.000132834
-0.000435645
-0.000924045
-0.00160262
-0.0024739
-0.00353405
-0.00477437
-0.00618277
-0.00774475
-0.00944422
-0.0112641
-0.013187
-0.0151954
-0.017272
-0.0193999
-0.0215628
-0.0237446
-0.02593
-0.0281038
-0.0302514
-0.0323584
-0.0344106
-0.0363941
-0.0382951
-0.0401001
-0.0417956
-0.0433686
-0.0448063
-0.0460962
-0.0472265
-0.048186
-0.0489644
-0.0495522
-0.0499413
-0.0501248
-0.0500973
-0.0498551
-0.0493964
-0.0487214
-0.0478324
-0.0467339
-0.0454326
-0.0439379
-0.0422612
-0.0404164
-0.0384196
-0.036289
-0.0340448
-0.0317088
-0.0293046
-0.0268567
-0.0243907
-0.0219325
-0.0195082
-0.0171436
-0.0148637
-0.0126923
-0.0106515
-0.00876104
-0.0070383
-0.00549733
-0.00414859
-0.00299846
-0.00204873
-0.00129615
-0.000731962
-0.000341499
-0.00010385
8.55422e-06
3.22276e-05
1.35627e-05
-2.51848e-05
-0.000199882
-0.000613545
-0.00125165
-0.00210971
-0.00318555
-0.0044716
-0.00595616
-0.00762475
-0.00946084
-0.0114465
-0.0135629
-0.0157909
-0.0181112
-0.020505
-0.0229533
-0.0254382
-0.0279417
-0.0304466
-0.0329358
-0.035393
-0.0378017
-0.0401461
-0.0424103
-0.0445789
-0.0466364
-0.0485678
-0.0503583
-0.0519937
-0.05346
-0.054744
-0.0558333
-0.0567164
-0.057383
-0.057824
-0.0580319
-0.0580009
-0.057727
-0.0572082
-0.056445
-0.0554399
-0.054198
-0.0527269
-0.0510369
-0.0491408
-0.0470538
-0.0447938
-0.042381
-0.0398375
-0.0371878
-0.0344577
-0.0316744
-0.0288662
-0.0260619
-0.0232906
-0.0205808
-0.0179605
-0.0154563
-0.0130928
-0.0108924
-0.00887475
-0.00705585
-0.00544796
-0.00405893
-0.00289177
-0.00194423
-0.00120837
-0.00067031
-0.000309886
-0.000100329
-7.93669e-06
6.8101e-06
-3.63141e-05
-0.000266661
-0.000792811
-0.00158363
-0.00262495
-0.00390921
-0.00542446
-0.00715542
-0.0090848
-0.0111938
-0.0134624
-0.0158701
-0.0183962
-0.0210196
-0.02372
-0.0264769
-0.0292707
-0.032082
-0.0348917
-0.0376814
-0.0404328
-0.0431281
-0.0457497
-0.0482801
-0.0507022
-0.0529992
-0.0551545
-0.0571518
-0.0589755
-0.0606104
-0.062042
-0.0632568
-0.0642423
-0.0649872
-0.0654819
-0.065718
-0.0656893
-0.0653916
-0.0648228
-0.0639831
-0.0628755
-0.0615055
-0.0598812
-0.0580138
-0.0559168
-0.053607
-0.0511035
-0.0484281
-0.0456049
-0.0426602
-0.039622
-0.0365199
-0.0333848
-0.0302479
-0.0271409
-0.0240954
-0.0211417
-0.0183093
-0.0156253
-0.0131148
-0.0107996
-0.00869798
-0.00682415
-0.00518775
-0.00379339
-0.00264024
-0.00172176
-0.00102541
-0.000532424
-0.000217507
-5.06197e-05
-1.24594e-07
-4.7008e-05
-0.000332195
-0.000970459
-0.00191438
-0.00313997
-0.00463388
-0.00637932
-0.00835703
-0.0105466
-0.0129265
-0.0154748
-0.0181691
-0.0209868
-0.0239057
-0.0269038
-0.0299593
-0.033051
-0.0361583
-0.0392607
-0.0423383
-0.0453715
-0.0483409
-0.0512275
-0.0540125
-0.0566774
-0.059204
-0.0615743
-0.0637709
-0.0657767
-0.0675754
-0.0691515
-0.0704905
-0.0715788
-0.0724044
-0.0729568
-0.0732272
-0.0732088
-0.0728968
-0.072289
-0.0713857
-0.0701896
-0.0687066
-0.0669451
-0.0649169
-0.0626363
-0.0601208
-0.0573909
-0.0544696
-0.0513826
-0.0481578
-0.0448253
-0.0414168
-0.0379654
-0.0345048
-0.0310692
-0.0276927
-0.0244085
-0.0212485
-0.0182429
-0.015419
-0.0128013
-0.0104104
-0.00826286
-0.00637032
-0.0047394
-0.00337114
-0.0022608
-0.00139769
-0.000764912
-0.000339086
-9.42668e-05
-6.97196e-06
-5.72549e-05
-0.000396006
-0.00114476
-0.00224041
-0.00364924
-0.00535195
-0.00732665
-0.00954982
-0.0119976
-0.0146457
-0.01747
-0.0204459
-0.0235495
-0.026757
-0.0300448
-0.0333901
-0.0367705
-0.0401639
-0.0435488
-0.0469039
-0.0502085
-0.0534419
-0.056584
-0.0596147
-0.0625142
-0.0652632
-0.0678424
-0.0702334
-0.0724179
-0.0743787
-0.076099
-0.0775635
-0.0787577
-0.0796688
-0.0802855
-0.0805982
-0.0805996
-0.0802845
-0.0796503
-0.0786968
-0.0774268
-0.0758461
-0.0739632
-0.0717902
-0.0693419
-0.0666366
-0.0636954
-0.0605425
-0.057205
-0.0537122
-0.0500959
-0.0463898
-0.0426291
-0.0388498
-0.0350888
-0.0313825
-0.027767
-0.0242771
-0.0209454
-0.0178023
-0.0148749
-0.0121866
-0.00975635
-0.00759834
-0.0057215
-0.00412913
-0.00281868
-0.00178171
-0.00100349
-0.00046286
-0.000138064
-1.36168e-05
-6.70733e-05
-0.00045787
-0.00131473
-0.00255952
-0.00414906
-0.00605812
-0.00825958
-0.0107255
-0.0134283
-0.0163411
-0.0194369
-0.0226896
-0.0260732
-0.0295626
-0.033133
-0.0367604
-0.0404211
-0.0440921
-0.0477507
-0.0513748
-0.0549423
-0.0584318
-0.0618218
-0.0650914
-0.0682197
-0.0711862
-0.0739708
-0.0765538
-0.0789162
-0.0810396
-0.0829063
-0.0845001
-0.0858057
-0.0868092
-0.0874987
-0.0878638
-0.0878965
-0.087591
-0.086944
-0.085955
-0.0846264
-0.0829636
-0.0809753
-0.0786732
-0.0760727
-0.0731922
-0.0700537
-0.066682
-0.0631052
-0.0593541
-0.055462
-0.0514645
-0.0473986
-0.0433028
-0.0392163
-0.0351785
-0.031228
-0.0274025
-0.0237379
-0.0202673
-0.0170211
-0.0140254
-0.0113023
-0.0088686
-0.00673607
-0.00491057
-0.00339212
-0.0021748
-0.00124632
-0.000587826
-0.000181689
-2.00332e-05
-7.64882e-05
-0.000517688
-0.00147977
-0.00287027
-0.00463692
-0.00674861
-0.00917302
-0.0118777
-0.0148315
-0.0180042
-0.0213666
-0.0248905
-0.0285482
-0.0323132
-0.0361594
-0.0400616
-0.0439952
-0.0479363
-0.0518612
-0.0557469
-0.0595705
-0.0633095
-0.0669418
-0.0704454
-0.0737985
-0.0769798
-0.0799681
-0.0827431
-0.0852845
-0.0875732
-0.0895908
-0.0913198
-0.0927441
-0.0938492
-0.0946219
-0.0950513
-0.0951284
-0.0948467
-0.0942021
-0.0931933
-0.0918223
-0.0900938
-0.0880162
-0.0856011
-0.0828635
-0.0798223
-0.0764994
-0.0729206
-0.0691146
-0.0651134
-0.0609517
-0.0566667
-0.0522976
-0.047885
-0.0434708
-0.0390969
-0.0348052
-0.0306363
-0.0266294
-0.0228211
-0.0192448
-0.0159303
-0.0129026
-0.010182
-0.00778324
-0.00571513
-0.00398059
-0.00257645
-0.00149304
-0.000713831
-0.000225142
-2.62479e-05
-8.55213e-05
-0.000575411
-0.00163951
-0.00317171
-0.00511102
-0.00742063
-0.0100631
-0.0130015
-0.0162009
-0.0196282
-0.0232516
-0.0270407
-0.0309663
-0.0350002
-0.0391154
-0.0432857
-0.0474854
-0.0516897
-0.0558743
-0.0600153
-0.0640892
-0.0680727
-0.0719429
-0.0756771
-0.0792527
-0.0826476
-0.0858399
-0.0888083
-0.0915319
-0.0939906
-0.0961651
-0.0980371
-0.0995896
-0.100807
-0.101675
-0.102182
-0.102319
-0.102076
-0.10145
-0.100439
-0.0990427
-0.0972658
-0.0951159
-0.092604
-0.089745
-0.0865573
-0.0830631
-0.0792883
-0.0752624
-0.0710184
-0.0665921
-0.0620223
-0.0573503
-0.052619
-0.0478728
-0.0431565
-0.0385153
-0.0339931
-0.0296326
-0.0254741
-0.0215548
-0.0179081
-0.0145628
-0.0115427
-0.0088661
-0.00654505
-0.00458565
-0.00298774
-0.00174438
-0.000841327
-0.000268648
-3.23197e-05
-9.41881e-05
-0.000631004
-0.00179368
-0.00346311
-0.00556996
-0.00807198
-0.0109267
-0.0140929
-0.0175318
-0.0212074
-0.0250852
-0.029133
-0.0333197
-0.0376159
-0.0419934
-0.0464249
-0.050884
-0.0553452
-0.0597835
-0.0641744
-0.0684936
-0.0727174
-0.0768222
-0.0807847
-0.0845817
-0.0881904
-0.0915883
-0.0947532
-0.0976635
-0.100298
-0.102637
-0.104662
-0.106353
-0.107695
-0.108673
-0.109273
-0.109484
-0.109299
-0.108709
-0.107713
-0.10631
-0.104503
-0.102299
-0.0997075
-0.096743
-0.0934237
-0.0897713
-0.0858119
-0.0815754
-0.0770954
-0.072409
-0.0675565
-0.062581
-0.0575278
-0.0524439
-0.0473775
-0.0423768
-0.0374896
-0.0327624
-0.0282397
-0.0239626
-0.0199687
-0.0162911
-0.0129575
-0.00999005
-0.00740453
-0.00521048
-0.00341097
-0.00200186
-0.000971194
-0.000312578
-3.83267e-05
-0.000102496
-0.000684426
-0.00194203
-0.00374383
-0.00601258
-0.00870079
-0.0117612
-0.0151482
-0.0188197
-0.0227364
-0.0268616
-0.0311608
-0.0356015
-0.0401528
-0.0447855
-0.0494714
-0.0541834
-0.0588953
-0.0635816
-0.0682171
-0.0727773
-0.0772379
-0.0815748
-0.0857642
-0.0897824
-0.0936061
-0.097212
-0.100578
-0.10368
-0.106499
-0.109011
-0.111198
-0.113041
-0.114522
-0.115624
-0.116333
-0.116637
-0.116526
-0.115993
-0.115031
-0.113641
-0.111824
-0.109584
-0.106931
-0.103879
-0.100443
-0.0966467
-0.0925147
-0.0880772
-0.0833685
-0.0784265
-0.073293
-0.0680129
-0.0626341
-0.0572063
-0.0517808
-0.0464095
-0.0411443
-0.0360359
-0.0311331
-0.0264819
-0.0221242
-0.0180979
-0.0144351
-0.0111623
-0.00829931
-0.00585947
-0.00384929
-0.00226758
-0.00110462
-0.000357404
-4.43592e-05
-0.000110447
-0.000735618
-0.00208432
-0.0040133
-0.0064378
-0.00930535
-0.0125641
-0.0161644
-0.0200606
-0.0242105
-0.0285751
-0.0331178
-0.0378047
-0.0426036
-0.047484
-0.0524173
-0.0573754
-0.0623318
-0.0672604
-0.0721357
-0.0769327
-0.0816269
-0.0861938
-0.0906091
-0.0948489
-0.0988893
-0.102707
-0.106278
-0.109579
-0.112589
-0.115285
-0.117647
-0.119654
-0.121287
-0.12253
-0.123366
-0.123782
-0.123765
-0.123307
-0.122402
-0.121046
-0.119238
-0.116984
-0.114289
-0.111167
-0.107633
-0.103707
-0.0994155
-0.0947877
-0.0898582
-0.0846658
-0.0792536
-0.0736683
-0.06796
-0.0621815
-0.0563876
-0.0506339
-0.0449767
-0.0394713
-0.0341714
-0.0291279
-0.0243883
-0.0199951
-0.0159858
-0.0123913
-0.00923625
-0.00653791
-0.00430655
-0.00254406
-0.00124299
-0.00040367
-5.05149e-05
-0.000118034
-0.000784499
-0.00222025
-0.00427088
-0.00684451
-0.00988399
-0.0133331
-0.0171383
-0.0212506
-0.025625
-0.0302203
-0.034998
-0.0399226
-0.0449608
-0.0500811
-0.0552541
-0.0604514
-0.0656458
-0.0708108
-0.0759208
-0.0809506
-0.0858752
-0.0906701
-0.0953106
-0.0997725
-0.104032
-0.108064
-0.111846
-0.115353
-0.118563
-0.121453
-0.124001
-0.126186
-0.127988
-0.129388
-0.13037
-0.130916
-0.131015
-0.130655
-0.129827
-0.128527
-0.126752
-0.124504
-0.121789
-0.118617
-0.115003
-0.110965
-0.106528
-0.101722
-0.0965815
-0.0911451
-0.0854574
-0.0795668
-0.073526
-0.0673905
-0.0612186
-0.0550703
-0.0490064
-0.0430873
-0.037372
-0.0319172
-0.0267757
-0.0219959
-0.0176208
-0.0136867
-0.0102231
-0.00725175
-0.00478704
-0.00283411
-0.00138786
-0.000451965
-5.68959e-05
-0.000125245
-0.000830967
-0.00234951
-0.00451592
-0.00723162
-0.010435
-0.0140659
-0.0180669
-0.0223859
-0.0269754
-0.0317919
-0.0367953
-0.0419484
-0.0472169
-0.0525687
-0.0579733
-0.0634021
-0.0688275
-0.0742228
-0.0795622
-0.0848202
-0.0899719
-0.0949925
-0.0998573
-0.104542
-0.109022
-0.113272
-0.11727
-0.12099
-0.124409
-0.127503
-0.13025
-0.132627
-0.134614
-0.136189
-0.137334
-0.138032
-0.138268
-0.138027
-0.137301
-0.13608
-0.134362
-0.132145
-0.129432
-0.126232
-0.122558
-0.118427
-0.113862
-0.108891
-0.103551
-0.0978783
-0.09192
-0.0857257
-0.0793501
-0.072852
-0.0662933
-0.0597384
-0.0532531
-0.046903
-0.0407533
-0.0348664
-0.0293018
-0.0241141
-0.0193523
-0.0150586
-0.011268
-0.0080074
-0.00529541
-0.00314077
-0.00154088
-0.000502908
-6.36074e-05
-0.000132062
-0.000874898
-0.00247173
-0.00474769
-0.00759793
-0.0109567
-0.01476
-0.018947
-0.0234627
-0.0282571
-0.0332846
-0.0385033
-0.043875
-0.0493643
-0.0549381
-0.0605657
-0.0662178
-0.0718666
-0.0774854
-0.0830481
-0.0885294
-0.0939043
-0.0991478
-0.104236
-0.109143
-0.113845
-0.118317
-0.122535
-0.126475
-0.130111
-0.13342
-0.136377
-0.138961
-0.141147
-0.142915
-0.144244
-0.145114
-0.145508
-0.145411
-0.14481
-0.143694
-0.142057
-0.139895
-0.13721
-0.134006
-0.130295
-0.126091
-0.121417
-0.116299
-0.110772
-0.104875
-0.0986528
-0.0921581
-0.0854474
-0.0785826
-0.0716293
-0.0646565
-0.0577351
-0.0509368
-0.0443329
-0.0379927
-0.0319826
-0.026364
-0.0211927
-0.0165177
-0.0123798
-0.0088116
-0.00583651
-0.00346719
-0.00170377
-0.000557143
-7.07557e-05
-0.000138463
-0.000916149
-0.00258652
-0.00496543
-0.0079422
-0.0114473
-0.0154131
-0.0197756
-0.0244771
-0.0294653
-0.0346927
-0.0401159
-0.0456954
-0.0513949
-0.0571807
-0.0630215
-0.0688878
-0.0747517
-0.0805863
-0.0863657
-0.0920644
-0.0976577
-0.103121
-0.108429
-0.113558
-0.118483
-0.123179
-0.127622
-0.131786
-0.135648
-0.139181
-0.142361
-0.145164
-0.147566
-0.149544
-0.151075
-0.152138
-0.152714
-0.152784
-0.152333
-0.151348
-0.149819
-0.147739
-0.145108
-0.141927
-0.138203
-0.133951
-0.129189
-0.123944
-0.118247
-0.112137
-0.105662
-0.0988728
-0.0918292
-0.0845955
-0.0772415
-0.0698406
-0.0624694
-0.0552058
-0.048128
-0.0413127
-0.0348335
-0.0287597
-0.0231548
-0.0180747
-0.0135674
-0.00967126
-0.00641536
-0.00381664
-0.00187829
-0.000615324
-7.84488e-05
-0.000144424
-0.000954562
-0.00269343
-0.00516832
-0.00826313
-0.0119049
-0.0160226
-0.0205495
-0.0254252
-0.0305953
-0.0360107
-0.0416265
-0.0474021
-0.0533004
-0.0592872
-0.0653307
-0.0714013
-0.0774708
-0.0835126
-0.0895008
-0.0954102
-0.101216
-0.106894
-0.11242
-0.117768
-0.122916
-0.127837
-0.132507
-0.136902
-0.140994
-0.14476
-0.148173
-0.151209
-0.153841
-0.156045
-0.157798
-0.159074
-0.159854
-0.160115
-0.15984
-0.159012
-0.157619
-0.15565
-0.153101
-0.149971
-0.146263
-0.141989
-0.137165
-0.131814
-0.125967
-0.119663
-0.112947
-0.105873
-0.0985017
-0.0908999
-0.0831413
-0.0753042
-0.0674709
-0.0597259
-0.0521547
-0.044842
-0.0378696
-0.0313154
-0.025251
-0.0197406
-0.0148396
-0.0105934
-0.00703703
-0.00419242
-0.00206624
-0.000678115
-8.67948e-05
-0.000149915
-0.00098997
-0.00279202
-0.00535549
-0.0085594
-0.0123276
-0.016586
-0.0212653
-0.0263029
-0.0316424
-0.0372329
-0.0430286
-0.0489878
-0.0550725
-0.0612482
-0.0674827
-0.0737464
-0.0800111
-0.0862503
-0.0924382
-0.0985501
-0.104562
-0.110448
-0.116186
-0.121751
-0.127119
-0.132265
-0.137165
-0.141792
-0.146121
-0.150126
-0.153782
-0.157061
-0.159936
-0.162383
-0.164374
-0.165884
-0.166889
-0.167366
-0.167292
-0.166649
-0.16542
-0.163593
-0.161156
-0.158107
-0.154446
-0.150179
-0.145321
-0.139891
-0.133919
-0.127441
-0.120502
-0.113156
-0.105466
-0.0974997
-0.0893358
-0.081057
-0.0727513
-0.0645103
-0.0564272
-0.0485952
-0.0411054
-0.0340445
-0.0274937
-0.0215261
-0.0162054
-0.011585
-0.00770665
-0.00459788
-0.00226943
-0.000746184
-9.59026e-05
-0.000154909
-0.0010222
-0.00288182
-0.0055261
-0.00882964
-0.0127134
-0.0171009
-0.02192
-0.0271063
-0.0326016
-0.0383538
-0.0443156
-0.0504447
-0.0567025
-0.0630539
-0.0694668
-0.0759112
-0.0823593
-0.0887847
-0.095162
-0.101467
-0.107675
-0.113763
-0.119707
-0.125483
-0.131068
-0.136436
-0.141563
-0.146424
-0.150993
-0.155243
-0.159148
-0.162679
-0.16581
-0.168513
-0.170759
-0.172522
-0.173774
-0.174489
-0.174642
-0.174212
-0.173177
-0.171521
-0.169229
-0.166294
-0.162712
-0.158486
-0.153625
-0.148147
-0.142077
-0.135451
-0.128311
-0.120711
-0.112715
-0.104393
-0.0958273
-0.0871044
-0.0783189
-0.0695694
-0.0609574
-0.0525852
-0.0445536
-0.0369596
-0.0298945
-0.0234414
-0.0176736
-0.012653
-0.00842926
-0.00503633
-0.00248965
-0.000820203
-0.000105882
-0.000159375
-0.00105107
-0.00296237
-0.00567929
-0.00907254
-0.0130606
-0.0175646
-0.0225103
-0.0278315
-0.0334684
-0.0393677
-0.0454811
-0.0517655
-0.0581819
-0.0646948
-0.0712719
-0.0778834
-0.0845017
-0.0911006
-0.0976551
-0.104141
-0.110536
-0.116815
-0.122957
-0.128937
-0.134732
-0.140318
-0.145671
-0.150764
-0.155573
-0.16007
-0.164229
-0.16802
-0.171416
-0.174386
-0.176902
-0.178934
-0.180453
-0.181429
-0.181834
-0.181644
-0.180832
-0.179379
-0.177266
-0.17448
-0.171013
-0.166863
-0.162035
-0.156543
-0.150409
-0.143664
-0.13635
-0.12852
-0.120236
-0.111572
-0.102612
-0.0934468
-0.0841776
-0.07491
-0.0657543
-0.0568224
-0.0482257
-0.0400721
-0.0324643
-0.0254965
-0.0192524
-0.0138041
-0.00920987
-0.00551108
-0.00272873
-0.000900846
-0.000116844
-0.000163284
-0.00107643
-0.00303322
-0.00581424
-0.00928683
-0.0133673
-0.0179748
-0.0230333
-0.0284747
-0.0342383
-0.0402692
-0.0465187
-0.0529428
-0.0595021
-0.066161
-0.072887
-0.0796506
-0.0864243
-0.0931824
-0.0999004
-0.106555
-0.113123
-0.119583
-0.125911
-0.132085
-0.138082
-0.143879
-0.14945
-0.154773
-0.159819
-0.164564
-0.168978
-0.173033
-0.1767
-0.179947
-0.182745
-0.185061
-0.186864
-0.188121
-0.188803
-0.188879
-0.18832
-0.187102
-0.185202
-0.182602
-0.179288
-0.175253
-0.170498
-0.16503
-0.158869
-0.152041
-0.144586
-0.136554
-0.128007
-0.11902
-0.109678
-0.100078
-0.0903261
-0.0805348
-0.0708237
-0.0613148
-0.0521308
-0.0433919
-0.0352129
-0.0277003
-0.02095
-0.0150448
-0.0100534
-0.00602538
-0.00298845
-0.000988783
-0.000128899
-0.000166608
-0.0010981
-0.00309396
-0.00593019
-0.00947135
-0.013632
-0.0183293
-0.023486
-0.0290325
-0.0349068
-0.0410534
-0.0474224
-0.0539696
-0.060655
-0.0674431
-0.0743014
-0.0812004
-0.0881132
-0.0950143
-0.10188
-0.108688
-0.115415
-0.12204
-0.128542
-0.134897
-0.141085
-0.147082
-0.152865
-0.158408
-0.163687
-0.168675
-0.173343
-0.177663
-0.181604
-0.185135
-0.188223
-0.190836
-0.192938
-0.194496
-0.195475
-0.195843
-0.195566
-0.194615
-0.192963
-0.190586
-0.187464
-0.183586
-0.178946
-0.173547
-0.167401
-0.160532
-0.152974
-0.144775
-0.135996
-0.126711
-0.117008
-0.106986
-0.0967572
-0.0864413
-0.0761668
-0.0660668
-0.0562758
-0.0469271
-0.0381488
-0.0300613
-0.0227737
-0.0163814
-0.0109644
-0.00658241
-0.00327057
-0.00108469
-0.000142162
-0.000169324
-0.00111596
-0.00314424
-0.0060265
-0.00962507
-0.013853
-0.0186263
-0.0238661
-0.0295018
-0.0354704
-0.0417154
-0.0481866
-0.0548391
-0.0616329
-0.0685321
-0.0755045
-0.082521
-0.0895547
-0.096581
-0.103577
-0.11052
-0.117389
-0.124164
-0.130822
-0.137345
-0.143709
-0.149893
-0.155874
-0.161628
-0.16713
-0.172354
-0.177271
-0.181853
-0.186068
-0.189885
-0.193269
-0.196186
-0.198599
-0.200473
-0.20177
-0.202453
-0.202485
-0.201833
-0.200463
-0.198347
-0.19546
-0.191784
-0.187305
-0.182021
-0.175938
-0.169074
-0.161458
-0.153135
-0.144162
-0.134612
-0.124574
-0.11415
-0.103457
-0.0926211
-0.0817806
-0.0710793
-0.0606645
-0.0506833
-0.0412789
-0.0325865
-0.0247302
-0.0178195
-0.0119475
-0.00718524
-0.00357684
-0.00118923
-0.000156747
-0.000171411
-0.00112989
-0.00318376
-0.00610264
-0.00974718
-0.0140294
-0.0188641
-0.0241715
-0.0298799
-0.0359255
-0.0422513
-0.0488064
-0.0555456
-0.0624287
-0.0694197
-0.0764868
-0.0836009
-0.0907358
-0.0978674
-0.104973
-0.112032
-0.119024
-0.125928
-0.132726
-0.139396
-0.145919
-0.152273
-0.158437
-0.164388
-0.1701
-0.175549
-0.180705
-0.185542
-0.190026
-0.194127
-0.197808
-0.201034
-0.203768
-0.20597
-0.2076
-0.208619
-0.208986
-0.208662
-0.207609
-0.205793
-0.203183
-0.199753
-0.195485
-0.190367
-0.184399
-0.177593
-0.169971
-0.161572
-0.152451
-0.142677
-0.13234
-0.121542
-0.110404
-0.0990597
-0.0876563
-0.0763485
-0.0652969
-0.0546638
-0.0446081
-0.0352818
-0.0268253
-0.0193644
-0.013007
-0.00783684
-0.00390897
-0.00130307
-0.000172772
-0.000172855
-0.00113982
-0.00321233
-0.00615822
-0.00983709
-0.0141602
-0.0190416
-0.0244005
-0.0301648
-0.0362697
-0.0426578
-0.0492777
-0.056084
-0.0630362
-0.0700986
-0.0772392
-0.0844297
-0.0916442
-0.0988594
-0.106053
-0.113206
-0.120298
-0.12731
-0.134225
-0.141022
-0.147682
-0.154187
-0.160514
-0.166642
-0.172548
-0.178205
-0.183588
-0.188667
-0.193412
-0.19779
-0.201765
-0.205301
-0.208358
-0.210896
-0.212873
-0.214245
-0.214969
-0.215001
-0.214297
-0.212819
-0.210528
-0.207393
-0.203386
-0.198489
-0.192693
-0.186002
-0.178432
-0.170014
-0.160798
-0.150851
-0.140257
-0.129121
-0.117567
-0.105735
-0.0937788
-0.0818655
-0.0701695
-0.0588685
-0.0481391
-0.0381513
-0.029064
-0.0210208
-0.0141465
-0.00854003
-0.00426859
-0.00142686
-0.000190355
-0.000173647
-0.0011457
-0.00322983
-0.00619308
-0.00989453
-0.014245
-0.0191581
-0.0245524
-0.0303551
-0.0365012
-0.0429325
-0.0495974
-0.0564502
-0.0634504
-0.0705623
-0.0777543
-0.0849983
-0.092269
-0.0995439
-0.106802
-0.114024
-0.121192
-0.128287
-0.135293
-0.142192
-0.148966
-0.155597
-0.162064
-0.168347
-0.174424
-0.180271
-0.185861
-0.191167
-0.196158
-0.200801
-0.205062
-0.208903
-0.212283
-0.215161
-0.217492
-0.219231
-0.22033
-0.220742
-0.220419
-0.219314
-0.217385
-0.214591
-0.210898
-0.206278
-0.200716
-0.194203
-0.186749
-0.178377
-0.169128
-0.159065
-0.148268
-0.136841
-0.124909
-0.112617
-0.100126
-0.087616
-0.0752738
-0.0632941
-0.0518721
-0.0411976
-0.0314499
-0.0227926
-0.0153698
-0.00929742
-0.00465731
-0.00156127
-0.00020962
-0.000173785
-0.00114754
-0.00323632
-0.00620728
-0.00991955
-0.0142839
-0.0192136
-0.0246269
-0.0304506
-0.0366192
-0.0430741
-0.0497636
-0.0566415
-0.0636676
-0.0708061
-0.0780258
-0.0852988
-0.0926008
-0.0999096
-0.107205
-0.11447
-0.121686
-0.128837
-0.135907
-0.14288
-0.149739
-0.156468
-0.163048
-0.16946
-0.175683
-0.181694
-0.187468
-0.192979
-0.198197
-0.203089
-0.207622
-0.211757
-0.215454
-0.21867
-0.221359
-0.223473
-0.224961
-0.225773
-0.225857
-0.22516
-0.223632
-0.221227
-0.217901
-0.213618
-0.208352
-0.202086
-0.194818
-0.186562
-0.177351
-0.167239
-0.156302
-0.144641
-0.132379
-0.119665
-0.106669
-0.0935788
-0.0805961
-0.067933
-0.0558041
-0.0444209
-0.0339851
-0.0246828
-0.0166796
-0.0101114
-0.00507661
-0.00170692
-0.000230689
-0.00017328
-0.0011454
-0.00323195
-0.00620114
-0.00991266
-0.0142775
-0.0192088
-0.0246247
-0.0304517
-0.036624
-0.0430827
-0.0497757
-0.0566569
-0.0636858
-0.0708269
-0.0780493
-0.0853256
-0.0926319
-0.0999471
-0.107252
-0.11453
-0.121764
-0.12894
-0.136044
-0.143059
-0.149973
-0.156768
-0.16343
-0.169939
-0.176277
-0.182423
-0.188354
-0.194043
-0.199463
-0.204582
-0.209368
-0.213781
-0.217783
-0.221329
-0.224373
-0.226865
-0.228752
-0.229981
-0.230493
-0.230234
-0.229146
-0.227174
-0.224268
-0.220381
-0.215477
-0.209529
-0.202522
-0.194461
-0.185366
-0.175282
-0.164278
-0.152449
-0.139918
-0.126833
-0.11337
-0.099726
-0.0861173
-0.072773
-0.0599287
-0.0478189
-0.0366701
-0.0266933
-0.0180786
-0.0109841
-0.00552791
-0.00186444
-0.00025369
-0.00017215
-0.00113942
-0.00321709
-0.00617529
-0.00987479
-0.014227
-0.0191452
-0.0245476
-0.0303604
-0.0365175
-0.0429598
-0.0496349
-0.0564967
-0.0635047
-0.0706236
-0.0778225
-0.0850748
-0.0923571
-0.0996493
-0.106933
-0.114193
-0.121413
-0.128582
-0.135684
-0.142708
-0.149641
-0.156468
-0.163176
-0.169748
-0.176167
-0.182414
-0.188467
-0.194303
-0.199895
-0.205214
-0.210227
-0.214897
-0.219185
-0.223048
-0.226438
-0.229304
-0.231594
-0.233248
-0.234208
-0.234411
-0.233796
-0.2323
-0.229864
-0.226433
-0.221958
-0.216401
-0.209735
-0.201951
-0.193058
-0.183089
-0.172102
-0.160185
-0.147455
-0.134061
-0.120181
-0.106022
-0.0918113
-0.0777969
-0.0642356
-0.0513869
-0.0395037
-0.028825
-0.0195683
-0.0119173
-0.00601249
-0.00203441
-0.000278752
-0.000170425
-0.00112978
-0.00319226
-0.00613073
-0.00980744
-0.0141344
-0.0190253
-0.0243983
-0.0301796
-0.0363027
-0.0427085
-0.0493442
-0.0561637
-0.0631263
-0.070197
-0.0773454
-0.0845452
-0.0917738
-0.0990117
-0.106242
-0.11345
-0.120623
-0.127747
-0.134813
-0.141808
-0.148722
-0.155542
-0.162257
-0.168852
-0.175313
-0.181623
-0.187762
-0.193708
-0.199437
-0.204922
-0.210131
-0.21503
-0.21958
-0.223739
-0.22746
-0.230692
-0.233379
-0.235463
-0.236881
-0.237567
-0.237453
-0.236471
-0.234553
-0.231634
-0.227655
-0.222564
-0.216322
-0.208903
-0.200305
-0.190544
-0.179668
-0.167753
-0.154908
-0.14128
-0.127047
-0.112422
-0.0976456
-0.0829819
-0.0687104
-0.0551164
-0.0424823
-0.0310773
-0.0211498
-0.0129124
-0.00653148
-0.00221741
-0.000306003
-0.00016815
-0.00111676
-0.00315822
-0.00606883
-0.00971268
-0.0140026
-0.0188526
-0.0241811
-0.029914
-0.0359848
-0.0423339
-0.0489086
-0.0556624
-0.0625549
-0.069551
-0.0766207
-0.0837383
-0.090882
-0.0980331
-0.105176
-0.112297
-0.119384
-0.126427
-0.133417
-0.140343
-0.147197
-0.153969
-0.160649
-0.167225
-0.173685
-0.180015
-0.186196
-0.192211
-0.198037
-0.203649
-0.209018
-0.214112
-0.218894
-0.223322
-0.227352
-0.230932
-0.234007
-0.236518
-0.238398
-0.23958
-0.23999
-0.239554
-0.238197
-0.235844
-0.232424
-0.227874
-0.222138
-0.215178
-0.206971
-0.197522
-0.186859
-0.175047
-0.162184
-0.14841
-0.133901
-0.118874
-0.10358
-0.0882991
-0.0733335
-0.058996
-0.0455999
-0.0334481
-0.0228231
-0.0139704
-0.00708583
-0.00241396
-0.000335574
-0.000165383
-0.00110072
-0.00311594
-0.00599139
-0.00959325
-0.0138352
-0.0186318
-0.0239013
-0.0295698
-0.0355704
-0.0418432
-0.0483353
-0.0550001
-0.0617972
-0.0686916
-0.0756539
-0.0826587
-0.0896851
-0.0967154
-0.103735
-0.110732
-0.117695
-0.124617
-0.131488
-0.138303
-0.145053
-0.151732
-0.158332
-0.164844
-0.171257
-0.17756
-0.183738
-0.189776
-0.195654
-0.201349
-0.206837
-0.212085
-0.217062
-0.221727
-0.226036
-0.229941
-0.233386
-0.236311
-0.238651
-0.240333
-0.241283
-0.241419
-0.240659
-0.23892
-0.236121
-0.232183
-0.227037
-0.220628
-0.212916
-0.203885
-0.193547
-0.18195
-0.169178
-0.155359
-0.140666
-0.125315
-0.109565
-0.0937127
-0.0780805
-0.06301
-0.0488478
-0.0359334
-0.0245872
-0.0150916
-0.0076763
-0.00262454
-0.000367597
-0.000162196
-0.00108214
-0.00306669
-0.0059007
-0.00945263
-0.013637
-0.0183687
-0.0235661
-0.029155
-0.0350683
-0.0412458
-0.0476341
-0.0541866
-0.0608629
-0.0676283
-0.0744536
-0.0813142
-0.0881899
-0.0950641
-0.101923
-0.108757
-0.115556
-0.122314
-0.129025
-0.135683
-0.142284
-0.148823
-0.155294
-0.161692
-0.168009
-0.174236
-0.180361
-0.186372
-0.192253
-0.197984
-0.203542
-0.208901
-0.214029
-0.218891
-0.223445
-0.227643
-0.231433
-0.234754
-0.237541
-0.239722
-0.241217
-0.241943
-0.24181
-0.240727
-0.238602
-0.235344
-0.230869
-0.225104
-0.21799
-0.20949
-0.199597
-0.188336
-0.175775
-0.162027
-0.147256
-0.131674
-0.115546
-0.0991803
-0.0829211
-0.0671387
-0.0522144
-0.0385274
-0.02644
-0.0162759
-0.00830338
-0.00284956
-0.000402202
-0.000158681
-0.00106156
-0.003012
-0.0057996
-0.00929511
-0.0134138
-0.0180707
-0.0231842
-0.0286797
-0.0344896
-0.0405533
-0.0468173
-0.0532345
-0.0597647
-0.0663734
-0.0730318
-0.0797161
-0.0864068
-0.0930886
-0.0997493
-0.10638
-0.112973
-0.119524
-0.126028
-0.132483
-0.138887
-0.145236
-0.151529
-0.157762
-0.163931
-0.170028
-0.176048
-0.181979
-0.18781
-0.193524