/*--------------------------------*- C++ -*----------------------------------*\
  =========                 |
  \\      /  F ield         | OpenFOAM: The Open Source CFD Toolbox
   \\    /   O peration     | Website:  https://openfoam.org
    \\  /    A nd           | Version:  dev
     \\/     M anipulation  |
\*---------------------------------------------------------------------------*/
FoamFile
{
    format      ascii;
    class       volScalarField;
    location    "41.4";
    object      p;
}
// * * * * * * * * * * * * * * * * * * * * * * * * * * * * * * * * * * * * * //

dimensions      [0 2 -2 0 0 0 0];

internalField   nonuniform List<scalar> 
5184
(
1.66563e-06
-9.7361e-06
-9.55958e-05
-0.000248517
-0.000447989
-0.00067673
-0.000920507
-0.00116734
-0.00140809
-0.0016356
-0.00184445
-0.00203062
-0.00219118
-0.00232401
-0.00242765
-0.0025011
-0.00254367
-0.00255494
-0.00253461
-0.00248254
-0.00239862
-0.00228285
-0.00213528
-0.00195603
-0.00174535
-0.00150361
-0.00123136
-0.000929352
-0.000598568
-0.000240284
0.000143915
0.000552103
0.000981985
0.00143089
0.00189575
0.00237313
0.0028592
0.0033498
0.00384044
0.00432639
0.00480271
0.00526431
0.00570607
0.00612291
0.00650988
0.00686225
0.00717567
0.00744621
0.00767049
0.00784578
0.00797007
0.00804214
0.00806167
0.0080292
0.00794624
0.00781524
0.0076396
0.00742362
0.00717253
0.00689238
0.00659003
0.00627311
0.00594992
0.00562942
0.00532117
0.00503526
0.0047822
0.0045726
0.00441644
0.00432216
0.00429523
0.00432252
1.53408e-05
2.89863e-06
-7.17049e-05
-0.000199507
-0.000364817
-0.000555157
-0.000759596
-0.000968525
-0.00117402
-0.00136968
-0.00155046
-0.00171246
-0.0018527
-0.00196895
-0.00205956
-0.00212335
-0.00215944
-0.00216724
-0.00214632
-0.0020964
-0.00201729
-0.00190891
-0.00177126
-0.00160446
-0.00140872
-0.00118442
-0.000932071
-0.000652416
-0.000346409
-1.52695e-05
0.000339496
0.00071607
0.0011123
0.0015257
0.00195342
0.00239228
0.00283877
0.00328905
0.00373904
0.00418441
0.00462066
0.00504318
0.00544734
0.00582854
0.00618233
0.00650449
0.00679111
0.00703871
0.00724429
0.00740549
0.00752056
0.00758853
0.0076092
0.00758319
0.00751197
0.00739788
0.00724409
0.00705463
0.00683429
0.00658864
0.00632392
0.006047
0.00576534
0.00548685
0.00521985
0.00497292
0.00475472
0.00457365
0.00443698
0.00435068
0.00432212
0.00434973
0.000102075
7.73587e-05
2.00352e-06
-0.000115574
-0.000263336
-0.000431643
-0.000611784
-0.000795922
-0.000977354
-0.00115052
-0.00131091
-0.00145494
-0.00157978
-0.00168329
-0.0017638
-0.00182007
-0.00185118
-0.00185644
-0.00183535
-0.00178755
-0.0017128
-0.00161095
-0.00148197
-0.00132592
-0.00114298
-0.000933491
-0.00069793
-0.000436981
-0.000151542
0.000157244
0.000487966
0.000838921
0.0012081
0.00159317
0.00199148
0.00240006
0.00281564
0.00323467
0.00365333
0.00406761
0.00447334
0.00486625
0.00524204
0.00559647
0.00592543
0.00622503
0.00649167
0.00672216
0.00691378
0.00706437
0.00717239
0.007237
0.00725807
0.00723626
0.00717301
0.00707055
0.0069319
0.00676083
0.00656183
0.00634006
0.00610129
0.00585182
0.00559841
0.00534818
0.0051085
0.00488682
0.00469064
0.00452701
0.00440195
0.00432072
0.00429294
0.00432359
0.00025716
0.000205752
0.000117931
-1.05667e-06
-0.000143541
-0.000301743
-0.000468534
-0.000637542
-0.000803226
-0.000960895
-0.00110668
-0.00123743
-0.00135066
-0.00144439
-0.00151709
-0.00156759
-0.00159497
-0.00159856
-0.00157781
-0.00153235
-0.00146187
-0.00136621
-0.00124527
-0.00109905
-0.0009277
-0.000731476
-0.000510804
-0.000266288
1.25829e-06
0.000290788
0.000600999
0.000930312
0.00127686
0.00163846
0.00201264
0.00239662
0.00278731
0.00318139
0.00357526
0.00396515
0.00434711
0.00471713
0.00507114
0.00540513
0.00571523
0.00599776
0.00624932
0.0064669
0.00664796
0.00679046
0.00689297
0.00695471
0.00697562
0.00695633
0.00689825
0.00680352
0.00667501
0.00651632
0.00633168
0.00612594
0.00590448
0.00567315
0.00543815
0.00520599
0.00498331
0.00477679
0.00459306
0.00443837
0.00431818
0.00423752
0.00420649
0.00423177
0.000461976
0.000373367
0.000264751
0.000137018
-7.38123e-06
-0.000162281
-0.000321909
-0.000481261
-0.000635926
-0.000782104
-0.000916612
-0.00103684
-0.00114067
-0.00122642
-0.00129275
-0.00133862
-0.0013632
-0.00136583
-0.00134601
-0.00130332
-0.00123745
-0.00114819
-0.00103538
-0.000898978
-0.000739053
-0.000555789
-0.000349526
-0.000120774
0.000129758
0.000401137
0.000692185
0.00100146
0.00132724
0.0016675
0.00201994
0.00238195
0.00275062
0.00312282
0.00349514
0.00386399
0.00422563
0.00457622
0.00491189
0.00522879
0.00552321
0.00579161
0.00603075
0.00623773
0.0064101
0.0065459
0.00664377
0.00670295
0.00672338
0.0067057
0.00665123
0.00656205
0.0064409
0.00629119
0.00611695
0.00592275
0.00571365
0.00549509
0.00527284
0.00505284
0.00484115
0.00464379
0.00446668
0.00431544
0.00419504
0.00411024
0.00406985
0.00407971
0.000700361
0.000568322
0.000433132
0.000291059
0.000139091
-1.79987e-05
-0.000175604
-0.00032998
-0.00047779
-0.00061611
-0.000742464
-0.000854805
-0.00095146
-0.00103108
-0.00109257
-0.00113508
-0.00115788
-0.0011604
-0.00114217
-0.00110279
-0.00104193
-0.000959327
-0.000854789
-0.000728203
-0.000579552
-0.000408935
-0.000216589
-2.9158e-06
0.000231496
0.000485843
0.000759085
0.00104992
0.00135679
0.00167782
0.00201086
0.00235347
0.00270291
0.00305621
0.00341012
0.0037612
0.00410585
0.00444038
0.00476103
0.00506409
0.00534592
0.0056031
0.00583244
0.0060311
0.00619668
0.00632725
0.00642144
0.00647852
0.00649837
0.0064816
0.00642949
0.00634398
0.00622774
0.006084
0.00591662
0.00572994
0.00552873
0.00531812
0.00510347
0.0048903
0.00468416
0.00449053
0.00431475
0.00416188
0.00403647
0.00394293
0.00388774
0.00387469
0.000958523
0.000779737
0.000614168
0.000453592
0.000289634
0.000125903
-3.39785e-05
-0.000187409
-0.000332054
-0.000465825
-0.000586948
-0.000693953
-0.000785632
-0.000861002
-0.00091926
-0.000959746
-0.000981905
-0.000985262
-0.000969396
-0.000933933
-0.000878538
-0.000802915
-0.000706818
-0.00059006
-0.000452539
-0.00029425
-0.000115318
8.39805e-05
0.00030319
0.000541648
0.000798462
0.00107248
0.0013623
0.0016662
0.00198219
0.00230797
0.00264097
0.00297833
0.00331694
0.00365348
0.00398446
0.00430626
0.00461522
0.00490767
0.00518004
0.00542891
0.00565113
0.00584384
0.00600464
0.00613157
0.00622324
0.00627885
0.00629825
0.00628197
0.0062312
0.00614782
0.00603435
0.00589393
0.00573023
0.00554741
0.00535002
0.00514292
0.00493116
0.00471991
0.00451431
0.00431942
0.00414009
0.00398089
0.00384607
0.00373966
0.00366534
0.00362435
0.00122433
0.000997468
0.000799263
0.000617326
0.000438172
0.000264442
9.89258e-05
-5.68046e-05
-0.00020134
-0.000333383
-0.000451838
-0.000555804
-0.000644545
-0.000717461
-0.00077405
-0.000813883
-0.000836576
-0.000841767
-0.00082911
-0.000798261
-0.000748881
-0.000680645
-0.000593248
-0.000486428
-0.000359985
-0.000213805
-4.78847e-05
0.000137634
0.00034244
0.000566022
0.000807643
0.00106631
0.00134077
0.00162947
0.00193056
0.00224189
0.002561
0.00288516
0.00321137
0.00353638
0.00385679
0.00416901
0.00446942
0.00475436
0.00502025
0.00526366
0.00548138
0.00567052
0.0058286
0.00595359
0.00604404
0.00609904
0.00611837
0.00610246
0.00605242
0.00597001
0.00585765
0.00571836
0.00555569
0.00537363
0.00517656
0.00496913
0.00475615
0.00454251
0.00433305
0.00413249
0.0039453
0.00377566
0.00362757
0.00350477
0.003408
0.00333583
0.00148753
0.00121236
0.000980351
0.000775222
0.000578649
0.000392468
0.000218763
5.81744e-05
-8.87396e-05
-0.000221422
-0.000339422
-0.000442392
-0.000530063
-0.000602214
-0.000658651
-0.000699185
-0.000723608
-0.000731685
-0.000723145
-0.00069768
-0.000654951
-0.000594598
-0.000516258
-0.000419585
-0.000304273
-0.000170089
-1.68943e-05
0.000155316
0.000346385
0.000555962
0.000783475
0.0010281
0.00128873
0.00156397
0.00185211
0.00215115
0.00245873
0.00277224
0.00308873
0.00340505
0.0037178
0.00402343
0.00431829
0.00459871
0.00486104
0.00510178
0.00531764
0.00550564
0.00566316
0.00578808
0.00587879
0.00593429
0.00595423
0.00593892
0.00588935
0.00580718
0.00569471
0.00555486
0.00539105
0.00520717
0.00500745
0.00479639
0.00457862
0.00435884
0.00414166
0.00393157
0.00373274
0.00354905
0.00338438
0.00324226
0.0031205
0.00301517
0.00173912
0.00141616
0.00114994
0.000920547
0.000705092
0.000504726
0.000320928
0.000153493
2.1955e-06
-0.000133099
-0.000252547
-0.000356331
-0.000444631
-0.000517599
-0.000575344
-0.000617914
-0.000645279
-0.000657331
-0.000653874
-0.000634634
-0.000599271
-0.000547388
-0.000478556
-0.000392339
-0.00028832
-0.000166133
-2.54976e-05
0.000133748
0.000311613
0.000507916
0.000722253
0.000953967
0.00120212
0.00146547
0.00174246
0.00203119
0.00232944
0.00263465
0.00294397
0.00325426
0.00356214
0.00386405
0.00415629
0.00443511
0.00469679
0.00493769
0.0051544
0.00534377
0.00550305
0.00562993
0.00572265
0.00578004
0.00580159
0.00578746
0.00573849
0.00565624
0.00554289
0.00540123
0.0052346
0.00504678
0.00484193
0.00462442
0.00439878
0.00416958
0.0039413
0.00371825
0.00350444
0.00330355
0.00311943
0.00295552
0.00280686
0.00266714
0.00197118
0.00160135
0.00130104
0.0010469
0.000811679
0.000595964
0.000400698
0.000224905
6.76294e-05
-7.19033e-05
-0.000194424
-0.000300616
-0.000391086
-0.000466346
-0.000526796
-0.000572711
-0.000604237
-0.000621382
-0.000624024
-0.00061192
-0.00058472
-0.000541985
-0.000483214
-0.000407873
-0.000315424
-0.000205362
-7.72525e-05
6.92336e-05
0.000234278
0.000417878
0.000619808
0.000839589
0.00107645
0.00132931
0.00159674
0.00187697
0.00216789
0.00246702
0.00277154
0.00307834
0.00338404
0.00368502
0.00397751
0.00425765
0.00452159
0.00476555
0.00498591
0.00517934
0.00534288
0.00547401
0.00557075
0.00563173
0.00565623
0.00564423
0.00559642
0.00551419
0.0053996
0.00525535
0.00508467
0.00489127
0.00467924
0.00445291
0.00421676
0.00397528
0.00373291
0.00349388
0.00326214
0.00304125
0.00283516
0.00264736
0.00247027
0.00229534
0.00217654
0.00176105
0.00142714
0.00114816
0.00089276
0.00066098
0.000453299
0.000268024
0.000103525
-4.15771e-05
-0.00016855
-0.000278549
-0.000372586
-0.000451511
-0.000515999
-0.000566543
-0.000603448
-0.000626833
-0.000636642
-0.000632651
-0.000614494
-0.000581682
-0.000533634
-0.000469708
-0.000389237
-0.000291567
-0.000176098
-4.23249e-05
0.000110117
0.000281414
0.000471529
0.000680163
0.000906723
0.00115029
0.00140958
0.00168295
0.00196838
0.00226346
0.00256543
0.00287117
0.00317727
0.00348004
0.00377562
0.00406002
0.0043292
0.00457918
0.00480614
0.00500651
0.00517704
0.00531498
0.00541807
0.00548468
0.00551386
0.00550536
0.00545967
0.00537801
0.00526229
0.00511509
0.00493958
0.0047394
0.0045186
0.00428149
0.00403257
0.00377634
0.00351725
0.00325957
0.00300724
0.00276386
0.00253355
0.00231999
0.00211313
0.00190231
0.00234866
0.00188888
0.00152211
0.00121854
0.000942863
0.000694652
0.000473947
0.000278386
0.000105701
-4.60524e-05
-0.000178648
-0.000293687
-0.000392558
-0.00047643
-0.000546235
-0.000602665
-0.000646173
-0.000676975
-0.000695067
-0.000700237
-0.000692091
-0.000670082
-0.000633536
-0.000581696
-0.000513753
-0.000428895
-0.000326346
-0.000205415
-6.55403e-05
9.36611e-05
0.000272351
0.000470425
0.000687473
0.000922742
0.00117511
0.00144305
0.00172466
0.00201758
0.00231909
0.00262608
0.00293507
0.00324232
0.00354383
0.00383543
0.00411291
0.00437203
0.00460872
0.00481909
0.00499963
0.00514724
0.00525935
0.00533404
0.00537004
0.00536685
0.0053247
0.0052446
0.00512833
0.00497831
0.00479763
0.0045899
0.00435915
0.00410972
0.00384615
0.00357304
0.00329492
0.00301619
0.00274089
0.00247272
0.00221612
0.00197505
0.00173714
0.00148973
0.00248144
0.00197889
0.00158017
0.00125248
0.000956699
0.000691959
0.000457889
0.000251489
6.98876e-05
-8.93955e-05
-0.000228613
-0.00034978
-0.000454645
-0.00054467
-0.000621024
-0.000684582
-0.000735925
-0.000775353
-0.000802901
-0.000818356
-0.000821285
-0.000811068
-0.000786933
-0.000747992
-0.000693286
-0.000621831
-0.000532666
-0.000424899
-0.000297764
-0.000150664
1.67734e-05
0.000204649
0.000412747
0.000640498
0.000886938
0.00115069
0.00142993
0.0017224
0.00202541
0.00233582
0.00265014
0.0029645
0.00327476
0.00357659
0.00386551
0.00413704
0.00438678
0.00461051
0.00480436
0.00496485
0.00508906
0.00517467
0.00522009
0.00522448
0.00518778
0.00511077
0.00499499
0.00484275
0.00465705
0.00444144
0.00419997
0.00393706
0.00365733
0.00336552
0.00306636
0.00276441
0.00246393
0.00216884
0.00188398
0.00161372
0.00134342
0.0010585
0.00256918
0.00202543
0.00159584
0.00124468
0.000929161
0.000648003
0.000400434
0.000182841
-8.22537e-06
-0.000175754
-0.000322451
-0.000450725
-0.000562656
-0.00065998
-0.000744082
-0.000815999
-0.000876426
-0.000925731
-0.000963971
-0.000990918
-0.00100609
-0.00100878
-0.000998102
-0.000973031
-0.000932444
-0.000875174
-0.00080006
-0.000705998
-0.000592
-0.000457245
-0.000301135
-0.000123347
7.61148e-05
0.000296875
0.000538147
0.0007987
0.00107684
0.00137038
0.00167667
0.00199257
0.00231454
0.0026386
0.00296047
0.00327558
0.00357922
0.00386658
0.00413291
0.00437363
0.00458443
0.00476142
0.00490122
0.00500109
0.00505901
0.00507377
0.00504496
0.00497306
0.00485938
0.00470604
0.00451593
0.00429258
0.00404007
0.00376289
0.00346582
0.00315382
0.00283183
0.00250472
0.00217701
0.00185296
0.00153791
0.00123672
0.000932571
0.000608948
0.00260645
0.00202319
0.00156391
0.00119005
0.000855328
0.000558022
0.000296978
6.79908e-05
-0.000132945
-0.000309309
-0.000464235
-0.000600506
-0.00072051
-0.000826236
-0.000919265
-0.00100078
-0.00107157
-0.00113205
-0.00118229
-0.00122203
-0.00125072
-0.00126756
-0.00127155
-0.00126149
-0.0012361
-0.001194
-0.00113383
-0.00105426
-0.000954048
-0.000832146
-0.000687709
-0.000520176
-0.000329319
-0.000115299
0.000121292
0.000379392
0.000657439
0.000953353
0.00126453
0.00158784
0.00191968
0.00225598
0.00259228
0.00292381
0.00324554
0.00355234
0.00383908
0.00410071
0.00433248
0.00452998
0.00468934
0.00480731
0.00488138
0.00490987
0.00489197
0.00482779
0.00471836
0.0045656
0.00437224
0.00414178
0.00387832
0.0035865
0.00327128
0.00293786
0.00259151
0.00223745
0.0018806
0.00152559
0.0011784
0.000844469
0.000504795
0.000140927
0.00258811
0.00196712
0.00147942
0.00108376
0.000730468
0.000417408
0.000143037
-9.74304e-05
-0.000308536
-0.000494228
-0.000658055
-0.000803148
-0.000932187
-0.00104739
-0.00115052
-0.00124289
-0.00132535
-0.00139837
-0.00146199
-0.00151593
-0.00155955
-0.00159195
-0.00161197
-0.00161826
-0.00160934
-0.00158364
-0.00153955
-0.00147551
-0.00139002
-0.00128178
-0.00114966
-0.000992858
-0.000810887
-0.000603668
-0.000371575
-0.000115477
0.000163224
0.000462565
0.000780015
0.00111247
0.00145628
0.00180728
0.00216084
0.00251194
0.00285526
0.0031853
0.00349649
0.0037833
0.00404043
0.00426292
0.00444632
0.00458678
0.00468123
0.00472744
0.0047241
0.0046709
0.00456852
0.0044186
0.00422372
0.0039873
0.0037135
0.00340708
0.00307324
0.00271748
0.00234547
0.00196286
0.00157502
0.00118709
0.000805746
0.000437134
6.00103e-05
-0.000346051
0.00250925
0.00185239
0.00133765
0.000921176
0.000550052
0.000221726
-6.57364e-05
-0.000317682
-0.000539178
-0.000734627
-0.000907968
-0.00106267
-0.00120168
-0.00132743
-0.00144185
-0.00154634
-0.00164185
-0.00172883
-0.00180732
-0.00187698
-0.00193708
-0.00198658
-0.00202418
-0.00204836
-0.00205744
-0.0020496
-0.00202301
-0.00197582
-0.0019063
-0.00181283
-0.00169403
-0.00154878
-0.00137632
-0.00117631
-0.000948879
-0.000694663
-0.000414879
-0.00011134
0.00021352
0.000556643
0.000914356
0.0012824
0.00165599
0.00202985
0.00239836
0.00275561
0.00309555
0.00341212
0.00369943
0.00395187
0.00416434
0.0043323
0.004452
0.00452059
0.00453617
0.00449791
0.00440605
0.00426192
0.00406787
0.00382725
0.00354423
0.00322371
0.00287117
0.00249248
0.00209373
0.00168111
0.00126053
0.0008377
0.000420122
1.4714e-05
-0.000402066
-0.000852707
0.0023652
0.00167445
0.00113414
0.000697904
0.000309762
-3.32705e-05
-0.000333518
-0.000596881
-0.000828935
-0.00103452
-0.00121796
-0.00138302
-0.00153293
-0.00167031
-0.00179722
-0.00191517
-0.00202514
-0.00212759
-0.00222254
-0.00230956
-0.00238782
-0.00245616
-0.0025131
-0.00255693
-0.00258575
-0.00259751
-0.00259012
-0.00256145
-0.00250947
-0.00243225
-0.00232811
-0.00219561
-0.00203369
-0.00184169
-0.00161946
-0.00136739
-0.00108645
-0.000778282
-0.00044518
-9.01278e-05
0.000283207
0.000670497
0.0010668
0.00146661
0.00186397
0.00225254
0.00262578
0.00297704
0.00329976
0.00358762
0.00383475
0.00403585
0.0041864
0.00428278
0.0043224
0.00430381
0.00422673
0.00409207
0.00390193
0.00365949
0.00336894
0.00303535
0.00266447
0.00226257
0.00183628
0.00139235
0.000937344
0.000477632
2.16292e-05
-0.000422868
-0.000881819
-0.00137989
0.00215156
0.001429
0.000864652
0.000409795
5.51188e-06
-0.000351611
-0.000664289
-0.000938965
-0.00118171
-0.00139779
-0.00159188
-0.00176807
-0.00192981
-0.00207991
-0.00222055
-0.00235333
-0.00247925
-0.00259878
-0.00271188
-0.00281804
-0.00291631
-0.00300539
-0.00308362
-0.0031491
-0.00319968
-0.00323307
-0.00324688
-0.00323872
-0.00320621
-0.00314711
-0.00305938
-0.00294125
-0.00279131
-0.00260856
-0.00239252
-0.00214326
-0.00186152
-0.00154868
-0.00120686
-0.000838935
-0.000448526
-4.0001e-05
0.000381565
0.000810444
0.00124034
0.00166449
0.00207579
0.00246698
0.00283076
0.00316002
0.00344803
0.0036886
0.00387632
0.0040067
0.00407633
0.00408301
0.00402581
0.00390515
0.00372275
0.00348162
0.00318592
0.00284085
0.00245246
0.00202748
0.0015731
0.00109675
0.000605712
0.000107112
-0.000389612
-0.00087569
-0.00137965
-0.00192847
0.00186417
0.001112
0.000525248
5.29615e-05
-0.000366535
-0.000737088
-0.00106181
-0.00134766
-0.00160121
-0.00182812
-0.00203343
-0.00222151
-0.00239602
-0.00255996
-0.00271562
-0.00286465
-0.0030081
-0.0031464
-0.00327946
-0.00340667
-0.00352697
-0.00363888
-0.00374058
-0.00382994
-0.00390456
-0.0039619
-0.00399928
-0.00401396
-0.00400324
-0.00396452
-0.00389539
-0.0037937
-0.00365765
-0.00348585
-0.00327746
-0.00303219
-0.00275045
-0.00243334
-0.00208276
-0.0017014
-0.00129281
-0.00086133
-0.000412151
4.87952e-05
0.000514888
0.000978924
0.00143324
0.00186989
0.00228078
0.00265793
0.00299365
0.00328074
0.00351277
0.00368423
0.00379075
0.00382922
0.00379796
0.00369674
0.00352683
0.00329096
0.00299322
0.0026389
0.00223439
0.00178689
0.00130421
0.00079454
0.000265962
-0.00027354
-0.000813393
-0.00134375
-0.00189588
-0.00249928
0.00149915
0.000719688
0.000112256
-0.000376206
-0.000809942
-0.00119323
-0.00152957
-0.00182646
-0.00209091
-0.002329
-0.00254609
-0.00274682
-0.00293508
-0.00311401
-0.00328602
-0.00345281
-0.00361542
-0.00377428
-0.00392923
-0.00407954
-0.00422404
-0.00436108
-0.00448864
-0.00460435
-0.0047056
-0.00478952
-0.00485313
-0.00489336
-0.00490716
-0.00489152
-0.00484364
-0.00476093
-0.00464117
-0.00448256
-0.00428381
-0.00404423
-0.00376383
-0.00344338
-0.00308447
-0.00268958
-0.00226208
-0.0018063
-0.00132744
-0.000831624
-0.000325772
0.000182472
0.000684868
0.00117274
0.00163718
0.00206921
0.00246007
0.00280147
0.00308577
0.00330631
0.00345757
0.0035354
0.00353717
0.00346188
0.0033102
0.00308447
0.00278863
0.00242807
0.00200946
0.0015405
0.00102969
0.000486051
-8.14457e-05
-0.000663856
-0.00124935
-0.00182687
-0.00243069
-0.00309295
0.00105295
0.000248636
-0.00037768
-0.00088101
-0.00132797
-0.00172327
-0.00207081
-0.00237857
-0.00265403
-0.00290363
-0.00313307
-0.00334725
-0.00355025
-0.00374537
-0.00393509
-0.00412119
-0.00430469
-0.004486
-0.00466486
-0.00484048
-0.00501151
-0.00517615
-0.00533217
-0.00547698
-0.00560768
-0.00572112
-0.005814
-0.00588288
-0.00592432
-0.0059349
-0.00591138
-0.00585072
-0.00575021
-0.00560756
-0.005421
-0.00518939
-0.00491226
-0.00458997
-0.00422375
-0.00381575
-0.00336916
-0.00288813
-0.00237791
-0.00184471
-0.00129573
-0.000739043
-0.00018346
0.000361594
0.000886298
0.00138065
0.00183472
0.00223893
0.00258434
0.00286292
0.00306783
0.00319369
0.00323672
0.00319497
0.00306835
0.0028587
0.0025697
0.00220675
0.00177678
0.00128803
0.00074972
0.000171764
-0.00043586
-0.00106315
-0.00169687
-0.00232465
-0.00298398
-0.00370991
0.000522329
-0.000304262
-0.000947585
-0.00146442
-0.00192356
-0.00233013
-0.00268842
-0.00300689
-0.00329344
-0.00355491
-0.00379729
-0.00402572
-0.00424449
-0.00445701
-0.00466587
-0.00487287
-0.00507906
-0.00528477
-0.0054897
-0.00569293
-0.00589298
-0.00608787
-0.00627517
-0.00645204
-0.0066153
-0.00676152
-0.00688703
-0.00698803
-0.00706066
-0.00710106
-0.00710551
-0.00707047
-0.0069927
-0.00686939
-0.00669821
-0.00647747
-0.00620618
-0.0058842
-0.0055123
-0.00509226
-0.00462694
-0.0041203
-0.00357749
-0.0030048
-0.00240963
-0.00180044
-0.00118663
-0.000578361
1.35869e-05
0.000578097
0.00110397
0.00158022
0.00199641
0.00234299
0.00261157
0.0027953
0.00288906
0.00288973
0.00279626
0.0026098
0.00233365
0.00197313
0.00153541
0.00102923
0.000464582
-0.000147646
-0.000796383
-0.00147044
-0.00215504
-0.00283635
-0.00355535
-0.00435023
-9.55545e-05
-0.000941743
-0.00160012
-0.00212907
-0.0025993
-0.00301637
-0.00338495
-0.00371396
-0.00401172
-0.0042854
-0.0045413
-0.00478481
-0.00502037
-0.00525154
-0.00548098
-0.00571054
-0.00594125
-0.00617341
-0.00640664
-0.00663991
-0.0068716
-0.00709955
-0.00732112
-0.00753323
-0.00773243
-0.00791496
-0.0080768
-0.00821375
-0.00832152
-0.00839578
-0.0084323
-0.00842699
-0.00837604
-0.00827604
-0.00812405
-0.00791776
-0.00765558
-0.00733676
-0.00696155
-0.00653122
-0.00604822
-0.00551624
-0.00494022
-0.00432643
-0.00368243
-0.003017
-0.00234009
-0.00166261
-0.00099632
-0.000353509
0.000253246
0.000811425
0.00130893
0.00173444
0.00207784
0.00233055
0.00248583
0.00253914
0.00248825
0.00233342
0.00207738
0.00172525
0.00128435
0.000763912
0.000174734
-0.000471263
-0.00116181
-0.00188441
-0.00262256
-0.0033608
-0.00414393
-0.00501354
-0.000803153
-0.00166615
-0.00233756
-0.00287717
-0.0033574
-0.00378419
-0.00416259
-0.00450196
-0.00481102
-0.00509727
-0.00536728
-0.00562667
-0.00588006
-0.00613113
-0.00638262
-0.0066364
-0.00689351
-0.0071542
-0.00741803
-0.00768384
-0.00794989
-0.00821385
-0.00847285
-0.00872358
-0.00896232
-0.00918495
-0.00938711
-0.0095642
-0.00971144
-0.00982404
-0.0098972
-0.00992626
-0.00990678
-0.00983469
-0.00970636
-0.00951879
-0.0092697
-0.00895767
-0.00858226
-0.00814417
-0.00764534
-0.00708901
-0.00647987
-0.00582404
-0.00512913
-0.00440418
-0.00365963
-0.00290712
-0.00215939
-0.00142996
-0.000732857
-8.22799e-05
0.000507832
0.00102421
0.00145472
0.00178878
0.00201777
0.00213541
0.00213802
0.0020247
0.00179741
0.0014609
0.00102252
0.000491961
-0.000119182
-0.000797877
-0.00153055
-0.00230326
-0.00309761
-0.00389634
-0.00474836
-0.00569894
-0.00160248
-0.00247941
-0.00316178
-0.00371058
-0.00419967
-0.00463538
-0.00502312
-0.00537267
-0.0056931
-0.00599225
-0.00627695
-0.00655303
-0.00682527
-0.00709747
-0.00737246
-0.00765212
-0.00793751
-0.00822884
-0.00852558
-0.00882651
-0.00912971
-0.0094327
-0.00973243
-0.0100253
-0.0103073
-0.0105741
-0.0108209
-0.0110426
-0.011234
-0.0113898
-0.0115046
-0.0115732
-0.0115904
-0.0115514
-0.0114518
-0.011288
-0.0110567
-0.0107559
-0.0103842
-0.00994178
-0.00942979
-0.00885099
-0.00820963
-0.00751158
-0.00676439
-0.00597726
-0.00516102
-0.00432802
-0.00349192
-0.00266752
-0.00187038
-0.00111647
-0.000421756
0.000198326
0.000729354
0.00115845
0.00147478
0.00166999
0.00173861
0.00167828
0.00148991
0.00117767
0.000748808
0.000213353
-0.000416289
-0.00112593
-0.00190058
-0.00272473
-0.00357785
-0.00444068
-0.00536662
-0.00640487
-0.00249508
-0.00338299
-0.0040742
-0.00463069
-0.00512749
-0.00557131
-0.0059679
-0.00632742
-0.00665929
-0.00697164
-0.00727157
-0.00756509
-0.00785716
-0.00815169
-0.00845157
-0.00875875
-0.00907426
-0.00939831
-0.00973029
-0.0100689
-0.0104121
-0.0107572
-0.011101
-0.0114397
-0.0117689
-0.012084
-0.0123798
-0.0126509
-0.0128915
-0.0130957
-0.0132576
-0.0133713
-0.0134309
-0.0134307
-0.0133658
-0.0132313
-0.0130234
-0.012739
-0.0123759
-0.0119333
-0.0114118
-0.0108134
-0.0101416
-0.0094021
-0.00860212
-0.00775092
-0.00685964
-0.00594119
-0.00501018
-0.00408263
-0.00317569
-0.00230723
-0.00149536
-0.00075794
-0.000111932
0.000427162
0.000845917
0.00113355
0.00128239
0.00128825
0.00115068
0.000872962
0.000462045
-7.18042e-05
-0.00071543
-0.00145344
-0.00226935
-0.00314589
-0.0040602
-0.00499081
-0.00599592
-0.00712902
-0.00348202
-0.00437791
-0.00507581
-0.00563847
-0.00614183
-0.00659293
-0.00699785
-0.00736709
-0.00771042
-0.00803624
-0.00835186
-0.00866352
-0.00897633
-0.0092943
-0.00962041
-0.00995665
-0.0103041
-0.0106628
-0.0110323
-0.0114111
-0.0117971
-0.0121874
-0.0125786
-0.0129667
-0.0133472
-0.0137149
-0.0140644
-0.0143897
-0.0146847
-0.0149429
-0.0151577
-0.0153225
-0.0154306
-0.0154757
-0.0154517
-0.0153529
-0.0151746
-0.0149126
-0.0145638
-0.0141264
-0.0135999
-0.0129856
-0.0122864
-0.0115072
-0.0106549
-0.00973875
-0.00876991
-0.00776184
-0.00672995
-0.00569147
-0.00466515
-0.0036708
-0.00272887
-0.00185981
-0.00108341
-0.000418155
0.000119565
0.00051609
0.000761121
0.00084822
0.000775138
0.000543969
0.000161069
-0.000363235
-0.00101511
-0.00177796
-0.00263369
-0.00356313
-0.00454084
-0.00554286
-0.00663263
-0.00786816
-0.00456383
-0.00546468
-0.00616712
-0.00673443
-0.00724318
-0.00770071
-0.00811341
-0.00849211
-0.00884686
-0.00918632
-0.00951804
-0.00984843
-0.0101828
-0.0105252
-0.0108787
-0.0112454
-0.0116264
-0.0120218
-0.0124309
-0.0128523
-0.0132837
-0.0137222
-0.0141642
-0.0146054
-0.0150411
-0.0154657
-0.0158736
-0.0162582
-0.016613
-0.0169309
-0.0172046
-0.0174267
-0.01759
-0.017687
-0.0177108
-0.0176548
-0.017513
-0.0172802
-0.0169522
-0.0165261
-0.0160003
-0.0153751
-0.0146524
-0.0138364
-0.0129336
-0.0119526
-0.0109048
-0.00980388
-0.00866597
-0.00750944
-0.00635456
-0.00522317
-0.00413812
-0.00312267
-0.00219972
-0.00139105
-0.000716453
-0.000192939
0.000166068
0.000351362
0.000358439
0.000187759
-0.000155247
-0.000660435
-0.00131344
-0.00209645
-0.00298972
-0.003972
-0.005015
-0.00609201
-0.00727206
-0.008618
-0.00574053
-0.00664334
-0.00734818
-0.00791862
-0.00843159
-0.00889469
-0.00931459
-0.00970241
-0.0100685
-0.0104216
-0.0107697
-0.0111193
-0.0114758
-0.0118435
-0.0122255
-0.0126239
-0.0130399
-0.0134736
-0.0139243
-0.0143905
-0.0148699
-0.0153594
-0.0158553
-0.0163532
-0.0168479
-0.0173338
-0.0178046
-0.0182536
-0.0186736
-0.019057
-0.0193958
-0.0196819
-0.0199071
-0.0200632
-0.0201422
-0.0201364
-0.0200387
-0.0198426
-0.0195428
-0.019135
-0.0186165
-0.0179863
-0.0172454
-0.0163968
-0.0154463
-0.014402
-0.0132751
-0.0120793
-0.0108313
-0.00955052
-0.00825864
-0.00697949
-0.00573844
-0.00456166
-0.00347544
-0.00250521
-0.0016746
-0.00100445
-0.00051189
-0.000209462
-0.000104493
-0.000198668
-0.000487916
-0.000962601
-0.00160801
-0.00240522
-0.00333273
-0.00436708
-0.00547685
-0.00663225
-0.00790833
-0.00937306
-0.0070116
-0.00791342
-0.00861856
-0.00919065
-0.00970667
-0.0101745
-0.0106009
-0.0109974
-0.0113746
-0.0117414
-0.012106
-0.0124751
-0.0128542
-0.0132477
-0.0136589
-0.01409
-0.0145422
-0.0150156
-0.0155096
-0.0160226
-0.0165523
-0.0170954
-0.0176482
-0.018206
-0.0187635
-0.0193147
-0.019853
-0.0203713
-0.0208619
-0.0213165
-0.0217266
-0.0220833
-0.0223775
-0.0226
-0.0227419
-0.0227941
-0.0227485
-0.0225974
-0.0223338
-0.0219523
-0.0214487
-0.0208207
-0.0200678
-0.0191921
-0.0181982
-0.0170935
-0.0158887
-0.0145975
-0.0132367
-0.0118266
-0.0103903
-0.00895348
-0.007544
-0.00619112
-0.00492468
-0.00377409
-0.00276727
-0.00192944
-0.00128202
-0.000841539
-0.000618805
-0.000618265
-0.000837742
-0.00126853
-0.00189584
-0.00269977
-0.00365705
-0.00474185
-0.00591933
-0.00715631
-0.00853421
-0.0101264
-0.00837597
-0.00927396
-0.00997737
-0.0105497
-0.0110676
-0.0115391
-0.0119715
-0.0123762
-0.0127641
-0.0131444
-0.0135253
-0.0139139
-0.0143157
-0.0147355
-0.0151764
-0.0156409
-0.0161301
-0.0166443
-0.0171829
-0.0177444
-0.0183262
-0.0189252
-0.0195375
-0.0201582
-0.0207818
-0.0214022
-0.0220123
-0.0226046
-0.0231709
-0.0237024
-0.02419
-0.0246238
-0.024994
-0.0252904
-0.0255029
-0.0256214
-0.0256364
-0.0255387
-0.0253201
-0.0249735
-0.0244933
-0.0238754
-0.0231182
-0.0222221
-0.0211905
-0.0200299
-0.01875
-0.0173643
-0.0158896
-0.0143468
-0.0127599
-0.0111566
-0.00956719
-0.00802392
-0.00656042
-0.00521037
-0.00400639
-0.00297863
-0.00215343
-0.00155206
-0.00118953
-0.00107378
-0.00120518
-0.00157648
-0.00217322
-0.00297468
-0.00395589
-0.00508852
-0.006334
-0.00765538
-0.00914089
-0.0108696
-0.00983205
-0.0107235
-0.0114233
-0.0119944
-0.0125131
-0.0129875
-0.0134249
-0.0138372
-0.0142353
-0.0146286
-0.0150256
-0.0154334
-0.0158579
-0.0163037
-0.0167745
-0.0172725
-0.0177992
-0.018355
-0.0189391
-0.0195501
-0.0201856
-0.0208424
-0.0215163
-0.0222025
-0.0228953
-0.0235881
-0.0242739
-0.0249446
-0.0255915
-0.0262053
-0.0267761
-0.0272934
-0.0277465
-0.0281242
-0.0284151
-0.0286082
-0.0286923
-0.028657
-0.0284925
-0.0281901
-0.0277424
-0.0271437
-0.0263907
-0.0254822
-0.0244201
-0.0232094
-0.0218591
-0.0203815
-0.0187936
-0.0171162
-0.0153745
-0.0135975
-0.0118177
-0.0100707
-0.00839386
-0.00682533
-0.00540281
-0.00416194
-0.00313469
-0.00234779
-0.00182132
-0.00156754
-0.00159015
-0.00188403
-0.00243553
-0.00322345
-0.00422118
-0.00539784
-0.00671079
-0.00811896
-0.00971777
-0.0115922
-0.0113777
-0.0122602
-0.0129545
-0.0135232
-0.0140415
-0.0145178
-0.0149596
-0.0153786
-0.0157861
-0.0161918
-0.0166042
-0.0170306
-0.0174771
-0.0179486
-0.0184488
-0.0189802
-0.0195444
-0.0201417
-0.0207717
-0.021433
-0.0221231
-0.0228389
-0.0235761
-0.0243298
-0.0250942
-0.0258625
-0.0266273
-0.0273802
-0.028112
-0.028813
-0.0294726
-0.0300794
-0.0306219
-0.0310879
-0.031465
-0.0317407
-0.0319027
-0.0319388
-0.0318378
-0.0315891
-0.0311837
-0.030614
-0.0298747
-0.0289629
-0.0278787
-0.0266255
-0.0252108
-0.0236461
-0.0219475
-0.0201358
-0.0182367
-0.0162805
-0.0143019
-0.0123392
-0.0104336
-0.00862809
-0.00696569
-0.00548802
-0.00423333
-0.00323467
-0.0025181
-0.00210116
-0.0019918
-0.00218783
-0.00267707
-0.00343825
-0.00444335
-0.00565885
-0.00703779
-0.00853457
-0.0102522
-0.0122818
-0.0130104
-0.0138817
-0.014569
-0.015134
-0.0156509
-0.0161281
-0.0165732
-0.0169981
-0.0174141
-0.0178311
-0.0182578
-0.0187017
-0.0191693
-0.0196654
-0.0201941
-0.0207581
-0.0213591
-0.0219976
-0.0226733
-0.0233848