/*--------------------------------*- C++ -*----------------------------------*\
  =========                 |
  \\      /  F ield         | OpenFOAM: The Open Source CFD Toolbox
   \\    /   O peration     | Website:  https://openfoam.org
    \\  /    A nd           | Version:  dev
     \\/     M anipulation  |
\*---------------------------------------------------------------------------*/
FoamFile
{
    format      ascii;
    class       volVectorField;
    location    "41.4";
    object      U;
}
// * * * * * * * * * * * * * * * * * * * * * * * * * * * * * * * * * * * * * //

dimensions      [0 1 -1 0 0 0 0];

internalField   nonuniform List<vector> 
5184
(
(1.23235e-05 -1.2718e-05 0)
(4.51748e-05 -2.08996e-05 0)
(8.03616e-05 -1.72568e-05 0)
(9.60389e-05 -8.20216e-06 0)
(8.22198e-05 2.66635e-06 0)
(3.65241e-05 1.36182e-05 0)
(-4.05014e-05 2.38489e-05 0)
(-0.000146838 3.30541e-05 0)
(-0.00027969 4.11141e-05 0)
(-0.000436003 4.80347e-05 0)
(-0.000612653 5.38773e-05 0)
(-0.000806605 5.8727e-05 0)
(-0.00101499 6.26761e-05 0)
(-0.00123515 6.58159e-05 0)
(-0.00146461 6.82313e-05 0)
(-0.00170112 6.99976e-05 0)
(-0.00194261 7.11792e-05 0)
(-0.00218716 7.18285e-05 0)
(-0.00243298 7.19864e-05 0)
(-0.0026784 7.16824e-05 0)
(-0.0029218 7.09359e-05 0)
(-0.00316162 6.97575e-05 0)
(-0.00339634 6.815e-05 0)
(-0.00362443 6.61105e-05 0)
(-0.00384436 6.36316e-05 0)
(-0.00405459 6.07037e-05 0)
(-0.00425357 5.73161e-05 0)
(-0.00443971 5.34594e-05 0)
(-0.00461145 4.91264e-05 0)
(-0.0047672 4.43141e-05 0)
(-0.00490539 3.9025e-05 0)
(-0.00502452 3.32683e-05 0)
(-0.00512311 2.70613e-05 0)
(-0.00519979 2.043e-05 0)
(-0.0052533 1.341e-05 0)
(-0.00528251 6.04717e-06 0)
(-0.0052865 -1.60238e-06 0)
(-0.00526452 -9.47218e-06 0)
(-0.00521608 -1.74857e-05 0)
(-0.00514095 -2.55569e-05 0)
(-0.0050392 -3.35915e-05 0)
(-0.00491119 -4.14879e-05 0)
(-0.00475763 -4.91387e-05 0)
(-0.00457959 -5.6433e-05 0)
(-0.00437845 -6.32581e-05 0)
(-0.00415598 -6.9502e-05 0)
(-0.00391428 -7.50561e-05 0)
(-0.00365577 -7.98172e-05 0)
(-0.00338318 -8.36908e-05 0)
(-0.00309951 -8.6593e-05 0)
(-0.00280801 -8.84534e-05 0)
(-0.0025121 -8.92166e-05 0)
(-0.00221535 -8.88446e-05 0)
(-0.00192142 -8.73174e-05 0)
(-0.00163398 -8.46349e-05 0)
(-0.00135668 -8.08163e-05 0)
(-0.00109305 -7.5901e-05 0)
(-0.000846464 -6.99479e-05 0)
(-0.000620072 -6.30346e-05 0)
(-0.000416725 -5.52572e-05 0)
(-0.00023892 -4.67298e-05 0)
(-8.87353e-05 -3.75855e-05 0)
(3.22407e-05 -2.79793e-05 0)
(0.000122994 -1.80937e-05 0)
(0.000183194 -8.15409e-06 0)
(0.000213344 1.5448e-06 0)
(0.00021503 1.05786e-05 0)
(0.000191308 1.831e-05 0)
(0.000147209 2.37262e-05 0)
(9.08298e-05 2.51353e-05 0)
(3.66403e-05 1.98517e-05 0)
(6.22835e-06 6.24274e-06 0)
(2.08514e-05 -4.59088e-05 0)
(6.56525e-05 -6.57454e-05 0)
(9.47809e-05 -4.05888e-05 0)
(7.29007e-05 7.61606e-06 0)
(-1.88345e-05 6.56772e-05 0)
(-0.000187243 0.000126008 0)
(-0.000432909 0.000184327 0)
(-0.000752615 0.00023839 0)
(-0.00114082 0.000287054 0)
(-0.00159073 0.000329877 0)
(-0.00209501 0.000366819 0)
(-0.00264619 0.00039807 0)
(-0.00323698 0.000423941 0)
(-0.00386038 0.0004448 0)
(-0.00450977 0.000461023 0)
(-0.00517897 0.00047297 0)
(-0.00586216 0.000480963 0)
(-0.00655391 0.000485278 0)
(-0.00724907 0.000486138 0)
(-0.00794276 0.000483714 0)
(-0.00863028 0.000478129 0)
(-0.00930708 0.000469458 0)
(-0.00996867 0.00045774 0)
(-0.0106106 0.000442985 0)
(-0.0112286 0.00042518 0)
(-0.0118181 0.000404301 0)
(-0.0123747 0.000380325 0)
(-0.0128941 0.000353235 0)
(-0.0133718 0.00032303 0)
(-0.0138035 0.000289738 0)
(-0.014185 0.00025342 0)
(-0.0145121 0.000214177 0)
(-0.014781 0.00017216 0)
(-0.014988 0.000127573 0)
(-0.0151298 8.06748e-05 0)
(-0.0152037 3.17846e-05 0)
(-0.0152072 -1.87185e-05 0)
(-0.0151386 -7.03959e-05 0)
(-0.0149968 -0.000122753 0)
(-0.0147813 -0.000175241 0)
(-0.0144926 -0.000227266 0)
(-0.0141318 -0.000278197 0)
(-0.0137012 -0.00032737 0)
(-0.0132037 -0.000374108 0)
(-0.0126433 -0.000417725 0)
(-0.0120249 -0.000457546 0)
(-0.0113542 -0.000492918 0)
(-0.0106378 -0.000523227 0)
(-0.00988319 -0.000547911 0)
(-0.00909838 -0.000566476 0)
(-0.0082921 -0.000578509 0)
(-0.00747353 -0.00058369 0)
(-0.00665222 -0.000581803 0)
(-0.0058379 -0.000572747 0)
(-0.00504036 -0.000556536 0)
(-0.00426927 -0.000533309 0)
(-0.00353401 -0.000503331 0)
(-0.00284351 -0.000466991 0)
(-0.00220604 -0.000424805 0)
(-0.00162909 -0.000377412 0)
(-0.00111914 -0.000325581 0)
(-0.000681484 -0.000270219 0)
(-0.000320032 -0.000212386 0)
(-3.707e-05 -0.000153335 0)
(0.000167037 -9.45779e-05 0)
(0.000294212 -3.79916e-05 0)
(0.000349207 1.39612e-05 0)
(0.000340298 5.79749e-05 0)
(0.000279984 8.9455e-05 0)
(0.000186125 0.000101903 0)
(8.64022e-05 8.65473e-05 0)
(1.96874e-05 3.64943e-05 0)
(1.76444e-05 -8.13466e-05 0)
(4.13632e-05 -9.50943e-05 0)
(1.9658e-05 -1.91846e-05 0)
(-8.39346e-05 0.000105909 0)
(-0.00029021 0.000254671 0)
(-0.00060792 0.000410651 0)
(-0.00103833 0.000563531 0)
(-0.00157762 0.000707174 0)
(-0.00221864 0.000838128 0)
(-0.00295217 0.000954685 0)
(-0.00376796 0.00105625 0)
(-0.00465529 0.00114292 0)
(-0.00560342 0.0012152 0)
(-0.00660189 0.00127382 0)
(-0.00764066 0.00131961 0)
(-0.00871014 0.00135339 0)
(-0.00980126 0.00137592 0)
(-0.0109054 0.00138789 0)
(-0.0120144 0.00138984 0)
(-0.0131203 0.00138224 0)
(-0.0142157 0.0013654 0)
(-0.015293 0.00133955 0)
(-0.0163452 0.00130482 0)
(-0.0173649 0.00126127 0)
(-0.0183453 0.00120891 0)
(-0.0192791 0.00114774 0)
(-0.0201595 0.00107773 0)
(-0.0209793 0.000998904 0)
(-0.0217318 0.00091133 0)
(-0.0224102 0.000815145 0)
(-0.0230078 0.00071058 0)
(-0.0235185 0.00059798 0)
(-0.0239362 0.000477819 0)
(-0.0242556 0.000350713 0)
(-0.0244716 0.000217428 0)
(-0.0245801 7.88869e-05 0)
(-0.0245777 -6.38289e-05 0)
(-0.0244619 -0.000209483 0)
(-0.0242311 -0.000356693 0)
(-0.0238851 -0.000503939 0)
(-0.0234246 -0.000649586 0)
(-0.0228519 -0.0007919 0)
(-0.0221703 -0.000929078 0)
(-0.0213848 -0.00105928 0)
(-0.0205016 -0.00118064 0)
(-0.0195283 -0.00129136 0)
(-0.0184738 -0.00138967 0)
(-0.0173483 -0.00147393 0)
(-0.0161634 -0.00154264 0)
(-0.0149313 -0.00159448 0)
(-0.0136655 -0.00162835 0)
(-0.0123798 -0.00164342 0)
(-0.011089 -0.00163912 0)
(-0.00980786 -0.0016152 0)
(-0.00855122 -0.00157172 0)
(-0.00733381 -0.00150908 0)
(-0.0061699 -0.00142805 0)
(-0.00507301 -0.00132971 0)
(-0.0040557 -0.00121551 0)
(-0.00312923 -0.00108726 0)
(-0.00230334 -0.000947146 0)
(-0.00158593 -0.000797722 0)
(-0.000982743 -0.000642001 0)
(-0.000496998 -0.000483517 0)
(-0.000129007 -0.000326471 0)
(0.000124302 -0.000175951 0)
(0.000270028 -3.82781e-05 0)
(0.000320027 7.85307e-05 0)
(0.000291438 0.000164176 0)
(0.000207501 0.000205487 0)
(0.000102496 0.000186352 0)
(2.49867e-05 9.04193e-05 0)
(8.84677e-06 -9.77939e-05 0)
(-6.98778e-06 -7.32226e-05 0)
(-0.000107552 8.47315e-05 0)
(-0.000322356 0.000318365 0)
(-0.000669651 0.000590166 0)
(-0.00115785 0.000874502 0)
(-0.0017877 0.00115434 0)
(-0.00255443 0.00141888 0)
(-0.0034495 0.00166165 0)
(-0.00446188 0.00187911 0)
(-0.00557909 0.00206972 0)
(-0.0067879 0.00223321 0)
(-0.00807492 0.00237014 0)
(-0.00942688 0.00248156 0)
(-0.0108309 0.00256873 0)
(-0.0122745 0.00263299 0)
(-0.0137458 0.00267562 0)
(-0.0152333 0.00269777 0)
(-0.0167262 0.00270042 0)
(-0.0182139 0.00268435 0)
(-0.0196862 0.00265018 0)
(-0.0211331 0.00259832 0)
(-0.0225448 0.00252905 0)
(-0.0239117 0.00244251 0)
(-0.0252242 0.0023388 0)
(-0.0264729 0.00221796 0)
(-0.0276483 0.00208003 0)
(-0.0287414 0.00192514 0)
(-0.0297428 0.00175349 0)
(-0.0306438 0.00156542 0)
(-0.0314357 0.00136147 0)
(-0.0321104 0.00114236 0)
(-0.0326602 0.000909083 0)
(-0.0330781 0.000662867 0)
(-0.033358 0.00040523 0)
(-0.0334944 0.000137974 0)
(-0.0334832 -0.00013681 0)
(-0.0333214 -0.000416753 0)
(-0.0330072 -0.000699217 0)
(-0.0325406 -0.000981324 0)
(-0.0319228 -0.00125999 0)
(-0.0311569 -0.00153194 0)
(-0.0302475 -0.00179382 0)
(-0.0292013 -0.00204217 0)
(-0.0280264 -0.00227355 0)
(-0.026733 -0.00248457 0)
(-0.0253326 -0.00267198 0)
(-0.0238387 -0.00283273 0)
(-0.022266 -0.00296405 0)
(-0.0206307 -0.0030635 0)
(-0.01895 -0.00312907 0)
(-0.0172421 -0.00315922 0)
(-0.0155257 -0.00315292 0)
(-0.01382 -0.00310973 0)
(-0.0121443 -0.00302979 0)
(-0.0105174 -0.00291389 0)
(-0.00895776 -0.00276347 0)
(-0.00748278 -0.00258061 0)
(-0.00610862 -0.0023681 0)
(-0.00484977 -0.00212937 0)
(-0.00371873 -0.00186858 0)
(-0.00272561 -0.00159063 0)
(-0.00187775 -0.00130124 0)
(-0.00117926 -0.00100708 0)
(-0.000630608 -0.000715965 0)
(-0.000228097 -0.000437181 0)
(3.676e-05 -0.00018187 0)
(0.000177867 3.63521e-05 0)
(0.000214957 0.000200765 0)
(0.000174206 0.000290973 0)
(9.30769e-05 0.000282676 0)
(2.4038e-05 0.000147334 0)
(-2.12043e-06 -8.4465e-05 0)
(-6.72851e-05 2.08238e-05 0)
(-0.000264124 0.000295427 0)
(-0.000609839 0.000668091 0)
(-0.00111694 0.00109099 0)
(-0.00179163 0.00153021 0)
(-0.00263293 0.00196228 0)
(-0.00363445 0.00237174 0)
(-0.00478608 0.00274886 0)
(-0.0060751 0.00308799 0)
(-0.00748714 0.00338636 0)
(-0.00900695 0.00364315 0)
(-0.0106189 0.00385882 0)
(-0.0123075 0.00403462 0)
(-0.0140575 0.0041722 0)
(-0.0158539 0.00427338 0)
(-0.0176824 0.00433996 0)
(-0.0195292 0.00437358 0)
(-0.0213809 0.00437567 0)
(-0.0232245 0.0043474 0)
(-0.0250475 0.00428968 0)
(-0.0268375 0.00420317 0)
(-0.0285824 0.00408832 0)
(-0.0302703 0.00394544 0)
(-0.0318895 0.00377472 0)
(-0.0334282 0.0035763 0)
(-0.0348751 0.00335038 0)
(-0.0362186 0.00309723 0)
(-0.0374479 0.0028173 0)
(-0.0385521 0.00251125 0)
(-0.0395208 0.00218003 0)
(-0.0403443 0.00182491 0)
(-0.0410135 0.00144754 0)
(-0.04152 0.00104997 0)
(-0.0418566 0.000634691 0)
(-0.0420171 0.000204619 0)
(-0.0419967 -0.000236884 0)
(-0.0417918 -0.000686028 0)
(-0.0414009 -0.00113862 0)
(-0.0408239 -0.00159011 0)
(-0.0400626 -0.00203562 0)
(-0.0391209 -0.00247003 0)
(-0.0380046 -0.00288805 0)
(-0.0367218 -0.0032843 0)
(-0.0352824 -0.00365338 0)
(-0.0336985 -0.00399003 0)
(-0.0319843 -0.00428919 0)
(-0.0301558 -0.00454611 0)
(-0.0282306 -0.00475649 0)
(-0.0262281 -0.00491656 0)
(-0.0241688 -0.0050232 0)
(-0.0220745 -0.00507403 0)
(-0.0199674 -0.00506746 0)
(-0.0178705 -0.00500283 0)
(-0.0158067 -0.00488038 0)
(-0.0137986 -0.00470139 0)
(-0.011868 -0.00446812 0)
(-0.0100358 -0.0041839 0)
(-0.00832126 -0.00385311 0)
(-0.00674172 -0.00348122 0)
(-0.00531211 -0.0030748 0)
(-0.00404458 -0.00264159 0)
(-0.00294798 -0.0021906 0)
(-0.00202746 -0.00173222 0)
(-0.00128395 -0.00127853 0)
(-0.000713691 -0.000843571 0)
(-0.000307682 -0.000443838 0)
(-5.11439e-05 -9.88986e-05 0)
(7.68107e-05 0.000167904 0)
(0.000103697 0.000328834 0)
(6.75523e-05 0.000351149 0)
(1.96756e-05 0.000194213 0)
(-1.36941e-05 -3.75785e-05 0)
(-0.000132848 0.000197324 0)
(-0.000435894 0.000626946 0)
(-0.000924808 0.00117052 0)
(-0.00160423 0.00177206 0)
(-0.00247672 0.00239071 0)
(-0.00353844 0.00299738 0)
(-0.00478068 0.00357229 0)
(-0.00619136 0.00410256 0)
(-0.00775595 0.00458043 0)
(-0.00945832 0.00500183 0)
(-0.0112814 0.00536526 0)
(-0.0132077 0.00567096 0)
(-0.0152196 0.0059203 0)
(-0.0173 0.00611526 0)
(-0.0194318 0.0062581 0)
(-0.0215986 0.00635111 0)
(-0.0237845 0.00639642 0)
(-0.0259739 0.00639591 0)
(-0.0281518 0.00635112 0)
(-0.0303034 0.00626331 0)
(-0.0324143 0.0061334 0)
(-0.0344703 0.00596206 0)
(-0.0364575 0.00574977 0)
(-0.0383621 0.00549687 0)
(-0.0401704 0.0052037 0)
(-0.0418691 0.00487062 0)
(-0.0434449 0.00449816 0)
(-0.0448852 0.0040871 0)
(-0.0461773 0.00363852 0)
(-0.0473096 0.00315391 0)
(-0.0482707 0.00263524 0)
(-0.0490502 0.00208498 0)
(-0.0496389 0.00150617 0)
(-0.0500283 0.000902481 0)
(-0.0502118 0.000278153 0)
(-0.0501838 -0.000361942 0)
(-0.0499407 -0.00101235 0)
(-0.0494806 -0.00166706 0)
(-0.0488039 -0.00231957 0)
(-0.0479126 -0.00296294 0)
(-0.0468115 -0.0035899 0)
(-0.0455073 -0.00419296 0)
(-0.0440093 -0.00476448 0)
(-0.042329 -0.00529688 0)
(-0.0404803 -0.00578271 0)
(-0.0384794 -0.00621484 0)
(-0.0363445 -0.00658659 0)
(-0.0340958 -0.0068919 0)
(-0.0317553 -0.00712547 0)
(-0.0293465 -0.00728291 0)
(-0.0268941 -0.00736086 0)
(-0.0244235 -0.00735711 0)
(-0.0219609 -0.0072707 0)
(-0.0195324 -0.00710201 0)
(-0.0171639 -0.00685285 0)
(-0.0148803 -0.00652645 0)
(-0.0127054 -0.00612754 0)
(-0.0106615 -0.00566235 0)
(-0.00876829 -0.00513866 0)
(-0.00704318 -0.00456584 0)
(-0.00550023 -0.00395484 0)
(-0.00414991 -0.0033184 0)
(-0.00299858 -0.0026711 0)
(-0.00204802 -0.00202968 0)
(-0.00129495 -0.00141334 0)
(-0.000730582 -0.000844228 0)
(-0.000340187 -0.000348025 0)
(-0.000102794 4.52804e-05 0)
(9.24203e-06 0.00030074 0)
(3.25374e-05 0.000377535 0)
(1.363e-05 0.000224615 0)
(-2.51889e-05 4.40631e-05 0)
(-0.000200048 0.00046129 0)
(-0.000614205 0.00108721 0)
(-0.00125318 0.00183505 0)
(-0.00211251 0.00264291 0)
(-0.00319004 0.00346453 0)
(-0.0044782 0.00426627 0)
(-0.00596527 0.00502467 0)
(-0.00763676 0.0057241 0)
(-0.00947611 0.00635488 0)
(-0.0114653 0.00691169 0)
(-0.0135856 0.00739236 0)
(-0.0158177 0.0077969 0)
(-0.0181423 0.00812674 0)
(-0.0205405 0.00838415 0)
(-0.0229935 0.0085718 0)
(-0.025483 0.00869242 0)
(-0.0279912 0.00874862 0)
(-0.0305008 0.00874269 0)
(-0.0329948 0.0086766 0)
(-0.0354566 0.00855192 0)
(-0.0378699 0.00836985 0)
(-0.0402187 0.0081313 0)
(-0.0424872 0.00783696 0)
(-0.0446597 0.00748737 0)
(-0.046721 0.00708309 0)
(-0.048656 0.00662474 0)
(-0.0504498 0.00611318 0)
(-0.0520881 0.00554959 0)
(-0.0535569 0.00493558 0)
(-0.054843 0.00427331 0)
(-0.0559341 0.00356555 0)
(-0.0568185 0.00281576 0)
(-0.0574859 0.00202814 0)
(-0.0579273 0.00120768 0)
(-0.0581351 0.000360161 0)
(-0.0581034 -0.000507839 0)
(-0.0578283 -0.00138899 0)
(-0.057308 -0.00227524 0)
(-0.0565427 -0.0031579 0)
(-0.055535 -0.00402774 0)
(-0.0542901 -0.00487508 0)
(-0.0528156 -0.00568997 0)
(-0.0511218 -0.00646232 0)
(-0.0492215 -0.00718206 0)
(-0.0471301 -0.00783935 0)
(-0.0448654 -0.00842474 0)
(-0.0424477 -0.00892942 0)
(-0.0398992 -0.00934535 0)
(-0.0372442 -0.00966554 0)
(-0.0345089 -0.00988414 0)
(-0.0317203 -0.00999671 0)
(-0.028907 -0.0100003 0)
(-0.0260977 -0.00989363 0)
(-0.0233215 -0.00967719 0)
(-0.0206071 -0.00935333 0)
(-0.0179824 -0.00892635 0)
(-0.0154741 -0.00840249 0)
(-0.0131069 -0.00779004 0)
(-0.0109033 -0.0070993 0)
(-0.0088827 -0.00634269 0)
(-0.00706133 -0.0055347 0)
(-0.0054514 -0.0046921 0)
(-0.00406076 -0.00383398 0)
(-0.00289241 -0.00298204 0)
(-0.00194404 -0.0021609 0)
(-0.00120772 -0.00139848 0)
(-0.000669492 -0.000726651 0)
(-0.000309133 -0.000181909 0)
(-9.9797e-05 0.000193927 0)
(-7.683e-06 0.000352728 0)
(6.86806e-06 0.000235105 0)
(-3.63467e-05 0.000160456 0)
(-0.000266999 0.000814592 0)
(-0.000793932 0.00168001 0)
(-0.00158601 0.0026667 0)
(-0.00262907 0.00370892 0)
(-0.00391556 0.00475661 0)
(-0.00543351 0.00577273 0)
(-0.00716761 0.00673097 0)
(-0.00910055 0.00761353 0)
(-0.0112135 0.00840913 0)
(-0.0134864 0.00911144 0)
(-0.0158987 0.00971773 0)
(-0.0184295 0.0102278 0)
(-0.021058 0.0106432 0)
(-0.0237635 0.0109665 0)
(-0.0265257 0.0112007 0)
(-0.0293249 0.0113489 0)
(-0.0321415 0.0114143 0)
(-0.0349567 0.0113996 0)
(-0.0377517 0.011307 0)
(-0.0405084 0.0111385 0)
(-0.0432088 0.0108956 0)
(-0.0458354 0.0105794 0)
(-0.0483706 0.0101909 0)
(-0.0507972 0.00973086 0)
(-0.0530985 0.00920006 0)
(-0.0552577 0.00859947 0)
(-0.0572586 0.00793033 0)
(-0.0590855 0.00719431 0)
(-0.0607231 0.00639364 0)
(-0.0621571 0.00553125 0)
(-0.0633737 0.00461083 0)
(-0.0643606 0.00363694 0)
(-0.0651064 0.00261509 0)
(-0.0656013 0.00155176 0)
(-0.0658372 0.000454403 0)
(-0.0658078 -0.000668527 0)
(-0.0655088 -0.00180764 0)
(-0.0649381 -0.00295265 0)
(-0.0640961 -0.00409249 0)
(-0.0629856 -0.00521543 0)
(-0.0616122 -0.0063092 0)
(-0.0599841 -0.00736117 0)
(-0.0581124 -0.00835854 0)
(-0.0560108 -0.00928859 0)
(-0.053696 -0.0101388 0)
(-0.0511873 -0.0108974 0)
(-0.0485064 -0.0115529 0)
(-0.0456775 -0.0120954 0)
(-0.0427269 -0.0125159 0)
(-0.0396829 -0.012807 0)
(-0.0365749 -0.0129629 0)
(-0.033434 -0.0129799 0)
(-0.0302914 -0.0128564 0)
(-0.0271789 -0.0125928 0)
(-0.0241281 -0.012192 0)
(-0.0211694 -0.0116595 0)
(-0.0183323 -0.0110031 0)
(-0.0156441 -0.0102333 0)
(-0.0131297 -0.00936296 0)
(-0.010811 -0.00840783 0)
(-0.00870642 -0.00738617 0)
(-0.00683007 -0.00631896 0)
(-0.0051916 -0.00523007 0)
(-0.00379563 -0.00414634 0)
(-0.00264129 -0.00309794 0)
(-0.00172201 -0.00211868 0)
(-0.00102521 -0.00124652 0)
(-0.000532057 -0.000524295 0)
(-0.000217177 -2.16936e-07 0)
(-5.04396e-05 0.000271154 0)
(-7.87143e-08 0.000223977 0)
(-4.70709e-05 0.000310965 0)
(-0.000332717 0.00125714 0)
(-0.000972074 0.00240632 0)
(-0.00191768 0.00366734 0)
(-0.00314552 0.00497242 0)
(-0.00464222 0.0062692 0)
(-0.00639098 0.0075184 0)
(-0.00837249 0.0086918 0)
(-0.0105663 0.00977007 0)
(-0.0129508 0.0107408 0)
(-0.0155041 0.011597 0)
(-0.0182037 0.0123356 0)
(-0.021027 0.0129563 0)
(-0.0239516 0.0134609 0)
(-0.0269555 0.013852 0)
(-0.030017 0.0141333 0)
(-0.0331149 0.0143083 0)
(-0.0362282 0.0143805 0)
(-0.0393367 0.014353 0)
(-0.0424202 0.0142284 0)
(-0.0454593 0.0140092 0)
(-0.0484344 0.0136969 0)
(-0.0513265 0.0132931 0)
(-0.0541168 0.0127989 0)
(-0.0567867 0.0122154 0)
(-0.0593179 0.0115437 0)
(-0.0616925 0.010785 0)
(-0.0638929 0.00994112 0)
(-0.0659022 0.00901424 0)
(-0.0677039 0.00800729 0)
(-0.0692825 0.00692404 0)
(-0.0706235 0.0057692 0)
(-0.0717132 0.00454856 0)
(-0.0725397 0.00326903 0)
(-0.0730924 0.00193867 0)
(-0.0733625 0.000566786 0)
(-0.0733431 -0.000836173 0)
(-0.0730296 -0.0022586 0)
(-0.0724198 -0.00368785 0)
(-0.0715138 -0.0051103 0)
(-0.0703146 -0.00651154 0)
(-0.0688278 -0.00787652 0)
(-0.0670621 -0.00918977 0)
(-0.0650292 -0.0104356 0)
(-0.0627435 -0.0115984 0)
(-0.0602226 -0.0126629 0)
(-0.0574869 -0.0136145 0)
(-0.0545596 -0.0144393 0)
(-0.0514663 -0.0151249 0)
(-0.0482351 -0.0156603 0)
(-0.0448962 -0.0160363 0)
(-0.0414812 -0.0162458 0)
(-0.0380233 -0.016284 0)
(-0.0345564 -0.0161488 0)
(-0.0311147 -0.0158407 0)
(-0.0277322 -0.015363 0)
(-0.0244424 -0.0147223 0)
(-0.0212772 -0.013928 0)
(-0.0182666 -0.0129927 0)
(-0.0154383 -0.0119324 0)
(-0.0128166 -0.010766 0)
(-0.0104221 -0.0095157 0)
(-0.00827152 -0.00820691 0)
(-0.00637644 -0.00686838 0)
(-0.00474345 -0.00553229 0)
(-0.00337359 -0.00423442 0)
(-0.00226209 -0.00301448 0)
(-0.00139821 -0.00191649 0)
(-0.000764992 -0.000989344 0)
(-0.000338992 -0.000287219 0)
(-9.41723e-05 0.000129704 0)
(-6.9399e-06 0.000190578 0)
(-5.73494e-05 0.000494685 0)
(-0.000396718 0.00178771 0)
(-0.00114689 0.00326525 0)
(-0.00224466 0.00483659 0)
(-0.00365626 0.0064334 0)
(-0.00536237 0.00800233 0)
(-0.00734103 0.00950304 0)
(-0.00956869 0.0109063 0)
(-0.0120214 0.012192 0)
(-0.0146749 0.0133471 0)
(-0.0175049 0.0143644 0)
(-0.0204869 0.0152406 0)
(-0.0235967 0.0159758 0)
(-0.0268106 0.0165719 0)
(-0.030105 0.017032 0)
(-0.0334571 0.0173601 0)
(-0.0368441 0.0175602 0)
(-0.0402443 0.0176362 0)
(-0.0436358 0.0175916 0)
(-0.0469975 0.0174296 0)
(-0.0503085 0.0171527 0)
(-0.0535482 0.0167629 0)
(-0.0566963 0.0162619 0)
(-0.0597327 0.0156512 0)
(-0.0626376 0.0149321 0)
(-0.0653916 0.014106 0)
(-0.0679755 0.0131746 0)
(-0.0703706 0.0121401 0)
(-0.0725588 0.0110054 0)
(-0.0745227 0.00977412 0)
(-0.0762458 0.00845092 0)
(-0.0777123 0.00704164 0)
(-0.078908 0.00555333 0)
(-0.07982 0.00399441 0)
(-0.0804368 0.00237465 0)
(-0.0807492 0.00070525 0)
(-0.0807496 -0.00100121 0)
(-0.0804328 -0.00273081 0)
(-0.0797963 -0.00446838 0)
(-0.0788399 -0.00619764 0)
(-0.0775665 -0.00790135 0)
(-0.0759817 -0.00956155 0)
(-0.0740943 -0.0111597 0)
(-0.0719162 -0.0126772 0)
(-0.0694624 -0.0140952 0)
(-0.0667512 -0.0153954 0)
(-0.0638037 -0.0165604 0)
(-0.0606443 -0.0175736 0)
(-0.0573 -0.0184199 0)
(-0.0538003 -0.0190861 0)
(-0.050177 -0.019561 0)
(-0.0464638 -0.0198359 0)
(-0.042696 -0.0199049 0)
(-0.0389099 -0.0197652 0)
(-0.035142 -0.019417 0)
(-0.0314292 -0.0188644 0)
(-0.0278075 -0.0181147 0)
(-0.0243116 -0.017179 0)
(-0.0209744 -0.0160722 0)
(-0.0178263 -0.0148131 0)
(-0.0148943 -0.013424 0)
(-0.0122018 -0.0119312 0)
(-0.00976797 -0.0103646 0)
(-0.0076069 -0.00875809 0)
(-0.00572752 -0.00714911 0)
(-0.00413311 -0.00557921 0)
(-0.0028211 -0.004094 0)
(-0.00178301 -0.00274349 0)
(-0.00100407 -0.00158244 0)
(-0.000463025 -0.000670623 0)
(-0.000138063 -7.3239e-05 0)
(-1.35996e-05 0.000134827 0)
(-6.71999e-05 0.000710586 0)
(-0.000458776 0.00240438 0)
(-0.00131739 0.00425471 0)
(-0.00256474 0.00617248 0)
(-0.0041576 0.00809004 0)
(-0.00607065 0.00995425 0)
(-0.00827673 0.0117247 0)
(-0.0107478 0.0133722 0)
(-0.0134563 0.0148763 0)
(-0.0163751 0.0162243 0)
(-0.0194774 0.017409 0)
(-0.0227368 0.0184275 0)
(-0.0261274 0.0192801 0)
(-0.029624 0.0199692 0)
(-0.0332017 0.0204985 0)
(-0.0368364 0.0208725 0)
(-0.0405045 0.0210956 0)
(-0.0441829 0.0211722 0)
(-0.0478487 0.0211062 0)
(-0.0514799 0.0209012 0)
(-0.0550544 0.0205599 0)
(-0.0585506 0.0200847 0)
(-0.0619471 0.0194776 0)
(-0.0652229 0.0187403 0)
(-0.0683569 0.0178744 0)
(-0.0713288 0.0168816 0)
(-0.0741183 0.0157641 0)
(-0.0767058 0.0145246 0)
(-0.0790721 0.0131665 0)
(-0.0811988 0.0116943 0)
(-0.0830684 0.0101137 0)
(-0.0846643 0.00843159 0)
(-0.0859714 0.00665637 0)
(-0.0869758 0.004798 0)
(-0.0876655 0.00286804 0)
(-0.0880301 0.000879649 0)
(-0.0880617 -0.00115238 0)
(-0.0877544 -0.00321172 0)
(-0.0871049 -0.00528062 0)
(-0.0861129 -0.00734 0)
(-0.0847805 -0.00936969 0)
(-0.0831134 -0.0113486 0)
(-0.0811202 -0.0132552 0)
(-0.0788127 -0.0150674 0)
(-0.0762063 -0.0167634 0)
(-0.0733196 -0.0183216 0)
(-0.0701743 -0.0197213 0)
(-0.0667956 -0.0209431 0)
(-0.0632116 -0.021969 0)
(-0.059453 -0.0227834 0)
(-0.0555534 -0.0233728 0)
(-0.0515482 -0.0237268 0)
(-0.0474747 -0.0238381 0)
(-0.0433714 -0.0237029 0)
(-0.0392776 -0.0233214 0)
(-0.0352325 -0.0226976 0)
(-0.0312752 -0.02184 0)
(-0.0274431 -0.0207611 0)
(-0.0237724 -0.0194782 0)
(-0.0202961 -0.0180126 0)
(-0.0170447 -0.0163905 0)
(-0.0140443 -0.014642 0)
(-0.011317 -0.0128018 0)
(-0.00887975 -0.0109088 0)
(-0.00674417 -0.009006 0)
(-0.00491617 -0.00714074 0)
(-0.00339574 -0.00536455 0)
(-0.00217693 -0.00373339 0)
(-0.00124742 -0.00230779 0)
(-0.000588263 -0.00115288 0)
(-0.000181785 -0.000338515 0)
(-2.00312e-05 5.68918e-05 0)
(-7.66466e-05 0.000957588 0)
(-0.000518788 0.00310486 0)
(-0.00148295 0.00537182 0)
(-0.00287647 0.00767193 0)
(-0.00464697 0.00993921 0)
(-0.00676326 0.0121218 0)
(-0.00919294 0.0141802 0)
(-0.0119035 0.0160859 0)
(-0.0148636 0.0178193 0)
(-0.0180431 0.0193682 0)
(-0.0214127 0.0207261 0)
(-0.0249441 0.0218907 0)
(-0.0286095 0.022863 0)
(-0.0323823 0.0236462 0)
(-0.0362364 0.0242445 0)
(-0.0401466 0.0246629 0)
(-0.0440883 0.0249066 0)
(-0.0480373 0.0249804 0)
(-0.05197 0.0248887 0)
(-0.0558633 0.0246353 0)
(-0.0596944 0.0242234 0)
(-0.0634406 0.0236556 0)
(-0.0670798 0.0229342 0)
(-0.0705899 0.022061 0)
(-0.0739492 0.0210381 0)
(-0.0771361 0.0198675 0)
(-0.0801297 0.0185517 0)
(-0.0829093 0.017094 0)
(-0.0854549 0.0154985 0)
(-0.0877471 0.0137705 0)
(-0.0897676 0.0119165 0)
(-0.0914988 0.00994478 0)
(-0.0929247 0.00786497 0)
(-0.0940306 0.00568864 0)
(-0.0948036 0.00342913 0)
(-0.0952325 0.00110164 0)
(-0.0953084 -0.0012768 0)
(-0.0950247 -0.00368741 0)
(-0.0943774 -0.00610976 0)
(-0.0933654 -0.00852191 0)
(-0.0919904 -0.0109007 0)
(-0.0902574 -0.0132218 0)
(-0.0881747 -0.0154603 0)
(-0.0857538 -0.0175909 0)
(-0.0830101 -0.0195883 0)
(-0.0799622 -0.0214274 0)
(-0.0766322 -0.0230844 0)
(-0.073046 -0.0245364 0)
(-0.0692323 -0.0257625 0)
(-0.0652232 -0.0267443 0)
(-0.0610534 -0.0274659 0)
(-0.0567602 -0.0279147 0)
(-0.052383 -0.0280818 0)
(-0.0479623 -0.0279624 0)
(-0.0435401 -0.027556 0)
(-0.0391585 -0.0268669 0)
(-0.0348592 -0.0259041 0)
(-0.0306832 -0.0246819 0)
(-0.0266696 -0.0232193 0)
(-0.0228549 -0.0215408 0)
(-0.0192728 -0.0196759 0)
(-0.015953 -0.0176589 0)
(-0.0129206 -0.0155292 0)
(-0.0101958 -0.0133309 0)
(-0.00779349 -0.0111126 0)
(-0.00572241 -0.00892753 0)
(-0.00398545 -0.00683325 0)
(-0.00257945 -0.00489168 0)
(-0.00149468 -0.00316911 0)
(-0.000714549 -0.00173599 0)
(-0.000225339 -0.000666689 0)
(-2.62613e-05 -4.30112e-05 0)
(-8.57107e-05 0.0012346 0)
(-0.000576702 0.0038866 0)
(-0.00164321 0.00661316 0)
(-0.00317887 0.009331 0)
(-0.00512255 0.0119767 0)
(-0.00743736 0.0145006 0)
(-0.0100858 0.0168649 0)
(-0.0130307 0.0190428 0)
(-0.0162372 0.021016 0)
(-0.0196719 0.0227735 0)
(-0.0233032 0.02431 0)
(-0.0271004 0.0256242 0)
(-0.0310343 0.0267183 0)
(-0.0350768 0.0275961 0)
(-0.0392006 0.0282629 0)
(-0.0433794 0.0287244 0)
(-0.0475877 0.0289862 0)
(-0.0518005 0.0290539 0)
(-0.0559935 0.0289323 0)
(-0.0601427 0.0286256 0)
(-0.0642245 0.0281372 0)
(-0.0682156 0.0274702 0)
(-0.0720931 0.026627 0)
(-0.0758341 0.0256097 0)
(-0.0794162 0.0244207 0)
(-0.082817 0.0230622 0)
(-0.0860148 0.0215374 0)
(-0.0889881 0.0198499 0)
(-0.0917161 0.0180044 0)
(-0.0941784 0.0160071 0)
(-0.0963559 0.0138655 0)
(-0.0982302 0.0115889 0)
(-0.0997843 0.00918836 0)
(-0.101003 0.00667703 0)
(-0.101871 0.00407003 0)
(-0.102378 0.00138459 0)
(-0.102513 -0.00136001 0)
(-0.102268 -0.00414249 0)
(-0.10164 -0.00693972 0)
(-0.100625 -0.00972684 0)
(-0.0992244 -0.0124775 0)
(-0.0974428 -0.0151643 0)
(-0.0952875 -0.0177587 0)
(-0.0927697 -0.0202319 0)
(-0.0899041 -0.022555 0)
(-0.0867094 -0.0246994 0)
(-0.0832078 -0.0266375 0)
(-0.0794252 -0.028343 0)
(-0.0753913 -0.0297919 0)
(-0.0711389 -0.0309623 0)
(-0.066704 -0.0318358 0)
(-0.0621257 -0.0323973 0)
(-0.0574449 -0.0326361 0)
(-0.052705 -0.0325459 0)
(-0.0479502 -0.0321253 0)
(-0.0432256 -0.0313786 0)
(-0.0385763 -0.0303153 0)
(-0.0340463 -0.0289509 0)
(-0.0296784 -0.0273065 0)
(-0.025513 -0.0254094 0)
(-0.0215873 -0.0232924 0)
(-0.0179347 -0.0209942 0)
(-0.0145841 -0.0185589 0)
(-0.0115593 -0.0160358 0)
(-0.00887856 -0.0134793 0)
(-0.00655405 -0.0109487 0)
(-0.00459179 -0.00850756 0)
(-0.00299162 -0.00622403 0)
(-0.00174656 -0.00417024 0)
(-0.000842331 -0.00242202 0)
(-0.000268946 -0.00105841 0)
(-3.23483e-05 -0.000164748 0)
(-9.44074e-05 0.00154053 0)
(-0.000632479 0.00474689 0)
(-0.00179787 0.00797491 0)
(-0.00347119 0.0111452 0)
(-0.00558294 0.0141976 0)
(-0.00809073 0.0170854 0)
(-0.010952 0.0197735 0)
(-0.0141253 0.0222373 0)
(-0.017572 0.0244605 0)
(-0.0212557 0.0264342 0)
(-0.0251421 0.0281545 0)
(-0.0291986 0.0296218 0)
(-0.0333943 0.0308394 0)
(-0.0376997 0.0318124 0)
(-0.0420863 0.0325471 0)
(-0.046527 0.03305 0)
(-0.0509952 0.0333277 0)
(-0.0554655 0.0333862 0)
(-0.0599126 0.0332309 0)
(-0.064312 0.0328663 0)
(-0.0686396 0.0322964 0)
(-0.0728714 0.0315243 0)
(-0.0769839 0.0305527 0)
(-0.0809536 0.0293842 0)
(-0.0847573 0.0280211 0)
(-0.0883722 0.0264662 0)
(-0.0917758 0.0247229 0)
(-0.0949458 0.0227953 0)
(-0.0978605 0.0206889 0)
(-0.100499 0.0184105 0)
(-0.102841 0.0159685 0)
(-0.104868 0.0133733 0)
(-0.106561 0.0106375 0)
(-0.107904 0.00777555 0)
(-0.108882 0.00480445 0)
(-0.109482 0.0017434 0)
(-0.109692 -0.00138607 0)
(-0.109504 -0.0045602 0)
(-0.108912 -0.00775313 0)
(-0.107912 -0.0109371 0)
(-0.106505 -0.0140825 0)
(-0.104693 -0.0171586 0)
(-0.102483 -0.0201333 0)
(-0.0998854 -0.0229742 0)
(-0.0969143 -0.0256484 0)
(-0.0935877 -0.0281237 0)
(-0.0899276 -0.0303685 0)
(-0.0859602 -0.0323529 0)
(-0.0817152 -0.0340489 0)
(-0.0772264 -0.0354316 0)
(-0.0725311 -0.0364791 0)
(-0.0676695 -0.0371738 0)
(-0.0626848 -0.0375025 0)
(-0.0576224 -0.0374572 0)
(-0.0525295 -0.0370355 0)
(-0.0474541 -0.036241 0)
(-0.0424447 -0.0350836 0)
(-0.0375492 -0.0335797 0)
(-0.032814 -0.0317526 0)
(-0.0282837 -0.029632 0)
(-0.0239996 -0.0272542 0)
(-0.0199992 -0.0246621 0)
(-0.0163157 -0.0219045 0)
(-0.0129769 -0.0190363 0)
(-0.0100048 -0.0161178 0)
(-0.00741527 -0.0132142 0)
(-0.0052179 -0.0103958 0)
(-0.00341574 -0.00773676 0)
(-0.0020046 -0.00531551 0)
(-0.000972484 -0.00321348 0)
(-0.000312976 -0.00151465 0)
(-3.83702e-05 -0.000308356 0)
(-0.000102744 0.00187426 0)
(-0.000686077 0.0056829 0)
(-0.0019467 0.00945293 0)
(-0.0037528 0.0131094 0)
(-0.00602693 0.0165961 0)
(-0.00872145 0.0198701 0)
(-0.011789 0.0228995 0)
(-0.0151838 0.0256627 0)
(-0.0188636 0.0281463 0)
(-0.0227891 0.0303435 0)
(-0.0269234 0.0322528 0)
(-0.031232 0.0338765 0)
(-0.0356823 0.0352194 0)
(-0.0402433 0.0362881 0)
(-0.0448857 0.0370902 0)
(-0.0495813 0.0376333 0)
(-0.054303 0.0379247 0)
(-0.0590244 0.0379713 0)
(-0.0637199 0.0377789 0)
(-0.0683644 0.0373526 0)
(-0.0729334 0.0366966 0)
(-0.0774023 0.0358145 0)
(-0.0817472 0.0347091 0)
(-0.085944 0.0333832 0)
(-0.0899692 0.0318394 0)
(-0.0937993 0.0300808 0)
(-0.0974112 0.028111 0)
(-0.100782 0.0259347 0)
(-0.103889 0.0235579 0)
(-0.106711 0.0209881 0)
(-0.109227 0.0182346 0)
(-0.111417 0.0153089 0)
(-0.113261 0.0122247 0)
(-0.114743 0.008998 0)
(-0.115845 0.00564753 0)
(-0.116554 0.00219442 0)
(-0.116857 -0.00133763 0)
(-0.116744 -0.00492239 0)
(-0.116207 -0.0085313 0)
(-0.115242 -0.0121336 0)
(-0.113848 -0.0156966 0)
(-0.112025 -0.0191859 0)
(-0.10978 -0.022566 0)
(-0.107121 -0.0258005 0)
(-0.104061 -0.0288526 0)
(-0.100619 -0.031686 0)
(-0.0968142 -0.0342649 0)
(-0.0926738 -0.0365554 0)
(-0.0882275 -0.0385256 0)
(-0.0835097 -0.0401465 0)
(-0.0785584 -0.0413928 0)
(-0.0734154 -0.0422437 0)
(-0.0681257 -0.0426832 0)
(-0.0627373 -0.0427012 0)
(-0.0572998 -0.0422937 0)
(-0.0518649 -0.0414635 0)
(-0.0464844 -0.0402203 0)
(-0.0412102 -0.0385816 0)
(-0.0360933 -0.036572 0)
(-0.0311823 -0.0342239 0)
(-0.0265234 -0.0315769 0)
(-0.0221587 -0.0286781 0)
(-0.0181259 -0.0255813 0)
(-0.0144573 -0.0223467 0)
(-0.0111792 -0.0190409 0)
(-0.00831179 -0.0157355 0)
(-0.00586818 -0.0125072 0)
(-0.00385495 -0.00943721 0)
(-0.00227087 -0.00661015 0)
(-0.00110619 -0.00411359 0)
(-0.000357902 -0.00203691 0)
(-4.44172e-05 -0.000474102 0)
(-0.000110722 0.00223467 0)
(-0.000737433 0.00669165 0)
(-0.00208943 0.0110428 0)
(-0.00402309 0.0152182 0)
(-0.00645342 0.0191661 0)
(-0.0093278 0.0228479 0)
(-0.0125942 0.0262358 0)
(-0.0162029 0.0293118 0)
(-0.0201079 0.0320658 0)
(-0.0242672 0.0344939 0)
(-0.0286415 0.0365974 0)
(-0.0331943 0.0383806 0)
(-0.0378912 0.0398507 0)
(-0.0427003 0.0410159 0)
(-0.047591 0.0418851 0)
(-0.0525344 0.0424672 0)
(-0.0575027 0.0427707 0)
(-0.0624689 0.0428031 0)
(-0.0674071 0.0425709 0)
(-0.0722918 0.0420798 0)
(-0.0770979 0.0413343 0)
(-0.0818008 0.0403381 0)
(-0.0863758 0.0390945 0)
(-0.0907989 0.0376063 0)
(-0.0950459 0.0358764 0)
(-0.0990929 0.0339082 0)