/*--------------------------------*- C++ -*----------------------------------*\
  =========                 |
  \\      /  F ield         | OpenFOAM: The Open Source CFD Toolbox
   \\    /   O peration     | Website:  https://openfoam.org
    \\  /    A nd           | Version:  dev
     \\/     M anipulation  |
\*---------------------------------------------------------------------------*/
FoamFile
{
    format      ascii;
    class       volScalarField;
    location    "41.4";
    object      Ux;
}
// * * * * * * * * * * * * * * * * * * * * * * * * * * * * * * * * * * * * * //

dimensions      [0 1 -1 0 0 0 0];

internalField   nonuniform List<scalar> 
5184
(
1.23235e-05
4.51748e-05
8.03616e-05
9.60389e-05
8.22198e-05
3.65241e-05
-4.05014e-05
-0.000146838
-0.00027969
-0.000436003
-0.000612653
-0.000806605
-0.00101499
-0.00123515
-0.00146461
-0.00170112
-0.00194261
-0.00218716
-0.00243298
-0.0026784
-0.0029218
-0.00316162
-0.00339634
-0.00362443
-0.00384436
-0.00405459
-0.00425357
-0.00443971
-0.00461145
-0.0047672
-0.00490539
-0.00502452
-0.00512311
-0.00519979
-0.0052533
-0.00528251
-0.0052865
-0.00526452
-0.00521608
-0.00514095
-0.0050392
-0.00491119
-0.00475763
-0.00457959
-0.00437845
-0.00415598
-0.00391428
-0.00365577
-0.00338318
-0.00309951
-0.00280801
-0.0025121
-0.00221535
-0.00192142
-0.00163398
-0.00135668
-0.00109305
-0.000846464
-0.000620072
-0.000416725
-0.00023892
-8.87353e-05
3.22407e-05
0.000122994
0.000183194
0.000213344
0.00021503
0.000191308
0.000147209
9.08298e-05
3.66403e-05
6.22835e-06
2.08514e-05
6.56525e-05
9.47809e-05
7.29007e-05
-1.88345e-05
-0.000187243
-0.000432909
-0.000752615
-0.00114082
-0.00159073
-0.00209501
-0.00264619
-0.00323698
-0.00386038
-0.00450977
-0.00517897
-0.00586216
-0.00655391
-0.00724907
-0.00794276
-0.00863028
-0.00930708
-0.00996867
-0.0106106
-0.0112286
-0.0118181
-0.0123747
-0.0128941
-0.0133718
-0.0138035
-0.014185
-0.0145121
-0.014781
-0.014988
-0.0151298
-0.0152037
-0.0152072
-0.0151386
-0.0149968
-0.0147813
-0.0144926
-0.0141318
-0.0137012
-0.0132037
-0.0126433
-0.0120249
-0.0113542
-0.0106378
-0.00988319
-0.00909838
-0.0082921
-0.00747353
-0.00665222
-0.0058379
-0.00504036
-0.00426927
-0.00353401
-0.00284351
-0.00220604
-0.00162909
-0.00111914
-0.000681484
-0.000320032
-3.707e-05
0.000167037
0.000294212
0.000349207
0.000340298
0.000279984
0.000186125
8.64022e-05
1.96874e-05
1.76444e-05
4.13632e-05
1.9658e-05
-8.39346e-05
-0.00029021
-0.00060792
-0.00103833
-0.00157762
-0.00221864
-0.00295217
-0.00376796
-0.00465529
-0.00560342
-0.00660189
-0.00764066
-0.00871014
-0.00980126
-0.0109054
-0.0120144
-0.0131203
-0.0142157
-0.015293
-0.0163452
-0.0173649
-0.0183453
-0.0192791
-0.0201595
-0.0209793
-0.0217318
-0.0224102
-0.0230078
-0.0235185
-0.0239362
-0.0242556
-0.0244716
-0.0245801
-0.0245777
-0.0244619
-0.0242311
-0.0238851
-0.0234246
-0.0228519
-0.0221703
-0.0213848
-0.0205016
-0.0195283
-0.0184738
-0.0173483
-0.0161634
-0.0149313
-0.0136655
-0.0123798
-0.011089
-0.00980786
-0.00855122
-0.00733381
-0.0061699
-0.00507301
-0.0040557
-0.00312923
-0.00230334
-0.00158593
-0.000982743
-0.000496998
-0.000129007
0.000124302
0.000270028
0.000320027
0.000291438
0.000207501
0.000102496
2.49867e-05
8.84677e-06
-6.98778e-06
-0.000107552
-0.000322356
-0.000669651
-0.00115785
-0.0017877
-0.00255443
-0.0034495
-0.00446188
-0.00557909
-0.0067879
-0.00807492
-0.00942688
-0.0108309
-0.0122745
-0.0137458
-0.0152333
-0.0167262
-0.0182139
-0.0196862
-0.0211331
-0.0225448
-0.0239117
-0.0252242
-0.0264729
-0.0276483
-0.0287414
-0.0297428
-0.0306438
-0.0314357
-0.0321104
-0.0326602
-0.0330781
-0.033358
-0.0334944
-0.0334832
-0.0333214
-0.0330072
-0.0325406
-0.0319228
-0.0311569
-0.0302475
-0.0292013
-0.0280264
-0.026733
-0.0253326
-0.0238387
-0.022266
-0.0206307
-0.01895
-0.0172421
-0.0155257
-0.01382
-0.0121443
-0.0105174
-0.00895776
-0.00748278
-0.00610862
-0.00484977
-0.00371873
-0.00272561
-0.00187775
-0.00117926
-0.000630608
-0.000228097
3.676e-05
0.000177867
0.000214957
0.000174206
9.30769e-05
2.4038e-05
-2.12043e-06
-6.72851e-05
-0.000264124
-0.000609839
-0.00111694
-0.00179163
-0.00263293
-0.00363445
-0.00478608
-0.0060751
-0.00748714
-0.00900695
-0.0106189
-0.0123075
-0.0140575
-0.0158539
-0.0176824
-0.0195292
-0.0213809
-0.0232245
-0.0250475
-0.0268375
-0.0285824
-0.0302703
-0.0318895
-0.0334282
-0.0348751
-0.0362186
-0.0374479
-0.0385521
-0.0395208
-0.0403443
-0.0410135
-0.04152
-0.0418566
-0.0420171
-0.0419967
-0.0417918
-0.0414009
-0.0408239
-0.0400626
-0.0391209
-0.0380046
-0.0367218
-0.0352824
-0.0336985
-0.0319843
-0.0301558
-0.0282306
-0.0262281
-0.0241688
-0.0220745
-0.0199674
-0.0178705
-0.0158067
-0.0137986
-0.011868
-0.0100358
-0.00832126
-0.00674172
-0.00531211
-0.00404458
-0.00294798
-0.00202746
-0.00128395
-0.000713691
-0.000307682
-5.11439e-05
7.68107e-05
0.000103697
6.75523e-05
1.96756e-05
-1.36941e-05
-0.000132848
-0.000435894
-0.000924808
-0.00160423
-0.00247672
-0.00353844
-0.00478068
-0.00619136
-0.00775595
-0.00945832
-0.0112814
-0.0132077
-0.0152196
-0.0173
-0.0194318
-0.0215986
-0.0237845
-0.0259739
-0.0281518
-0.0303034
-0.0324143
-0.0344703
-0.0364575
-0.0383621
-0.0401704
-0.0418691
-0.0434449
-0.0448852
-0.0461773
-0.0473096
-0.0482707
-0.0490502
-0.0496389
-0.0500283
-0.0502118
-0.0501838
-0.0499407
-0.0494806
-0.0488039
-0.0479126
-0.0468115
-0.0455073
-0.0440093
-0.042329
-0.0404803
-0.0384794
-0.0363445
-0.0340958
-0.0317553
-0.0293465
-0.0268941
-0.0244235
-0.0219609
-0.0195324
-0.0171639
-0.0148803
-0.0127054
-0.0106615
-0.00876829
-0.00704318
-0.00550023
-0.00414991
-0.00299858
-0.00204802
-0.00129495
-0.000730582
-0.000340187
-0.000102794
9.24203e-06
3.25374e-05
1.363e-05
-2.51889e-05
-0.000200048
-0.000614205
-0.00125318
-0.00211251
-0.00319004
-0.0044782
-0.00596527
-0.00763676
-0.00947611
-0.0114653
-0.0135856
-0.0158177
-0.0181423
-0.0205405
-0.0229935
-0.025483
-0.0279912
-0.0305008
-0.0329948
-0.0354566
-0.0378699
-0.0402187
-0.0424872
-0.0446597
-0.046721
-0.048656
-0.0504498
-0.0520881
-0.0535569
-0.054843
-0.0559341
-0.0568185
-0.0574859
-0.0579273
-0.0581351
-0.0581034
-0.0578283
-0.057308
-0.0565427
-0.055535
-0.0542901
-0.0528156
-0.0511218
-0.0492215
-0.0471301
-0.0448654
-0.0424477
-0.0398992
-0.0372442
-0.0345089
-0.0317203
-0.028907
-0.0260977
-0.0233215
-0.0206071
-0.0179824
-0.0154741
-0.0131069
-0.0109033
-0.0088827
-0.00706133
-0.0054514
-0.00406076
-0.00289241
-0.00194404
-0.00120772
-0.000669492
-0.000309133
-9.9797e-05
-7.683e-06
6.86806e-06
-3.63467e-05
-0.000266999
-0.000793932
-0.00158601
-0.00262907
-0.00391556
-0.00543351
-0.00716761
-0.00910055
-0.0112135
-0.0134864
-0.0158987
-0.0184295
-0.021058
-0.0237635
-0.0265257
-0.0293249
-0.0321415
-0.0349567
-0.0377517
-0.0405084
-0.0432088
-0.0458354
-0.0483706
-0.0507972
-0.0530985
-0.0552577
-0.0572586
-0.0590855
-0.0607231
-0.0621571
-0.0633737
-0.0643606
-0.0651064
-0.0656013
-0.0658372
-0.0658078
-0.0655088
-0.0649381
-0.0640961
-0.0629856
-0.0616122
-0.0599841
-0.0581124
-0.0560108
-0.053696
-0.0511873
-0.0485064
-0.0456775
-0.0427269
-0.0396829
-0.0365749
-0.033434
-0.0302914
-0.0271789
-0.0241281
-0.0211694
-0.0183323
-0.0156441
-0.0131297
-0.010811
-0.00870642
-0.00683007
-0.0051916
-0.00379563
-0.00264129
-0.00172201
-0.00102521
-0.000532057
-0.000217177
-5.04396e-05
-7.87143e-08
-4.70709e-05
-0.000332717
-0.000972074
-0.00191768
-0.00314552
-0.00464222
-0.00639098
-0.00837249
-0.0105663
-0.0129508
-0.0155041
-0.0182037
-0.021027
-0.0239516
-0.0269555
-0.030017
-0.0331149
-0.0362282
-0.0393367
-0.0424202
-0.0454593
-0.0484344
-0.0513265
-0.0541168
-0.0567867
-0.0593179
-0.0616925
-0.0638929
-0.0659022
-0.0677039
-0.0692825
-0.0706235
-0.0717132
-0.0725397
-0.0730924
-0.0733625
-0.0733431
-0.0730296
-0.0724198
-0.0715138
-0.0703146
-0.0688278
-0.0670621
-0.0650292
-0.0627435
-0.0602226
-0.0574869
-0.0545596
-0.0514663
-0.0482351
-0.0448962
-0.0414812
-0.0380233
-0.0345564
-0.0311147
-0.0277322
-0.0244424
-0.0212772
-0.0182666
-0.0154383
-0.0128166
-0.0104221
-0.00827152
-0.00637644
-0.00474345
-0.00337359
-0.00226209
-0.00139821
-0.000764992
-0.000338992
-9.41723e-05
-6.9399e-06
-5.73494e-05
-0.000396718
-0.00114689
-0.00224466
-0.00365626
-0.00536237
-0.00734103
-0.00956869
-0.0120214
-0.0146749
-0.0175049
-0.0204869
-0.0235967
-0.0268106
-0.030105
-0.0334571
-0.0368441
-0.0402443
-0.0436358
-0.0469975
-0.0503085
-0.0535482
-0.0566963
-0.0597327
-0.0626376
-0.0653916
-0.0679755
-0.0703706
-0.0725588
-0.0745227
-0.0762458
-0.0777123
-0.078908
-0.07982
-0.0804368
-0.0807492
-0.0807496
-0.0804328
-0.0797963
-0.0788399
-0.0775665
-0.0759817
-0.0740943
-0.0719162
-0.0694624
-0.0667512
-0.0638037
-0.0606443
-0.0573
-0.0538003
-0.050177
-0.0464638
-0.042696
-0.0389099
-0.035142
-0.0314292
-0.0278075
-0.0243116
-0.0209744
-0.0178263
-0.0148943
-0.0122018
-0.00976797
-0.0076069
-0.00572752
-0.00413311
-0.0028211
-0.00178301
-0.00100407
-0.000463025
-0.000138063
-1.35996e-05
-6.71999e-05
-0.000458776
-0.00131739
-0.00256474
-0.0041576
-0.00607065
-0.00827673
-0.0107478
-0.0134563
-0.0163751
-0.0194774
-0.0227368
-0.0261274
-0.029624
-0.0332017
-0.0368364
-0.0405045
-0.0441829
-0.0478487
-0.0514799
-0.0550544
-0.0585506
-0.0619471
-0.0652229
-0.0683569
-0.0713288
-0.0741183
-0.0767058
-0.0790721
-0.0811988
-0.0830684
-0.0846643
-0.0859714
-0.0869758
-0.0876655
-0.0880301
-0.0880617
-0.0877544
-0.0871049
-0.0861129
-0.0847805
-0.0831134
-0.0811202
-0.0788127
-0.0762063
-0.0733196
-0.0701743
-0.0667956
-0.0632116
-0.059453
-0.0555534
-0.0515482
-0.0474747
-0.0433714
-0.0392776
-0.0352325
-0.0312752
-0.0274431
-0.0237724
-0.0202961
-0.0170447
-0.0140443
-0.011317
-0.00887975
-0.00674417
-0.00491617
-0.00339574
-0.00217693
-0.00124742
-0.000588263
-0.000181785
-2.00312e-05
-7.66466e-05
-0.000518788
-0.00148295
-0.00287647
-0.00464697
-0.00676326
-0.00919294
-0.0119035
-0.0148636
-0.0180431
-0.0214127
-0.0249441
-0.0286095
-0.0323823
-0.0362364
-0.0401466
-0.0440883
-0.0480373
-0.05197
-0.0558633
-0.0596944
-0.0634406
-0.0670798
-0.0705899
-0.0739492
-0.0771361
-0.0801297
-0.0829093
-0.0854549
-0.0877471
-0.0897676
-0.0914988
-0.0929247
-0.0940306
-0.0948036
-0.0952325
-0.0953084
-0.0950247
-0.0943774
-0.0933654
-0.0919904
-0.0902574
-0.0881747
-0.0857538
-0.0830101
-0.0799622
-0.0766322
-0.073046
-0.0692323
-0.0652232
-0.0610534
-0.0567602
-0.052383
-0.0479623
-0.0435401
-0.0391585
-0.0348592
-0.0306832
-0.0266696
-0.0228549
-0.0192728
-0.015953
-0.0129206
-0.0101958
-0.00779349
-0.00572241
-0.00398545
-0.00257945
-0.00149468
-0.000714549
-0.000225339
-2.62613e-05
-8.57107e-05
-0.000576702
-0.00164321
-0.00317887
-0.00512255
-0.00743736
-0.0100858
-0.0130307
-0.0162372
-0.0196719
-0.0233032
-0.0271004
-0.0310343
-0.0350768
-0.0392006
-0.0433794
-0.0475877
-0.0518005
-0.0559935
-0.0601427
-0.0642245
-0.0682156
-0.0720931
-0.0758341
-0.0794162
-0.082817
-0.0860148
-0.0889881
-0.0917161
-0.0941784
-0.0963559
-0.0982302
-0.0997843
-0.101003
-0.101871
-0.102378
-0.102513
-0.102268
-0.10164
-0.100625
-0.0992244
-0.0974428
-0.0952875
-0.0927697
-0.0899041
-0.0867094
-0.0832078
-0.0794252
-0.0753913
-0.0711389
-0.066704
-0.0621257
-0.0574449
-0.052705
-0.0479502
-0.0432256
-0.0385763
-0.0340463
-0.0296784
-0.025513
-0.0215873
-0.0179347
-0.0145841
-0.0115593
-0.00887856
-0.00655405
-0.00459179
-0.00299162
-0.00174656
-0.000842331
-0.000268946
-3.23483e-05
-9.44074e-05
-0.000632479
-0.00179787
-0.00347119
-0.00558294
-0.00809073
-0.010952
-0.0141253
-0.017572
-0.0212557
-0.0251421
-0.0291986
-0.0333943
-0.0376997
-0.0420863
-0.046527
-0.0509952
-0.0554655
-0.0599126
-0.064312
-0.0686396
-0.0728714
-0.0769839
-0.0809536
-0.0847573
-0.0883722
-0.0917758
-0.0949458
-0.0978605
-0.100499
-0.102841
-0.104868
-0.106561
-0.107904
-0.108882
-0.109482
-0.109692
-0.109504
-0.108912
-0.107912
-0.106505
-0.104693
-0.102483
-0.0998854
-0.0969143
-0.0935877
-0.0899276
-0.0859602
-0.0817152
-0.0772264
-0.0725311
-0.0676695
-0.0626848
-0.0576224
-0.0525295
-0.0474541
-0.0424447
-0.0375492
-0.032814
-0.0282837
-0.0239996
-0.0199992
-0.0163157
-0.0129769
-0.0100048
-0.00741527
-0.0052179
-0.00341574
-0.0020046
-0.000972484
-0.000312976
-3.83702e-05
-0.000102744
-0.000686077
-0.0019467
-0.0037528
-0.00602693
-0.00872145
-0.011789
-0.0151838
-0.0188636
-0.0227891
-0.0269234
-0.031232
-0.0356823
-0.0402433
-0.0448857
-0.0495813
-0.054303
-0.0590244
-0.0637199
-0.0683644
-0.0729334
-0.0774023
-0.0817472
-0.085944
-0.0899692
-0.0937993
-0.0974112
-0.100782
-0.103889
-0.106711
-0.109227
-0.111417
-0.113261
-0.114743
-0.115845
-0.116554
-0.116857
-0.116744
-0.116207
-0.115242
-0.113848
-0.112025
-0.10978
-0.107121
-0.104061
-0.100619
-0.0968142
-0.0926738
-0.0882275
-0.0835097
-0.0785584
-0.0734154
-0.0681257
-0.0627373
-0.0572998
-0.0518649
-0.0464844
-0.0412102
-0.0360933
-0.0311823
-0.0265234
-0.0221587
-0.0181259
-0.0144573
-0.0111792
-0.00831179
-0.00586818
-0.00385495
-0.00227087
-0.00110619
-0.000357902
-4.44172e-05
-0.000110722
-0.000737433
-0.00208943
-0.00402309
-0.00645342
-0.0093278
-0.0125942
-0.0162029
-0.0201079
-0.0242672
-0.0286415
-0.0331943
-0.0378912
-0.0427003
-0.047591
-0.0525344
-0.0575027
-0.0624689
-0.0674071
-0.0722918
-0.0770979
-0.0818008
-0.0863758
-0.0907989
-0.0950459
-0.0990929
-0.102916
-0.106493
-0.109799
-0.112813
-0.115512
-0.117877
-0.119885
-0.12152
-0.122763
-0.123598
-0.124013
-0.123994
-0.123533
-0.122624
-0.121264
-0.119451
-0.117191
-0.11449
-0.111361
-0.107819
-0.103885
-0.0995849
-0.0949481
-0.0900092
-0.0848072
-0.0793851
-0.0737898
-0.0680715
-0.0622829
-0.056479
-0.0507156
-0.0450489
-0.0395343
-0.0342256
-0.029174
-0.0244266
-0.0200264
-0.0160107
-0.0124105
-0.00925047
-0.00654791
-0.00431309
-0.00254789
-0.00124485
-0.000404266
-5.0587e-05
-0.000118333
-0.000786466
-0.00222577
-0.00428144
-0.00686132
-0.00990808
-0.0133654
-0.0171794
-0.0213011
-0.0256855
-0.030291
-0.0350792
-0.0400144
-0.0450632
-0.0501942
-0.0553778
-0.0605855
-0.0657901
-0.0709652
-0.0760849
-0.081124
-0.0860575
-0.0908608
-0.0955093
-0.0999786
-0.104245
-0.108283
-0.11207
-0.115582
-0.118796
-0.12169
-0.124241
-0.126427
-0.128231
-0.129631
-0.130612
-0.131157
-0.131254
-0.130891
-0.130059
-0.128755
-0.126975
-0.124722
-0.122
-0.118821
-0.115199
-0.111153
-0.106707
-0.101892
-0.0967418
-0.0912955
-0.0855976
-0.0796968
-0.0736454
-0.0674994
-0.0613172
-0.0551586
-0.0490847
-0.0431559
-0.0374313
-0.0319676
-0.0268179
-0.0220305
-0.0176484
-0.0137081
-0.010239
-0.00726302
-0.00479446
-0.00283849
-0.00139
-0.000452657
-5.69819e-05
-0.000125567
-0.00083307
-0.0023554
-0.00452716
-0.00724947
-0.0104606
-0.0141
-0.0181103
-0.0224393
-0.0270392
-0.0318664
-0.0368806
-0.0420448
-0.0473244
-0.0526872
-0.0581028
-0.0635423
-0.0689783
-0.0743838
-0.0797331
-0.0850007
-0.0901615
-0.0951907
-0.100064
-0.104756
-0.109242
-0.113499
-0.117503
-0.121228
-0.124651
-0.127748
-0.130498
-0.132877
-0.134865
-0.13644
-0.137585
-0.138282
-0.138515
-0.138272
-0.137542
-0.136317
-0.134594
-0.132371
-0.129652
-0.126445
-0.122763
-0.118623
-0.11405
-0.10907
-0.103719
-0.0980372
-0.0920685
-0.0858635
-0.0794772
-0.0729682
-0.0663987
-0.0598332
-0.0533373
-0.046977
-0.0408174
-0.0349212
-0.0293478
-0.0241519
-0.0193826
-0.0150822
-0.0112856
-0.00801992
-0.00530369
-0.00314568
-0.00154329
-0.000503695
-6.3707e-05
-0.000132403
-0.00087712
-0.00247795
-0.00475953
-0.0076167
-0.0109836
-0.0147958
-0.0189925
-0.0235185
-0.0283237
-0.0333622
-0.0385923
-0.0439754
-0.049476
-0.0550612
-0.0607
-0.0663631
-0.0720227
-0.077652
-0.0832248
-0.0887158
-0.0940999
-0.0993522
-0.104448
-0.109363
-0.114072
-0.118551
-0.122774
-0.126719
-0.130359
-0.133672
-0.136632
-0.139218
-0.141405
-0.143174
-0.144502
-0.145371
-0.145763
-0.145663
-0.145059
-0.143939
-0.142297
-0.140129
-0.137438
-0.134227
-0.130508
-0.126296
-0.121613
-0.116486
-0.110949
-0.105041
-0.0988089
-0.0923033
-0.0855817
-0.0787057
-0.0717412
-0.0647573
-0.0578249
-0.0510159
-0.0444017
-0.0380517
-0.0320322
-0.0264049
-0.0212256
-0.0165434
-0.0123991
-0.00882535
-0.00584563
-0.00347262
-0.00170645
-0.000558023
-7.08688e-05
-0.000138821
-0.000918471
-0.002593
-0.00497776
-0.00796174
-0.0114752
-0.0154503
-0.0198228
-0.024535
-0.0295342
-0.034773
-0.0402078
-0.0457989
-0.0515101
-0.0573075
-0.0631597
-0.0690373
-0.0749121
-0.0807574
-0.0865469
-0.0922555
-0.0978581
-0.10333
-0.108647
-0.113783
-0.118715
-0.123418
-0.127866
-0.132036
-0.135901
-0.139438
-0.142621
-0.145426
-0.14783
-0.149808
-0.151339
-0.152401
-0.152974
-0.153042
-0.152588
-0.151598
-0.150065
-0.14798
-0.145342
-0.142154
-0.138423
-0.134163
-0.129392
-0.124137
-0.11843
-0.112311
-0.105825
-0.0990248
-0.09197
-0.0847249
-0.0773594
-0.0699471
-0.0625646
-0.05529
-0.0482014
-0.0413757
-0.0348867
-0.0288037
-0.0231903
-0.0181025
-0.0135883
-0.00968621
-0.00642531
-0.00382258
-0.00188124
-0.000616296
-7.85751e-05
-0.000144795
-0.000956964
-0.00270013
-0.00518104
-0.00828327
-0.0119336
-0.0160609
-0.020598
-0.0254846
-0.0306661
-0.036093
-0.0417206
-0.0475081
-0.0534183
-0.0594168
-0.0654719
-0.0715538
-0.0776344
-0.0836869
-0.0896853
-0.0956046
-0.10142
-0.107107
-0.11264
-0.117997
-0.123151
-0.128079
-0.132755
-0.137154
-0.141251
-0.145021
-0.148437
-0.151474
-0.154108
-0.156313
-0.158065
-0.159341
-0.160118
-0.160377
-0.160099
-0.159267
-0.157869
-0.155896
-0.153341
-0.150203
-0.146488
-0.142206
-0.137373
-0.132013
-0.126157
-0.119843
-0.113116
-0.106031
-0.0986483
-0.091035
-0.0832648
-0.075416
-0.0675711
-0.0598147
-0.0522323
-0.0449088
-0.0379262
-0.0313623
-0.025289
-0.0197704
-0.0148621
-0.0106095
-0.0070478
-0.00419887
-0.00206945
-0.000679177
-8.69342e-05
-0.000150296
-0.000992429
-0.00279887
-0.0053685
-0.00857997
-0.0123569
-0.0166251
-0.0213148
-0.0263634
-0.0317144
-0.0373167
-0.0431243
-0.0490954
-0.0551921
-0.0613796
-0.0676258
-0.0739009
-0.0801767
-0.0864265
-0.0926248
-0.0987465
-0.104767
-0.110663
-0.116409
-0.121982
-0.127357
-0.132509
-0.137414
-0.142046
-0.146379
-0.150388
-0.154047
-0.157328
-0.160205
-0.162652
-0.164643
-0.166152
-0.167156
-0.16763
-0.167554
-0.166907
-0.165674
-0.163841
-0.161399
-0.158343
-0.154675
-0.150401
-0.145534
-0.140095
-0.134113
-0.127625
-0.120676
-0.113319
-0.105617
-0.0976399
-0.0894642
-0.0811735
-0.072856
-0.0646033
-0.0565087
-0.0486656
-0.0411651
-0.0340942
-0.027534
-0.0215578
-0.0162294
-0.0116022
-0.00771819
-0.00460482
-0.00227288
-0.000747335
-9.60551e-05
-0.000155296
-0.00102469
-0.00288876
-0.00553927
-0.00885046
-0.0127431
-0.0171403
-0.02197
-0.0271674
-0.0326743
-0.0384383
-0.0444121
-0.0505532
-0.056823
-0.0631862
-0.0696107
-0.0760665
-0.0825256
-0.0889616
-0.0953491
-0.101664
-0.107881
-0.113978
-0.11993
-0.125713
-0.131305
-0.136679
-0.141812
-0.146678
-0.151251
-0.155505
-0.159412
-0.162946
-0.166078
-0.168782
-0.171028
-0.17279
-0.17404
-0.174753
-0.174904
-0.17447
-0.173431
-0.17177
-0.169473
-0.166532
-0.162944
-0.15871
-0.153841
-0.148354
-0.142275
-0.135639
-0.128489
-0.120878
-0.112871
-0.104538
-0.0959599
-0.0872251
-0.0784276
-0.0696662
-0.0610425
-0.0526589
-0.0446163
-0.0370119
-0.029937
-0.0234749
-0.017699
-0.0126713
-0.00844156
-0.00504375
-0.00249336
-0.000821442
-0.000106047
-0.000159764
-0.00105358
-0.00296934
-0.0056925
-0.00909342
-0.0130903
-0.0176041
-0.0225604
-0.0278927
-0.0335412
-0.0394522
-0.0455776
-0.051874
-0.0583022
-0.0648268
-0.0714155
-0.0780383
-0.0846674
-0.0912768
-0.0978415
-0.104337
-0.110741
-0.117029
-0.123178
-0.129166
-0.134967
-0.14056
-0.145918
-0.151016
-0.155829
-0.16033
-0.164491
-0.168284
-0.171681
-0.174652
-0.177169
-0.1792
-0.180717
-0.181691
-0.182094
-0.181901
-0.181085
-0.179628
-0.17751
-0.174718
-0.171245
-0.167088
-0.162252
-0.156752
-0.150609
-0.143854
-0.13653
-0.12869
-0.120395
-0.11172
-0.102748
-0.0935709
-0.0842896
-0.0750101
-0.0658425
-0.056899
-0.048291
-0.0401267
-0.0325088
-0.0255316
-0.0192792
-0.0138234
-0.0092229
-0.00551895
-0.00273267
-0.000902169
-0.000117022
-0.000163671
-0.00107892
-0.00304015
-0.00582737
-0.00930759
-0.0133969
-0.0180141
-0.023083
-0.0285355
-0.0343105
-0.0403531
-0.0466144
-0.0530503
-0.0596213
-0.0662918
-0.0730292
-0.0798038
-0.0865882
-0.0933565
-0.100084
-0.106748
-0.113325
-0.119793
-0.126129
-0.13231
-0.138314
-0.144116
-0.149693
-0.15502
-0.160071
-0.164818
-0.169235
-0.173292
-0.17696
-0.180209
-0.183007
-0.185322
-0.187124
-0.18838
-0.189059
-0.189132
-0.18857
-0.187348
-0.185443
-0.182837
-0.179517
-0.175476
-0.170714
-0.165239
-0.159069
-0.152232
-0.144767
-0.136725
-0.128168
-0.119169
-0.109816
-0.100205
-0.0904407
-0.0806375
-0.0709144
-0.0613938
-0.0521985
-0.0434486
-0.0352593
-0.0277371
-0.020978
-0.0150651
-0.0100671
-0.00603369
-0.00299262
-0.000990189
-0.00012909
-0.00016699
-0.00110056
-0.00310079
-0.00594313
-0.00949178
-0.0136611
-0.018368
-0.023535
-0.0290924
-0.0349779
-0.0411359
-0.0475165
-0.0540752
-0.0607722
-0.0675716
-0.0744409
-0.0813508
-0.0882739
-0.0951851
-0.10206
-0.108877
-0.115613
-0.122246
-0.128755
-0.135117
-0.141311
-0.147314
-0.153102
-0.15865
-0.163932
-0.168923
-0.173594
-0.177915
-0.181858
-0.18539
-0.188478
-0.19109
-0.193191
-0.194747
-0.195725
-0.196089
-0.19581
-0.194855
-0.193199
-0.190817
-0.18769
-0.183806
-0.17916
-0.173753
-0.167599
-0.160722
-0.153155
-0.144946
-0.136157
-0.126862
-0.117148
-0.107115
-0.0968736
-0.0865459
-0.0762597
-0.0661479
-0.0563454
-0.0469855
-0.0381968
-0.0300994
-0.0228028
-0.0164026
-0.0109788
-0.00659112
-0.00327496
-0.00108617
-0.000142366
-0.000169696
-0.00111835
-0.00315089
-0.00603911
-0.00964499
-0.0138814
-0.018664
-0.0239138
-0.0295601
-0.0355396
-0.0417958
-0.0482783
-0.0549421
-0.061747
-0.0686572
-0.0756404
-0.0826672
-0.089711
-0.096747
-0.103752
-0.110704
-0.117581
-0.124363
-0.131029
-0.137558
-0.143928
-0.150117
-0.156103
-0.161861
-0.167367
-0.172593
-0.177513
-0.182096
-0.186312
-0.19013
-0.193514
-0.19643
-0.198843
-0.200716
-0.20201
-0.202691
-0.202721
-0.202065
-0.200692
-0.198572
-0.19568
-0.191998
-0.187513
-0.182223
-0.176133
-0.16926
-0.161636
-0.153304
-0.144322
-0.134762
-0.124714
-0.114279
-0.103574
-0.092727
-0.0818748
-0.0711618
-0.0607355
-0.0507432
-0.0413282
-0.0326258
-0.0247603
-0.0178415
-0.0119625
-0.00719434
-0.00358144
-0.00119079
-0.000156963
-0.000171769
-0.0011322
-0.00319017
-0.00611479
-0.00976639
-0.0140568
-0.0189005
-0.0242175
-0.0299362
-0.0359924
-0.0423289
-0.0488949
-0.055645
-0.0625388
-0.0695404
-0.0766177
-0.0837418
-0.0908863
-0.0980272
-0.105142
-0.112209
-0.119208
-0.12612
-0.132924
-0.1396
-0.146129
-0.152488
-0.158656
-0.16461
-0.170326
-0.175777
-0.180936
-0.185773
-0.190259
-0.19436
-0.198041
-0.201267
-0.204
-0.206201
-0.207829
-0.208846
-0.209211
-0.208884
-0.207828
-0.206008
-0.203394
-0.199959
-0.195685
-0.190562
-0.184588
-0.177774
-0.170145
-0.161738
-0.152608
-0.142825
-0.132478
-0.12167
-0.110521
-0.0991658
-0.087751
-0.0764318
-0.065369
-0.0547247
-0.0446584
-0.035322
-0.0268563
-0.0193871
-0.0130224
-0.00784629
-0.00391376
-0.0013047
-0.000173
-0.000173195
-0.00114201
-0.00321843
-0.0061698
-0.0098554
-0.0141863
-0.0190763
-0.0244445
-0.0302185
-0.0363336
-0.0427319
-0.0493622
-0.0561788
-0.0631413
-0.0702137
-0.0773642
-0.0845641
-0.0917877
-0.0990115
-0.106214
-0.113374
-0.120473
-0.127492
-0.134413
-0.141215
-0.147881
-0.15439
-0.160721
-0.166853
-0.172761
-0.17842
-0.183805
-0.188885
-0.193631
-0.198009
-0.201984
-0.20552
-0.208576
-0.211113
-0.213089
-0.214459
-0.21518
-0.21521
-0.214504
-0.213022
-0.210728
-0.207588
-0.203577
-0.198675
-0.192874
-0.186177
-0.1786
-0.170175
-0.160952
-0.150995
-0.140392
-0.129247
-0.117683
-0.10584
-0.0938733
-0.0819491
-0.070242
-0.0589301
-0.0481901
-0.0381923
-0.0290957
-0.0210441
-0.0141624
-0.00854978
-0.00427356
-0.00142857
-0.000190596
-0.000173965
-0.00114776
-0.00323556
-0.00620396
-0.00991175
-0.0142696
-0.0191907
-0.0245938
-0.0304058
-0.0365614
-0.0430024
-0.0496771
-0.0565397
-0.0635496
-0.0706709
-0.0778722
-0.085125
-0.0924043
-0.0996872
-0.106953
-0.114182
-0.121356
-0.128458
-0.135469
-0.142373
-0.149152
-0.155786
-0.162257
-0.168543
-0.174623
-0.180471
-0.186063
-0.191369
-0.196361
-0.201004
-0.205265
-0.209105
-0.212485
-0.215362
-0.217692
-0.219429
-0.220526
-0.220935
-0.22061
-0.219503
-0.21757
-0.214773
-0.211076
-0.206453
-0.200886
-0.194369
-0.186909
-0.178531
-0.169275
-0.159204
-0.148399
-0.136963
-0.125022
-0.11272
-0.10022
-0.0876989
-0.075346
-0.0633558
-0.0519234
-0.041239
-0.031482
-0.0228163
-0.015386
-0.00930742
-0.00466242
-0.00156303
-0.000209871
-0.000174079
-0.00114944
-0.00324161
-0.00621735
-0.00993551
-0.0143067
-0.0192439
-0.0246654
-0.0304977
-0.0366752
-0.0431392
-0.0498378
-0.0567249
-0.06376
-0.0709073
-0.0781355
-0.0854168
-0.0927265
-0.100043
-0.107345
-0.114616
-0.121838
-0.128995
-0.13607
-0.143047
-0.14991
-0.156643
-0.163225
-0.16964
-0.175864
-0.181877
-0.187652
-0.193163
-0.198381
-0.203274
-0.207806
-0.21194
-0.215637
-0.218851
-0.221539
-0.223652
-0.225139
-0.225949
-0.226031
-0.225332
-0.223802
-0.221394
-0.218065
-0.213779
-0.20851
-0.20224
-0.194967
-0.186707
-0.17749
-0.167371
-0.156427
-0.144758
-0.132489
-0.119766
-0.106761
-0.0936602
-0.0806675
-0.0679942
-0.0558553
-0.0444624
-0.0340174
-0.0247067
-0.0166961
-0.0101216
-0.00508185
-0.00170874
-0.000230952
-0.000173545
-0.00114712
-0.00323676
-0.00621029
-0.00992718
-0.0142982
-0.0192364
-0.0246599
-0.0304948
-0.0366753
-0.0431423
-0.0498437
-0.0567333
-0.0637704
-0.0709197
-0.0781498
-0.0854336
-0.092747
-0.100069
-0.10738
-0.114664
-0.121903
-0.129084
-0.136192
-0.143211
-0.150128
-0.156926
-0.16359
-0.170101
-0.176441
-0.182587
-0.188518
-0.194208
-0.199628
-0.204747
-0.209531
-0.213944
-0.217945
-0.22149
-0.224532
-0.227023
-0.228909
-0.230136
-0.230647
-0.230386
-0.229296
-0.227323
-0.224415
-0.220526
-0.21562
-0.209669
-0.202659
-0.194593
-0.185494
-0.175405
-0.164396
-0.152561
-0.140022
-0.12693
-0.113458
-0.099805
-0.086187
-0.0728331
-0.0599792
-0.0478602
-0.0367024
-0.0267173
-0.0180952
-0.0109944
-0.00553325
-0.0018663
-0.000253963
-0.000172383
-0.00114094
-0.00322135
-0.00618343
-0.00988772
-0.0142455
-0.0191699
-0.0245791
-0.030399
-0.0365634
-0.0430133
-0.0496961
-0.0565654
-0.0635809
-0.070707
-0.0779129
-0.0851719
-0.0924606
-0.0997586
-0.107048
-0.114313
-0.121538
-0.12871
-0.135816
-0.142843
-0.149778
-0.156608
-0.163317
-0.16989
-0.17631
-0.182557
-0.188611
-0.194446
-0.200038
-0.205356
-0.210368
-0.215037
-0.219324
-0.223185
-0.226574
-0.22944
-0.231728
-0.233381
-0.23434
-0.234542
-0.233926
-0.232429
-0.229992
-0.22656
-0.222084
-0.216525
-0.209857
-0.202071
-0.193175
-0.183202
-0.172211
-0.160288
-0.147553
-0.134152
-0.120265
-0.106097
-0.0918785
-0.0778553
-0.0642851
-0.0514274
-0.0395356
-0.0288489
-0.0195849
-0.0119277
-0.00601789
-0.00203631
-0.000279033
-0.000170624
-0.00113108
-0.00319592
-0.00613775
-0.00981863
-0.0141505
-0.0190468
-0.0244258
-0.0302133
-0.036343
-0.0427554
-0.0493979
-0.056224
-0.0631932
-0.0702703
-0.0774248
-0.0846304
-0.0918645
-0.0991076
-0.106343
-0.113555
-0.120731
-0.127859
-0.134927
-0.141925
-0.14884
-0.155662
-0.162378
-0.168974
-0.175435
-0.181744
-0.187882
-0.193828
-0.199556
-0.20504
-0.210247
-0.215145
-0.219694
-0.223851
-0.227571
-0.230802
-0.233488
-0.235572
-0.236989
-0.237674
-0.23756
-0.236578
-0.23466
-0.231741
-0.227761
-0.22267
-0.216426
-0.209007
-0.200407
-0.190645
-0.179765
-0.167847
-0.154998
-0.141364
-0.127125
-0.112493
-0.0977095
-0.0830379
-0.0687581
-0.0551559
-0.0425136
-0.0311009
-0.0211663
-0.0129228
-0.0065369
-0.00221933
-0.000306291
-0.000168312
-0.00111783
-0.00316124
-0.00607465
-0.009722
-0.014016
-0.0188707
-0.0242042
-0.0299425
-0.0360189
-0.0423737
-0.0489542
-0.0557137
-0.0626118
-0.0696134
-0.0766883
-0.0838109
-0.0909591
-0.0981145
-0.105261
-0.112385
-0.119476
-0.126521
-0.133512
-0.14044
-0.147295
-0.154068
-0.160748
-0.167324
-0.173784
-0.180113
-0.186293
-0.192307
-0.198132
-0.203742
-0.209109
-0.214202
-0.218982
-0.223409
-0.227437
-0.231016
-0.234091
-0.2366
-0.23848
-0.239662
-0.240072
-0.239637
-0.23828
-0.235928
-0.232509
-0.227959
-0.222224
-0.215264
-0.207058
-0.197607
-0.186943
-0.175129
-0.162264
-0.148486
-0.133972
-0.11894
-0.103639
-0.0883518
-0.0733789
-0.0590339
-0.0456301
-0.0334711
-0.0228393
-0.0139806
-0.00709122
-0.00241588
-0.000335869
-0.000165504
-0.00110155
-0.00311829
-0.00599594
-0.00960058
-0.0138458
-0.0186461
-0.0239198
-0.0295927
-0.0355979
-0.0418755
-0.0483723
-0.0550419
-0.0618436
-0.0687425
-0.075709
-0.0827178
-0.0897479
-0.0967815
-0.103804
-0.110803
-0.117769
-0.124692
-0.131565
-0.13838
-0.145131
-0.15181
-0.158409
-0.16492
-0.171332
-0.177633
-0.18381
-0.189846
-0.195722
-0.201416
-0.206901
-0.212148
-0.217122
-0.221786
-0.226094
-0.229997
-0.233442
-0.236367
-0.238706
-0.240389
-0.241339
-0.241476
-0.240718
-0.23898
-0.236182
-0.232246
-0.227103
-0.220695
-0.212984
-0.203954
-0.193617
-0.18202
-0.169247
-0.155426
-0.140729
-0.125374
-0.10962
-0.0937615
-0.078123
-0.0630458
-0.0488767
-0.0359555
-0.0246029
-0.0151016
-0.00768161
-0.00262645
-0.000367896
-0.000162276
-0.0010827
-0.00306833
-0.00590392
-0.00945788
-0.0136447
-0.0183792
-0.0235798
-0.0291721
-0.0350889
-0.04127
-0.0476621
-0.0542183
-0.0608982
-0.0676671
-0.0744956
-0.0813592
-0.0882376
-0.0951141
-0.101975
-0.108811
-0.115611
-0.12237
-0.129081
-0.135739
-0.142339
-0.148877
-0.155348
-0.161744
-0.168059
-0.174284
-0.180407
-0.186416
-0.192294
-0.198023
-0.203579
-0.208936
-0.214062
-0.218922
-0.223474
-0.227671
-0.23146
-0.234781
-0.237568
-0.23975
-0.241246
-0.241973
-0.241842
-0.240761
-0.238639
-0.235384
-0.230913
-0.22515
-0.218039
-0.209542
-0.199651
-0.188391
-0.175831
-0.162083
-0.14731
-0.131726
-0.115594
-0.0992242
-0.08296
-0.0671718
-0.0522415
-0.0385484
-0.026455
-0.0162856
-0.00830856
-0.00285146
-0.000402502
-0.000158719
-0.00106186
-0.00301289
-0.00580142
-0.00929819
-0.0134184
-0.0180772
-0.0231928
-0.0286906
-0.034503
-0.0405693
-0.0468358
-0.0532557
-0.0597884
-0.0663995
-0.0730601
-0.0797463
-0.0864388
-0.093122
-0.0997838
-0.106415
-0.113008
-0.119559
-0.126063
-0.132517
-0.13892
-0.145268
-0.151559
-0.15779
-0.163956
-0.170051
-0.176068
-0.181996
-0.187824
-0.193535
-0.199111
-0.204528
-0.209758
-0.214769
-0.219523
-0.223976