/*--------------------------------*- C++ -*----------------------------------*\
  =========                 |
  \\      /  F ield         | OpenFOAM: The Open Source CFD Toolbox
   \\    /   O peration     | Website:  https://openfoam.org
    \\  /    A nd           | Version:  dev
     \\/     M anipulation  |
\*---------------------------------------------------------------------------*/
FoamFile
{
    format      ascii;
    class       volScalarField;
    location    "41.4";
    object      Uy;
}
// * * * * * * * * * * * * * * * * * * * * * * * * * * * * * * * * * * * * * //

dimensions      [0 1 -1 0 0 0 0];

internalField   nonuniform List<scalar> 
5184
(
-1.2718e-05
-2.08996e-05
-1.72568e-05
-8.20216e-06
2.66635e-06
1.36182e-05
2.38489e-05
3.30541e-05
4.11141e-05
4.80347e-05
5.38773e-05
5.8727e-05
6.26761e-05
6.58159e-05
6.82313e-05
6.99976e-05
7.11792e-05
7.18285e-05
7.19864e-05
7.16824e-05
7.09359e-05
6.97575e-05
6.815e-05
6.61105e-05
6.36316e-05
6.07037e-05
5.73161e-05
5.34594e-05
4.91264e-05
4.43141e-05
3.9025e-05
3.32683e-05
2.70613e-05
2.043e-05
1.341e-05
6.04717e-06
-1.60238e-06
-9.47218e-06
-1.74857e-05
-2.55569e-05
-3.35915e-05
-4.14879e-05
-4.91387e-05
-5.6433e-05
-6.32581e-05
-6.9502e-05
-7.50561e-05
-7.98172e-05
-8.36908e-05
-8.6593e-05
-8.84534e-05
-8.92166e-05
-8.88446e-05
-8.73174e-05
-8.46349e-05
-8.08163e-05
-7.5901e-05
-6.99479e-05
-6.30346e-05
-5.52572e-05
-4.67298e-05
-3.75855e-05
-2.79793e-05
-1.80937e-05
-8.15409e-06
1.5448e-06
1.05786e-05
1.831e-05
2.37262e-05
2.51353e-05
1.98517e-05
6.24274e-06
-4.59088e-05
-6.57454e-05
-4.05888e-05
7.61606e-06
6.56772e-05
0.000126008
0.000184327
0.00023839
0.000287054
0.000329877
0.000366819
0.00039807
0.000423941
0.0004448
0.000461023
0.00047297
0.000480963
0.000485278
0.000486138
0.000483714
0.000478129
0.000469458
0.00045774
0.000442985
0.00042518
0.000404301
0.000380325
0.000353235
0.00032303
0.000289738
0.00025342
0.000214177
0.00017216
0.000127573
8.06748e-05
3.17846e-05
-1.87185e-05
-7.03959e-05
-0.000122753
-0.000175241
-0.000227266
-0.000278197
-0.00032737
-0.000374108
-0.000417725
-0.000457546
-0.000492918
-0.000523227
-0.000547911
-0.000566476
-0.000578509
-0.00058369
-0.000581803
-0.000572747
-0.000556536
-0.000533309
-0.000503331
-0.000466991
-0.000424805
-0.000377412
-0.000325581
-0.000270219
-0.000212386
-0.000153335
-9.45779e-05
-3.79916e-05
1.39612e-05
5.79749e-05
8.9455e-05
0.000101903
8.65473e-05
3.64943e-05
-8.13466e-05
-9.50943e-05
-1.91846e-05
0.000105909
0.000254671
0.000410651
0.000563531
0.000707174
0.000838128
0.000954685
0.00105625
0.00114292
0.0012152
0.00127382
0.00131961
0.00135339
0.00137592
0.00138789
0.00138984
0.00138224
0.0013654
0.00133955
0.00130482
0.00126127
0.00120891
0.00114774
0.00107773
0.000998904
0.00091133
0.000815145
0.00071058
0.00059798
0.000477819
0.000350713
0.000217428
7.88869e-05
-6.38289e-05
-0.000209483
-0.000356693
-0.000503939
-0.000649586
-0.0007919
-0.000929078
-0.00105928
-0.00118064
-0.00129136
-0.00138967
-0.00147393
-0.00154264
-0.00159448
-0.00162835
-0.00164342
-0.00163912
-0.0016152
-0.00157172
-0.00150908
-0.00142805
-0.00132971
-0.00121551
-0.00108726
-0.000947146
-0.000797722
-0.000642001
-0.000483517
-0.000326471
-0.000175951
-3.82781e-05
7.85307e-05
0.000164176
0.000205487
0.000186352
9.04193e-05
-9.77939e-05
-7.32226e-05
8.47315e-05
0.000318365
0.000590166
0.000874502
0.00115434
0.00141888
0.00166165
0.00187911
0.00206972
0.00223321
0.00237014
0.00248156
0.00256873
0.00263299
0.00267562
0.00269777
0.00270042
0.00268435
0.00265018
0.00259832
0.00252905
0.00244251
0.0023388
0.00221796
0.00208003
0.00192514
0.00175349
0.00156542
0.00136147
0.00114236
0.000909083
0.000662867
0.00040523
0.000137974
-0.00013681
-0.000416753
-0.000699217
-0.000981324
-0.00125999
-0.00153194
-0.00179382
-0.00204217
-0.00227355
-0.00248457
-0.00267198
-0.00283273
-0.00296405
-0.0030635
-0.00312907
-0.00315922
-0.00315292
-0.00310973
-0.00302979
-0.00291389
-0.00276347
-0.00258061
-0.0023681
-0.00212937
-0.00186858
-0.00159063
-0.00130124
-0.00100708
-0.000715965
-0.000437181
-0.00018187
3.63521e-05
0.000200765
0.000290973
0.000282676
0.000147334
-8.4465e-05
2.08238e-05
0.000295427
0.000668091
0.00109099
0.00153021
0.00196228
0.00237174
0.00274886
0.00308799
0.00338636
0.00364315
0.00385882
0.00403462
0.0041722
0.00427338
0.00433996
0.00437358
0.00437567
0.0043474
0.00428968
0.00420317
0.00408832
0.00394544
0.00377472
0.0035763
0.00335038
0.00309723
0.0028173
0.00251125
0.00218003
0.00182491
0.00144754
0.00104997
0.000634691
0.000204619
-0.000236884
-0.000686028
-0.00113862
-0.00159011
-0.00203562
-0.00247003
-0.00288805
-0.0032843
-0.00365338
-0.00399003
-0.00428919
-0.00454611
-0.00475649
-0.00491656
-0.0050232
-0.00507403
-0.00506746
-0.00500283
-0.00488038
-0.00470139
-0.00446812
-0.0041839
-0.00385311
-0.00348122
-0.0030748
-0.00264159
-0.0021906
-0.00173222
-0.00127853
-0.000843571
-0.000443838
-9.88986e-05
0.000167904
0.000328834
0.000351149
0.000194213
-3.75785e-05
0.000197324
0.000626946
0.00117052
0.00177206
0.00239071
0.00299738
0.00357229
0.00410256
0.00458043
0.00500183
0.00536526
0.00567096
0.0059203
0.00611526
0.0062581
0.00635111
0.00639642
0.00639591
0.00635112
0.00626331
0.0061334
0.00596206
0.00574977
0.00549687
0.0052037
0.00487062
0.00449816
0.0040871
0.00363852
0.00315391
0.00263524
0.00208498
0.00150617
0.000902481
0.000278153
-0.000361942
-0.00101235
-0.00166706
-0.00231957
-0.00296294
-0.0035899
-0.00419296
-0.00476448
-0.00529688
-0.00578271
-0.00621484
-0.00658659
-0.0068919
-0.00712547
-0.00728291
-0.00736086
-0.00735711
-0.0072707
-0.00710201
-0.00685285
-0.00652645
-0.00612754
-0.00566235
-0.00513866
-0.00456584
-0.00395484
-0.0033184
-0.0026711
-0.00202968
-0.00141334
-0.000844228
-0.000348025
4.52804e-05
0.00030074
0.000377535
0.000224615
4.40631e-05
0.00046129
0.00108721
0.00183505
0.00264291
0.00346453
0.00426627
0.00502467
0.0057241
0.00635488
0.00691169
0.00739236
0.0077969
0.00812674
0.00838415
0.0085718
0.00869242
0.00874862
0.00874269
0.0086766
0.00855192
0.00836985
0.0081313
0.00783696
0.00748737
0.00708309
0.00662474
0.00611318
0.00554959
0.00493558
0.00427331
0.00356555
0.00281576
0.00202814
0.00120768
0.000360161
-0.000507839
-0.00138899
-0.00227524
-0.0031579
-0.00402774
-0.00487508
-0.00568997
-0.00646232
-0.00718206
-0.00783935
-0.00842474
-0.00892942
-0.00934535
-0.00966554
-0.00988414
-0.00999671
-0.0100003
-0.00989363
-0.00967719
-0.00935333
-0.00892635
-0.00840249
-0.00779004
-0.0070993
-0.00634269
-0.0055347
-0.0046921
-0.00383398
-0.00298204
-0.0021609
-0.00139848
-0.000726651
-0.000181909
0.000193927
0.000352728
0.000235105
0.000160456
0.000814592
0.00168001
0.0026667
0.00370892
0.00475661
0.00577273
0.00673097
0.00761353
0.00840913
0.00911144
0.00971773
0.0102278
0.0106432
0.0109665
0.0112007
0.0113489
0.0114143
0.0113996
0.011307
0.0111385
0.0108956
0.0105794
0.0101909
0.00973086
0.00920006
0.00859947
0.00793033
0.00719431
0.00639364
0.00553125
0.00461083
0.00363694
0.00261509
0.00155176
0.000454403
-0.000668527
-0.00180764
-0.00295265
-0.00409249
-0.00521543
-0.0063092
-0.00736117
-0.00835854
-0.00928859
-0.0101388
-0.0108974
-0.0115529
-0.0120954
-0.0125159
-0.012807
-0.0129629
-0.0129799
-0.0128564
-0.0125928
-0.012192
-0.0116595
-0.0110031
-0.0102333
-0.00936296
-0.00840783
-0.00738617
-0.00631896
-0.00523007
-0.00414634
-0.00309794
-0.00211868
-0.00124652
-0.000524295
-2.16936e-07
0.000271154
0.000223977
0.000310965
0.00125714
0.00240632
0.00366734
0.00497242
0.0062692
0.0075184
0.0086918
0.00977007
0.0107408
0.011597
0.0123356
0.0129563
0.0134609
0.013852
0.0141333
0.0143083
0.0143805
0.014353
0.0142284
0.0140092
0.0136969
0.0132931
0.0127989
0.0122154
0.0115437
0.010785
0.00994112
0.00901424
0.00800729
0.00692404
0.0057692
0.00454856
0.00326903
0.00193867
0.000566786
-0.000836173
-0.0022586
-0.00368785
-0.0051103
-0.00651154
-0.00787652
-0.00918977
-0.0104356
-0.0115984
-0.0126629
-0.0136145
-0.0144393
-0.0151249
-0.0156603
-0.0160363
-0.0162458
-0.016284
-0.0161488
-0.0158407
-0.015363
-0.0147223
-0.013928
-0.0129927
-0.0119324
-0.010766
-0.0095157
-0.00820691
-0.00686838
-0.00553229
-0.00423442
-0.00301448
-0.00191649
-0.000989344
-0.000287219
0.000129704
0.000190578
0.000494685
0.00178771
0.00326525
0.00483659
0.0064334
0.00800233
0.00950304
0.0109063
0.012192
0.0133471
0.0143644
0.0152406
0.0159758
0.0165719
0.017032
0.0173601
0.0175602
0.0176362
0.0175916
0.0174296
0.0171527
0.0167629
0.0162619
0.0156512
0.0149321
0.014106
0.0131746
0.0121401
0.0110054
0.00977412
0.00845092
0.00704164
0.00555333
0.00399441
0.00237465
0.00070525
-0.00100121
-0.00273081
-0.00446838
-0.00619764
-0.00790135
-0.00956155
-0.0111597
-0.0126772
-0.0140952
-0.0153954
-0.0165604
-0.0175736
-0.0184199
-0.0190861
-0.019561
-0.0198359
-0.0199049
-0.0197652
-0.019417
-0.0188644
-0.0181147
-0.017179
-0.0160722
-0.0148131
-0.013424
-0.0119312
-0.0103646
-0.00875809
-0.00714911
-0.00557921
-0.004094
-0.00274349
-0.00158244
-0.000670623
-7.3239e-05
0.000134827
0.000710586
0.00240438
0.00425471
0.00617248
0.00809004
0.00995425
0.0117247
0.0133722
0.0148763
0.0162243
0.017409
0.0184275
0.0192801
0.0199692
0.0204985
0.0208725
0.0210956
0.0211722
0.0211062
0.0209012
0.0205599
0.0200847
0.0194776
0.0187403
0.0178744
0.0168816
0.0157641
0.0145246
0.0131665
0.0116943
0.0101137
0.00843159
0.00665637
0.004798
0.00286804
0.000879649
-0.00115238
-0.00321172
-0.00528062
-0.00734
-0.00936969
-0.0113486
-0.0132552
-0.0150674
-0.0167634
-0.0183216
-0.0197213
-0.0209431
-0.021969
-0.0227834
-0.0233728
-0.0237268
-0.0238381
-0.0237029
-0.0233214
-0.0226976
-0.02184
-0.0207611
-0.0194782
-0.0180126
-0.0163905
-0.014642
-0.0128018
-0.0109088
-0.009006
-0.00714074
-0.00536455
-0.00373339
-0.00230779
-0.00115288
-0.000338515
5.68918e-05
0.000957588
0.00310486
0.00537182
0.00767193
0.00993921
0.0121218
0.0141802
0.0160859
0.0178193
0.0193682
0.0207261
0.0218907
0.022863
0.0236462
0.0242445
0.0246629
0.0249066
0.0249804
0.0248887
0.0246353
0.0242234
0.0236556
0.0229342
0.022061
0.0210381
0.0198675
0.0185517
0.017094
0.0154985
0.0137705
0.0119165
0.00994478
0.00786497
0.00568864
0.00342913
0.00110164
-0.0012768
-0.00368741
-0.00610976
-0.00852191
-0.0109007
-0.0132218
-0.0154603
-0.0175909
-0.0195883
-0.0214274
-0.0230844
-0.0245364
-0.0257625
-0.0267443
-0.0274659
-0.0279147
-0.0280818
-0.0279624
-0.027556
-0.0268669
-0.0259041
-0.0246819
-0.0232193
-0.0215408
-0.0196759
-0.0176589
-0.0155292
-0.0133309
-0.0111126
-0.00892753
-0.00683325
-0.00489168
-0.00316911
-0.00173599
-0.000666689
-4.30112e-05
0.0012346
0.0038866
0.00661316
0.009331
0.0119767
0.0145006
0.0168649
0.0190428
0.021016
0.0227735
0.02431
0.0256242
0.0267183
0.0275961
0.0282629
0.0287244
0.0289862
0.0290539
0.0289323
0.0286256
0.0281372
0.0274702
0.026627
0.0256097
0.0244207
0.0230622
0.0215374
0.0198499
0.0180044
0.0160071
0.0138655
0.0115889
0.00918836
0.00667703
0.00407003
0.00138459
-0.00136001
-0.00414249
-0.00693972
-0.00972684
-0.0124775
-0.0151643
-0.0177587
-0.0202319
-0.022555
-0.0246994
-0.0266375
-0.028343
-0.0297919
-0.0309623
-0.0318358
-0.0323973
-0.0326361
-0.0325459
-0.0321253
-0.0313786
-0.0303153
-0.0289509
-0.0273065
-0.0254094
-0.0232924
-0.0209942
-0.0185589
-0.0160358
-0.0134793
-0.0109487
-0.00850756
-0.00622403
-0.00417024
-0.00242202
-0.00105841
-0.000164748
0.00154053
0.00474689
0.00797491
0.0111452
0.0141976
0.0170854
0.0197735
0.0222373
0.0244605
0.0264342
0.0281545
0.0296218
0.0308394
0.0318124
0.0325471
0.03305
0.0333277
0.0333862
0.0332309
0.0328663
0.0322964
0.0315243
0.0305527
0.0293842
0.0280211
0.0264662
0.0247229
0.0227953
0.0206889
0.0184105
0.0159685
0.0133733
0.0106375
0.00777555
0.00480445
0.0017434
-0.00138607
-0.0045602
-0.00775313
-0.0109371
-0.0140825
-0.0171586
-0.0201333
-0.0229742
-0.0256484
-0.0281237
-0.0303685
-0.0323529
-0.0340489
-0.0354316
-0.0364791
-0.0371738
-0.0375025
-0.0374572
-0.0370355
-0.036241
-0.0350836
-0.0335797
-0.0317526
-0.029632
-0.0272542
-0.0246621
-0.0219045
-0.0190363
-0.0161178
-0.0132142
-0.0103958
-0.00773676
-0.00531551
-0.00321348
-0.00151465
-0.000308356
0.00187426
0.0056829
0.00945293
0.0131094
0.0165961
0.0198701
0.0228995
0.0256627
0.0281463
0.0303435
0.0322528
0.0338765
0.0352194
0.0362881
0.0370902
0.0376333
0.0379247
0.0379713
0.0377789
0.0373526
0.0366966
0.0358145
0.0347091
0.0333832
0.0318394
0.0300808
0.028111
0.0259347
0.0235579
0.0209881
0.0182346
0.0153089
0.0122247
0.008998
0.00564753
0.00219442
-0.00133763
-0.00492239
-0.0085313
-0.0121336
-0.0156966
-0.0191859
-0.022566
-0.0258005
-0.0288526
-0.031686
-0.0342649
-0.0365554
-0.0385256
-0.0401465
-0.0413928
-0.0422437
-0.0426832
-0.0427012
-0.0422937
-0.0414635
-0.0402203
-0.0385816
-0.036572
-0.0342239
-0.0315769
-0.0286781
-0.0255813
-0.0223467
-0.0190409
-0.0157355
-0.0125072
-0.00943721
-0.00661015
-0.00411359
-0.00203691
-0.000474102
0.00223467
0.00669165
0.0110428
0.0152182
0.0191661
0.0228479
0.0262358
0.0293118
0.0320658
0.0344939
0.0365974
0.0383806
0.0398507
0.0410159
0.0418851
0.0424672
0.0427707
0.0428031
0.0425709
0.0420798
0.0413343
0.0403381
0.0390945
0.0376063
0.0358764
0.0339082
0.0317055
0.0292735
0.0266185
0.0237487
0.0206742
0.0174075
0.0139634
0.0103594
0.00661564
0.0027552
-0.00119609
-0.00520964
-0.00925423
-0.0132961
-0.0172995
-0.0212264
-0.0250375
-0.0286925
-0.0321506
-0.0353708
-0.0383133
-0.0409394
-0.043213
-0.0451008
-0.0465735
-0.0476065
-0.0481807
-0.0482832
-0.0479079
-0.0470565
-0.0457383
-0.0439709
-0.0417806
-0.0392019
-0.0362779
-0.0330596
-0.029606
-0.0259829
-0.0222632
-0.0185252
-0.0148528
-0.011334
-0.00806047
-0.00512646
-0.00262734
-0.000662522
0.00262061
0.00777003
0.0127399
0.0174656
0.0219007
0.0260114
0.0297745
0.0331763
0.0362106
0.038877
0.0411798
0.0431261
0.0447253
0.0459878
0.0469242
0.0475448
0.0478592
0.0478757
0.0476017
0.0470434
0.0462056
0.0450924
0.0437073
0.0420533
0.0401334
0.0379512
0.0355108
0.0328175
0.0298782
0.0267016
0.0232984
0.019682
0.0158681
0.0118756
0.00772611
0.00344439
-0.000941729
-0.00540136
-0.00990069
-0.0144031
-0.0188695
-0.0232585
-0.027527
-0.0316305
-0.0355238
-0.0391614
-0.0424987
-0.0454924
-0.0481012
-0.0502874
-0.052017
-0.0532611
-0.0539969
-0.0542081
-0.0538862
-0.0530309
-0.0516506
-0.049763
-0.0473953
-0.0445843
-0.041376
-0.0378257
-0.0339972
-0.0299626
-0.025801
-0.021598
-0.0174448
-0.0134371
-0.00967413
-0.00625728
-0.00328881
-0.000874446
0.00303086
0.00891479
0.0145392
0.0198454
0.0247926
0.0293525
0.0335071
0.0372474
0.0405718
0.0434837
0.045991
0.0481039
0.0498346
0.0511957
0.0521996
0.0528585
0.053183
0.0531827
0.0528656
0.0522386
0.0513068
0.0500748
0.0485462
0.0467241
0.0446117
0.0422126
0.0395312
0.0365729
0.0333449
0.0298563
0.0261185
0.0221453
0.0179536
0.0135631
0.00899696
0.00428137
-0.000553933
-0.00547592
-0.0104483
-0.0154316
-0.0203836
-0.0252595
-0.0300121
-0.0345928
-0.0389519
-0.043039
-0.0468046
-0.0501999
-0.0531786
-0.0556975
-0.0577176
-0.0592052
-0.0601329
-0.0604805
-0.0602363
-0.0593974
-0.0579708
-0.0559737
-0.0534341
-0.0503903
-0.0468914
-0.0429968
-0.0387754
-0.0343053
-0.0296725
-0.0249703
-0.0202976
-0.0157584
-0.0114602
-0.00751242
-0.004025
-0.00111102
0.00346417
0.0101225
0.0164355
0.0223509
0.027834
0.0328625
0.0374242
0.0415154
0.0451394
0.048304
0.0510211
0.0533044
0.055169
0.0566301
0.0577025
0.0583999
0.0587346
0.0587171
0.0583565
0.0576602
0.0566339
0.0552823
0.0536094
0.0516183
0.0493123
0.046695
0.0437709
0.0405456
0.0370263
0.0332225
0.0291459
0.0248109
0.0202349
0.0154388
0.0104466
0.00528609
-1.1404e-05
-0.00541086
-0.0108736
-0.0163577
-0.0218175
-0.0272048
-0.0324687
-0.0375561
-0.0424126
-0.0469829
-0.0512119
-0.0550454
-0.0584312
-0.0613203
-0.0636679
-0.0654348
-0.0665882
-0.0671035
-0.0669648
-0.066166
-0.0647121
-0.0626192
-0.0599153
-0.0566401
-0.0528456
-0.048595
-0.0439625
-0.0390324
-0.0338979
-0.0286602
-0.0234271
-0.0183113
-0.0134292
-0.00889945
-0.00484042
-0.00137372
0.0039192
0.0113895
0.0184232
0.0249749
0.0310165
0.0365322
0.0415159
0.04597
0.0499028
0.0533273
0.0562594
0.058717
0.0607182
0.0622814
0.0634235
0.0641603
0.0645056
0.0644714
0.0640677
0.0633023
0.0621819
0.0607112
0.0588943
0.0567347
0.0542355
0.0514004
0.0482337
0.044741
0.0409297
0.0368093
0.0323916
0.0276914
0.0227268
0.0175192
0.0120935
0.00647868
0.00070753
-0.00518314
-0.0111526
-0.0171561
-0.0231453
-0.0290685
-0.0348708
-0.0404949
-0.0458815
-0.0509699
-0.0556994
-0.0600098
-0.0638425
-0.0671422
-0.0698577
-0.0719432
-0.0733601
-0.0740783
-0.0740768
-0.0733458
-0.0718872
-0.0697152
-0.0668574
-0.0633546
-0.059261
-0.0546437
-0.049582
-0.0441669
-0.038499
-0.0326883
-0.0268514
-0.021111
-0.0155935
-0.0104273
-0.00574046
-0.00166434
0.00439455
0.0127119
0.0204965
0.0277099
0.0343313
0.0403516
0.0457717
0.0506
0.0548506
0.0585419
0.0616945
0.0643302
0.0664712
0.0681385
0.0693521
0.0701296
0.0704868
0.0704371
0.0699913
0.0691583
0.067945
0.0663567
0.0643977
0.0620714
0.0593809
0.0563297
0.0529221
0.0491636
0.0450613
0.0406247
0.0358657
0.0307992
0.0254435
0.0198205
0.0139557
0.00787908
0.00162458
-0.00476945
-0.0112603
-0.017801
-0.0243403
-0.0308231
-0.0371909
-0.0433818
-0.0493315
-0.0549741
-0.0602427
-0.0650707
-0.0693928
-0.0731466
-0.0762735
-0.0787208
-0.0804431
-0.0814035
-0.0815754
-0.0809439
-0.0795071
-0.0772765
-0.0742786
-0.0705546
-0.0661605
-0.0611671
-0.055659
-0.0497336
-0.0434999
-0.0370765
-0.0305905
-0.0241748
-0.0179669
-0.012106
-0.00673138
-0.00198503
0.00488872
0.0140858
0.0226491
0.030548
0.0377689
0.0443104
0.0501802
0.0553935
0.0599707
0.0639355
0.0673138
0.0701319
0.0724158
0.0741899
0.0754769
0.0762971
0.076668
0.0766044
0.0761185
0.0752199
0.0739163
0.0722131
0.0701148
0.0676249
0.0647463
0.0614825
0.0578374
0.0538163
0.0494259
0.0446756
0.0395771
0.0341451
0.028398
0.0223578
0.0160505
0.00950666
0.0027611
-0.00414652
-0.0111719
-0.0182658
-0.0253746
-0.0324399
-0.0393994
-0.046187
-0.0527334
-0.0589669
-0.0648144
-0.0702026
-0.0750588
-0.0793128
-0.0828983
-0.0857545
-0.087828
-0.0890745
-0.0894605
-0.088965
-0.087581
-0.0853167
-0.0821963
-0.0782606
-0.0735673
-0.0681903
-0.0622194
-0.0557588
-0.0489259
-0.0418492
-0.0346662
-0.0275216
-0.0205648
-0.0139473
-0.00782035
-0.00233826
0.00540014
0.0155068
0.0248745
0.0334806
0.0413195
0.0483974
0.0547295
0.0603381
0.06525
0.0694949
0.0731042
0.0761088
0.0785389
0.0804226
0.0817856
0.0826507
0.0830375
0.0829626
0.0824392
0.0814781
0.0800873
0.0782729
0.0760394
0.0733902
0.0703284
0.0668568
0.0629792
0.0587004
0.0540268
0.0489672
0.0435329
0.0377384
0.0316018
0.0251449
0.018394
0.0113797
0.00413766
-0.00329163
-0.0108625
-0.0185239
-0.0262198
-0.033889
-0.0414656
-0.0488791
-0.0560552
-0.0629167
-0.0693838
-0.0753761
-0.0808132
-0.0856164
-0.0897108
-0.0930267
-0.0955017
-0.0970828
-0.0977285
-0.0974104
-0.0961155
-0.093847
-0.0906261
-0.0864924
-0.0815043
-0.0757387
-0.0692902
-0.0622701
-0.0548045
-0.0470321
-0.0391022
-0.0311721
-0.0234044
-0.0159639
-0.00901543
-0.00272688
0.00592712
0.0169703
0.0271657
0.0364989
0.0449725
0.0526009
0.059407
0.0654204
0.0706747
0.0752061
0.0790514
0.0822466
0.0848264
0.0868227
0.0882645
0.0891772
0.0895827
0.0894993
0.0889418
0.0879218
0.086448
0.084527
0.0821634
0.0793606
0.0761214
0.0724484
0.0683448
0.063815
0.0588647
0.0535021
0.047738
0.0415862
0.0350642
0.0281936
0.0210003
0.013515
0.00577352
-0.002183
-0.0103079
-0.0185487
-0.0268473
-0.03514
-0.0433572
-0.0514246
-0.0592629
-0.0667891
-0.0739169
-0.0805582
-0.0866245
-0.0920282
-0.0966849
-0.100515
-0.103446
-0.105415
-0.106371
-0.106278
-0.105113
-0.102876
-0.0995816
-0.0952681
-0.0899937
-0.0838375
-0.0768988
-0.0692959
-0.061164
-0.0526528
-0.0439242
-0.035149
-0.0265044
-0.0181701
-0.0103256
-0.00315403
0.0064679
0.0184716
0.0295154
0.0395935
0.0487171
0.0569087
0.0641995
0.0706264
0.0762305
0.0810542
0.0851404
0.0885303
0.0912632
0.0933752
0.0948987
0.0958619
0.0962893
0.0962009
0.095613
0.0945384
0.0929865
0.0909643
0.0884766
0.0855268
0.0821174
0.0782507
0.0739292
0.0691566
0.063938
0.0582807
0.0521947
0.0456929
0.0387921
0.0315132
0.0238814
0.0159272
0.00768614
-0.000800369
-0.00948505
-0.0183144
-0.0272287
-0.0361618
-0.0450412
-0.0537886
-0.0623201
-0.0705469
-0.0783759
-0.0857116
-0.0924567
-0.0985141
-0.103789
-0.108191
-0.111637
-0.114053
-0.115376
-0.115559
-0.114574
-0.112408
-0.109073
-0.104604
-0.0990561
-0.0925112
-0.0850726
-0.0768654
-0.0680342
-0.0587404
-0.0491592
-0.0394765
-0.0298852
-0.0205813
-0.0117607
-0.00362324
0.00702064
0.0200058
0.0319162
0.0427549
0.0525418
0.0613081
0.069093
0.0759416
0.081902
0.0870235
0.0913551
0.0949436
0.0978331
0.100064
0.101672
0.102689
0.103142
0.103052
0.102438
0.101313
0.0996888
0.0975715
0.0949666
0.0918774
0.088306
0.0842543
0.0797243
0.0747187
0.0692419
0.0633001
0.0569021
0.05006
0.0427894
0.0351101
0.0270465
0.0186283
0.00989059
0.000874468
-0.00837259
-0.0177965
-0.0273362
-0.0369237
-0.046484
-0.0559351
-0.0651887
-0.0741502
-0.0827203
-0.0907954
-0.0982692
-0.105035
-0.110986
-0.116022
-0.120046
-0.122971
-0.124723
-0.125243
-0.124489
-0.122444
-0.119108
-0.114512
-0.10871
-0.101783
-0.0938383
-0.0850077
-0.0754453
-0.0653249
-0.0548359
-0.0441804
-0.0335685
-0.0232143
-0.0133315
-0.00413836
0.00758341
0.0215677
0.0343601
0.0459729
0.0564348
0.0657856
0.0740732
0.0813505
0.0876732
0.0930975
0.0976787
0.101469
0.104519
0.106871
0.108567
0.109641
0.110122
0.110035
0.109399
0.10823
0.106539
0.104333
0.101618
0.098398
0.0946738
0.0904471
0.0857191
0.0804918
0.0747683
0.0685538
0.0618559
0.0546853
0.0470562
0.0389872
0.0305014
0.0216272
0.012399
0.00285703
-0.00695143
-0.0169721
-0.0271434
-0.0373958
-0.0476521
-0.0578274
-0.0678289
-0.0775572
-0.0869062
-0.0957644
-0.104017
-0.111546
-0.118234
-0.123967
-0.128635
-0.132137
-0.134386
-0.135307
-0.134848
-0.132977
-0.129688
-0.125002
-0.118971
-0.111674
-0.103222
-0.0937517
-0.0834282
-0.0724374
-0.0609842
-0.0492879
-0.0375776
-0.026087
-0.0150496
-0.00470359
0.00815421
0.023152
0.0368391
0.0492372
0.0603839
0.0703278
0.0791252
0.0868374
0.0935275
0.099259
0.104093
0.10809
0.111302
0.113779
0.115565
0.116699
0.117212
0.117131
0.116478
0.11527
0.113518
0.111231
0.108414
0.105072
0.101204
0.0968135
0.0918992
0.0864625
0.0805055
0.0740319
0.0670479
0.0595627
0.0515889
0.0431434
0.0342478
0.024929
0.0152198
0.00515952
-0.00520543
-0.0158212
-0.026626
-0.0375495
-0.0485129
-0.0594287
-0.0702006
-0.0807241
-0.090887
-0.10057
-0.10965
-0.117997
-0.125483
-0.131978
-0.137361
-0.141513
-0.144331
-0.145726
-0.145629
-0.143996
-0.140808
-0.136078
-0.12985
-0.122202
-0.113246
-0.103125
-0.0920134
-0.0801094
-0.0676347
-0.0548274
-0.041937
-0.0292187
-0.0169274
-0.00532347
0.00873101
0.0247531
0.0393449
0.0525372
0.0643765
0.0749204
0.0842338
0.0923859
0.0994478
0.10549
0.110581
0.114785
0.118162
0.120766
0.122646
0.123842
0.12439
0.12432
0.123654
0.122412
0.120605
0.118244
0.115334
0.111878
0.107878
0.103335
0.0982464
0.0926138
0.0864376
0.0797199
0.0724656
0.0646817
0.0563794
0.0475733
0.0382833
0.0285343
0.0183574
0.00779026
-0.00312211
-0.0143268
-0.0257624
-0.0373584
-0.0490352
-0.0607031
-0.072263
-0.0836061
-0.0946143
-0.105161
-0.115114
-0.124333
-0.132677
-0.140003
-0.146172
-0.15105
-0.154516
-0.156463
-0.156806
-0.155481
-0.152458
-0.147737
-0.141353
-0.133382
-0.123933
-0.113155
-0.101231
-0.0883726
-0.0748192
-0.0608286
-0.0466726
-0.0326296
-0.0189784
-0.00600288
0.00931173
0.0263656
0.0418691
0.0558621
0.0684001
0.0795493
0.0893832
0.0979793
0.105416
0.111772
0.117122
0.121536
0.12508
0.127813
0.129788
0.131049
0.131635
0.131578
0.130904
0.129632
0.127777
0.125349
0.122353
0.118794
0.114672
0.109988
0.104739
0.0989248
0.0925447
0.0855995
0.0780919
0.0700274
0.0614147
0.0522667
0.0426006
0.0324393
0.0218115
0.010753
-0.000693246
-0.0124758
-0.0245344
-0.0367991
-0.0491899
-0.0616162
-0.0739764
-0.0861581
-0.0980383
-0.109484
-0.120352
-0.130495
-0.139756
-0.14798
-0.155009
-0.160693
-0.16489
-0.167474
-0.168339
-0.167404
-0.164619
-0.15997
-0.153482
-0.145222
-0.135299
-0.123864
-0.111108
-0.0972579
-0.0825692
-0.0673216
-0.0518109
-0.036341
-0.0212164
-0.00674705
0.00989428
0.027984
0.0444033
0.0592013
0.0724419
0.0842001
0.0945578
0.103601
0.111415
0.118086
0.123696
0.128322
0.132034
0.134897
0.136968
0.138296
0.138922
0.138882
0.138203
0.136906
0.135008
0.132519
0.129446
0.125793
0.12156
0.116747
0.111351
0.10537
0.0988027
0.0916474
0.0839052
0.0755797
0.0666771
0.057208
0.0471871
0.0366346
0.0255767
0.0140464
0.00208447
-0.0102599
-0.0229283
-0.0358519
-0.0489515
-0.0621359
-0.0753024
-0.0883357
-0.101108
-0.113481
-0.125305
-0.136418
-0.146654
-0.155841
-0.163806
-0.170377
-0.175393
-0.178704
-0.180183
-0.179725
-0.177261
-0.172759
-0.166228
-0.157725
-0.147356
-0.135272
-0.121672
-0.106796
-0.0909166
-0.0743374
-0.0573797
-0.0403753
-0.0236565
-0.00756154
0.0104766
0.0296027
0.0469392
0.0625439
0.0764892
0.0888584
0.0997417
0.109233
0.117426
0.124413
0.130284
0.135122
0.139002
0.141996
0.144163
0.145558
0.146226
0.146204
0.145523
0.144206
0.14227
0.139727
0.136584
0.132846
0.128513
0.123583
0.118054
0.111921
0.105183
0.097836
0.0898792
0.0813137
0.0721436
0.0623766
0.0520249
0.0411055
0.0296417
0.0176636
0.00520888
-0.00767606
-0.0209352
-0.0345019
-0.0482982
-0.0622338
-0.0762054
-0.0900961
-0.103775
-0.117098
-0.129908
-0.142035
-0.153299
-0.163513
-0.172487
-0.180028
-0.185953
-0.190088
-0.192279
-0.192397
-0.190348
-0.186077
-0.179576
-0.170889
-0.160112
-0.147396
-0.132947
-0.117014
-0.0998921
-0.0819067
-0.0634072
-0.0447554
-0.0263141
-0.00845223
0.0110567
0.0312164
0.0494687
0.0658796
0.0805296
0.0935101
0.104919
0.114859
0.12343
0.130734
0.136865
0.141913
0.145961
0.149084
0.151347
0.152809
0.153519
0.153517
0.152836
0.151501
0.149531
0.146939
0.143734
0.13992
0.135496
0.130462
0.124813
0.118545
0.111653
0.104133
0.0959825
0.0871995
0.0777858
0.0677464
0.0570903
0.0458314
0.0339897
0.0215917
0.00867181
-0.00472703
-0.018552
-0.0327394
-0.0472135
-0.0618858
-0.0766535
-0.0913993
-0.10599
-0.120278
-0.1341
-0.147276
-0.159615
-0.170917
-0.180971
-0.189565
-0.196492
-0.20155
-0.204557
-0.205357
-0.203827
-0.199885
-0.1935
-0.184699
-0.173565
-0.160246
-0.14495
-0.127939
-0.109526
-0.0900602
-0.0699221
-0.0495051
-0.0292056
-0.00942532
0.0116325
0.0328199
0.051984
0.0691983
0.0845511
0.0981413
0.110075
0.120461
0.12941
0.137027
0.143416
0.148673
0.152887
0.156137
0.158495
0.160023
0.160773
0.160791
0.16011
0.158759
0.156759
0.154124
0.150862
0.146979
0.142474
0.137347
0.131592
0.125203
0.118176
0.110503
0.102179
0.0932023
0.0835704
0.0732857
0.0623539
0.0507858
0.0385974
0.0258116
0.0124588
-0.00142207
-0.015782
-0.030561
-0.0456867
-0.0610731
-0.0766196
-0.0922095
-0.107709
-0.122968
-0.137817
-0.15207
-0.165526
-0.177968
-0.18917
-0.198898
-0.206918
-0.213002
-0.216938
-0.218534
-0.217637
-0.214133
-0.207964
-0.199132
-0.187707
-0.173826
-0.157697
-0.139593
-0.119845
-0.0988279
-0.0769529
-0.0546487
-0.0323476
-0.0104873
0.0122024
0.0344085
0.0544776
0.0724905
0.0885421
0.102739
0.115194
0.126025
0.135347
0.143275
0.149919
0.155381
0.159756
0.16313
0.165578
0.167169
0.167958
0.167994
0.167313
0.165948
0.163919
0.161243
0.15793
0.153985
0.149409
0.144199
0.13835
0.131856
0.12471
0.116903
0.108429
0.0992825
0.0894589
0.0789576
0.067781
0.0559363
0.0434356
0.0302978
0.0165487
0.00222288
-0.0126352
-0.02797
-0.0437135
-0.0597836
-0.0760826
-0.092496
-0.108891
-0.125116
-0.140998
-0.156347
-0.17095
-0.184579
-0.196991
-0.207929
-0.217134
-0.224349
-0.229326
-0.231841
-0.231701
-0.228757
-0.222918
-0.214156
-0.202518
-0.18813
-0.171196
-0.151995
-0.130875
-0.108238
-0.0845281
-0.0602108
-0.0357575
-0.0116451
0.0127645
0.0359777
0.056943
0.0757474
0.0924923
0.107291
0.120263
0.131533
0.141224
0.149458
0.156351
0.162013
0.166544
0.170036
0.172571
0.17422
0.175044
0.175094
0.174412
0.17303
0.170973
0.168259
0.164899
0.160897
0.156257
0.150974
0.145044
0.138459
0.131211
0.12329
0.114688
0.105396
0.0954081
0.08472
0.0733312
0.0612448
0.0484691
0.0350183
0.0209137
0.00618487
-0.00912887
-0.0249773
-0.0412975
-0.0580122
-0.0750282
-0.0922347
-0.109501
-0.126677
-0.143588
-0.160039
-0.175811
-0.190663
-0.204337
-0.216555
-0.227033
-0.235481
-0.241618
-0.245179
-0.24593
-0.243681
-0.238299
-0.229722
-0.217969
-0.203145
-0.185447
-0.165157
-0.142638
-0.118318
-0.0926755
-0.0662159
-0.0394531
-0.0129056
0.0133175
0.0375237
0.0593742
0.0789612
0.0963919
0.111785
0.125268
0.136971
0.147025
0.155558
0.162693
0.168547
0.173227
0.17683
0.179444
0.181144
0.181997
0.182057
0.181369
0.179969
0.177883
0.175131
0.171726
0.167673
0.162974
0.157628
0.151628
0.144966
0.137632
0.129616
0.120907
0.111495
0.10137
0.0905265
0.0789592
0.0666678
0.0536566
0.039935
0.0255194
0.010434
-0.00528762
-0.0216011
-0.0384496
-0.0557618
-0.0734503
-0.0914092
-0.109512
-0.127611
-0.145534
-0.163081
-0.18003
-0.196131
-0.211109
-0.22467
-0.236501
-0.246284
-0.253698
-0.258437
-0.26022
-0.258811
-0.254029
-0.245771
-0.234017
-0.218848
-0.200444
-0.179087
-0.155152
-0.129093
-0.101422
-0.0726887
-0.0434522
-0.0142763
0.0138603
0.0390434
0.0617664
0.0821256
0.100233
0.116213
0.130198
0.142326
0.152733
0.161556
0.168924
0.174961
0.17978
0.183485
0.186168
0.187912
0.188785
0.188848
0.188149
0.186726
0.184608
0.181818
0.178368
0.174266
0.169515
0.164112
0.158052
0.151325
0.143922
0.13583
0.127036
0.117528
0.107295
0.0963263
0.0846152
0.072157
0.0589517
0.045004
0.030325
0.0149335
-0.00114338
-0.0178676
-0.0351892
-0.0530439
-0.0713511
-0.0900117
-0.108905
-0.127888
-0.146791
-0.165416
-0.183537
-0.200897
-0.21721
-0.232164
-0.245422
-0.256633
-0.265439
-0.271489
-0.274453
-0.27404
-0.270017
-0.262226
-0.250606
-0.2352
-0.216168
-0.193783
-0.168428
-0.140582
-0.110792
-0.0796533
-0.0477732
-0.0157647
0.0143918
0.0405344
0.0641159
0.0852355
0.104009
0.120565
0.135042
0.147584
0.158335
0.167436
0.175026
0.181233
0.186179
0.189973
0.192715
0.194491
0.195375
0.195432
0.194714
0.193261
0.191107
0.188275
0.18478
0.180631
0.175831
0.170378
0.164266
0.157487
0.150028
0.141877
0.133019
0.12344
0.113126
0.102065
0.0902455
0.0776596
0.0643031
0.0501759
0.035284
0.01964
0.0032648
-0.0138107
-0.031544
-0.0498787
-0.0687424
-0.0880438