/*--------------------------------*- C++ -*----------------------------------*\
  =========                 |
  \\      /  F ield         | OpenFOAM: The Open Source CFD Toolbox
   \\    /   O peration     | Website:  https://openfoam.org
    \\  /    A nd           | Version:  dev
     \\/     M anipulation  |
\*---------------------------------------------------------------------------*/
FoamFile
{
    format      ascii;
    class       volScalarField;
    location    "16.65";
    object      p;
}
// * * * * * * * * * * * * * * * * * * * * * * * * * * * * * * * * * * * * * //

dimensions      [0 2 -2 0 0 0 0];

internalField   nonuniform List<scalar> 
5184
(
4.45872e-08
-1.32242e-05
-0.000100093
-0.000253547
-0.000453213
-0.000681929
-0.000925489
-0.00117202
-0.00141238
-0.00163944
-0.0018478
-0.00203346
-0.00219349
-0.00232579
-0.00242891
-0.00250184
-0.0025439
-0.00255467
-0.00253388
-0.00248135
-0.00239702
-0.00228086
-0.00213293
-0.00195337
-0.00174242
-0.00150046
-0.00122803
-0.000925899
-0.000595043
-0.00023674
0.000147425
0.000555528
0.00098528
0.00143401
0.00189865
0.00237578
0.00286158
0.00335188
0.00384222
0.00432787
0.00480389
0.00526521
0.00570673
0.00612337
0.00651018
0.00686246
0.00717585
0.00744644
0.00767085
0.00784635
0.00797093
0.00804339
0.00806338
0.00803145
0.00794911
0.00781878
0.00764386
0.00742865
0.00717835
0.00689899
0.00659744
0.00628129
0.00595884
0.00563903
0.00533141
0.00504603
0.0047934
0.00458411
0.00442813
0.00433392
0.00430695
0.00433414
1.19533e-05
-1.28208e-06
-7.65137e-05
-0.000204696
-0.00037017
-0.000560497
-0.000764781
-0.000973458
-0.00117862
-0.00137389
-0.00155424
-0.00171578
-0.00185553
-0.00197129
-0.00206141
-0.0021247
-0.00216031
-0.00216763
-0.00214625
-0.00209588
-0.00201634
-0.00190757
-0.00176956
-0.00160242
-0.0014064
-0.00118184
-0.000929283
-0.000649464
-0.000343341
-1.21326e-05
0.000342656
0.000719207
0.00111537
0.00152866
0.00195625
0.00239493
0.00284122
0.00329129
0.00374106
0.0041862
0.00462223
0.00504455
0.00544853
0.00582959
0.00618328
0.00650539
0.00679203
0.0070397
0.00724544
0.00740685
0.00752223
0.00759057
0.00761168
0.00758617
0.00751552
0.00740205
0.00724893
0.00706017
0.00684055
0.00659562
0.00633161
0.00605538
0.00577438
0.00549651
0.00523006
0.00498361
0.0047658
0.004585
0.00444852
0.00436229
0.00433371
0.00436123
9.75049e-05
7.23765e-05
-3.33298e-06
-0.000121137
-0.00026899
-0.00043726
-0.000617256
-0.000801163
-0.000982294
-0.0011551
-0.00131509
-0.00145869
-0.00158309
-0.00168613
-0.00176616
-0.00182196
-0.00185259
-0.00185738
-0.00183583
-0.00178759
-0.0017124
-0.00161015
-0.00148079
-0.00132439
-0.00114114
-0.000931366
-0.000695567
-0.000434419
-0.000148821
0.000160081
0.000490873
0.000841854
0.00121102
0.00159604
0.00199427
0.00240274
0.00281819
0.00323706
0.00365556
0.00406967
0.00447524
0.004868
0.00524367
0.005598
0.00592691
0.00622649
0.00649317
0.00672376
0.00691555
0.00706637
0.00717469
0.00723965
0.00726115
0.00723983
0.00717711
0.00707524
0.00693721
0.0067668
0.00656846
0.00634736
0.00610925
0.00586042
0.00560762
0.00535795
0.00511877
0.00489754
0.00470171
0.00453835
0.00441347
0.00433232
0.00430451
0.00433503
0.00025156
0.000199935
0.000111945
-7.13759e-06
-0.000149631
-0.000307751
-0.000474378
-0.000643153
-0.000808543
-0.000965871
-0.00111127
-0.00124161
-0.00135441
-0.00144769
-0.00151993
-0.00156996
-0.00159688
-0.0016
-0.00157879
-0.00153287
-0.00146196
-0.00136588
-0.00124454
-0.00109795
-0.000926255
-0.000729723
-0.000508777
-0.000264025
3.71705e-06
0.000293402
0.000603727
0.000933116
0.0012797
0.0016413
0.00201545
0.00239937
0.00278998
0.00318396
0.00357772
0.00396748
0.00434933
0.00471923
0.00507316
0.00540709
0.00571716
0.0059997
0.00625132
0.00646902
0.00665025
0.00679299
0.00689579
0.00695789
0.00697921
0.00696039
0.00690282
0.00680866
0.00668075
0.00652268
0.00633867
0.00613356
0.00591272
0.00568199
0.00544756
0.00521593
0.00499373
0.00478763
0.00460423
0.00444981
0.00432979
0.00424922
0.00421816
0.00424327
0.000455392
0.000366706
0.00025805
0.000130331
-1.39993e-05
-0.000168768
-0.000328202
-0.000487305
-0.000641671
-0.00078751
-0.000921644
-0.00104147
-0.00114488
-0.00123019
-0.00129607
-0.00134148
-0.00136559
-0.00136775
-0.00134746
-0.00130431
-0.00123799
-0.00114828
-0.00103506
-0.00089826
-0.000737962
-0.000554355
-0.000347784
-0.00011876
0.000132007
0.000403584
0.000694792
0.00100419
0.00133005
0.00167037
0.00202282
0.00238481
0.00275345
0.00312559
0.00349784
0.00386661
0.00422817
0.00457869
0.0049143
0.00523116
0.00552558
0.00579401
0.00603323
0.00624034
0.00641289
0.00654893
0.00664709
0.00670662
0.00672746
0.00671022
0.00665626
0.00656762
0.00644704
0.00629792
0.00612429
0.00593069
0.00572219
0.00550421
0.0052825
0.00506301
0.00485177
0.00465482
0.00447804
0.00432705
0.00420683
0.00412212
0.0040817
0.00409139
0.000692786
0.000560788
0.000425669
0.000283701
0.000131877
-2.50281e-05
-0.000182403
-0.000336505
-0.000484002
-0.000621977
-0.000747958
-0.0008599
-0.000956137
-0.00103532
-0.00109636
-0.0011384
-0.00116074
-0.00116278
-0.00114407
-0.00110421
-0.00104288
-0.000959815
-0.00085483
-0.000727815
-0.000578758
-0.000407765
-0.000215074
-1.08783e-06
0.000233602
0.00048819
0.000761635
0.00105264
0.00135963
0.00168076
0.00201386
0.0023565
0.00270595
0.00305922
0.0034131
0.00376413
0.00410874
0.00444322
0.00476384
0.00506688
0.00534873
0.00560596
0.00583539
0.00603419
0.00619995
0.00633075
0.00642524
0.00648265
0.00650291
0.00648658
0.00643495
0.00634998
0.00623428
0.00609112
0.00592432
0.00573822
0.0055376
0.00532755
0.00511343
0.00490075
0.00469505
0.00450182
0.00432637
0.00417375
0.00404853
0.00395508
0.00389988
0.00388669
0.000949918
0.000771303
0.000605908
0.000445519
0.000281777
0.000118289
-4.13206e-05
-0.000194449
-0.000338761
-0.000472173
-0.000592917
-0.000699521
-0.000790776
-0.000865707
-0.000923511
-0.000963528
-0.000985205
-0.000988069
-0.000971705
-0.000935743
-0.000879852
-0.000803738
-0.000707161
-0.000589941
-0.000451978
-0.000293276
-0.000113957
8.56977e-05
0.000305229
0.000543972
0.000801033
0.00107527
0.00136525
0.00166929
0.00198539
0.00231124
0.00264428
0.00298165
0.00332025
0.00365678
0.00398774
0.00430952
0.00461846
0.00491092
0.00518331
0.00543224
0.00565455
0.0058474
0.00600838
0.00613555
0.0062275
0.00628345
0.00630324
0.00628739
0.00623709
0.00615423
0.0060413
0.00590143
0.00573831
0.00555606
0.00535924
0.00515269
0.00494146
0.00473069
0.00452554
0.00433103
0.00415204
0.0039931
0.00385848
0.00375218
0.00367788
0.00363678
0.00121468
0.000988111
0.000790179
0.000608511
0.000429643
0.000256213
9.10156e-05
-6.43763e-05
-0.000208558
-0.000340227
-0.000458285
-0.000561839
-0.00065015
-0.000722617
-0.00077874
-0.000818089
-0.000840282
-0.000844962
-0.000831784
-0.000800408
-0.000750501
-0.000681739
-0.000593827
-0.000486507
-0.000359583
-0.000212945
-4.65943e-05
0.000139326
0.000344499
0.000568411
0.000810325
0.00106925
0.00134393
0.00163281
0.00193404
0.00224547
0.00256465
0.00288886
0.00321509
0.00354011
0.00386051
0.00417273
0.00447314
0.00475809
0.00502402
0.00526748
0.0054853
0.00567457
0.00583283
0.00595806
0.00604878
0.00610411
0.00612382
0.00610833
0.00605874
0.00597683
0.00586501
0.00572627
0.00556416
0.00538267
0.00518616
0.00497927
0.00476681
0.00455366
0.00434466
0.00414449
0.00395765
0.00378829
0.00364041
0.00351775
0.00342102
0.0033488
0.00147681
0.00120207
0.000970436
0.000765654
0.000569436
0.000383616
0.000210274
5.00588e-05
-9.64704e-05
-0.000228756
-0.000346343
-0.000448886
-0.00053611
-0.000607795
-0.000663748
-0.000703778
-0.00072768
-0.00073522
-0.000726129
-0.000700103
-0.000656809
-0.000595893
-0.000516997
-0.000419779
-0.00030394
-0.000169252
-1.55788e-05
0.000157081
0.000348564
0.00055852
0.000786372
0.00103129
0.00129218
0.00156764
0.00185597
0.00215514
0.00246283
0.0027764
0.00309294
0.00340929
0.00372204
0.00402768
0.00432255
0.00460298
0.00486535
0.00510615
0.0053221
0.00551022
0.00566792
0.00579305
0.00588402
0.00593984
0.00596014
0.00594524
0.00589611
0.00581443
0.00570249
0.00556318
0.00539994
0.00521662
0.00501745
0.00480694
0.0045897
0.00437041
0.0041537
0.00394402
0.00374555
0.00356217
0.00339773
0.00325578
0.00313411
0.00302878
0.00172734
0.00140493
0.0011392
0.00091024
0.000695203
0.000495255
0.000311867
0.000144843
-6.03988e-06
-0.00014091
-0.000259924
-0.00036326
-0.000451092
-0.000523572
-0.000580808
-0.000622848
-0.000649663
-0.000661145
-0.0006571
-0.00063726
-0.00060129
-0.000548799
-0.000479365
-0.000392554
-0.000287957
-0.000165215
-2.40487e-05
0.000135699
0.000314029
0.000510759
0.000725484
0.000957546
0.001206
0.00146961
0.00174682
0.00203571
0.00233409
0.0026394
0.00294878
0.00325911
0.00356701
0.00386893
0.00416118
0.00444002
0.00470172
0.00494267
0.00515946
0.00534895
0.00550838
0.00563546
0.00572842
0.00578611
0.005808
0.00579426
0.00574573
0.00566395
0.00555111
0.00540999
0.00524392
0.00505667
0.00485237
0.00463541
0.00441031
0.00418162
0.00395381
0.00373119
0.00351777
0.00331721
0.00313336
0.00296965
0.00282113
0.00268148
0.00195835
0.00158922
0.0012895
0.00103587
0.00080114
0.000585895
0.000391086
0.000215741
5.8914e-05
-8.01672e-05
-0.000202227
-0.000307945
-0.000397921
-0.000472664
-0.000532575
-0.000577929
-0.000608868
-0.000625403
-0.000627414
-0.000614665
-0.000586811
-0.000543417
-0.000483991
-0.000408001
-0.000314917
-0.000204243
-7.55466e-05
7.1497e-05
0.000237062
0.000421144
0.000623515
0.000843692
0.0010809
0.00133405
0.00160173
0.00188217
0.00217324
0.00247248
0.00277708
0.00308394
0.00338966
0.00369064
0.00398314
0.00426329
0.00452725
0.00477123
0.00499165
0.00518518
0.00534885
0.00548015
0.00557711
0.00563836
0.00566319
0.00565156
0.00560416
0.00552239
0.00540831
0.00526458
0.00509445
0.00490162
0.00469016
0.00446439
0.00422878
0.00398782
0.00374594
0.00350737
0.00327604
0.00305552
0.00284974
0.00266218
0.00248528
0.00231048
0.00216272
0.00174807
0.00141484
0.00113646
0.000881607
0.000650351
0.000443172
0.000258386
9.43671e-05
-5.02536e-05
-0.000176736
-0.00028623
-0.000379741
-0.000458117
-0.000522031
-0.000571974
-0.000608249
-0.000630979
-0.000640107
-0.000635419
-0.000616554
-0.000583026
-0.000534262
-0.000469626
-0.000388457
-0.000290113
-0.000173995
-3.96024e-05
0.000113421
0.000285257
0.000475868
0.000684948
0.000911899
0.0011558
0.00141537
0.00168898
0.00197459
0.0022698
0.00257186
0.00287765
0.00318377
0.00348655
0.00378213
0.00406652
0.00433569
0.00458568
0.00481267
0.0050131
0.00518374
0.00532181
0.00542509
0.00549195
0.00552142
0.00551326
0.00546797
0.00538675
0.00527152
0.00512484
0.00494987
0.00475025
0.00453002
0.00429348
0.00404512
0.00378943
0.00353085
0.00327365
0.00302177
0.00277879
0.00254883
0.00233556
0.00212894
0.00191834
0.00233391
0.00187511
0.00150912
0.00120622
0.00093115
0.000683515
0.000463357
0.000268323
9.61532e-05
-5.50865e-05
-0.000187159
-0.000301658
-0.000399967
-0.000483252
-0.000552441
-0.000608224
-0.000651054
-0.000681148
-0.000698504
-0.000702918
-0.000694002
-0.000671211
-0.000633883
-0.000581264
-0.000512555
-0.000426954
-0.000323686
-0.000202067
-6.15475e-05
9.82539e-05
0.000277496
0.000476069
0.000693556
0.000929206
0.00118189
0.0014501
0.0017319
0.00202497
0.00232658
0.00263362
0.00294264
0.00324988
0.00355136
0.00384294
0.00412038
0.00437948
0.00461616
0.00482656
0.00500716
0.00515487
0.00526713
0.00534202
0.00537828
0.00537539
0.00533361
0.00525394
0.00513813
0.00498861
0.00480847
0.00460129
0.00437111
0.00412226
0.00385927
0.00358671
0.00330913
0.00303091
0.00275608
0.00248835
0.00223215
0.00199143
0.00175383
0.00150669
0.00246586
0.0019644
0.00156656
0.00123961
0.000944496
0.000680385
0.000446904
0.000241067
6.00168e-05
-9.87168e-05
-0.000237374
-0.000357965
-0.000462228
-0.000551622
-0.000627313
-0.000690172
-0.000740781
-0.000779443
-0.000806192
-0.000820825
-0.000822914
-0.000811843
-0.000786851
-0.000747056
-0.000691508
-0.000619233
-0.000529273
-0.000420747
-0.000292897
-0.000145132
2.29184e-05
0.000211349
0.000419938
0.000648113
0.000894912
0.00115895
0.00143841
0.00173105
0.00203416
0.00234463
0.00265896
0.00297329
0.00328351
0.00358528
0.00387413
0.00414559
0.00439528
0.00461899
0.00481285
0.0049734
0.0050977
0.00518347
0.0052291
0.00523375
0.00519739
0.00512076
0.00500542
0.00485367
0.00466848
0.00445342
0.00421252
0.00395019
0.00367105
0.00337982
0.00308122
0.00277981
0.00247985
0.00218524
0.00190082
0.00163095
0.00136103
0.00107646
0.00255286
0.00201033
0.00158171
0.00123134
0.000916557
0.000636074
0.000389135
0.000172143
-1.83349e-05
-0.000185276
-0.000331375
-0.000459032
-0.000570317
-0.000666961
-0.000750346
-0.000821506
-0.000881139
-0.000929611
-0.000966983
-0.000993035
-0.00100729
-0.00100904
-0.000997428
-0.00097142
-0.000929907
-0.000871734
-0.000795744
-0.000700844
-0.000586058
-0.000450568
-0.000293778
-0.000115374
8.46324e-05
0.000305865
0.000547535
0.000808408
0.00108679
0.0013805
0.0016869
0.00200286
0.00232482
0.00264884
0.00297063
0.00328564
0.00358917
0.00387642
0.00414265
0.00438329
0.00459404
0.00477102
0.00491086
0.00501083
0.00506891
0.00508388
0.00505536
0.0049838
0.00487051
0.00471764
0.00452803
0.00430521
0.00405326
0.00377666
0.00348019
0.00316878
0.00284739
0.00252085
0.0021937
0.00187016
0.0015556
0.00125487
0.000951146
0.000627958
0.00258952
0.0020076
0.00154937
0.00117637
0.000842425
0.000545839
0.000285466
5.71173e-05
-0.000143194
-0.000318932
-0.00047322
-0.000608828
-0.000728138
-0.00083313
-0.000925382
-0.00100608
-0.001076
-0.00113558
-0.00118487
-0.00122364
-0.00125133
-0.00126715
-0.00127011
-0.00125902
-0.00123261
-0.00118952
-0.00112839
-0.00104789
-0.000946813
-0.000824099
-0.000678909
-0.000510694
-0.000319235
-0.000104693
0.000132337
0.00039079
0.000669103
0.000965202
0.00127649
0.00159985
0.00193167
0.0022679
0.00260409
0.00293547
0.00325704
0.00356368
0.00385025
0.00411173
0.00434338
0.0045408
0.00470013
0.00481812
0.00489228
0.00492093
0.00490325
0.00483936
0.00473029
0.00457794
0.00438505
0.0041551
0.00389221
0.00360096
0.00328635
0.00295354
0.0026078
0.00225436
0.0018981
0.00154365
0.001197
0.000863571
0.000524387
0.00016103
0.00257071
0.00195116
0.00146459
0.00106985
0.000717386
0.000405088
0.000131425
-0.000108366
-0.000318809
-0.000503838
-0.000666984
-0.000811366
-0.000939657
-0.00105407
-0.00115636
-0.00124784
-0.00132937
-0.0014014
-0.001464
-0.00151687
-0.00155939
-0.00159067
-0.00160956
-0.00161473
-0.0016047
-0.00157791
-0.00153276
-0.0014677
-0.00138126
-0.00127211
-0.00113917
-0.000981616
-0.000798981
-0.000591187
-0.000358609
-0.000102123
0.000176869
0.000476411
0.000793977
0.00112647
0.00147024
0.00182114
0.00217455
0.00252546
0.00286856
0.00319836
0.00350931
0.00379589
0.00405282
0.00427515
0.00445843
0.00459883
0.00469329
0.00473957
0.00473639
0.00468342
0.00458132
0.00443177
0.00423732
0.00400139
0.00372814
0.00342229
0.00308906
0.00273392
0.00236255
0.00198058
0.00159337
0.00120604
0.000825291
0.000457232
8.066e-05
-0.000324817
0.00249155
0.00183623
0.00132269
0.000907178
0.000536926
0.0002094
-7.73178e-05
-0.000328553
-0.00054935
-0.000744095
-0.00091671
-0.00107065
-0.00120885
-0.00133375
-0.00144726
-0.0015508
-0.00164528
-0.0017312
-0.00180857
-0.00187707
-0.00193596
-0.00198424
-0.00202062
-0.00204357
-0.00205141
-0.00204238
-0.00201463
-0.00196633
-0.00189576
-0.0018013
-0.00168159
-0.00153551
-0.00136232
-0.00116168
-0.000933709
-0.000679068
-0.000398967
-9.5213e-05
0.000229767
0.000572919
0.000930575
0.00129849
0.00167187
0.00204549
0.00241371
0.00277065
0.00311026
0.00342652
0.00371353
0.00396572
0.00417796
0.00434576
0.00446538
0.00453395
0.0045496
0.00451148
0.00441985
0.00427602
0.00408236
0.00384218
0.00355967
0.00323972
0.00288779
0.00250973
0.00211164
0.00169968
0.00127977
0.00085759
0.000440649
3.58472e-05
-0.000380321
-0.000830305
0.00234738
0.00165826
0.00111919
0.000683971
0.000296741
-4.54582e-05
-0.000344929
-0.000607549
-0.000838867
-0.00104371
-0.00122637
-0.00139062
-0.00153967
-0.00167613
-0.00180206
-0.00191897
-0.00202783
-0.00212912
-0.00222285
-0.0023086
-0.00238556
-0.00245256
-0.00250816
-0.00255064
-0.00257812
-0.00258857
-0.00257991
-0.00255002
-0.00249688
-0.00241859
-0.00231344
-0.00218003
-0.0020173
-0.00182461
-0.00160179
-0.00134925
-0.00106797
-0.000759567
-0.000426341
-7.12702e-05
0.000301985
0.000689105
0.00108516
0.00148466
0.00188166
0.00226983
0.00264265
0.00299349
0.00331581
0.0036033
0.0038501
0.00405093
0.00420128
0.00429753
0.00433712
0.00431858
0.00424164
0.00410721
0.00391738
0.00367535
0.00338528
0.00305223
0.00268194
0.00228068
0.00185506
0.00141182
0.000957511
0.000498495
4.31753e-05
-0.000400664
-0.000858943
-0.00135629
0.00213382
0.00141295
0.000849905
0.000396093
-7.24653e-06
-0.000363506
-0.00067538
-0.000949281
-0.00119125
-0.00140654
-0.00159981
-0.00177514
-0.00193595
-0.00208506
-0.00222464
-0.00235629
-0.00248102
-0.00259929
-0.00271106
-0.00281584
-0.00291269
-0.00300031
-0.00307708
-0.00314108
-0.0031902
-0.00322216
-0.00323459
-0.00322509
-0.00319131
-0.00313103
-0.0030422
-0.00292307
-0.00277224
-0.00258872
-0.00237204
-0.00212227
-0.00184015
-0.00152706
-0.00118511
-0.000817174
-0.00042687
-1.85533e-05
0.000402713
0.000831216
0.00126067
0.00168433
0.00209511
0.00248576
0.00284902
0.00317778
0.00346533
0.00370551
0.0038929
0.00402303
0.0040925
0.00409912
0.00404196
0.00392144
0.00373929
0.0034985
0.00320323
0.00285866
0.00247085
0.0020465
0.0015928
0.00111716
0.000626849
0.000128986
-0.000367011
-0.000852382
-0.00135561
-0.00190364
0.00184671
0.00109628
0.000510879
3.96655e-05
-0.000378863
-0.000748528
-0.00107242
-0.00135747
-0.00161021
-0.00183629
-0.00204073
-0.00222788
-0.0024014
-0.00256427
-0.00271879
-0.00286661
-0.00300876
-0.00314569
-0.00327731
-0.00340302
-0.00352177
-0.0036321
-0.00373221
-0.00381996
-0.003893
-0.00394878
-0.00398464
-0.00399786
-0.00398576
-0.00394574
-0.00387541
-0.00377262
-0.00363559
-0.00346296
-0.00325386
-0.00300803
-0.00272587
-0.00240849
-0.00205777
-0.00167641
-0.00126794
-0.00083671
-0.000387887
7.26101e-05
0.000538175
0.00100162
0.0014553
0.00189129
0.00230153
0.00267805
0.00301316
0.00329971
0.00353127
0.00370233
0.00380855
0.00384683
0.00381549
0.00371432
0.00354456
0.00330896
0.00301157
0.00265773
0.00225376
0.00180688
0.00132488
0.000815933
0.000288108
-0.000250622
-0.000789706
-0.00131931
-0.00187066
-0.00247318
0.00148219
0.000704517
9.84553e-05
-0.000388914
-0.000821664
-0.00120404
-0.00153953
-0.00183559
-0.0020992
-0.00233641
-0.00255258
-0.00275232
-0.00293953
-0.00311731
-0.00328809
-0.00345356
-0.00361477
-0.00377215
-0.00392553
-0.00407423
-0.00421705
-0.00435237
-0.0044782
-0.00459218
-0.00469169
-0.00477392
-0.00483589
-0.00487453
-0.00488681
-0.00486976
-0.00482056
-0.00473665
-0.00461583
-0.0044563
-0.00425677
-0.00401657
-0.00373571
-0.00341496
-0.0030559
-0.00266101
-0.00223367
-0.00177817
-0.00129973
-0.000804433
-0.0002992
0.000208347
0.00070999
0.00119708
0.00166071
0.00209195
0.00248206
0.00282275
0.00310642
0.0033264
0.00347721
0.0035547
0.00355626
0.00348088
0.00332924
0.00310369
0.00280814
0.00244799
0.00202988
0.00156152
0.00105138
0.000508472
-5.82523e-05
-0.000639862
-0.00122455
-0.00180127
-0.00240425
-0.00306558
0.00103671
0.000234214
-0.000390717
-0.000892941
-0.0013389
-0.00173328
-0.00207994
-0.00238684
-0.00266142
-0.00291011
-0.00313858
-0.00335171
-0.00355358
-0.00374747
-0.00393587
-0.00412055
-0.00430254
-0.00448224
-0.00465942
-0.00483328
-0.0050025
-0.00516529
-0.00531944
-0.00546237
-0.0055912
-0.00570281
-0.00579389
-0.00586105
-0.00590084
-0.00590988
-0.00588492
-0.00582295
-0.00572128
-0.00557762
-0.00539021
-0.00515791
-0.00488028
-0.00455765
-0.00419127
-0.00378328
-0.00333685
-0.00285616
-0.0023464
-0.00181381
-0.00126554
-0.000709657
-0.000154954
0.000389172
0.00091292
0.00140631
0.00185945
0.00226278
0.00260737
0.00288522
0.00308952
0.00321487
0.00325753
0.00321555
0.00308885
0.00287926
0.00259046
0.00222784
0.00179833
0.00131014
0.000772485
0.000195257
-0.000411583
-0.00103805
-0.00167093
-0.00229787
-0.00295631
-0.00368124
0.00050705
-0.000317722
-0.000959654
-0.00147538
-0.00193352
-0.00233915
-0.00269655
-0.00301413
-0.00329978
-0.00356029
-0.00380164
-0.00402896
-0.00424652
-0.00445772
-0.00466517
-0.00487064
-0.0050752
-0.00527919
-0.00548231
-0.00568364
-0.00588174
-0.00607464
-0.00625992
-0.00643475
-0.006596
-0.00674024
-0.00686381
-0.00696294
-0.00703378
-0.0070725
-0.00707539
-0.00703892
-0.00695989
-0.00683547
-0.00666336
-0.00644186
-0.00617002
-0.00584767
-0.00547559
-0.00505555
-0.00459041
-0.00408414
-0.00354186
-0.00296985
-0.00237549
-0.00176722
-0.00115441
-0.000547223
4.36077e-05
0.000606988
0.00113174
0.00160692
0.0020221
0.00236775
0.00263552
0.00281856
0.00291178
0.00291205
0.00281835
0.00263183
0.00235577
0.0019955
0.00155816
0.0010525
0.000488474
-0.000123039
-0.000770988
-0.00144421
-0.00212794
-0.00280837
-0.00352642
-0.00432024
-0.000109645
-0.000954026
-0.00161102
-0.00213886
-0.00260809
-0.00302422
-0.00339189
-0.00372
-0.00401682
-0.0042895
-0.00454432
-0.00478664
-0.00502092
-0.00525069
-0.00547861
-0.00570653
-0.0059355
-0.00616581
-0.00639709
-0.00662832
-0.00685792
-0.00708372
-0.00730312
-0.00751305
-0.00771009
-0.00789048
-0.00805022
-0.00818515
-0.00829099
-0.00836343
-0.00839826
-0.0083914
-0.00833907
-0.00823786
-0.00808485
-0.00787773
-0.00761493
-0.00729571
-0.00692028
-0.00648995
-0.00600716
-0.00547557
-0.00490013
-0.0042871
-0.003644
-0.00297961
-0.00230384
-0.0016276
-0.000962589
-0.000321089
0.000284356
0.000841253
0.00133753
0.00176192
0.00210429
0.0023561
0.00251065
0.00256338
0.00251209
0.00235705
0.00210097
0.00174898
0.00130839
0.000788401
0.000199805
-0.0004455
-0.00113526
-0.00185701
-0.00259427
-0.00333161
-0.00411375
-0.00498223
-0.00081582
-0.00167704
-0.00234709
-0.00288561
-0.00336484
-0.00379069
-0.00416817
-0.00450662
-0.0048147
-0.00509991
-0.00536879
-0.00562693
-0.00587896
-0.00612853
-0.0063784
-0.00663043
-0.00688567
-0.00714438
-0.00740612
-0.00766977
-0.00793358
-0.00819523
-0.00845191
-0.00870031
-0.00893671
-0.00915705
-0.00935696
-0.00953187
-0.00967704
-0.00978767
-0.009859
-0.00988638
-0.0098654
-0.00979199
-0.00966255
-0.00947408
-0.0092243
-0.00891181
-0.00853616
-0.00809807
-0.00759944
-0.00704354
-0.00643503
-0.00578002
-0.00508611
-0.00436232
-0.00361904
-0.00286792
-0.00212164
-0.00139371
-0.000698124
-4.90432e-05
0.000539624
0.00105465
0.0014839
0.00181684
0.00204488
0.00216175
0.00216377
0.00205007
0.00182259
0.0014861
0.00104792
0.000517735
-9.28812e-05
-0.000770918
-0.00150283
-0.00227469
-0.00306813
-0.00386592
-0.00471691
-0.00566631
-0.00161349
-0.00248869
-0.00316973
-0.00371746
-0.00420556
-0.00464034
-0.00502717
-0.00537577
-0.0056952
-0.00599327
-0.00627678
-0.00655154
-0.00682234
-0.00709295
-0.00736621
-0.00764402
-0.00792741
-0.00821662
-0.00851115
-0.00880975
-0.00911057
-0.00941111
-0.00970835
-0.00999874
-0.0102783
-0.0105426
-0.0107869
-0.0110063
-0.0111955
-0.0113492
-0.011462
-0.0115288
-0.0115444
-0.0115039
-0.0114032
-0.0112383
-0.0110063
-0.010705
-0.0103331
-0.00989057
-0.0093788
-0.00880045
-0.00815976
-0.0074626
-0.0067165
-0.00593063
-0.00511581
-0.00428434
-0.00344987
-0.00262716
-0.00183174
-0.00107956
-0.000386518
0.000231964
0.000761499
0.00118924
0.00150438
0.0016986
0.00176643
0.00170553
0.00151681
0.00120444
0.000775656
0.000240478
-0.000388708
-0.00109774
-0.00187165
-0.00269496
-0.00354716
-0.00440904
-0.00533391
-0.00637094
-0.00250422
-0.00339046
-0.00408038
-0.00463583
-0.00513167
-0.00557457
-0.00597024
-0.00632879
-0.00665964
-0.00697086
-0.00726954
-0.00756168
-0.00785223
-0.00814508
-0.00844314
-0.00874834
-0.00906174
-0.00938354
-0.00971316
-0.0100493
-0.0103899
-0.0107324
-0.0110736
-0.0114096
-0.0117362
-0.0120487
-0.0123419
-0.0126105
-0.0128487
-0.0130507
-0.0132105
-0.0133222
-0.01338
-0.0133784
-0.0133121
-0.0131766
-0.0129678
-0.0126828
-0.0123194
-0.0118768
-0.0113555
-0.0107575
-0.0100865
-0.00934792
-0.00854911
-0.00769928
-0.00680953
-0.00589278
-0.00496357
-0.00403791
-0.0031329
-0.00226638
-0.00145643
-0.000720857
-7.65949e-05
0.000460893
0.000878213
0.00116461
0.00131243
0.00131751
0.0011794
0.000901395
0.00049042
-4.3266e-05
-0.000686524
-0.00142399
-0.0022392
-0.00311492
-0.00402832
-0.00495796
-0.00596198
-0.00709379
-0.00348906
-0.00438336
-0.00508003
-0.00564169
-0.00614412
-0.00659431
-0.00699831
-0.00736658
-0.00770886
-0.00803351
-0.00834784
-0.00865805
-0.00896926
-0.00928546
-0.00960964
-0.00994379
-0.010289
-0.0106454
-0.0110123
-0.0113885
-0.0117718
-0.0121593
-0.0125478
-0.0129331
-0.0133107
-0.0136757
-0.0140224
-0.0143451
-0.0146376
-0.0148933
-0.0151059
-0.0152686
-0.0153748
-0.0154182
-0.0153928
-0.0152929
-0.0151137
-0.014851
-0.0145019
-0.0140644
-0.0135381
-0.0129243
-0.0122258
-0.0114476
-0.0105966
-0.00968189
-0.00871472
-0.00770847
-0.00667856
-0.00564216
-0.00461797
-0.0036258
-0.00268602
-0.00181906
-0.00104467
-0.000381282
0.000154742
0.000549774
0.000793547
0.000879637
0.000805812
0.000574164
0.000191045
-0.000333226
-0.000984841
-0.00174722
-0.00260231
-0.00353096
-0.00450778
-0.00550882
-0.00659747
-0.00783167
-0.00456858
-0.00546793
-0.00616921
-0.00673557
-0.00724342
-0.00770006
-0.00811184
-0.00848957
-0.00884324
-0.00918149
-0.00951187
-0.00984076
-0.0101734
-0.010514
-0.0108655
-0.01123
-0.0116086
-0.0120015
-0.012408
-0.0128266
-0.0132552
-0.0136908
-0.0141298
-0.0145681
-0.0150007
-0.0154225
-0.0158274
-0.0162093
-0.0165613
-0.0168766
-0.017148
-0.0173679
-0.0175292
-0.0176244
-0.0176467
-0.0175895
-0.0174467
-0.0172132
-0.0168848
-0.0164585
-0.015933
-0.0153082
-0.0145863
-0.0137714
-0.0128698
-0.0118904
-0.0108444
-0.00974541
-0.00860963
-0.00745535
-0.00630282
-0.00517382
-0.00409117
-0.00307807
-0.00215738
-0.00135085
-0.000678222
-0.000156468
0.000201021
0.000385063
0.000391169
0.000219806
-0.000123597
-0.000628905
-0.00128177
-0.00206442
-0.00295711
-0.00393864
-0.00498077
-0.00605681
-0.00723572
-0.0085803
-0.00574279
-0.00664421
-0.00734797
-0.00791752
-0.00842963
-0.00889186
-0.00931086
-0.0096977
-0.0100626
-0.0104146
-0.0107613
-0.0111093
-0.0114641
-0.0118298
-0.0122097
-0.0126058
-0.0130193
-0.0134503
-0.0138983
-0.0143616
-0.014838
-0.0153245
-0.0158173
-0.016312
-0.0168036
-0.0172864
-0.0177542
-0.0182003
-0.0186174
-0.0189981
-0.0193343
-0.0196181
-0.0198412
-0.0199954
-0.0200728
-0.0200656
-0.0199669
-0.01977
-0.0194698
-0.0190619
-0.0185436
-0.0179139
-0.0171737
-0.0163262
-0.015377
-0.0143344
-0.0132093
-0.0120156
-0.0107699
-0.00949155
-0.0082022
-0.00692566
-0.00568723
-0.00451305
-0.00342936
-0.00246153
-0.00163316
-0.000965055
-0.000474282
-0.000173365
-6.961e-05
-0.000164691
-0.000454532
-0.000929507
-0.00157492
-0.00237188
-0.00329889
-0.00433256
-0.00544149
-0.00659594
-0.00787087
-0.0093342
-0.0070112
-0.00791176
-0.00861591
-0.00918717
-0.00970238
-0.0101693
-0.0105949
-0.0109904
-0.0113665
-0.0117321
-0.0120952
-0.0124626
-0.0128399
-0.0132314
-0.0136404
-0.0140691
-0.0145187
-0.0149894
-0.0154805
-0.0159905
-0.016517
-0.017057
-0.0176065
-0.018161
-0.0187152
-0.0192632
-0.0197984
-0.0203136
-0.0208011
-0.0212529
-0.0216604
-0.0220146
-0.0223066
-0.0225271
-0.0226672
-0.0227181
-0.0226714
-0.0225194
-0.0222553
-0.0218736
-0.0213702
-0.0207426
-0.0199905
-0.0191159
-0.0181234
-0.0170205
-0.0158177
-0.0145286
-0.0131702
-0.0117627
-0.0103291
-0.0088951
-0.00748846
-0.00613841
-0.00487474
-0.00372683
-0.00272253
-0.00188701
-0.00124165
-0.000802953
-0.00058169
-0.000582292
-0.000802576
-0.00123384
-0.00186132
-0.00266512
-0.00362201
-0.0047062
-0.00588289
-0.00711894
-0.0084957
-0.0100865
-0.00837276
-0.00926962
-0.00997214
-0.0105437
-0.0110608
-0.0115316
-0.0119631
-0.0123668
-0.0127536
-0.0131326
-0.0135121
-0.0138989
-0.0142989
-0.0147165
-0.0151552
-0.0156172
-0.0161037
-0.0166151
-0.0171507
-0.0177089
-0.0182875
-0.0188833
-0.0194921
-0.0201094
-0.0207297
-0.0213466
-0.0219534
-0.0225425
-0.0231057
-0.0236343
-0.024119
-0.0245503
-0.0249181
-0.0252125
-0.0254232
-0.0255402
-0.025554
-0.0254554
-0.0252363
-0.0248895
-0.0244093
-0.023792
-0.0230355
-0.0221405
-0.0211104
-0.0199516
-0.0186738
-0.0172903
-0.0158182
-0.014278
-0.012694
-0.0110937
-0.00950729
-0.00796708
-0.00650658
-0.00515947
-0.00395827
-0.00293309
-0.00211023
-0.00151092
-0.00115012
-0.00103577
-0.0011682
-0.00154019
-0.00213727
-0.00293875
-0.00391969
-0.0050518
-0.00629655
-0.00761703
-0.00910141
-0.0108287
-0.00982589
-0.0107164
-0.0114154
-0.0119858
-0.0125038
-0.0129774
-0.0134141
-0.0138254
-0.0142223
-0.0146144
-0.0150098
-0.0154159
-0.0158384
-0.0162821
-0.0167505
-0.017246
-0.0177699
-0.0183227
-0.0189037
-0.0195114
-0.0201436
-0.0207969
-0.0214673
-0.02215
-0.0228392
-0.0235286
-0.0242109
-0.0248782
-0.0255219
-0.0261327
-0.0267006
-0.0272153
-0.0276659
-0.0280414
-0.0283305
-0.028522
-0.0286049
-0.0285686
-0.0284036
-0.0281009
-0.0276533
-0.0270551
-0.0263029
-0.0253955
-0.0243349
-0.0231261
-0.0217778
-0.0203026
-0.0187173
-0.0170427
-0.015304
-0.0135301
-0.0117536
-0.0100098
-0.00833615
-0.00677078
-0.0053513
-0.00411328
-0.00308864
-0.00230406
-0.00177959
-0.00152746
-0.00155135
-0.00184613
-0.00239816
-0.00318627
-0.00418387
-0.0053601
-0.0066724
-0.00807972
-0.00967742
-0.0115505
-0.0113685
-0.0122502
-0.0129439
-0.0135119
-0.0140296
-0.0145052
-0.0149462
-0.0153643
-0.0157707
-0.016175
-0.0165858
-0.0170105
-0.017455
-0.0179243
-0.018422
-0.0189508
-0.0195121
-0.0201064
-0.0207332
-0.0213911
-0.0220778
-0.0227899
-0.0235235
-0.0242736
-0.0250343
-0.0257991
-0.0265603
-0.0273097
-0.0280383
-0.0287361
-0.0293927
-0.0299968
-0.0305368
-0.0310006
-0.0313758
-0.0316498
-0.0318105
-0.0318457
-0.0317441
-0.0314952
-0.0310898
-0.0305206
-0.0297821
-0.0288715
-0.0277887
-0.0265374
-0.0251248
-0.0235626
-0.0218666
-0.0200578
-0.0181618
-0.0162089
-0.0142336
-0.0122743
-0.0103721
-0.00856998
-0.00691084
-0.00543626
-0.00418444
-0.00318837
-0.00247407
-0.00205904
-0.0019512
-0.00214836
-0.00263834
-0.00339988
-0.00440499
-0.00562018
-0.00699856
-0.00849455
-0.0102111
-0.0122393
-0.0129981
-0.0138687
-0.0145555
-0.01512
-0.0156364
-0.0161129
-0.0165572
-0.0169812
-0.0173961
-0.0178118
-0.0182369
-0.0186791
-0.0191446
-0.0196385
-0.0201647
-0.0207259
-0.0213239
-0.0219593