/*--------------------------------*- C++ -*----------------------------------*\
  =========                 |
  \\      /  F ield         | OpenFOAM: The Open Source CFD Toolbox
   \\    /   O peration     | Website:  https://openfoam.org
    \\  /    A nd           | Version:  dev
     \\/     M anipulation  |
\*---------------------------------------------------------------------------*/
FoamFile
{
    format      ascii;
    class       surfaceScalarField;
    location    "16.65";
    object      phi;
}
// * * * * * * * * * * * * * * * * * * * * * * * * * * * * * * * * * * * * * //

dimensions      [0 3 -1 0 0 0 0];

internalField   nonuniform List<scalar> 
10224
(
3.42763e-08
-3.43057e-08
8.79984e-08
-5.37225e-08
1.24315e-07
-3.63174e-08
1.25101e-07
-7.83741e-10
8.33641e-08
4.17378e-08
-2.16607e-09
8.55312e-08
-1.29672e-07
1.27507e-07
-2.95843e-07
1.66172e-07
-4.96623e-07
2.00782e-07
-7.27718e-07
2.31096e-07
-9.84864e-07
2.57147e-07
-1.26398e-06
2.79112e-07
-1.56122e-06
2.97244e-07
-1.87304e-06
3.11827e-07
-2.19619e-06
3.23142e-07
-2.52765e-06
3.31459e-07
-2.86466e-06
3.37012e-07
-3.20466e-06
3.40003e-07
-3.54526e-06
3.40593e-07
-3.88416e-06
3.38903e-07
-4.21917e-06
3.35017e-07
-4.54817e-06
3.28991e-07
-4.86901e-06
3.20848e-07
-5.17961e-06
3.10591e-07
-5.47782e-06
2.9821e-07
-5.7615e-06
2.83682e-07
-6.02848e-06
2.66986e-07
-6.27659e-06
2.48104e-07
-6.50362e-06
2.27034e-07
-6.70741e-06
2.03789e-07
-6.88582e-06
1.78406e-07
-7.03677e-06
1.50953e-07
-7.15831e-06
1.21534e-07
-7.24859e-06
9.0286e-08
-7.30598e-06
5.73883e-08
-7.32905e-06
2.30645e-08
-7.31663e-06
-1.24196e-08
-7.26787e-06
-4.87571e-08
-7.18227e-06
-8.56008e-08
-7.05971e-06
-1.22564e-07
-6.90048e-06
-1.59225e-07
-6.70535e-06
-1.95136e-07
-6.47552e-06
-2.29829e-07
-6.2127e-06
-2.6282e-07
-5.91907e-06
-2.93625e-07
-5.59731e-06
-3.21762e-07
-5.25055e-06
-3.46765e-07
-4.88236e-06
-3.68195e-07
-4.4967e-06
-3.85652e-07
-4.09792e-06
-3.98783e-07
-3.69063e-06
-4.07292e-07
-3.27968e-06
-4.1095e-07
-2.87008e-06
-4.096e-07
-2.46691e-06
-4.03167e-07
-2.07525e-06
-3.9166e-07
-1.70007e-06
-3.75175e-07
-1.34618e-06
-3.53897e-07
-1.01808e-06
-3.28098e-07
-7.19935e-07
-2.9814e-07
-4.55464e-07
-2.6447e-07
-2.27839e-07
-2.27625e-07
-3.96037e-08
-1.88235e-07
1.07435e-07
-1.47039e-07
2.12337e-07
-1.04903e-07
2.75213e-07
-6.28752e-08
2.97487e-07
-2.22729e-08
2.82324e-07
1.51627e-08
2.35307e-07
4.70165e-08
1.65477e-07
6.98287e-08
8.71016e-08
7.83743e-08
2.25249e-08
6.45761e-08
2.25257e-08
5.39866e-08
-8.82935e-08
1.12271e-07
-1.12005e-07
1.17804e-07
-4.18512e-08
3.82959e-08
7.87255e-08
-1.42614e-07
2.2265e-07
-4.30221e-07
3.7314e-07
-8.22743e-07
5.2003e-07
-1.31404e-06
6.57472e-07
-1.89556e-06
7.82298e-07
-2.55749e-06
8.93027e-07
-3.28957e-06
9.89229e-07
-4.08157e-06
1.07111e-06
-4.92358e-06
1.13925e-06
-5.80618e-06
1.19442e-06
-6.72049e-06
1.23745e-06
-7.65818e-06
1.26916e-06
-8.61148e-06
1.29031e-06
-9.57305e-06
1.30157e-06
-1.05359e-05
1.30348e-06
-1.14935e-05
1.29647e-06
-1.24393e-05
1.28085e-06
-1.33672e-05
1.25683e-06
-1.42708e-05
1.22453e-06
-1.51442e-05
1.18399e-06
-1.59813e-05
1.13522e-06
-1.67758e-05
1.0782e-06
-1.75217e-05
1.01289e-06
-1.82129e-05
9.39301e-07
-1.88433e-05
8.5747e-07
-1.9407e-05
7.67515e-07
-1.98983e-05
6.69641e-07
-2.03115e-05
5.64156e-07
-2.06414e-05
4.5149e-07
-2.08834e-05
3.32213e-07
-2.1033e-05
2.07038e-07
-2.10868e-05
7.68264e-08
-2.10418e-05
-5.74086e-08
-2.0896e-05
-1.94505e-07
-2.06485e-05
-3.33157e-07
-2.02991e-05
-4.71932e-07
-1.98491e-05
-6.09279e-07
-1.93006e-05
-7.43555e-07
-1.86574e-05
-8.7305e-07
-1.79242e-05
-9.9601e-07
-1.71072e-05
-1.11067e-06
-1.62137e-05
-1.2153e-06
-1.52522e-05
-1.30823e-06
-1.42325e-05
-1.38788e-06
-1.31653e-05
-1.45282e-06
-1.20623e-05
-1.5018e-06
-1.09359e-05
-1.53375e-06
-9.79892e-06
-1.54788e-06
-8.66488e-06
-1.54364e-06
-7.54726e-06
-1.52079e-06
-6.45955e-06
-1.47937e-06
-5.41497e-06
-1.41976e-06
-4.4262e-06
-1.34267e-06
-3.50517e-06
-1.24912e-06
-2.66282e-06
-1.14048e-06
-1.90883e-06
-1.01846e-06
-1.25138e-06
-8.85079e-07
-6.9685e-07
-7.42764e-07
-2.49558e-07
-5.94333e-07
8.8647e-08
-4.43108e-07
3.18829e-07
-2.93057e-07
4.45573e-07
-1.49017e-07
4.7784e-07
-1.71068e-08
4.30076e-07
9.47785e-08
3.23679e-07
1.76224e-07
1.88609e-07
2.13442e-07
6.42715e-08
1.88914e-07
8.67982e-08
3.72895e-08
-1.25583e-07
4.30523e-08
-1.17765e-07
-4.37587e-08
4.49609e-08
-2.59318e-07
2.94286e-07
-6.23179e-07
5.86513e-07
-1.14242e-06
8.92385e-07
-1.81529e-06
1.1929e-06
-2.63414e-06
1.47632e-06
-3.5876e-06
1.73576e-06
-4.66216e-06
1.96759e-06
-5.84328e-06
2.17034e-06
-7.11608e-06
2.34391e-06
-8.46587e-06
2.48905e-06
-9.87845e-06
2.60699e-06
-1.13402e-05
2.69919e-06
-1.28382e-05
2.76715e-06
-1.43602e-05
2.8123e-06
-1.58945e-05
2.83589e-06
-1.743e-05
2.83901e-06
-1.89561e-05
2.82252e-06
-2.04623e-05
2.78705e-06
-2.19385e-05
2.73307e-06
-2.33748e-05
2.66083e-06
-2.47614e-05
2.57051e-06
-2.60883e-05
2.46216e-06
-2.73459e-05
2.33581e-06
-2.85245e-05
2.19149e-06
-2.96145e-05
2.02928e-06
-3.06064e-05
1.84937e-06
-3.1491e-05
1.6521e-06
-3.22593e-05
1.438e-06
-3.2903e-05
1.20781e-06
-3.3414e-05
9.62539e-07
-3.37853e-05
7.03471e-07
-3.40104e-05
4.32188e-07
-3.40842e-05
1.50577e-07
-3.40024e-05
-1.39161e-07
-3.37624e-05
-4.34525e-07
-3.33629e-05
-7.32726e-07
-3.28041e-05
-1.03071e-06
-3.20881e-05
-1.32521e-06
-3.12189e-05
-1.61276e-06
-3.02022e-05
-1.88976e-06
-2.90457e-05
-2.15254e-06
-2.7759e-05
-2.39742e-06
-2.63535e-05
-2.6208e-06
-2.48425e-05
-2.81919e-06
-2.3241e-05
-2.98934e-06
-2.15656e-05
-3.12828e-06
-1.9834e-05
-3.2334e-06
-1.80652e-05
-3.30254e-06
-1.6279e-05
-3.33404e-06
-1.44959e-05
-3.32681e-06
-1.27363e-05
-3.28034e-06
-1.10209e-05
-3.1948e-06
-9.36965e-06
-3.07099e-06
-7.80189e-06
-2.91043e-06
-6.33567e-06
-2.71533e-06
-4.98753e-06
-2.48862e-06
-3.77204e-06
-2.23394e-06
-2.70144e-06
-1.95568e-06
-1.78518e-06
-1.65902e-06
-1.02951e-06
-1.35001e-06
-4.36895e-07
-1.03572e-06
-5.45016e-09
-7.24502e-07
2.71863e-07
-4.26331e-07
4.08088e-07
-1.53333e-07
4.23416e-07
7.94499e-08
3.46416e-07
2.53223e-07
2.15223e-07
3.44635e-07
7.84789e-08
3.25661e-07
1.65278e-07
1.83123e-09
-1.27415e-07
-7.91675e-08
-3.67633e-08
-2.97938e-07
2.63735e-07
-6.88109e-07
6.84459e-07
-1.26794e-06
1.16634e-06
-2.04365e-06
1.66811e-06
-3.01246e-06
2.16171e-06
-4.16509e-06
2.62896e-06
-5.48797e-06
3.05863e-06
-6.96477e-06
3.4444e-06
-8.57769e-06
3.78326e-06
-1.03083e-05
4.07449e-06
-1.2138e-05
4.3188e-06
-1.40488e-05
4.51777e-06
-1.60231e-05
4.67345e-06
-1.80439e-05
4.78801e-06
-2.00952e-05
4.86359e-06
-2.21614e-05
4.90213e-06
-2.42277e-05
4.90531e-06
-2.62797e-05
4.87448e-06
-2.83033e-05
4.81068e-06
-3.02849e-05
4.71468e-06
-3.22111e-05
4.58698e-06
-3.40684e-05
4.42789e-06
-3.58439e-05
4.23761e-06
-3.75244e-05
4.01627e-06
-3.90969e-05
3.76404e-06
-4.05488e-05
3.4812e-06
-4.18676e-05
3.16819e-06
-4.30412e-05
2.8257e-06
-4.4058e-05
2.45477e-06
-4.4907e-05
2.05679e-06
-4.5578e-05
1.63356e-06
-4.60619e-05
1.18737e-06
-4.63507e-05
7.20992e-07
-4.64378e-05
2.3769e-07
-4.63182e-05
-2.58757e-07
-4.59887e-05
-7.64084e-07
-4.54479e-05
-1.27356e-06
-4.46965e-05
-1.78204e-06
-4.37377e-05
-2.284e-06
-4.25769e-05
-2.77364e-06
-4.12217e-05
-3.24496e-06
-3.96824e-05
-3.69182e-06
-3.79717e-05
-4.10813e-06
-3.61046e-05
-4.48786e-06
-3.40986e-05
-4.82526e-06
-3.1973e-05
-5.11492e-06
-2.97493e-05
-5.35195e-06
-2.74507e-05
-5.53203e-06
-2.51016e-05
-5.65161e-06
-2.27277e-05
-5.70795e-06
-2.03552e-05
-5.69926e-06
-1.80108e-05
-5.62474e-06
-1.5721e-05
-5.48467e-06
-1.35115e-05
-5.28047e-06
-1.14072e-05
-5.01471e-06
-9.43141e-06
-4.69112e-06
-7.60536e-06
-4.31467e-06
-5.94778e-06
-3.89152e-06
-4.47436e-06
-3.42911e-06
-3.1972e-06
-2.93618e-06
-2.12426e-06
-2.42295e-06
-1.25876e-06
-1.90123e-06
-5.98458e-07
-1.3848e-06
-1.34958e-07
-8.89832e-07
1.47199e-07
-4.3549e-07
2.71423e-07
-4.47745e-08
2.7011e-07
2.54536e-07
1.85681e-07
4.29063e-07
7.20187e-08
4.39326e-07
2.37298e-07
-4.20945e-08
-8.53201e-08
-2.30086e-07
1.51231e-07
-6.06467e-07
6.40117e-07
-1.19774e-06
1.27573e-06
-2.01758e-06
1.98619e-06
-3.06915e-06
2.71967e-06
-4.34723e-06
3.4398e-06
-5.84041e-06
4.12214e-06
-7.53284e-06
4.75106e-06
-9.40573e-06
5.31729e-06
-1.14385e-05
5.81609e-06
-1.36099e-05
6.24586e-06
-1.58982e-05
6.60711e-06
-1.82821e-05
6.90165e-06
-2.07407e-05
7.132e-06
-2.32537e-05
7.301e-06
-2.58015e-05
7.41147e-06
-2.83654e-05
7.46604e-06
-3.09271e-05
7.46699e-06
-3.34689e-05
7.41622e-06
-3.59734e-05
7.31522e-06
-3.84238e-05
7.1651e-06
-4.08035e-05
6.96664e-06
-4.3096e-05
6.72037e-06
-4.52851e-05
6.42668e-06
-4.73547e-05
6.08589e-06
-4.9289e-05
5.6984e-06
-5.10726e-05
5.26476e-06
-5.26902e-05
4.78582e-06
-5.41273e-05
4.26279e-06
-5.53699e-05
3.69735e-06
-5.64049e-05
3.09175e-06
-5.72201e-05
2.44885e-06
-5.78049e-05
1.77217e-06
-5.81499e-05
1.06595e-06
-5.82474e-05
3.35187e-07
-5.80917e-05
-4.1444e-07
-5.76793e-05
-1.17652e-06
-5.70088e-05
-1.944e-06
-5.60817e-05
-2.7092e-06
-5.49017e-05
-3.46395e-06
-5.34757e-05
-4.19967e-06
-5.18131e-05
-4.90749e-06
-4.99266e-05
-5.57839e-06
-4.78313e-05
-6.20337e-06
-4.55456e-05
-6.77364e-06
-4.30901e-05
-7.28072e-06
-4.04883e-05
-7.71672e-06
-3.77658e-05
-8.07443e-06
-3.49503e-05
-8.34758e-06
-3.20709e-05
-8.53094e-06
-2.91584e-05
-8.62052e-06
-2.62439e-05
-8.61371e-06
-2.33593e-05
-8.50935e-06
-2.05361e-05
-8.30789e-06
-1.78051e-05
-8.01144e-06
-1.5196e-05
-7.6238e-06
-1.27366e-05
-7.15056e-06
-1.04522e-05
-6.59906e-06
-8.36524e-06
-5.97848e-06
-6.49451e-06
-5.29984e-06
-4.85459e-06
-4.57611e-06
-3.45519e-06
-3.82234e-06
-2.30056e-06
-3.05585e-06
-1.38877e-06
-2.29659e-06
-7.11003e-07
-1.5676e-06
-2.50827e-07
-8.95667e-07
1.65479e-08
-3.1215e-07
1.25105e-07
1.4598e-07
1.189e-07
4.35269e-07
5.34639e-08
5.04764e-07
2.90762e-07
-8.94165e-08
4.09774e-09
-3.95159e-07
4.56974e-07
-9.44502e-07
1.18946e-06
-1.75396e-06
2.08519e-06
-2.83028e-06
3.06251e-06
-4.17169e-06
4.06108e-06
-5.76933e-06
5.03744e-06
-7.60883e-06
5.96164e-06
-9.67174e-06
6.81397e-06
-1.19368e-05
7.58234e-06
-1.4381e-05
8.26026e-06
-1.69803e-05
8.84519e-06
-1.97105e-05
9.33733e-06
-2.25475e-05
9.73862e-06
-2.54675e-05
1.0052e-05
-2.84474e-05
1.02809e-05
-3.14648e-05
1.04288e-05
-3.44978e-05
1.0499e-05
-3.75252e-05
1.04944e-05
-4.05263e-05
1.04174e-05
-4.34811e-05
1.027e-05
-4.63696e-05
1.00536e-05
-4.91723e-05
9.76938e-06
-5.18701e-05
9.41812e-06
-5.44438e-05
9.00044e-06
-5.68749e-05
8.51696e-06
-5.91449e-05
7.96837e-06
-6.12357e-05
7.35562e-06
-6.313e-05
6.68008e-06
-6.48108e-05
5.94361e-06
-6.62622e-05
5.14873e-06
-6.74692e-05
4.29872e-06
-6.8418e-05
3.39768e-06
-6.90965e-05
2.45066e-06
-6.94942e-05
1.46362e-06
-6.96025e-05
4.43513e-07
-6.94152e-05
-6.01733e-07
-6.89285e-05
-1.66326e-06
-6.81411e-05
-2.73133e-06
-6.70549e-05
-3.79542e-06
-6.56745e-05
-4.84433e-06
-6.40079e-05
-5.86631e-06
-6.20661e-05
-6.84927e-06
-5.98636e-05
-7.78093e-06
-5.74179e-05
-8.64905e-06
-5.47499e-05
-9.44165e-06
-5.18834e-05
-1.01472e-05
-4.8845e-05
-1.07551e-05
-4.5664e-05
-1.12554e-05
-4.2372e-05
-1.16396e-05
-3.90022e-05
-1.19007e-05
-3.55895e-05
-1.20332e-05
-3.21696e-05
-1.20336e-05
-2.87787e-05
-1.19002e-05
-2.54528e-05
-1.16337e-05
-2.22273e-05
-1.1237e-05
-1.91359e-05
-1.07152e-05
-1.62105e-05
-1.00759e-05
-1.34803e-05
-9.32927e-06
-1.0971e-05
-8.48774e-06
-8.70447e-06
-7.5664e-06
-6.69766e-06
-6.58292e-06
-4.96231e-06
-5.5577e-06
-3.50407e-06
-4.51409e-06
-2.32194e-06
-3.47873e-06
-1.40757e-06
-2.48197e-06
-7.44719e-07
-1.55852e-06
-3.08597e-07
-7.48273e-07
-6.53025e-08
-9.73119e-08
2.88248e-08
3.41144e-07
2.81349e-08
5.05454e-07
3.18896e-07
-1.37546e-07
1.41645e-07
-5.65835e-07
8.85265e-07
-1.29625e-06
1.91988e-06
-2.33384e-06
3.12277e-06
-3.67687e-06
4.40554e-06
-5.31727e-06
5.70148e-06
-7.24143e-06
6.96161e-06
-9.43127e-06
8.15148e-06
-1.18653e-05
9.24795e-06
-1.45194e-05
1.02365e-05
-1.73683e-05
1.11091e-05
-2.03854e-05
1.18623e-05
-2.35442e-05
1.24961e-05
-2.68181e-05
1.30125e-05
-3.01809e-05
1.34148e-05
-3.3607e-05
1.3707e-05
-3.70714e-05
1.38932e-05
-4.05497e-05
1.39773e-05
-4.40181e-05
1.39628e-05
-4.74533e-05
1.38527e-05
-5.08326e-05
1.36493e-05
-5.41336e-05
1.33546e-05
-5.73343e-05
1.297e-05
-6.04128e-05
1.24966e-05
-6.33477e-05
1.19354e-05
-6.6118e-05
1.12872e-05
-6.87029e-05
1.05532e-05
-7.10821e-05
9.73489e-06
-7.32362e-05
8.83415e-06
-7.51463e-05
7.85368e-06
-7.67945e-05
6.79699e-06
-7.81644e-05
5.66856e-06
-7.92407e-05
4.47395e-06
-8.00099e-05
3.21988e-06
-8.04606e-05
1.91429e-06
-8.05834e-05
5.6635e-07
-8.03716e-05
-8.13538e-07
-7.98211e-05
-2.21378e-06
-7.89307e-05
-3.62169e-06
-7.77026e-05
-5.02358e-06
-7.6142e-05
-6.4049e-06
-7.42578e-05
-7.75047e-06
-7.20625e-05
-9.04463e-06
-6.95719e-05
-1.02715e-05
-6.68056e-05
-1.14154e-05
-6.37866e-05
-1.24606e-05
-6.05413e-05
-1.33926e-05
-5.70991e-05
-1.41972e-05
-5.34924e-05
-1.48621e-05
-4.97561e-05
-1.5376e-05
-4.59269e-05
-1.57298e-05
-4.20436e-05
-1.59166e-05
-3.81458e-05
-1.59315e-05
-3.42735e-05
-1.57725e-05
-3.04669e-05
-1.54403e-05
-2.67652e-05
-1.49387e-05
-2.32063e-05
-1.42741e-05
-1.98257e-05
-1.34565e-05
-1.66561e-05
-1.24988e-05
-1.37268e-05
-1.14171e-05
-1.10624e-05
-1.02308e-05
-8.68255e-06
-8.96273e-06
-6.60129e-06
-7.63895e-06
-4.82614e-06
-6.28925e-06
-3.3576e-06
-4.94727e-06
-2.1886e-06
-3.65097e-06
-1.30399e-06
-2.44313e-06
-6.80095e-07
-1.37217e-06
-2.84352e-07
-4.93054e-07
-7.49952e-08
1.31789e-07
-7.27464e-10
4.31185e-07
3.18169e-07
-1.85235e-07
3.26881e-07
-7.37237e-07
1.43727e-06
-1.65197e-06
2.83461e-06
-2.92241e-06
4.39321e-06
-4.53747e-06
6.02061e-06
-6.48185e-06
7.64585e-06
-8.73633e-06
9.21609e-06
-1.12784e-05
1.06936e-05
-1.40831e-05
1.20526e-05
-1.71233e-05
1.32768e-05
-2.0371e-05
1.43568e-05
-2.37975e-05
1.52888e-05
-2.73738e-05
1.60724e-05
-3.10712e-05
1.67099e-05
-3.48613e-05
1.72049e-05
-3.87163e-05
1.7562e-05
-4.26089e-05
1.77859e-05
-4.65127e-05
1.7881e-05
-5.04014e-05
1.78516e-05
-5.42497e-05
1.77009e-05
-5.80324e-05
1.7432e-05
-6.1725e-05
1.70471e-05
-6.5303e-05
1.6548e-05
-6.87425e-05
1.59361e-05
-7.20199e-05
1.52128e-05
-7.5112e-05
1.43793e-05
-7.79959e-05
1.34372e-05
-8.06496e-05
1.23886e-05
-8.30516e-05
1.12361e-05
-8.51812e-05
9.98331e-06
-8.70191e-05
8.63489e-06
-8.85472e-05
7.19664e-06
-8.9749e-05
5.67574e-06
-9.06098e-05
4.08076e-06
-9.11173e-05
2.42179e-06
-9.12614e-05
7.10424e-07
-9.10347e-05
-1.04023e-06
-9.04329e-05
-2.81564e-06
-8.94546e-05
-4.59991e-06
-8.81023e-05
-6.37595e-06
-8.63815e-05
-8.12564e-06
-8.43019e-05
-9.83004e-06
-8.18769e-05
-1.14697e-05
-7.91236e-05
-1.30249e-05
-7.6063e-05
-1.44759e-05
-7.27202e-05
-1.58035e-05
-6.91234e-05
-1.69893e-05
-6.53045e-05
-1.80161e-05
-6.12987e-05
-1.8868e-05
-5.71435e-05
-1.95312e-05
-5.2879e-05
-1.99943e-05
-4.85472e-05
-2.02483e-05
-4.41913e-05
-2.02874e-05
-3.98549e-05
-2.01088e-05
-3.5582e-05
-1.97133e-05
-3.14156e-05
-1.91051e-05
-2.73971e-05
-1.82926e-05
-2.3566e-05
-1.72876e-05
-1.99586e-05
-1.61063e-05
-1.66072e-05
-1.47685e-05
-1.35397e-05
-1.32982e-05
-1.07789e-05
-1.17236e-05
-8.34112e-06
-1.00767e-05
-6.23636e-06
-8.394e-06
-4.46724e-06
-6.7164e-06
-3.02861e-06
-5.08959e-06
-1.9072e-06
-3.56453e-06
-1.08132e-06
-2.19806e-06
-5.20649e-07
-1.05372e-06
-1.86339e-07
-2.02519e-07
-3.11706e-08
2.76014e-07
2.86999e-07
-2.31848e-07
5.58728e-07
-9.06619e-07
2.11204e-06
-2.00568e-06
3.93367e-06
-3.50997e-06
5.8975e-06
-5.39863e-06
7.90926e-06
-7.64852e-06
9.89575e-06
-1.02343e-05
1.18018e-05
-1.31284e-05
1.35877e-05
-1.63019e-05
1.52261e-05
-1.97246e-05
1.66994e-05
-2.33656e-05
1.79978e-05
-2.71937e-05
1.91169e-05
-3.11778e-05
2.00566e-05
-3.52871e-05
2.08192e-05
-3.94913e-05
2.14091e-05
-4.37606e-05
2.18313e-05
-4.80658e-05
2.20911e-05
-5.23784e-05
2.21936e-05
-5.66704e-05
2.21436e-05
-6.09143e-05
2.19448e-05
-6.50831e-05
2.16008e-05
-6.91501e-05
2.11141e-05
-7.3089e-05
2.0487e-05
-7.6874e-05
1.97211e-05
-8.04795e-05
1.88183e-05
-8.38803e-05
1.77802e-05
-8.7052e-05
1.66089e-05
-8.99705e-05
1.53071e-05
-9.26127e-05
1.38783e-05
-9.49565e-05
1.23271e-05
-9.6981e-05
1.06594e-05
-9.86668e-05
8.88236e-06
-9.9996e-05
7.00496e-06
-0.000100953
5.03777e-06
-0.000101524
2.99318e-06
-0.000101699
8.85351e-07
-0.00010147
-1.26974e-06
-0.000100831
-3.45443e-06
-9.97815e-05
-5.64943e-06
-9.83234e-05
-7.83404e-06
-9.64627e-05
-9.98632e-06
-9.42094e-05
-1.20834e-05
-9.15774e-05
-1.41017e-05
-8.85848e-05
-1.60174e-05
-8.52539e-05
-1.78068e-05
-8.16109e-05
-1.94465e-05
-7.76861e-05
-2.09142e-05
-7.35132e-05
-2.21889e-05
-6.91296e-05
-2.32516e-05
-6.45756e-05
-2.40853e-05
-5.98939e-05
-2.46759e-05
-5.51296e-05
-2.50126e-05
-5.03291e-05
-2.50879e-05
-4.55397e-05
-2.48983e-05
-4.08087e-05
-2.44443e-05
-3.61828e-05
-2.3731e-05
-3.17074e-05
-2.2768e-05
-2.74254e-05
-2.15696e-05
-2.33769e-05
-2.01548e-05
-1.95977e-05
-1.85476e-05
-1.61193e-05
-1.67766e-05
-1.29675e-05
-1.48755e-05
-1.01617e-05
-1.28825e-05
-7.71477e-06
-1.08409e-05
-5.63195e-06
-8.79922e-06
-3.91067e-06
-6.81087e-06
-2.54017e-06
-4.93503e-06
-1.50138e-06
-3.23685e-06
-7.66912e-07
-1.78819e-06
-3.01401e-07
-6.6803e-07
-6.20946e-08
3.67061e-08
2.24904e-07
-2.7711e-07
8.35837e-07
-1.07245e-06
2.90738e-06
-2.35376e-06
5.21498e-06
-4.09024e-06
7.63398e-06
-6.25119e-06
1.00702e-05
-8.80539e-06
1.24499e-05
-1.17208e-05
1.47173e-05
-1.49648e-05
1.68317e-05
-1.8504e-05
1.87653e-05
-2.23046e-05
2.05001e-05
-2.63329e-05
2.20261e-05
-3.05552e-05
2.33392e-05
-3.49382e-05
2.44396e-05
-3.94492e-05
2.53302e-05
-4.4056e-05
2.60159e-05
-4.8727e-05
2.65023e-05
-5.34314e-05
2.67955e-05
-5.81389e-05
2.69011e-05
-6.28198e-05
2.68245e-05
-6.7445e-05
2.657e-05
-7.19856e-05
2.61415e-05
-7.64134e-05
2.55419e-05
-8.07004e-05
2.47739e-05
-8.48189e-05
2.38397e-05
-8.87418e-05
2.27411e-05
-9.24422e-05
2.14806e-05
-9.5894e-05
2.00607e-05
-9.90717e-05
1.84847e-05
-0.000101951
1.67572e-05
-0.000104507
1.48836e-05
-0.000106719
1.28712e-05
-0.000108565
1.07288e-05
-0.000110027
8.46707e-06
-0.000111088
6.09874e-06
-0.000111734
3.63858e-06
-0.000111952
1.10347e-06
-0.000111734
-1.48763e-06
-0.000111075
-4.11378e-06
-0.000109972
-6.75216e-06
-0.000108428
-9.37828e-06
-0.000106448
-1.19662e-05
-0.000104042
-1.44889e-05
-0.000101225
-1.69186e-05
-9.80158e-05
-1.9227e-05
-9.44365e-05
-2.1386e-05
-9.05149e-05
-2.33681e-05
-8.62826e-05
-2.51466e-05
-8.17749e-05
-2.66966e-05
-7.70311e-05
-2.79953e-05
-7.20938e-05
-2.90226e-05
-6.70084e-05
-2.97614e-05
-6.18226e-05
-3.01984e-05
-5.6586e-05
-3.03245e-05
-5.13492e-05
-3.0135e-05
-4.61631e-05
-2.96304e-05
-4.10782e-05
-2.8816e-05
-3.61434e-05
-2.77027e-05
-3.14058e-05
-2.63072e-05
-2.69091e-05
-2.46515e-05
-2.26932e-05
-2.27635e-05
-1.87932e-05
-2.06767e-05
-1.52384e-05
-1.84303e-05
-1.20519e-05
-1.60689e-05
-9.2498e-06
-1.36431e-05
-6.84053e-06
-1.12085e-05
-4.82461e-06
-8.82678e-06
-3.19436e-06
-6.56528e-06
-1.93381e-06
-4.4974e-06
-1.01892e-06
-2.70308e-06
-4.18076e-07
-1.26887e-06
-9.29481e-08
-2.88422e-07
1.31955e-07
-3.2091e-07
1.15675e-06
-1.2339e-06
3.82036e-06
-2.69399e-06
6.67507e-06
-4.65913e-06
9.59912e-06
-7.08892e-06
1.25e-05
-9.94398e-06
1.5305e-05
-1.31855e-05
1.79588e-05
-1.67753e-05
2.04215e-05
-2.06754e-05
2.26653e-05
-2.48484e-05
2.46731e-05
-2.92575e-05
2.64352e-05
-3.38665e-05
2.79482e-05
-3.86398e-05
2.9213e-05
-4.35429e-05
3.02333e-05
-4.85418e-05
3.10148e-05
-5.36034e-05
3.15639e-05
-5.86953e-05
3.18874e-05
-6.37858e-05
3.19916e-05
-6.88436e-05
3.18823e-05
-7.38382e-05
3.15646e-05
-7.87393e-05
3.10426e-05
-8.35171e-05
3.03198e-05
-8.81422e-05
2.9399e-05
-9.25855e-05
2.8283e-05
-9.68184e-05
2.6974e-05
-0.000100812
2.54747e-05
-0.00010454
2.37885e-05
-0.000107975
2.19193e-05
-0.00011109
1.98725e-05
-0.000113861
1.76547e-05
-0.000116265
1.52745e-05
-0.000118278
1.27423e-05
-0.000119882
1.00707e-05
-0.000121057
7.27447e-06
-0.00012179
4.37093e-06
-0.000122066
1.37971e-06
-0.000121877
-1.67716e-06
-0.000121215
-4.77535e-06
-0.000120079
-7.88841e-06
-0.000118469
-1.09879e-05
-0.000116392
-1.40438e-05
-0.000113856
-1.70247e-05
-0.000110876
-1.98984e-05
-0.000107471
-2.26319e-05
-0.000103664
-2.51927e-05
-9.94841e-05
-2.75484e-05
-9.49626e-05
-2.9668e-05
-9.01368e-05
-3.15224e-05
-8.50475e-05
-3.30846e-05
-7.97392e-05
-3.43308e-05
-7.42598e-05
-3.52408e-05
-6.86596e-05
-3.57985e-05
-6.29913e-05
-3.59928e-05
-5.73087e-05
-3.58177e-05
-5.16663e-05
-3.52728e-05
-4.61183e-05
-3.43639e-05
-4.07179e-05
-3.31032e-05
-3.5516e-05
-3.15091e-05
-3.05606e-05
-2.96069e-05
-2.58959e-05
-2.74283e-05
-2.15609e-05
-2.50117e-05
-1.75892e-05
-2.24019e-05
-1.40079e-05
-1.96503e-05
-1.08367e-05
-1.68142e-05
-8.08794e-06
-1.39573e-05
-5.76565e-06
-1.11491e-05
-3.86566e-06
-8.46528e-06
-2.37548e-06
-5.98758e-06
-1.27469e-06
-3.80387e-06
-5.3544e-07
-2.00813e-06
-1.2353e-07
-7.00332e-07
8.42321e-09
-3.63209e-07
1.51995e-06
-1.39048e-06
4.84763e-06
-3.02498e-06
8.30957e-06
-5.21391e-06
1.17881e-05
-7.90745e-06
1.51935e-05
-1.10581e-05
1.84557e-05
-1.46204e-05
2.15211e-05
-1.85503e-05
2.43513e-05
-2.28052e-05
2.69203e-05
-2.7344e-05
2.92119e-05
-3.21266e-05
3.12178e-05
-3.71143e-05
3.29359e-05
-4.22694e-05
3.43681e-05
-4.75554e-05
3.55193e-05
-5.29367e-05
3.63961e-05
-5.83788e-05
3.7006e-05
-6.38478e-05
3.73564e-05
-6.93108e-05
3.74545e-05
-7.47353e-05
3.73068e-05
-8.00893e-05
3.69187e-05
-8.53416e-05
3.62948e-05
-9.0461e-05
3.54392e-05
-9.54169e-05
3.43549e-05
-0.000100179
3.30449e-05
-0.000104717
3.15121e-05
-0.000109002
2.97595e-05
-0.000113004
2.77911e-05
-0.000116697
2.56115e-05
-0.000120051
2.3227e-05
-0.000123042
2.06454e-05
-0.000125644
1.78765e-05
-0.000127834
1.49323e-05
-0.00012959
1.18273e-05
-0.000130894
8.57855e-06
-0.000131729
5.20577e-06
-0.000132081
1.73142e-06
-0.000131939
-1.81936e-06
-0.000131295
-5.41881e-06
-0.000130147
-9.03675e-06
-0.000128494
-1.26408e-05
-0.000126341
-1.61965e-05
-0.000123698
-1.96682e-05
-0.000120578
-2.30187e-05
-0.000116999
-2.62106e-05
-0.000112986
-2.92061e-05
-0.000108566
-3.19684e-05
-0.000103772
-3.44614e-05
-9.86433e-05
-3.66513e-05
-9.32211e-05
-3.85068e-05
-8.75519e-05
-4.00001e-05
-8.16856e-05
-4.11071e-05
-7.56752e-05
-4.18089e-05
-6.95762e-05
-4.20918e-05
-6.3446e-05
-4.19479e-05
-5.73426e-05
-4.13762e-05
-5.13243e-05
-4.03822e-05
-4.54483e-05
-3.89791e-05
-3.97702e-05
-3.71872e-05
-3.43426e-05
-3.50346e-05
-2.9214e-05
-3.25569e-05
-2.44283e-05
-2.97973e-05
-2.00237e-05
-2.68066e-05
-1.60316e-05
-2.36424e-05
-1.24762e-05
-2.03695e-05
-9.37405e-06
-1.70594e-05
-6.73318e-06
-1.37899e-05
-4.55332e-06
-1.06451e-05
-2.82579e-06
-7.7151e-06
-1.53386e-06
-5.0958e-06
-6.53391e-07
-2.8886e-06
-1.53868e-07
-1.19985e-06
-1.45447e-07
-4.03994e-07
1.92395e-06
-1.54191e-06
5.98555e-06
-3.34579e-06
1.01134e-05
-5.75265e-06
1.41949e-05
-8.70359e-06
1.81445e-05
-1.21432e-05
2.18953e-05
-1.60193e-05
2.53971e-05
-2.02821e-05
2.86142e-05
-2.48845e-05
3.15226e-05
-2.97813e-05
3.41087e-05
-3.49293e-05
3.63659e-05
-4.02873e-05
3.82938e-05
-4.58153e-05
3.98961e-05
-5.1475e-05
4.1179e-05
-5.72293e-05
4.21504e-05
-6.30422e-05
4.28189e-05
-6.88789e-05
4.31931e-05
-7.47051e-05
4.32807e-05
-8.04873e-05
4.3089e-05
-8.61925e-05
4.26239e-05
-9.17884e-05
4.18907e-05
-9.72428e-05
4.08936e-05
-0.000102524
3.96361e-05
-0.000107601
3.81215e-05
-0.000112442
3.63531e-05
-0.000117016
3.43344e-05
-0.000121295
3.20697e-05
-0.000125248
2.95646e-05
-0.000128847
2.68261e-05
-0.000132065
2.38631e-05
-0.000134875
2.06867e-05
-0.000137253
1.73105e-05
-0.000139177
1.37509e-05
-0.000140625
1.0027e-05
-0.000141581
6.161e-06
-0.000142027
2.17821e-06
-0.000141954
-1.89315e-06
-0.000141351
-6.02187e-06
-0.000140213
-1.0174e-05
-0.000138541
-1.4313e-05
-0.000136337
-1.84003e-05
-0.00013361
-2.23954e-05
-0.000130372
-2.62564e-05
-0.000126642
-2.99408e-05
-0.000122442
-3.34057e-05
-0.000117802
-3.66091e-05
-0.000112753
-3.95098e-05
-0.000107336
-4.20689e-05
-0.000101592
-4.42504e-05
-9.55704e-05
-4.60217e-05
-8.93225e-05
-4.7355e-05
-8.2904e-05
-4.82274e-05
-7.63734e-05
-4.86225e-05
-6.97911e-05
-4.85301e-05
-6.32194e-05
-4.79479e-05
-5.67205e-05
-4.68811e-05
-5.03564e-05
-4.53432e-05
-4.41874e-05
-4.33562e-05
-3.82709e-05
-4.0951e-05
-3.26609e-05
-3.81669e-05
-2.74063e-05
-3.50519e-05
-2.25504e-05
-3.16625e-05
-1.81297e-05
-2.80631e-05
-1.41734e-05
-2.43259e-05
-1.07025e-05
-2.05303e-05
-7.72982e-06
-1.67627e-05
-5.25919e-06
-1.31158e-05
-3.28599e-06
-9.6883e-06
-1.79727e-06
-6.58452e-06
-7.72402e-07
-3.91347e-06
-1.8414e-07
-1.78812e-06
-3.29588e-07
-4.43255e-07
2.3672e-06
-1.68797e-06
7.23026e-06
-3.65573e-06
1.20812e-05
-6.27388e-06
1.68131e-05
-9.47483e-06
2.13454e-05
-1.31956e-05
2.56161e-05
-1.73772e-05
2.95788e-05
-2.19646e-05
3.32015e-05
-2.69058e-05
3.64638e-05
-3.21517e-05
3.93546e-05
-3.76562e-05
4.18704e-05
-4.33751e-05
4.40128e-05
-4.92667e-05
4.57876e-05
-5.52906e-05
4.72029e-05
-6.14085e-05
4.82683e-05
-6.75832e-05
4.89936e-05
-7.37784e-05
4.93883e-05
-7.99592e-05
4.94615e-05
-8.6091e-05
4.92208e-05
-9.21402e-05
4.86731e-05
-9.80734e-05
4.78239e-05
-0.000103858
4.66778e-05
-0.00010946
4.52388e-05
-0.000114849
4.35105e-05
-0.000119993
4.14963e-05
-0.000124859
3.92004e-05
-0.000129416
3.66275e-05
-0.000133636
3.37838e-05
-0.000137487
3.06771e-05
-0.000140941
2.73174e-05
-0.000143971
2.3717e-05
-0.000146552
1.98911e-05
-0.000148659
1.58576e-05
-0.00015027
1.16379e-05
-0.000151365
7.25665e-06
-0.000151929
2.74175e-06
-0.000151946
-1.87545e-06
-0.000151408
-6.56033e-06
-0.000150307
-1.12752e-05
-0.000148641
-1.59794e-05
-0.000146411
-2.06298e-05
-0.000143625
-2.51814e-05
-0.000140294
-2.95871e-05
-0.000136436
-3.37994e-05
-0.000132072
-3.77699e-05
-0.00012723
-4.14511e-05
-0.000121943
-4.47963e-05
-0.000116251
-4.77611e-05
-0.000110197
-5.03041e-05
-0.000103831
-5.23879e-05
-9.72061e-05
-5.39799e-05
-9.03804e-05
-5.50531e-05
-8.34154e-05
-5.55875e-05
-7.63751e-05
-5.55704e-05
-6.93257e-05
-5.49974e-05
-6.23339e-05
-5.38728e-05
-5.54667e-05
-5.22104e-05
-4.87895e-05
-5.00334e-05
-4.23654e-05
-4.73751e-05
-3.62539e-05
-4.42784e-05
-3.05098e-05
-4.07961e-05
-2.51819e-05
-3.69903e-05
-2.03127e-05
-3.29323e-05
-1.59366e-05
-2.87019e-05
-1.20801e-05
-2.43868e-05
-8.76071e-06
-2.0082e-05
-5.98706e-06
-1.58894e-05
-3.75872e-06
-1.19166e-05
-2.06657e-06
-8.27667e-06
-8.93347e-07
-5.08669e-06
-2.14624e-07
-2.46684e-06
-5.44213e-07
-4.80974e-07
2.84817e-06
-1.82847e-06
8.57776e-06
-3.9542e-06
1.42069e-05
-6.77636e-06
1.96352e-05
-1.02191e-05
2.47882e-05
-1.4212e-05
2.9609e-05
-1.86899e-05
3.40567e-05
-2.35922e-05
3.81038e-05
-2.88623e-05
4.17339e-05
-3.44476e-05
4.49399e-05
-4.02984e-05
4.77212e-05
-4.63684e-05
5.00828e-05
-5.26135e-05
5.20327e-05
-5.89919e-05
5.35814e-05
-6.54638e-05
5.47401e-05
-7.19907e-05
5.55205e-05
-7.85357e-05
5.59333e-05
-8.50628e-05
5.59885e-05
-9.15368e-05
5.56949e-05
-9.79233e-05
5.50596e-05
-0.000104188
5.40889e-05
-0.000110298
5.27877e-05
-0.00011622
5.11603e-05
-0.00012192
4.92106e-05
-0.000127366
4.69425e-05
-0.000132526
4.43602e-05
-0.000137367
4.14691e-05
-0.00014186
3.82759e-05
-0.000145972
3.47892e-05
-0.000149674
3.10197e-05
-0.000152938
2.69811e-05
-0.000155737
2.26897e-05
-0.000158044
1.81654e-05
-0.000159838
1.34314e-05
-0.000161096
8.51457e-06
-0.0001618
3.44555e-06
-0.000161934
-1.74134e-06
-0.000161486
-7.00814e-06
-0.000160448
-1.23134e-05
-0.000158815
-1.76125e-05
-0.000156587
-2.28577e-05
-0.000153769
-2.79992e-05
-0.000150371
-3.2985e-05
-0.000146408
-3.77618e-05
-0.000141902
-4.22759e-05
-0.00013688
-4.64737e-05
-0.000131373
-5.03028e-05
-0.000125422
-5.37127e-05
-0.00011907
-5.66563e-05
-0.000112367
-5.90905e-05
-0.000105369
-6.09774e-05
-9.81371e-05
-6.22854e-05
-9.07344e-05
-6.29902e-05
-8.32291e-05
-6.30758e-05
-7.56913e-05
-6.25351e-05
-6.81929e-05
-6.13713e-05
-6.08058e-05
-5.95975e-05
-5.36013e-05
-5.72379e-05
-4.66485e-05
-5.43279e-05
-4.00132e-05
-5.09137e-05
-3.37565e-05
-4.70528e-05
-2.79338e-05
-4.2813e-05
-2.25937e-05
-3.82724e-05
-1.7777e-05
-3.35187e-05
-1.35157e-05
-2.86481e-05
-9.83287e-06
-2.37648e-05
-6.74218e-06
-1.89801e-05
-4.24765e-06
-1.44112e-05
-2.34405e-06
-1.01803e-05
-1.01738e-06
-6.41336e-06
-2.45666e-07
-3.23856e-06
-7.8988e-07
-5.17115e-07
3.36529e-06
-1.9632e-06
1.00238e-05
-4.24061e-06
1.64843e-05
-7.25891e-06
2.26535e-05
-1.09344e-05
2.84636e-05
-1.51897e-05
3.38643e-05
-1.99535e-05
3.88205e-05
-2.51599e-05
4.33102e-05
-3.07481e-05
4.73221e-05
-3.66616e-05
5.08533e-05
-4.28479e-05
5.39075e-05
-4.9258e-05
5.64929e-05
-5.58459e-05
5.86206e-05
-6.25684e-05
6.03038e-05
-6.93841e-05
6.15559e-05
-7.62537e-05
6.23901e-05
-8.31394e-05
6.2819e-05
-9.00046e-05
6.28537e-05
-9.68134e-05
6.25037e-05
-0.000103531
6.17771e-05
-0.000110123
6.06806e-05
-0.000116554
5.92195e-05
-0.000122793
5.73985e-05
-0.000128804
5.52216e-05
-0.000134554
5.2693e-05
-0.000140011
4.98173e-05
-0.000145142
4.66002e-05
-0.000149915
4.30489e-05
-0.000154298
3.91724e-05
-0.000158261
3.49825e-05
-0.000161774
3.04937e-05
-0.000164808
2.57236e-05
-0.000167336
2.06936e-05
-0.000169333
1.54288e-05
-0.000170777
9.95814e-06
-0.000171646
4.31473e-06
-0.000171923
-1.46424e-06
-0.000171594
-7.33757e-06
-0.000170647
-1.32602e-05
-0.000169076
-1.91833e-05
-0.000166879
-2.5055e-05
-0.000164058
-3.08204e-05
-0.00016062
-3.64222e-05
-0.000156581
-4.18017e-05
-0.000151957
-4.68991e-05
-0.000146776
-5.16547e-05
-0.00014107
-5.60097e-05
-0.000134875
-5.99074e-05
-0.000128237
-6.3294e-05
-0.000121207
-6.61203e-05
-0.000113842
-6.83424e-05
-0.000106204
-6.99233e-05
-9.8361e-05
-7.08337e-05
-9.03834e-05
-7.10534e-05
-8.23462e-05
-7.05723e-05
-7.43263e-05
-6.93912e-05
-6.64013e-05
-6.75224e-05
-5.86488e-05
-6.49904e-05
-5.11445e-05
-6.18322e-05
-4.3961e-05
-5.80972e-05
-3.71666e-05
-5.38472e-05
-3.08239e-05
-4.91557e-05
-2.49883e-05
-4.4108e-05
-1.97075e-05
-3.87995e-05
-1.502e-05
-3.33356e-05
-1.09548e-05
-2.783e-05
-7.53089e-06
-2.2404e-05
-4.75719e-06
-1.71849e-05
-2.63245e-06
-1.2305e-05
-1.14585e-06
-7.89996e-06
-2.77661e-07
-4.10675e-06
-1.06754e-06
-5.51624e-07
3.91691e-06
-2.09189e-06
1.15641e-05
-4.51434e-06
1.89068e-05
-7.72036e-06
2.58595e-05
-1.16188e-05
3.23621e-05
-1.61258e-05
3.83713e-05
-2.11641e-05
4.38589e-05
-2.66629e-05
4.88091e-05
-3.25571e-05
5.32163e-05
-3.87868e-05
5.7083e-05
-4.52965e-05
6.04172e-05
-5.20349e-05
6.32313e-05
-5.89541e-05
6.55399e-05
-6.60093e-05
6.7359e-05
-7.31582e-05
6.87047e-05
-8.03604e-05
6.95924e-05
-8.75774e-05
7.00361e-05
-9.47721e-05
7.00483e-05