/*--------------------------------*- C++ -*----------------------------------*\
  =========                 |
  \\      /  F ield         | OpenFOAM: The Open Source CFD Toolbox
   \\    /   O peration     | Website:  https://openfoam.org
    \\  /    A nd           | Version:  dev
     \\/     M anipulation  |
\*---------------------------------------------------------------------------*/
FoamFile
{
    format      ascii;
    class       volVectorField;
    location    "16.65";
    object      U;
}
// * * * * * * * * * * * * * * * * * * * * * * * * * * * * * * * * * * * * * //

dimensions      [0 1 -1 0 0 0 0];

internalField   nonuniform List<vector> 
5184
(
(1.24685e-05 -1.25377e-05 0)
(4.53997e-05 -2.07972e-05 0)
(8.0337e-05 -1.71757e-05 0)
(9.58488e-05 -8.13899e-06 0)
(8.19146e-05 2.71046e-06 0)
(3.61591e-05 1.36415e-05 0)
(-4.08629e-05 2.38551e-05 0)
(-0.000147134 3.30405e-05 0)
(-0.00027987 4.10826e-05 0)
(-0.000436016 4.79876e-05 0)
(-0.000612455 5.38166e-05 0)
(-0.000806157 5.86548e-05 0)
(-0.00101426 6.25942e-05 0)
(-0.0012341 6.57259e-05 0)
(-0.00146322 6.81342e-05 0)
(-0.00169938 6.98948e-05 0)
(-0.00194049 7.10718e-05 0)
(-0.00218465 7.17175e-05 0)
(-0.00243008 7.18728e-05 0)
(-0.0026751 7.15672e-05 0)
(-0.00291809 7.08194e-05 0)
(-0.00315751 6.96407e-05 0)
(-0.00339183 6.80338e-05 0)
(-0.00361952 6.59957e-05 0)
(-0.00383906 6.35194e-05 0)
(-0.00404892 6.05953e-05 0)
(-0.00424753 5.72122e-05 0)
(-0.00443334 5.3361e-05 0)
(-0.00460477 4.90351e-05 0)
(-0.00476023 4.42311e-05 0)
(-0.00489818 3.89513e-05 0)
(-0.00501708 3.32051e-05 0)
(-0.0051155 2.701e-05 0)
(-0.00519204 2.03915e-05 0)
(-0.00524546 1.3385e-05 0)
(-0.00527463 6.03656e-06 0)
(-0.00527862 -1.59763e-06 0)
(-0.0052567 -9.45158e-06 0)
(-0.00520837 -1.74493e-05 0)
(-0.00513341 -2.5505e-05 0)
(-0.00503187 -3.35242e-05 0)
(-0.00490412 -4.14054e-05 0)
(-0.00475088 -4.90418e-05 0)
(-0.00457319 -5.63228e-05 0)
(-0.00437245 -6.3136e-05 0)
(-0.00415041 -6.93696e-05 0)
(-0.00390917 -7.49151e-05 0)
(-0.00365115 -7.96696e-05 0)
(-0.00337906 -8.35386e-05 0)
(-0.00309591 -8.64386e-05 0)
(-0.00280493 -8.82992e-05 0)
(-0.00250953 -8.9065e-05 0)
(-0.00221328 -8.86979e-05 0)
(-0.00191983 -8.71779e-05 0)
(-0.00163285 -8.45047e-05 0)
(-0.00135598 -8.06977e-05 0)
(-0.00109273 -7.5796e-05 0)
(-0.000846486 -6.9858e-05 0)
(-0.000620384 -6.29612e-05 0)
(-0.000417274 -5.52013e-05 0)
(-0.00023965 -4.66921e-05 0)
(-8.95896e-05 -3.75663e-05 0)
(3.13198e-05 -2.79785e-05 0)
(0.000122063 -1.81107e-05 0)
(0.000182305 -8.18746e-06 0)
(0.000212545 1.49627e-06 0)
(0.000214363 1.05188e-05 0)
(0.0001908 1.82434e-05 0)
(0.000146871 2.366e-05 0)
(9.06538e-05 2.50797e-05 0)
(3.65884e-05 1.982e-05 0)
(6.22672e-06 6.24285e-06 0)
(2.08565e-05 -4.5499e-05 0)
(6.56e-05 -6.5393e-05 0)
(9.45023e-05 -4.02902e-05 0)
(7.24218e-05 7.84043e-06 0)
(-1.94263e-05 6.58071e-05 0)
(-0.000187828 0.000126031 0)
(-0.00043335 0.000184245 0)
(-0.000752772 0.000238199 0)
(-0.00114055 0.000286762 0)
(-0.00158992 0.000329492 0)
(-0.00209354 0.000366352 0)
(-0.00264396 0.000397531 0)
(-0.00323389 0.000423342 0)
(-0.00385635 0.000444148 0)
(-0.00450475 0.000460328 0)
(-0.0051729 0.000472239 0)
(-0.00585499 0.000480204 0)
(-0.00654561 0.000484497 0)
(-0.00723962 0.000485342 0)
(-0.00793215 0.000482911 0)
(-0.0086185 0.000477322 0)
(-0.00929413 0.000468654 0)
(-0.00995457 0.000456947 0)
(-0.0105954 0.000442207 0)
(-0.0112122 0.000424425 0)
(-0.0118007 0.000403577 0)
(-0.0123563 0.000379638 0)
(-0.0128747 0.000352592 0)
(-0.0133516 0.00032244 0)
(-0.0137825 0.000289207 0)
(-0.0141633 0.000252956 0)
(-0.0144898 0.000213788 0)
(-0.0147583 0.000171853 0)
(-0.0149649 0.000127353 0)
(-0.0151066 8.05461e-05 0)
(-0.0151804 3.17523e-05 0)
(-0.0151839 -1.86507e-05 0)
(-0.0151155 -7.02261e-05 0)
(-0.014974 -0.00012248 0)
(-0.014759 -0.000174867 0)
(-0.0144709 -0.000226793 0)
(-0.0141109 -0.000277628 0)
(-0.0136812 -0.000326711 0)
(-0.0131847 -0.000373365 0)
(-0.0126255 -0.000416907 0)
(-0.0120082 -0.000456664 0)
(-0.0113388 -0.000491982 0)
(-0.0106238 -0.00052225 0)
(-0.00987058 -0.000546906 0)
(-0.0090872 -0.000565457 0)
(-0.00828237 -0.00057749 0)
(-0.00746523 -0.000582687 0)
(-0.00664532 -0.00058083 0)
(-0.00583236 -0.000571818 0)
(-0.0050361 -0.000555665 0)
(-0.00426621 -0.000532508 0)
(-0.00353204 -0.000502612 0)
(-0.00284251 -0.000466364 0)
(-0.00220589 -0.000424278 0)
(-0.00162965 -0.000376991 0)
(-0.00112026 -0.000325271 0)
(-0.000683014 -0.000270021 0)
(-0.000321824 -0.000212299 0)
(-3.8979e-05 -0.000153354 0)
(0.000165147 -9.46933e-05 0)
(0.000292465 -3.81942e-05 0)
(0.000347707 1.36927e-05 0)
(0.000339117 5.76654e-05 0)
(0.00027916 8.91388e-05 0)
(0.000185653 0.000101626 0)
(8.62148e-05 8.63643e-05 0)
(1.96535e-05 3.64469e-05 0)
(1.76099e-05 -8.09378e-05 0)
(4.12135e-05 -9.45373e-05 0)
(1.93137e-05 -1.86741e-05 0)
(-8.44095e-05 0.000106266 0)
(-0.000290679 0.000254802 0)
(-0.000608208 0.000410516 0)
(-0.00103824 0.000563118 0)
(-0.00157695 0.000706481 0)
(-0.00221718 0.000837169 0)
(-0.00294975 0.000953481 0)
(-0.00376439 0.00105483 0)
(-0.00465041 0.0011413 0)
(-0.00559711 0.00121341 0)
(-0.00659403 0.00127189 0)
(-0.00763115 0.00131756 0)
(-0.0086989 0.00135124 0)
(-0.00978822 0.0013737 0)
(-0.0108905 0.00138561 0)
(-0.0119976 0.00138753 0)
(-0.0131017 0.0013799 0)
(-0.0141951 0.00136307 0)
(-0.0152706 0.00133723 0)
(-0.0163209 0.00130254 0)
(-0.0173389 0.00125904 0)
(-0.0183174 0.00120676 0)
(-0.0192496 0.00114568 0)
(-0.0201284 0.00107578 0)
(-0.0209468 0.000997096 0)
(-0.0216979 0.000909679 0)
(-0.022375 0.000813672 0)
(-0.0229716 0.000709304 0)
(-0.0234814 0.000596921 0)
(-0.0238985 0.000476995 0)
(-0.0242173 0.000350138 0)
(-0.024433 0.000217117 0)
(-0.0245414 7.88496e-05 0)
(-0.0245392 -6.35844e-05 0)
(-0.0244237 -0.000208953 0)
(-0.0241935 -0.000355875 0)
(-0.0238483 -0.000502837 0)
(-0.0233888 -0.000648206 0)
(-0.0228173 -0.000790255 0)
(-0.0221372 -0.000927184 0)
(-0.0213533 -0.00105715 0)
(-0.0204718 -0.00117831 0)
(-0.0195004 -0.00128885 0)
(-0.018448 -0.00138702 0)
(-0.0173247 -0.00147116 0)
(-0.016142 -0.00153979 0)
(-0.0149122 -0.00159159 0)
(-0.0136486 -0.00162547 0)
(-0.0123653 -0.00164058 0)
(-0.0110767 -0.00163636 0)
(-0.00979763 -0.00161255 0)
(-0.00854304 -0.00156923 0)
(-0.00732755 -0.00150679 0)
(-0.0061654 -0.00142598 0)
(-0.00507009 -0.00132788 0)
(-0.00405417 -0.00121396 0)
(-0.00312888 -0.001086 0)
(-0.00230395 -0.000946178 0)
(-0.00158729 -0.000797056 0)
(-0.000984609 -0.000641633 0)
(-0.000499159 -0.000483434 0)
(-0.000131262 -0.000326649 0)
(0.00012214 -0.000176356 0)
(0.000268119 -3.88614e-05 0)
(0.000318483 7.78327e-05 0)
(0.000290329 0.000163445 0)
(0.000206839 0.000204825 0)
(0.000102218 0.000185878 0)
(2.49301e-05 9.02468e-05 0)
(8.80798e-06 -9.73069e-05 0)
(-7.12465e-06 -7.24981e-05 0)
(-0.00010779 8.53685e-05 0)
(-0.000322573 0.000318717 0)
(-0.000669655 0.000590108 0)
(-0.00115741 0.000873962 0)
(-0.00178656 0.00115329 0)
(-0.00255234 0.00141731 0)
(-0.0034462 0.0016596 0)
(-0.00445714 0.00187661 0)
(-0.00557268 0.0020668 0)
(-0.00677963 0.00222993 0)
(-0.00806462 0.00236655 0)
(-0.00941439 0.0024777 0)
(-0.0108161 0.00256465 0)
(-0.0122573 0.00262873 0)
(-0.0137261 0.00267122 0)
(-0.0152111 0.00269327 0)
(-0.0167014 0.00269585 0)
(-0.0181865 0.00267976 0)
(-0.0196562 0.0026456 0)
(-0.0211005 0.00259378 0)
(-0.0225097 0.00252459 0)
(-0.0238742 0.00243818 0)
(-0.0251843 0.00233463 0)
(-0.0264308 0.00221398 0)
(-0.0276042 0.00207629 0)
(-0.0286952 0.00192167 0)
(-0.0296949 0.00175033 0)
(-0.0305943 0.00156262 0)
(-0.0313848 0.00135906 0)
(-0.0320584 0.00114038 0)
(-0.0326073 0.000907561 0)
(-0.0330246 0.000661833 0)
(-0.0333041 0.000404707 0)
(-0.0334404 0.00013798 0)
(-0.0334295 -0.000136261 0)
(-0.0332682 -0.000415655 0)
(-0.0329549 -0.000697569 0)
(-0.0324893 -0.000979133 0)
(-0.031873 -0.00125727 0)
(-0.0311087 -0.00152872 0)
(-0.0302013 -0.00179013 0)
(-0.0291572 -0.00203804 0)
(-0.0279848 -0.00226903 0)
(-0.0266939 -0.00247972 0)
(-0.0252963 -0.00266685 0)
(-0.0238052 -0.00282739 0)
(-0.0222355 -0.00295856 0)
(-0.0206032 -0.00305794 0)
(-0.0189256 -0.00312351 0)
(-0.0172207 -0.00315373 0)
(-0.0155073 -0.00314758 0)
(-0.0138045 -0.00310461 0)
(-0.0121315 -0.00302496 0)
(-0.0105072 -0.00290941 0)
(-0.00894995 -0.0027594 0)
(-0.00747715 -0.00257701 0)
(-0.00610492 -0.002365 0)
(-0.00484774 -0.0021268 0)
(-0.00371809 -0.00186657 0)
(-0.00272607 -0.00158918 0)
(-0.00187902 -0.00130034 0)
(-0.00118107 -0.00100671 0)
(-0.000632699 -0.000716086 0)
(-0.000230226 -0.000437724 0)
(3.47973e-05 -0.000182752 0)
(0.000176228 3.52439e-05 0)
(0.000213746 0.000199572 0)
(0.000173466 0.000289864 0)
(9.27582e-05 0.000281849 0)
(2.39716e-05 0.000146997 0)
(-2.14888e-06 -8.39211e-05 0)
(-6.73471e-05 2.16161e-05 0)
(-0.000264133 0.000296026 0)
(-0.000609605 0.000668218 0)
(-0.00111621 0.00109047 0)
(-0.00179011 0.00152893 0)
(-0.00263032 0.00196022 0)
(-0.00363046 0.00236888 0)
(-0.0047804 0.00274524 0)
(-0.00606744 0.00308366 0)
(-0.00747726 0.0033814 0)
(-0.00899462 0.00363763 0)
(-0.010604 0.00385281 0)
(-0.0122897 0.00402819 0)
(-0.0140367 0.00416542 0)
(-0.01583 0.00426633 0)
(-0.0176554 0.0043327 0)
(-0.0194989 0.00436617 0)
(-0.0213474 0.00436818 0)
(-0.0231877 0.00433988 0)
(-0.0250075 0.00428219 0)
(-0.0267943 0.00419578 0)
(-0.0285361 0.00408108 0)
(-0.030221 0.00393842 0)
(-0.0318372 0.00376796 0)
(-0.0333732 0.00356989 0)
(-0.0348174 0.00334437 0)
(-0.0361586 0.00309168 0)
(-0.0373857 0.00281228 0)
(-0.038488 0.00250682 0)
(-0.0394551 0.00217624 0)
(-0.0402773 0.00182181 0)
(-0.0409454 0.00144519 0)
(-0.0414512 0.00104841 0)
(-0.0417874 0.000633959 0)
(-0.0419479 0.000204741 0)
(-0.0419278 -0.000235889 0)
(-0.0417237 -0.000684152 0)
(-0.0413338 -0.00113587 0)
(-0.0407582 -0.00158649 0)
(-0.0399987 -0.00203116 0)
(-0.0390591 -0.00246478 0)
(-0.0379452 -0.00288205 0)
(-0.0366651 -0.0032776 0)
(-0.0352286 -0.00364607 0)
(-0.033648 -0.00398219 0)
(-0.0319372 -0.00428091 0)
(-0.0301122 -0.00453749 0)
(-0.0281907 -0.00474764 0)
(-0.0261919 -0.00490759 0)
(-0.0241364 -0.00501423 0)
(-0.0220458 -0.00506517 0)
(-0.0199424 -0.00505883 0)
(-0.0178491 -0.00499454 0)
(-0.0157887 -0.00487254 0)
(-0.0137838 -0.00469409 0)
(-0.0118562 -0.00446146 0)
(-0.0100268 -0.00417796 0)
(-0.00831471 -0.00384796 0)
(-0.00673733 -0.0034769 0)
(-0.00530956 -0.00307134 0)
(-0.00404353 -0.002639 0)
(-0.0029481 -0.00218887 0)
(-0.00202842 -0.00173132 0)
(-0.00128544 -0.0012784 0)
(-0.000715419 -0.000844105 0)
(-0.0003094 -0.000444915 0)
(-5.26511e-05 -0.000100353 0)
(7.5657e-05 0.000166277 0)
(0.000102971 0.000327282 0)
(6.7234e-05 0.000349957 0)
(1.96082e-05 0.000193701 0)
(-1.37039e-05 -3.70231e-05 0)
(-0.000132796 0.000198043 0)
(-0.000435586 0.000627287 0)
(-0.000923975 0.00117013 0)
(-0.00160255 0.00177072 0)
(-0.00247385 0.0023883 0)
(-0.00353403 0.00299385 0)
(-0.00477438 0.00356764 0)
(-0.00618284 0.00409684 0)
(-0.00774489 0.00457373 0)
(-0.00944444 0.00499424 0)
(-0.0112644 0.00535687 0)
(-0.0131874 0.00566188 0)
(-0.0151959 0.00591064 0)
(-0.0172726 0.00610512 0)
(-0.0194007 0.00624759 0)
(-0.0215637 0.00634032 0)
(-0.0237457 0.00638544 0)
(-0.0259312 0.00638482 0)
(-0.0281051 0.00634002 0)
(-0.0302529 0.00625229 0)
(-0.0323599 0.00612254 0)
(-0.0344123 0.00595145 0)
(-0.0363959 0.0057395 0)
(-0.038297 0.00548703 0)
(-0.0401021 0.00519437 0)
(-0.0417977 0.0048619 0)
(-0.0433708 0.00449014 0)
(-0.0448085 0.00407987 0)
(-0.0460985 0.00363217 0)
(-0.0472289 0.00314851 0)
(-0.0481884 0.00263087 0)
(-0.0489668 0.0020817 0)
(-0.0495547 0.00150406 0)
(-0.0499438 0.000901568 0)
(-0.0501273 0.000278482 0)
(-0.0500998 -0.000360349 0)
(-0.0498576 -0.00100948 0)
(-0.0493988 -0.00166293 0)
(-0.0487238 -0.00231419 0)
(-0.0478346 -0.00295636 0)
(-0.046736 -0.00358217 0)
(-0.0454347 -0.00418415 0)
(-0.0439399 -0.00475469 0)
(-0.0422631 -0.00528621 0)
(-0.0404181 -0.00577128 0)
(-0.0384212 -0.00620278 0)
(-0.0362904 -0.00657404 0)
(-0.034046 -0.00687902 0)
(-0.0317099 -0.00711242 0)
(-0.0293056 -0.00726984 0)
(-0.0268575 -0.00734794 0)
(-0.0243914 -0.0073445 0)
(-0.021933 -0.00725857 0)
(-0.0195086 -0.00709051 0)
(-0.0171439 -0.00684212 0)
(-0.0148639 -0.00651661 0)
(-0.0126924 -0.0061187 0)
(-0.0106515 -0.00565461 0)
(-0.00876099 -0.0051321 0)
(-0.00703819 -0.00456048 0)
(-0.00549718 -0.00395072 0)
(-0.00414841 -0.0033155 0)
(-0.00299827 -0.00266937 0)
(-0.00204854 -0.00202904 0)
(-0.00129597 -0.00141366 0)
(-0.00073181 -0.000845333 0)
(-0.000341377 -0.0003497 0)
(-0.000103763 4.33094e-05 0)
(8.6067e-06 0.000298799 0)
(3.225e-05 0.000376006 0)
(1.35674e-05 0.000223936 0)
(-2.51769e-05 4.45652e-05 0)
(-0.000199859 0.000461759 0)
(-0.000613518 0.00108703 0)
(-0.00125164 0.0018338 0)
(-0.00210972 0.00264035 0)
(-0.0031856 0.00346052 0)
(-0.00447171 0.00426077 0)
(-0.00595635 0.00501769 0)
(-0.00762504 0.00571572 0)
(-0.00946123 0.0063452 0)
(-0.011447 0.00690084 0)
(-0.0135635 0.00738047 0)
(-0.0157917 0.00778411 0)
(-0.0181122 0.00811319 0)
(-0.020506 0.00836999 0)
(-0.0229546 0.00855715 0)
(-0.0254396 0.00867742 0)
(-0.0279433 0.00873339 0)
(-0.0304483 0.00872737 0)
(-0.0329378 0.00866129 0)
(-0.0353951 0.00853675 0)
(-0.037804 0.00835493 0)
(-0.0401485 0.00811676 0)
(-0.0424129 0.00782292 0)
(-0.0445815 0.00747395 0)
(-0.0466392 0.00707041 0)
(-0.0485707 0.00661293 0)
(-0.0503614 0.00610235 0)
(-0.0519968 0.00553986 0)
(-0.0534632 0.00492707 0)
(-0.0547473 0.00426612 0)
(-0.0558366 0.00355977 0)
(-0.0567198 0.00281148 0)
(-0.0573864 0.00202544 0)
(-0.0578274 0.00120663 0)
(-0.0580353 0.000360797 0)
(-0.0580043 -0.000505491 0)
(-0.0577303 -0.00138492 0)
(-0.0572115 -0.00226946 0)
(-0.0564481 -0.00315045 0)
(-0.0554429 -0.00401866 0)
(-0.0542009 -0.00486446 0)
(-0.0527297 -0.00567792 0)
(-0.0510396 -0.00644894 0)
(-0.0491433 -0.0071675 0)
(-0.0470562 -0.00782377 0)
(-0.044796 -0.00840831 0)
(-0.042383 -0.00891233 0)
(-0.0398394 -0.00932781 0)
(-0.0371895 -0.00964775 0)
(-0.0344591 -0.00986633 0)
(-0.0316756 -0.00997908 0)
(-0.0288673 -0.00998308 0)
(-0.0260628 -0.00987702 0)
(-0.0232913 -0.00966139 0)
(-0.0205814 -0.00933854 0)
(-0.017961 -0.00891273 0)
(-0.0154566 -0.00839019 0)
(-0.013093 -0.00777918 0)
(-0.0108926 -0.00708999 0)
(-0.00887482 -0.00633497 0)
(-0.00705585 -0.00552862 0)
(-0.00544791 -0.00468763 0)
(-0.00405885 -0.00383106 0)
(-0.00289167 -0.00298058 0)
(-0.00194411 -0.00216073 0)
(-0.00120826 -0.00139939 0)
(-0.000670218 -0.000728365 0)
(-0.000309818 -0.000184087 0)
(-0.000100285 0.000191695 0)
(-7.91742e-06 0.000350921 0)
(6.81407e-06 0.000234283 0)
(-3.63092e-05 0.000160828 0)
(-0.000266653 0.00081461 0)
(-0.00079282 0.001679 0)
(-0.00158368 0.00266421 0)
(-0.00262505 0.00370468 0)
(-0.00390939 0.0047505 0)
(-0.00542474 0.0057647 0)
(-0.00715582 0.00672107 0)
(-0.00908533 0.00760186 0)
(-0.0111945 0.00839584 0)
(-0.0134633 0.00909667 0)
(-0.0158712 0.00970167 0)
(-0.0183974 0.0102106 0)
(-0.021021 0.0106251 0)
(-0.0237216 0.0109476 0)
(-0.0264787 0.0111812 0)
(-0.0292727 0.0113291 0)
(-0.0320842 0.0113942 0)
(-0.0348941 0.0113794 0)
(-0.037684 0.0112869 0)
(-0.0404356 0.0111186 0)
(-0.0431311 0.0108761 0)
(-0.0457529 0.0105604 0)
(-0.0482834 0.0101726 0)
(-0.0507057 0.00971342 0)
(-0.0530029 0.00918363 0)
(-0.0551583 0.0085842 0)
(-0.0571558 0.00791637 0)
(-0.0589796 0.00718181 0)
(-0.0606145 0.00638275 0)
(-0.0620462 0.0055221 0)
(-0.0632611 0.00460353 0)
(-0.0642466 0.00363161 0)
(-0.0649916 0.00261183 0)
(-0.0654862 0.00155062 0)
(-0.0657223 0.00045545 0)
(-0.0656936 -0.000665267 0)
(-0.0653958 -0.00180216 0)
(-0.0648269 -0.00294497 0)
(-0.0639872 -0.00408266 0)
(-0.0628795 -0.00520352 0)
(-0.0615093 -0.00629531 0)
(-0.0598849 -0.00734543 0)
(-0.0580172 -0.00834112 0)
(-0.0559201 -0.00926965 0)
(-0.0536101 -0.0101186 0)
(-0.0511064 -0.010876 0)
(-0.0484308 -0.0115307 0)
(-0.0456074 -0.0120726 0)
(-0.0426624 -0.0124928 0)
(-0.039624 -0.0127838 0)
(-0.0365217 -0.0129399 0)
(-0.0333863 -0.0129575 0)
(-0.0302493 -0.0128346 0)
(-0.0271421 -0.0125721 0)
(-0.0240964 -0.0121726 0)
(-0.0211426 -0.0116415 0)
(-0.0183099 -0.0109868 0)
(-0.0156259 -0.0102188 0)
(-0.0131152 -0.00935038 0)
(-0.0107999 -0.00839727 0)
(-0.00869816 -0.00737765 0)
(-0.00682425 -0.0063125 0)
(-0.00518779 -0.00522558 0)
(-0.00379339 -0.00414371 0)
(-0.00264021 -0.00309698 0)
(-0.00172171 -0.00211912 0)
(-0.00102536 -0.00124805 0)
(-0.000532382 -0.0005265 0)
(-0.000217477 -2.60808e-06 0)
(-5.06055e-05 0.000269154 0)
(-1.21504e-07 0.000223044 0)
(-4.70058e-05 0.000311124 0)
(-0.000332203 0.00125649 0)
(-0.000970507 0.00240414 0)
(-0.0019145 0.00366318 0)
(-0.00314018 0.00496602 0)
(-0.00463421 0.00626044 0)
(-0.00637978 0.00750726 0)
(-0.00835765 0.00867837 0)
(-0.0105474 0.00975448 0)
(-0.0129275 0.0107232 0)
(-0.015476 0.0115777 0)
(-0.0181705 0.0123147 0)
(-0.0209885 0.0129341 0)
(-0.0239076 0.0134375 0)
(-0.0269059 0.0138278 0)
(-0.0299616 0.0141084 0)
(-0.0330537 0.014283 0)
(-0.0361612 0.0143549 0)
(-0.0392638 0.0143273 0)
(-0.0423417 0.0142029 0)
(-0.045375 0.013984 0)
(-0.0483447 0.0136723 0)
(-0.0512315 0.0132692 0)
(-0.0540168 0.0127759 0)
(-0.0566819 0.0121935 0)
(-0.0592086 0.0115231 0)
(-0.0615791 0.0107659 0)
(-0.0637758 0.00992375 0)
(-0.0657817 0.00899874 0)
(-0.0675805 0.00799384 0)
(-0.0691567 0.00691279 0)
(-0.0704958 0.0057603 0)
(-0.0715841 0.00454214 0)
(-0.0724098 0.00326519 0)
(-0.0729622 0.00193751 0)
(-0.0732325 0.000568349 0)
(-0.073214 -0.000831849 0)
(-0.072902 -0.00225152 0)
(-0.0722941 -0.00367803 0)
(-0.0713906 -0.00509781 0)
(-0.0701945 -0.00649647 0)
(-0.0687113 -0.007859 0)
(-0.0669496 -0.00916996 0)
(-0.0649211 -0.0104137 0)
(-0.0626403 -0.0115746 0)
(-0.0601247 -0.0126375 0)
(-0.0573945 -0.0135877 0)
(-0.054473 -0.0144115 0)
(-0.0513857 -0.0150963 0)
(-0.0481607 -0.0156313 0)
(-0.0448279 -0.0160072 0)
(-0.0414192 -0.0162169 0)
(-0.0379675 -0.0162557 0)
(-0.0345066 -0.0161214 0)
(-0.0310708 -0.0158144 0)
(-0.0276941 -0.0153383 0)
(-0.0244097 -0.0146993 0)
(-0.0212496 -0.013907 0)
(-0.0182437 -0.012974 0)
(-0.0154197 -0.011916 0)
(-0.0128018 -0.0107521 0)
(-0.0104108 -0.00950427 0)
(-0.00826314 -0.00819799 0)
(-0.00637052 -0.0068619 0)
(-0.00473952 -0.0055281 0)
(-0.00337121 -0.00423231 0)
(-0.00226082 -0.00301416 0)
(-0.00139769 -0.00191758 0)
(-0.000764901 -0.000991367 0)
(-0.000339073 -0.00028961 0)
(-9.42589e-05 0.000127613 0)
(-6.96984e-06 0.000189572 0)
(-5.72555e-05 0.000494544 0)
(-0.00039603 0.00178615 0)
(-0.00114485 0.00326156 0)
(-0.0022406 0.00483033 0)
(-0.00364955 0.00642432 0)
(-0.00535242 0.00799035 0)
(-0.00732731 0.00948818 0)
(-0.00955068 0.0108887 0)
(-0.0119987 0.0121718 0)
(-0.0146471 0.0133246 0)
(-0.0174715 0.0143397 0)
(-0.0204478 0.0152142 0)
(-0.0235517 0.0159478 0)
(-0.0267594 0.0165426 0)
(-0.0300475 0.0170017 0)
(-0.0333931 0.0173291 0)
(-0.0367738 0.0175287 0)
(-0.0401674 0.0176044 0)
(-0.0435526 0.0175599 0)
(-0.046908 0.0173981 0)
(-0.0502128 0.0171217 0)
(-0.0534465 0.0167326 0)
(-0.0565889 0.0162326 0)
(-0.0596198 0.015623 0)
(-0.0625195 0.0149054 0)
(-0.0652687 0.0140809 0)
(-0.0678481 0.0131514 0)
(-0.0702392 0.0121191 0)
(-0.0724239 0.0109867 0)
(-0.0743848 0.00975793 0)
(-0.0761052 0.00843745 0)
(-0.0775698 0.00703105 0)
(-0.0787641 0.00554578 0)
(-0.0796752 0.00399002 0)
(-0.0802918 0.00237351 0)
(-0.0806045 0.000707428 0)
(-0.0806058 -0.00099568 0)
(-0.0802907 -0.00272193 0)
(-0.0796563 -0.00445619 0)
(-0.0787027 -0.00618223 0)
(-0.0774326 -0.00788283 0)
(-0.0758516 -0.00954007 0)
(-0.0739686 -0.0111355 0)
(-0.0717953 -0.0126504 0)
(-0.0693468 -0.0140661 0)
(-0.0666412 -0.0153644 0)
(-0.0636998 -0.0165277 0)
(-0.0605466 -0.0175396 0)
(-0.0572088 -0.018385 0)
(-0.0537157 -0.0190506 0)
(-0.0500992 -0.0195253 0)
(-0.0463928 -0.0198005 0)
(-0.0426318 -0.0198702 0)
(-0.0388522 -0.0197314 0)
(-0.0350909 -0.0193847 0)
(-0.0313844 -0.0188338 0)
(-0.0277687 -0.0180862 0)
(-0.0242785 -0.0171528 0)
(-0.0209466 -0.0160487 0)
(-0.0178033 -0.0147923 0)
(-0.0148757 -0.0134062 0)
(-0.0121872 -0.0119163 0)
(-0.00975683 -0.0103528 0)
(-0.0075987 -0.00874915 0)
(-0.00572176 -0.00714294 0)
(-0.0041293 -0.00557558 0)
(-0.00281878 -0.00409258 0)
(-0.00178176 -0.00274385 0)
(-0.00100352 -0.00158405 0)
(-0.000462867 -0.000672838 0)
(-0.000138063 -7.53073e-05 0)
(-1.36158e-05 0.000133791 0)
(-6.7077e-05 0.000710052 0)
(-0.000457909 0.00240167 0)
(-0.00131486 0.00424915 0)
(-0.00255977 0.00616366 0)
(-0.00414948 0.00807776 0)
(-0.00605873 0.00993847 0)
(-0.00826042 0.0117055 0)
(-0.0107266 0.0133497 0)
(-0.0134297 0.0148509 0)
(-0.0163427 0.0161962 0)
(-0.0194389 0.0173785 0)
(-0.0226918 0.0183949 0)
(-0.0260758 0.0192457 0)
(-0.0295655 0.0199334 0)
(-0.0331363 0.0204616 0)
(-0.036764 0.0208347 0)
(-0.040425 0.0210573 0)
(-0.0440963 0.0211337 0)
(-0.0477553 0.0210679 0)
(-0.0513796 0.0208632 0)
(-0.0549474 0.0205226 0)
(-0.0584372 0.0200484 0)
(-0.0618275 0.0194425 0)
(-0.0650974 0.0187067 0)
(-0.0682259 0.0178425 0)
(-0.0711926 0.0168518 0)
(-0.0739774 0.0157366 0)
(-0.0765606 0.0144996 0)
(-0.0789232 0.0131444 0)
(-0.0810466 0.0116753 0)
(-0.0829135 0.0100979 0)
(-0.0845074 0.00841925 0)
(-0.0858129 0.00664766 0)
(-0.0868165 0.00479306 0)
(-0.0875059 0.00286697 0)
(-0.087871 0.00088253 0)
(-0.0879037 -0.00114552 0)
(-0.0875981 -0.0032009 0)
(-0.086951 -0.00526588 0)
(-0.0859618 -0.00732144 0)
(-0.0846331 -0.00934745 0)
(-0.0829701 -0.0113229 0)
(-0.0809815 -0.0132262 0)
(-0.0786792 -0.0150354 0)
(-0.0760784 -0.0167287 0)
(-0.0731977 -0.0182845 0)
(-0.0700588 -0.0196823 0)
(-0.0666868 -0.0209025 0)
(-0.0631097 -0.0219273 0)
(-0.0593583 -0.022741 0)
(-0.0554659 -0.0233302 0)
(-0.051468 -0.0236844 0)
(-0.0474018 -0.0237964 0)
(-0.0433057 -0.0236624 0)
(-0.039219 -0.0232824 0)
(-0.0351808 -0.0226606 0)
(-0.03123 -0.0218053 0)
(-0.0274043 -0.0207292 0)
(-0.0237394 -0.0194492 0)
(-0.0202686 -0.0179869 0)
(-0.0170222 -0.0163682 0)
(-0.0140263 -0.0146232 0)
(-0.011303 -0.0127865 0)
(-0.00886914 -0.0108969 0)
(-0.00673647 -0.00899741 0)
(-0.00491085 -0.00713518 0)
(-0.00339231 -0.00536167 0)
(-0.00217491 -0.00373271 0)
(-0.00124639 -0.00230872 0)
(-0.000587852 -0.00115472 0)
(-0.000181695 -0.000340437 0)
(-2.00333e-05 5.58709e-05 0)
(-7.64949e-05 0.00095657 0)
(-0.000517742 0.00310076 0)
(-0.00147994 0.00536402 0)
(-0.0028706 0.00766008 0)
(-0.00463745 0.00992319 0)
(-0.00674937 0.0121016 0)
(-0.00917405 0.014156 0)
(-0.011879 0.016058 0)
(-0.0148331 0.0177879 0)
(-0.0180062 0.0193337 0)
(-0.021369 0.0206889 0)
(-0.0248932 0.0218512 0)
(-0.0285513 0.0228216 0)
(-0.0323166 0.0236031 0)
(-0.0361631 0.0242002 0)
(-0.0400657 0.0246178 0)
(-0.0439997 0.0248611 0)
(-0.0479411 0.0249347 0)
(-0.0518664 0.0248432 0)
(-0.0557524 0.0245904 0)
(-0.0595763 0.0241793 0)
(-0.0633157 0.0236127 0)
(-0.0669483 0.0228928 0)
(-0.0704521 0.0220215 0)
(-0.0738055 0.0210007 0)
(-0.076987 0.0198325 0)
(-0.0799756 0.0185196 0)
(-0.0827507 0.0170649 0)
(-0.0852924 0.0154728 0)
(-0.0875812 0.0137484 0)
(-0.0895989 0.0118983 0)
(-0.0913279 0.00993062 0)
(-0.0927523 0.00785508 0)
(-0.0938574 0.00568316 0)
(-0.0946301 0.00342819 0)
(-0.0950595 0.0011053 0)
(-0.0951365 -0.0012685 0)
(-0.0948547 -0.0036745 0)
(-0.0942099 -0.00609229 0)
(-0.093201 -0.00850001 0)
(-0.0918298 -0.0108745 0)
(-0.0901011 -0.0131915 0)
(-0.0880232 -0.0154263 0)
(-0.0856078 -0.0175534 0)
(-0.08287 -0.0195476 0)
(-0.0798284 -0.021384 0)
(-0.0765053 -0.0230386 0)
(-0.0729261 -0.0244887 0)
(-0.0691198 -0.0257135 0)
(-0.0651182 -0.0266945 0)
(-0.0609562 -0.0274157 0)
(-0.0566708 -0.0278647 0)
(-0.0523014 -0.0280325 0)
(-0.0478885 -0.0279144 0)
(-0.0434739 -0.0275098 0)
(-0.0390997 -0.0268229 0)
(-0.0348077 -0.0258628 0)
(-0.0306385 -0.0246436 0)
(-0.0266313 -0.0231844 0)
(-0.0228227 -0.0215096 0)
(-0.0192462 -0.0196485 0)
(-0.0159314 -0.0176355 0)
(-0.0129035 -0.0155099 0)
(-0.0101827 -0.0133156 0)
(-0.00778378 -0.0111011 0)
(-0.00571553 -0.00891963 0)
(-0.00398086 -0.00682853 0)
(-0.00257663 -0.00488963 0)
(-0.00149315 -0.00316911 0)
(-0.000713878 -0.00173726 0)
(-0.000225156 -0.000668336 0)
(-2.62492e-05 -4.39706e-05 0)
(-8.55304e-05 0.00123301 0)
(-0.000575479 0.00388087 0)
(-0.00163971 0.00660276 0)
(-0.0031721 0.00931568 0)
(-0.00511164 0.0119564 0)
(-0.00742153 0.0144754 0)
(-0.0100643 0.0168352 0)
(-0.0130031 0.0190087 0)
(-0.0162029 0.020978 0)
(-0.0196305 0.022732 0)
(-0.0232543 0.0242655 0)
(-0.0270437 0.0255772 0)
(-0.0309697 0.0266691 0)
(-0.0350041 0.0275453 0)
(-0.0391197 0.0282108 0)
(-0.0432903 0.0286714 0)
(-0.0474904 0.0289328 0)
(-0.0516952 0.0290004 0)
(-0.0558802 0.0288792 0)
(-0.0600215 0.0285731 0)
(-0.0640958 0.0280859 0)
(-0.0680796 0.0274204 0)
(-0.0719502 0.026579 0)
(-0.0756846 0.0255639 0)
(-0.0792605 0.0243775 0)
(-0.0826556 0.023022 0)
(-0.0858482 0.0215004 0)
(-0.0888168 0.0198165 0)
(-0.0915406 0.017975 0)
(-0.0939994 0.0159819 0)
(-0.096174 0.0138448 0)
(-0.0980461 0.0115729 0)
(-0.0995986 0.00917726 0)
(-0.100816 0.00667101 0)
(-0.101684 0.00406923 0)
(-0.102191 0.00138909 0)
(-0.102328 -0.00135019 0)
(-0.102085 -0.00412738 0)
(-0.101459 -0.00691939 0)
(-0.100447 -0.00970143 0)
(-0.099051 -0.0124472 0)
(-0.0972739 -0.0151293 0)
(-0.0951237 -0.0177194 0)
(-0.0926116 -0.0201886 0)
(-0.0897522 -0.022508 0)
(-0.0865642 -0.0246492 0)
(-0.0830696 -0.0265846 0)
(-0.0792945 -0.028288 0)
(-0.0752683 -0.0297352 0)
(-0.0710238 -0.0309046 0)
(-0.0665972 -0.0317776 0)
(-0.0620271 -0.0323393 0)
(-0.0573547 -0.0325788 0)
(-0.052623 -0.0324899 0)
(-0.0478764 -0.0320713 0)
(-0.0431598 -0.031327 0)
(-0.0385182 -0.0302667 0)
(-0.0339956 -0.0289056 0)
(-0.0296348 -0.0272651 0)
(-0.025476 -0.0253721 0)
(-0.0215564 -0.0232595 0)
(-0.0179094 -0.0209658 0)
(-0.0145639 -0.0185351 0)
(-0.0115436 -0.0160166 0)
(-0.00886679 -0.0134645 0)
(-0.00654557 -0.010938 0)
(-0.00458601 -0.00850062 0)
(-0.00298799 -0.00622029 0)
(-0.00174452 -0.00416903 0)
(-0.000841394 -0.00242252 0)
(-0.00026867 -0.00105965 0)
(-3.23221e-05 -0.000165599 0)
(-9.41993e-05 0.00153827 0)
(-0.000631085 0.00473929 0)
(-0.00179391 0.00796155 0)
(-0.00346356 0.0111259 0)
(-0.00557068 0.0141725 0)
(-0.00807302 0.0170547 0)
(-0.0109281 0.0197375 0)
(-0.0140946 0.0221964 0)
(-0.017534 0.0244153 0)
(-0.0212099 0.0263851 0)
(-0.0250882 0.0281021 0)
(-0.0291364 0.0295666 0)
(-0.0333236 0.0307819 0)
(-0.0376202 0.0317531 0)
(-0.0419981 0.0324865 0)
(-0.0464301 0.0329886 0)
(-0.0508896 0.0332659 0)
(-0.0553513 0.0333244 0)
(-0.05979 0.0331696 0)
(-0.0641812 0.032806 0)
(-0.0685008 0.0322374 0)
(-0.072725 0.0314671 0)
(-0.0768302 0.0304978 0)
(-0.0807929 0.0293318 0)
(-0.0845902 0.0279718 0)
(-0.0881992 0.0264203 0)
(-0.0915973 0.0246808 0)
(-0.0947624 0.0227574 0)
(-0.0976729 0.0206555 0)
(-0.100308 0.0183819 0)
(-0.102647 0.0159451 0)
(-0.104672 0.0133553 0)
(-0.106363 0.0106251 0)
(-0.107705 0.00776898 0)
(-0.108683 0.00480381 0)
(-0.109283 0.00174877 0)
(-0.109494 -0.00137467 0)
(-0.109308 -0.0045428 0)
(-0.108719 -0.00772983 0)
(-0.107723 -0.010908 0)
(-0.106319 -0.0140479 0)
(-0.104512 -0.0171187 0)
(-0.102307 -0.0200885 0)
(-0.0997157 -0.0229248 0)
(-0.096751 -0.0255949 0)
(-0.0934313 -0.0280665 0)
(-0.0897786 -0.0303082 0)
(-0.0858188 -0.0322901 0)
(-0.0815819 -0.0339842 0)
(-0.0771015 -0.0353656 0)
(-0.0724147 -0.0364125 0)
(-0.0675618 -0.0371073 0)
(-0.0625859 -0.0374367 0)
(-0.0575323 -0.0373927 0)
(-0.052448 -0.0369731 0)
(-0.0473812 -0.0361812 0)
(-0.0423801 -0.035027 0)
(-0.0374925 -0.033527 0)
(-0.032765 -0.031704 0)
(-0.0282419 -0.029588 0)
(-0.0239645 -0.0272151 0)
(-0.0199703 -0.0246281 0)
(-0.0162925 -0.0218757 0)
(-0.0129586 -0.0190127 0)
(-0.0099909 -0.0160991 0)
(-0.00740517 -0.0132003 0)
(-0.00521093 -0.0103862 0)
(-0.00341127 -0.00773099 0)
(-0.00200204 -0.00531281 0)
(-0.000971282 -0.003213 0)
(-0.000312607 -0.00151535 0)
(-3.83302e-05 -0.000309051 0)
(-0.00010251 0.00187125 0)
(-0.000684519 0.00567321 0)
(-0.0019423 0.00943628 0)
(-0.00374434 0.0130858 0)
(-0.00601339 0.0165658 0)
(-0.00870195 0.0198333 0)
(-0.0117627 0.0228567 0)
(-0.0151502 0.0256145 0)
(-0.0188221 0.0280933 0)
(-0.0227392 0.0302863 0)
(-0.0268649 0.0321919 0)
(-0.0311645 0.0338125 0)
(-0.0356057 0.0351529 0)
(-0.0401575 0.0362198 0)
(-0.0447907 0.0370206 0)
(-0.049477 0.0375628 0)
(-0.0541895 0.037854 0)
(-0.0589019 0.0379008 0)
(-0.0635886 0.0377091 0)
(-0.0682245 0.037284 0)
(-0.0727851 0.0366297 0)
(-0.0772461 0.0357497 0)
(-0.0815834 0.0346469 0)
(-0.0857731 0.0333241 0)
(-0.0897916 0.0317838 0)
(-0.0936155 0.0300291 0)
(-0.0972218 0.0280637 0)
(-0.100587 0.0258922 0)
(-0.10369 0.0235205 0)
(-0.106509 0.0209562 0)
(-0.109022 0.0182085 0)
(-0.111209 0.0152889 0)
(-0.113052 0.012211 0)
(-0.114532 0.00899087 0)
(-0.115634 0.00564706 0)
(-0.116344 0.00220068 0)
(-0.116648 -0.00132461 0)
(-0.116537 -0.00490266 0)
(-0.116003 -0.00850495 0)
(-0.115041 -0.0121008 0)
(-0.113651 -0.0156576 0)
(-0.111833 -0.019141 0)
(-0.109593 -0.0225155 0)
(-0.10694 -0.0257449 0)
(-0.103887 -0.0287923 0)
(-0.100452 -0.0316216 0)
(-0.0966546 -0.034197 0)
(-0.0925222 -0.0364846 0)
(-0.0880844 -0.0384525 0)
(-0.0833752 -0.0400718 0)
(-0.0784327 -0.0413174 0)
(-0.0732988 -0.0421682 0)
(-0.0680184 -0.0426084 0)
(-0.0626391 -0.0426278 0)
(-0.0572108 -0.0422224 0)
(-0.0517849 -0.041395 0)
(-0.0464132 -0.0401554 0)
(-0.0411476 -0.0385207 0)
(-0.0360389 -0.0365157 0)
(-0.0311357 -0.0341726 0)
(-0.0264841 -0.0315311 0)
(-0.0221261 -0.0286379 0)
(-0.0180995 -0.0255468 0)
(-0.0144364 -0.0223181 0)
(-0.0111633 -0.0190179 0)
(-0.00830006 -0.0157179 0)
(-0.00586001 -0.0124947 0)
(-0.00384966 -0.00942905 0)
(-0.0022678 -0.00660568 0)
(-0.00110472 -0.0041119 0)
(-0.00035744 -0.00203694 0)
(-4.43638e-05 -0.000474594 0)
(-0.000110462 0.00223083 0)
(-0.000735722 0.00667965 0)
(-0.00208461 0.0110226 0)
(-0.00401386 0.0151898 0)
(-0.00643868 0.01913 0)
(-0.00930661 0.0228045 0)
(-0.0125658 0.0261857 0)
(-0.0161665 0.0292557 0)
(-0.0200632 0.0320043 0)
(-0.0242136 0.0344279 0)
(-0.0285786 0.0365274 0)
(-0.0331219 0.0383074 0)
(-0.0378093 0.0397748 0)
(-0.0426086 0.0409381 0)
(-0.0474896 0.0418059 0)
(-0.0524233 0.0423874 0)
(-0.057382 0.0426907 0)
(-0.0623388 0.0427235 0)
(-0.0672678 0.0424922 0)
(-0.0721436 0.0420026 0)
(-0.0769411 0.041259 0)
(-0.0816356 0.0402654 0)
(-0.0862029 0.0390248 0)
(-0.0906186 0.0375401 0)