/*--------------------------------*- C++ -*----------------------------------*\
  =========                 |
  \\      /  F ield         | OpenFOAM: The Open Source CFD Toolbox
   \\    /   O peration     | Website:  https://openfoam.org
    \\  /    A nd           | Version:  dev
     \\/     M anipulation  |
\*---------------------------------------------------------------------------*/
FoamFile
{
    format      ascii;
    class       volScalarField;
    location    "16.65";
    object      Ux;
}
// * * * * * * * * * * * * * * * * * * * * * * * * * * * * * * * * * * * * * //

dimensions      [0 1 -1 0 0 0 0];

internalField   nonuniform List<scalar> 
5184
(
1.24685e-05
4.53997e-05
8.0337e-05
9.58488e-05
8.19146e-05
3.61591e-05
-4.08629e-05
-0.000147134
-0.00027987
-0.000436016
-0.000612455
-0.000806157
-0.00101426
-0.0012341
-0.00146322
-0.00169938
-0.00194049
-0.00218465
-0.00243008
-0.0026751
-0.00291809
-0.00315751
-0.00339183
-0.00361952
-0.00383906
-0.00404892
-0.00424753
-0.00443334
-0.00460477
-0.00476023
-0.00489818
-0.00501708
-0.0051155
-0.00519204
-0.00524546
-0.00527463
-0.00527862
-0.0052567
-0.00520837
-0.00513341
-0.00503187
-0.00490412
-0.00475088
-0.00457319
-0.00437245
-0.00415041
-0.00390917
-0.00365115
-0.00337906
-0.00309591
-0.00280493
-0.00250953
-0.00221328
-0.00191983
-0.00163285
-0.00135598
-0.00109273
-0.000846486
-0.000620384
-0.000417274
-0.00023965
-8.95896e-05
3.13198e-05
0.000122063
0.000182305
0.000212545
0.000214363
0.0001908
0.000146871
9.06538e-05
3.65884e-05
6.22672e-06
2.08565e-05
6.56e-05
9.45023e-05
7.24218e-05
-1.94263e-05
-0.000187828
-0.00043335
-0.000752772
-0.00114055
-0.00158992
-0.00209354
-0.00264396
-0.00323389
-0.00385635
-0.00450475
-0.0051729
-0.00585499
-0.00654561
-0.00723962
-0.00793215
-0.0086185
-0.00929413
-0.00995457
-0.0105954
-0.0112122
-0.0118007
-0.0123563
-0.0128747
-0.0133516
-0.0137825
-0.0141633
-0.0144898
-0.0147583
-0.0149649
-0.0151066
-0.0151804
-0.0151839
-0.0151155
-0.014974
-0.014759
-0.0144709
-0.0141109
-0.0136812
-0.0131847
-0.0126255
-0.0120082
-0.0113388
-0.0106238
-0.00987058
-0.0090872
-0.00828237
-0.00746523
-0.00664532
-0.00583236
-0.0050361
-0.00426621
-0.00353204
-0.00284251
-0.00220589
-0.00162965
-0.00112026
-0.000683014
-0.000321824
-3.8979e-05
0.000165147
0.000292465
0.000347707
0.000339117
0.00027916
0.000185653
8.62148e-05
1.96535e-05
1.76099e-05
4.12135e-05
1.93137e-05
-8.44095e-05
-0.000290679
-0.000608208
-0.00103824
-0.00157695
-0.00221718
-0.00294975
-0.00376439
-0.00465041
-0.00559711
-0.00659403
-0.00763115
-0.0086989
-0.00978822
-0.0108905
-0.0119976
-0.0131017
-0.0141951
-0.0152706
-0.0163209
-0.0173389
-0.0183174
-0.0192496
-0.0201284
-0.0209468
-0.0216979
-0.022375
-0.0229716
-0.0234814
-0.0238985
-0.0242173
-0.024433
-0.0245414
-0.0245392
-0.0244237
-0.0241935
-0.0238483
-0.0233888
-0.0228173
-0.0221372
-0.0213533
-0.0204718
-0.0195004
-0.018448
-0.0173247
-0.016142
-0.0149122
-0.0136486
-0.0123653
-0.0110767
-0.00979763
-0.00854304
-0.00732755
-0.0061654
-0.00507009
-0.00405417
-0.00312888
-0.00230395
-0.00158729
-0.000984609
-0.000499159
-0.000131262
0.00012214
0.000268119
0.000318483
0.000290329
0.000206839
0.000102218
2.49301e-05
8.80798e-06
-7.12465e-06
-0.00010779
-0.000322573
-0.000669655
-0.00115741
-0.00178656
-0.00255234
-0.0034462
-0.00445714
-0.00557268
-0.00677963
-0.00806462
-0.00941439
-0.0108161
-0.0122573
-0.0137261
-0.0152111
-0.0167014
-0.0181865
-0.0196562
-0.0211005
-0.0225097
-0.0238742
-0.0251843
-0.0264308
-0.0276042
-0.0286952
-0.0296949
-0.0305943
-0.0313848
-0.0320584
-0.0326073
-0.0330246
-0.0333041
-0.0334404
-0.0334295
-0.0332682
-0.0329549
-0.0324893
-0.031873
-0.0311087
-0.0302013
-0.0291572
-0.0279848
-0.0266939
-0.0252963
-0.0238052
-0.0222355
-0.0206032
-0.0189256
-0.0172207
-0.0155073
-0.0138045
-0.0121315
-0.0105072
-0.00894995
-0.00747715
-0.00610492
-0.00484774
-0.00371809
-0.00272607
-0.00187902
-0.00118107
-0.000632699
-0.000230226
3.47973e-05
0.000176228
0.000213746
0.000173466
9.27582e-05
2.39716e-05
-2.14888e-06
-6.73471e-05
-0.000264133
-0.000609605
-0.00111621
-0.00179011
-0.00263032
-0.00363046
-0.0047804
-0.00606744
-0.00747726
-0.00899462
-0.010604
-0.0122897
-0.0140367
-0.01583
-0.0176554
-0.0194989
-0.0213474
-0.0231877
-0.0250075
-0.0267943
-0.0285361
-0.030221
-0.0318372
-0.0333732
-0.0348174
-0.0361586
-0.0373857
-0.038488
-0.0394551
-0.0402773
-0.0409454
-0.0414512
-0.0417874
-0.0419479
-0.0419278
-0.0417237
-0.0413338
-0.0407582
-0.0399987
-0.0390591
-0.0379452
-0.0366651
-0.0352286
-0.033648
-0.0319372
-0.0301122
-0.0281907
-0.0261919
-0.0241364
-0.0220458
-0.0199424
-0.0178491
-0.0157887
-0.0137838
-0.0118562
-0.0100268
-0.00831471
-0.00673733
-0.00530956
-0.00404353
-0.0029481
-0.00202842
-0.00128544
-0.000715419
-0.0003094
-5.26511e-05
7.5657e-05
0.000102971
6.7234e-05
1.96082e-05
-1.37039e-05
-0.000132796
-0.000435586
-0.000923975
-0.00160255
-0.00247385
-0.00353403
-0.00477438
-0.00618284
-0.00774489
-0.00944444
-0.0112644
-0.0131874
-0.0151959
-0.0172726
-0.0194007
-0.0215637
-0.0237457
-0.0259312
-0.0281051
-0.0302529
-0.0323599
-0.0344123
-0.0363959
-0.038297
-0.0401021
-0.0417977
-0.0433708
-0.0448085
-0.0460985
-0.0472289
-0.0481884
-0.0489668
-0.0495547
-0.0499438
-0.0501273
-0.0500998
-0.0498576
-0.0493988
-0.0487238
-0.0478346
-0.046736
-0.0454347
-0.0439399
-0.0422631
-0.0404181
-0.0384212
-0.0362904
-0.034046
-0.0317099
-0.0293056
-0.0268575
-0.0243914
-0.021933
-0.0195086
-0.0171439
-0.0148639
-0.0126924
-0.0106515
-0.00876099
-0.00703819
-0.00549718
-0.00414841
-0.00299827
-0.00204854
-0.00129597
-0.00073181
-0.000341377
-0.000103763
8.6067e-06
3.225e-05
1.35674e-05
-2.51769e-05
-0.000199859
-0.000613518
-0.00125164
-0.00210972
-0.0031856
-0.00447171
-0.00595635
-0.00762504
-0.00946123
-0.011447
-0.0135635
-0.0157917
-0.0181122
-0.020506
-0.0229546
-0.0254396
-0.0279433
-0.0304483
-0.0329378
-0.0353951
-0.037804
-0.0401485
-0.0424129
-0.0445815
-0.0466392
-0.0485707
-0.0503614
-0.0519968
-0.0534632
-0.0547473
-0.0558366
-0.0567198
-0.0573864
-0.0578274
-0.0580353
-0.0580043
-0.0577303
-0.0572115
-0.0564481
-0.0554429
-0.0542009
-0.0527297
-0.0510396
-0.0491433
-0.0470562
-0.044796
-0.042383
-0.0398394
-0.0371895
-0.0344591
-0.0316756
-0.0288673
-0.0260628
-0.0232913
-0.0205814
-0.017961
-0.0154566
-0.013093
-0.0108926
-0.00887482
-0.00705585
-0.00544791
-0.00405885
-0.00289167
-0.00194411
-0.00120826
-0.000670218
-0.000309818
-0.000100285
-7.91742e-06
6.81407e-06
-3.63092e-05
-0.000266653
-0.00079282
-0.00158368
-0.00262505
-0.00390939
-0.00542474
-0.00715582
-0.00908533
-0.0111945
-0.0134633
-0.0158712
-0.0183974
-0.021021
-0.0237216
-0.0264787
-0.0292727
-0.0320842
-0.0348941
-0.037684
-0.0404356
-0.0431311
-0.0457529
-0.0482834
-0.0507057
-0.0530029
-0.0551583
-0.0571558
-0.0589796
-0.0606145
-0.0620462
-0.0632611
-0.0642466
-0.0649916
-0.0654862
-0.0657223
-0.0656936
-0.0653958
-0.0648269
-0.0639872
-0.0628795
-0.0615093
-0.0598849
-0.0580172
-0.0559201
-0.0536101
-0.0511064
-0.0484308
-0.0456074
-0.0426624
-0.039624
-0.0365217
-0.0333863
-0.0302493
-0.0271421
-0.0240964
-0.0211426
-0.0183099
-0.0156259
-0.0131152
-0.0107999
-0.00869816
-0.00682425
-0.00518779
-0.00379339
-0.00264021
-0.00172171
-0.00102536
-0.000532382
-0.000217477
-5.06055e-05
-1.21504e-07
-4.70058e-05
-0.000332203
-0.000970507
-0.0019145
-0.00314018
-0.00463421
-0.00637978
-0.00835765
-0.0105474
-0.0129275
-0.015476
-0.0181705
-0.0209885
-0.0239076
-0.0269059
-0.0299616
-0.0330537
-0.0361612
-0.0392638
-0.0423417
-0.045375
-0.0483447
-0.0512315
-0.0540168
-0.0566819
-0.0592086
-0.0615791
-0.0637758
-0.0657817
-0.0675805
-0.0691567
-0.0704958
-0.0715841
-0.0724098
-0.0729622
-0.0732325
-0.073214
-0.072902
-0.0722941
-0.0713906
-0.0701945
-0.0687113
-0.0669496
-0.0649211
-0.0626403
-0.0601247
-0.0573945
-0.054473
-0.0513857
-0.0481607
-0.0448279
-0.0414192
-0.0379675
-0.0345066
-0.0310708
-0.0276941
-0.0244097
-0.0212496
-0.0182437
-0.0154197
-0.0128018
-0.0104108
-0.00826314
-0.00637052
-0.00473952
-0.00337121
-0.00226082
-0.00139769
-0.000764901
-0.000339073
-9.42589e-05
-6.96984e-06
-5.72555e-05
-0.00039603
-0.00114485
-0.0022406
-0.00364955
-0.00535242
-0.00732731
-0.00955068
-0.0119987
-0.0146471
-0.0174715
-0.0204478
-0.0235517
-0.0267594
-0.0300475
-0.0333931
-0.0367738
-0.0401674
-0.0435526
-0.046908
-0.0502128
-0.0534465
-0.0565889
-0.0596198
-0.0625195
-0.0652687
-0.0678481
-0.0702392
-0.0724239
-0.0743848
-0.0761052
-0.0775698
-0.0787641
-0.0796752
-0.0802918
-0.0806045
-0.0806058
-0.0802907
-0.0796563
-0.0787027
-0.0774326
-0.0758516
-0.0739686
-0.0717953
-0.0693468
-0.0666412
-0.0636998
-0.0605466
-0.0572088
-0.0537157
-0.0500992
-0.0463928
-0.0426318
-0.0388522
-0.0350909
-0.0313844
-0.0277687
-0.0242785
-0.0209466
-0.0178033
-0.0148757
-0.0121872
-0.00975683
-0.0075987
-0.00572176
-0.0041293
-0.00281878
-0.00178176
-0.00100352
-0.000462867
-0.000138063
-1.36158e-05
-6.7077e-05
-0.000457909
-0.00131486
-0.00255977
-0.00414948
-0.00605873
-0.00826042
-0.0107266
-0.0134297
-0.0163427
-0.0194389
-0.0226918
-0.0260758
-0.0295655
-0.0331363
-0.036764
-0.040425
-0.0440963
-0.0477553
-0.0513796
-0.0549474
-0.0584372
-0.0618275
-0.0650974
-0.0682259
-0.0711926
-0.0739774
-0.0765606
-0.0789232
-0.0810466
-0.0829135
-0.0845074
-0.0858129
-0.0868165
-0.0875059
-0.087871
-0.0879037
-0.0875981
-0.086951
-0.0859618
-0.0846331
-0.0829701
-0.0809815
-0.0786792
-0.0760784
-0.0731977
-0.0700588
-0.0666868
-0.0631097
-0.0593583
-0.0554659
-0.051468
-0.0474018
-0.0433057
-0.039219
-0.0351808
-0.03123
-0.0274043
-0.0237394
-0.0202686
-0.0170222
-0.0140263
-0.011303
-0.00886914
-0.00673647
-0.00491085
-0.00339231
-0.00217491
-0.00124639
-0.000587852
-0.000181695
-2.00333e-05
-7.64949e-05
-0.000517742
-0.00147994
-0.0028706
-0.00463745
-0.00674937
-0.00917405
-0.011879
-0.0148331
-0.0180062
-0.021369
-0.0248932
-0.0285513
-0.0323166
-0.0361631
-0.0400657
-0.0439997
-0.0479411
-0.0518664
-0.0557524
-0.0595763
-0.0633157
-0.0669483
-0.0704521
-0.0738055
-0.076987
-0.0799756
-0.0827507
-0.0852924
-0.0875812
-0.0895989
-0.0913279
-0.0927523
-0.0938574
-0.0946301
-0.0950595
-0.0951365
-0.0948547
-0.0942099
-0.093201
-0.0918298
-0.0901011
-0.0880232
-0.0856078
-0.08287
-0.0798284
-0.0765053
-0.0729261
-0.0691198
-0.0651182
-0.0609562
-0.0566708
-0.0523014
-0.0478885
-0.0434739
-0.0390997
-0.0348077
-0.0306385
-0.0266313
-0.0228227
-0.0192462
-0.0159314
-0.0129035
-0.0101827
-0.00778378
-0.00571553
-0.00398086
-0.00257663
-0.00149315
-0.000713878
-0.000225156
-2.62492e-05
-8.55304e-05
-0.000575479
-0.00163971
-0.0031721
-0.00511164
-0.00742153
-0.0100643
-0.0130031
-0.0162029
-0.0196305
-0.0232543
-0.0270437
-0.0309697
-0.0350041
-0.0391197
-0.0432903
-0.0474904
-0.0516952
-0.0558802
-0.0600215
-0.0640958
-0.0680796
-0.0719502
-0.0756846
-0.0792605
-0.0826556
-0.0858482
-0.0888168
-0.0915406
-0.0939994
-0.096174
-0.0980461
-0.0995986
-0.100816
-0.101684
-0.102191
-0.102328
-0.102085
-0.101459
-0.100447
-0.099051
-0.0972739
-0.0951237
-0.0926116
-0.0897522
-0.0865642
-0.0830696
-0.0792945
-0.0752683
-0.0710238
-0.0665972
-0.0620271
-0.0573547
-0.052623
-0.0478764
-0.0431598
-0.0385182
-0.0339956
-0.0296348
-0.025476
-0.0215564
-0.0179094
-0.0145639
-0.0115436
-0.00886679
-0.00654557
-0.00458601
-0.00298799
-0.00174452
-0.000841394
-0.00026867
-3.23221e-05
-9.41993e-05
-0.000631085
-0.00179391
-0.00346356
-0.00557068
-0.00807302
-0.0109281
-0.0140946
-0.017534
-0.0212099
-0.0250882
-0.0291364
-0.0333236
-0.0376202
-0.0419981
-0.0464301
-0.0508896
-0.0553513
-0.05979
-0.0641812
-0.0685008
-0.072725
-0.0768302
-0.0807929
-0.0845902
-0.0881992
-0.0915973
-0.0947624
-0.0976729
-0.100308
-0.102647
-0.104672
-0.106363
-0.107705
-0.108683
-0.109283
-0.109494
-0.109308
-0.108719
-0.107723
-0.106319
-0.104512
-0.102307
-0.0997157
-0.096751
-0.0934313
-0.0897786
-0.0858188
-0.0815819
-0.0771015
-0.0724147
-0.0675618
-0.0625859
-0.0575323
-0.052448
-0.0473812
-0.0423801
-0.0374925
-0.032765
-0.0282419
-0.0239645
-0.0199703
-0.0162925
-0.0129586
-0.0099909
-0.00740517
-0.00521093
-0.00341127
-0.00200204
-0.000971282
-0.000312607
-3.83302e-05
-0.00010251
-0.000684519
-0.0019423
-0.00374434
-0.00601339
-0.00870195
-0.0117627
-0.0151502
-0.0188221
-0.0227392
-0.0268649
-0.0311645
-0.0356057
-0.0401575
-0.0447907
-0.049477
-0.0541895
-0.0589019
-0.0635886
-0.0682245
-0.0727851
-0.0772461
-0.0815834
-0.0857731
-0.0897916
-0.0936155
-0.0972218
-0.100587
-0.10369
-0.106509
-0.109022
-0.111209
-0.113052
-0.114532
-0.115634
-0.116344
-0.116648
-0.116537
-0.116003
-0.115041
-0.113651
-0.111833
-0.109593
-0.10694
-0.103887
-0.100452
-0.0966546
-0.0925222
-0.0880844
-0.0833752
-0.0784327
-0.0732988
-0.0680184
-0.0626391
-0.0572108
-0.0517849
-0.0464132
-0.0411476
-0.0360389
-0.0311357
-0.0264841
-0.0221261
-0.0180995
-0.0144364
-0.0111633
-0.00830006
-0.00586001
-0.00384966
-0.0022678
-0.00110472
-0.00035744
-4.43638e-05
-0.000110462
-0.000735722
-0.00208461
-0.00401386
-0.00643868
-0.00930661
-0.0125658
-0.0161665
-0.0200632
-0.0242136
-0.0285786
-0.0331219
-0.0378093
-0.0426086
-0.0474896
-0.0524233
-0.057382
-0.0623388
-0.0672678
-0.0721436
-0.0769411
-0.0816356
-0.0862029
-0.0906186
-0.0948587
-0.0988994
-0.102717
-0.106288
-0.10959
-0.1126
-0.115296
-0.117658
-0.119665
-0.121299
-0.122541
-0.123377
-0.123793
-0.123776
-0.123318
-0.122413
-0.121056
-0.119249
-0.116994
-0.114299
-0.111176
-0.107642
-0.103716
-0.0994236
-0.0947954
-0.0898655
-0.0846726
-0.0792599
-0.0736742
-0.0679655
-0.0621866
-0.0563921
-0.050638
-0.0449804
-0.0394745
-0.0341742
-0.0291304
-0.0243904
-0.0199969
-0.0159872
-0.0123925
-0.00923712
-0.00653854
-0.00430698
-0.00254431
-0.00124312
-0.000403713
-5.05207e-05
-0.000118051
-0.000784613
-0.00222057
-0.00427148
-0.00684547
-0.00988535
-0.0133349
-0.0171406
-0.0212533
-0.0256283
-0.0302241
-0.0350024
-0.0399275
-0.0449661
-0.0500871
-0.0552606
-0.0604583
-0.0656532
-0.0708187
-0.0759292
-0.0809594
-0.0858844
-0.0906796
-0.0953206
-0.0997828
-0.104042
-0.108075
-0.111857
-0.115364
-0.118574
-0.121465
-0.124013
-0.126198
-0.128
-0.1294
-0.130381
-0.130928
-0.131026
-0.130666
-0.129838
-0.128538
-0.126763
-0.124515
-0.1218
-0.118627
-0.115012
-0.110974
-0.106537
-0.101731
-0.0965893
-0.0911524
-0.0854643
-0.0795733
-0.0735319
-0.0673959
-0.0612236
-0.0550749
-0.0490105
-0.0430909
-0.0373752
-0.0319199
-0.026778
-0.0219979
-0.0176224
-0.013688
-0.010224
-0.00725246
-0.00478753
-0.00283441
-0.00138801
-0.000452015
-5.69028e-05
-0.000125263
-0.000831089
-0.00234985
-0.00451656
-0.00723264
-0.0104365
-0.0140678
-0.0180693
-0.0223888
-0.0269789
-0.031796
-0.0367998
-0.0419535
-0.0472226
-0.0525749
-0.0579801
-0.0634094
-0.0688353
-0.0742311
-0.0795709
-0.0848294
-0.0899815
-0.0950025
-0.0998677
-0.104553
-0.109033
-0.113284
-0.117281
-0.121002
-0.124421
-0.127515
-0.130262
-0.13264
-0.134626
-0.136201
-0.137346
-0.138044
-0.13828
-0.138039
-0.137312
-0.136092
-0.134373
-0.132156
-0.129443
-0.126243
-0.122568
-0.118436
-0.113871
-0.1089
-0.103559
-0.0978862
-0.0919274
-0.0857326
-0.0793565
-0.0728579
-0.0662987
-0.0597433
-0.0532575
-0.046907
-0.0407567
-0.0348694
-0.0293044
-0.0241163
-0.0193541
-0.01506
-0.0112691
-0.00800819
-0.00529595
-0.0031411
-0.00154105
-0.000502965
-6.36151e-05
-0.000132081
-0.000875027
-0.00247209
-0.00474837
-0.007599
-0.0109583
-0.014762
-0.0189495
-0.0234658
-0.0282607
-0.0332888
-0.0385081
-0.0438804
-0.0493702
-0.0549446
-0.0605727
-0.0662253
-0.0718747
-0.0774939
-0.0830571
-0.0885389
-0.0939142
-0.0991582
-0.104246
-0.109154
-0.113856
-0.118329
-0.122547
-0.126487
-0.130123
-0.133432
-0.13639
-0.138974
-0.14116
-0.142928
-0.144256
-0.145126
-0.145521
-0.145423
-0.144822
-0.143706
-0.142069
-0.139907
-0.137221
-0.134017
-0.130305
-0.126101
-0.121427
-0.116309
-0.110781
-0.104883
-0.0986606
-0.0921654
-0.0854543
-0.0785889
-0.0716351
-0.0646617
-0.0577398
-0.050941
-0.0443366
-0.037996
-0.0319854
-0.0263663
-0.0211946
-0.0165192
-0.012381
-0.00881247
-0.0058371
-0.00346755
-0.00170395
-0.000557206
-7.07643e-05
-0.000138484
-0.000916284
-0.00258689
-0.00496614
-0.00794332
-0.0114489
-0.0154152
-0.0197782
-0.0244803
-0.0294691
-0.034697
-0.0401208
-0.0457009
-0.051401
-0.0571873
-0.0630287
-0.0688956
-0.07476
-0.0805951
-0.0863749
-0.0920742
-0.0976679
-0.103131
-0.10844
-0.113569
-0.118495
-0.123191
-0.127634
-0.131799
-0.13566
-0.139194
-0.142374
-0.145177
-0.147579
-0.149557
-0.151088
-0.152151
-0.152727
-0.152797
-0.152345
-0.15136
-0.149831
-0.147751
-0.145119
-0.141938
-0.138214
-0.133961
-0.129199
-0.123953
-0.118256
-0.112146
-0.10567
-0.0988806
-0.0918364
-0.0846022
-0.0772476
-0.0698462
-0.0624745
-0.0552104
-0.048132
-0.0413162
-0.0348365
-0.0287623
-0.0231569
-0.0180764
-0.0135687
-0.00967221
-0.00641601
-0.00381704
-0.0018785
-0.000615393
-7.84582e-05
-0.000144445
-0.000954702
-0.00269382
-0.00516905
-0.00826428
-0.0119065
-0.0160248
-0.0205522
-0.0254284
-0.0305992
-0.0360151
-0.0416315
-0.0474078
-0.0533066
-0.059294
-0.065338
-0.0714092
-0.0774792
-0.0835215
-0.0895102
-0.0954201
-0.101226
-0.106905
-0.112431
-0.11778
-0.122928
-0.127849
-0.13252
-0.136914
-0.141007
-0.144773
-0.148187
-0.151222
-0.153854
-0.156059
-0.157811
-0.159088
-0.159867
-0.160128
-0.159853
-0.159025
-0.157631
-0.155663
-0.153113
-0.149982
-0.146274
-0.142
-0.137175
-0.131824
-0.125977
-0.119672
-0.112956
-0.105881
-0.0985092
-0.0909069
-0.0831477
-0.0753101
-0.0674762
-0.0597307
-0.052159
-0.0448457
-0.0378729
-0.0313181
-0.0252533
-0.0197424
-0.014841
-0.0105944
-0.00703774
-0.00419285
-0.00206646
-0.00067819
-8.68051e-05
-0.000149937
-0.000990113
-0.00279242
-0.00535624
-0.00856057
-0.0123292
-0.0165882
-0.0212681
-0.0263062
-0.0316463
-0.0372374
-0.0430337
-0.0489934
-0.0550788
-0.061255
-0.0674902
-0.0737544
-0.0800196
-0.0862593
-0.0924478
-0.0985601
-0.104572
-0.110459
-0.116198
-0.121763
-0.127131
-0.132278
-0.137177
-0.141804
-0.146134
-0.150139
-0.153795
-0.157074
-0.15995
-0.162396
-0.164387
-0.165898
-0.166903
-0.167379
-0.167305
-0.166662
-0.165433
-0.163605
-0.161169
-0.158119
-0.154457
-0.15019
-0.145331
-0.139901
-0.133929
-0.12745
-0.120511
-0.113165
-0.105473
-0.0975071
-0.0893426
-0.0810632
-0.0727569
-0.0645153
-0.0564317
-0.0485992
-0.0411088
-0.0340474
-0.0274961
-0.021528
-0.0162069
-0.0115861
-0.0077074
-0.00459834
-0.00226966
-0.000746265
-9.59139e-05
-0.000154931
-0.00102234
-0.00288222
-0.00552685
-0.00883082
-0.0127151
-0.0171031
-0.0219228
-0.0271096
-0.0326056
-0.0383583
-0.0443208
-0.0504505
-0.0567088
-0.0630608
-0.0694743
-0.0759192
-0.0823679
-0.0887937
-0.0951715
-0.101477
-0.107685
-0.113774
-0.119718
-0.125495
-0.13108
-0.136448
-0.141576
-0.146437
-0.151006
-0.155256
-0.159161
-0.162693
-0.165824
-0.168527
-0.170773
-0.172535
-0.173787
-0.174502
-0.174656
-0.174225
-0.17319
-0.171533
-0.169242
-0.166306
-0.162724
-0.158498
-0.153636
-0.148158
-0.142087
-0.13546
-0.12832
-0.12072
-0.112723
-0.104401
-0.0958343
-0.0871109
-0.0783248
-0.0695747
-0.0609621
-0.0525893
-0.0445572
-0.0369627
-0.0298971
-0.0234434
-0.0176751
-0.0126541
-0.00843006
-0.00503682
-0.00248991
-0.00082029
-0.000105894
-0.000159397
-0.00105122
-0.00296277
-0.00568004
-0.00907372
-0.0130623
-0.0175667
-0.0225131
-0.0278348
-0.0334724
-0.0393722
-0.0454862
-0.0517712
-0.0581882
-0.0647016
-0.0712793
-0.0778914
-0.0845102
-0.0911096
-0.0976646
-0.104151
-0.110546
-0.116826
-0.122968
-0.128948
-0.134744
-0.14033
-0.145683
-0.150777
-0.155586
-0.160083
-0.164242
-0.168033
-0.171429
-0.1744
-0.176916
-0.178948
-0.180466
-0.181442
-0.181848
-0.181657
-0.180845
-0.179392
-0.177279
-0.174492
-0.171025
-0.166875
-0.162047
-0.156554
-0.150419
-0.143674
-0.136359
-0.128529
-0.120244
-0.11158
-0.102619
-0.0934535
-0.0841837
-0.0749155
-0.0657592
-0.0568268
-0.0482294
-0.0400753
-0.032467
-0.0254986
-0.0192541
-0.0138053
-0.00921071
-0.0055116
-0.002729
-0.000900937
-0.000116856
-0.000163306
-0.00107657
-0.00303362
-0.00581498
-0.009288
-0.013369
-0.017977
-0.023036
-0.028478
-0.0342421
-0.0402737
-0.0465238
-0.0529485
-0.0595083
-0.0661677
-0.0728943
-0.0796585
-0.0864327
-0.0931912
-0.0999097
-0.106565
-0.113133
-0.119593
-0.125922
-0.132096
-0.138094
-0.14389
-0.149463
-0.154785
-0.159832
-0.164576
-0.168991
-0.173046
-0.176713
-0.179961
-0.182758
-0.185074
-0.186877
-0.188134
-0.188816
-0.188892
-0.188333
-0.187115
-0.185215
-0.182614
-0.179299
-0.175264
-0.170509
-0.165041
-0.158879
-0.152051
-0.144595
-0.136563
-0.128015
-0.119028
-0.109686
-0.100085
-0.0903323
-0.0805405
-0.0708287
-0.0613193
-0.0521347
-0.0433952
-0.0352157
-0.0277026
-0.0209517
-0.0150461
-0.0100542
-0.00602592
-0.00298872
-0.000988879
-0.000128912
-0.00016663
-0.00109824
-0.00309435
-0.00593093
-0.0094725
-0.0136336
-0.0183315
-0.0234887
-0.0290358
-0.0349107
-0.0410578
-0.0474274
-0.0539751
-0.0606611
-0.0674497
-0.0743085
-0.0812081
-0.0881214
-0.095023
-0.101889
-0.108697
-0.115425
-0.122051
-0.128552
-0.134908
-0.141097
-0.147094
-0.152877
-0.158421
-0.1637
-0.168687
-0.173356
-0.177676
-0.181617
-0.185148
-0.188236
-0.190849
-0.192951
-0.194508
-0.195488
-0.195855
-0.195579
-0.194628
-0.192975
-0.190597
-0.187476
-0.183598
-0.178958
-0.173558
-0.167412
-0.160542
-0.152983
-0.144784
-0.136005
-0.126719
-0.117016
-0.106993
-0.0967635
-0.086447
-0.076172
-0.0660714
-0.0562798
-0.0469305
-0.0381516
-0.0300636
-0.0227754
-0.0163827
-0.0109653
-0.00658297
-0.00327086
-0.00108479
-0.000142176
-0.000169345
-0.0011161
-0.00314462
-0.00602722
-0.00962619
-0.0138546
-0.0186284
-0.0238687
-0.0295049
-0.0354741
-0.0417197
-0.0481914
-0.0548445
-0.0616388
-0.0685386
-0.0755115
-0.0825284
-0.0895627
-0.0965895
-0.103586
-0.110529
-0.117399
-0.124174
-0.130833
-0.137355
-0.14372
-0.149904
-0.155886
-0.16164
-0.167142
-0.172366
-0.177283
-0.181865
-0.186081
-0.189897
-0.193281
-0.196198
-0.198612
-0.200486
-0.201782
-0.202465
-0.202497
-0.201845
-0.200475
-0.198359
-0.195472
-0.191795
-0.187316
-0.182032
-0.175948
-0.169084
-0.161467
-0.153144
-0.14417
-0.13462
-0.124582
-0.114157
-0.103463
-0.092627
-0.0817859
-0.071084
-0.0606685
-0.0506868
-0.0412818
-0.0325889
-0.024732
-0.0178208
-0.0119485
-0.00718582
-0.00357714
-0.00118933
-0.000156761
-0.000171432
-0.00113003
-0.00318413
-0.00610332
-0.00974826
-0.0140309
-0.0188661
-0.024174
-0.0298829
-0.0359291
-0.0422554
-0.0488111
-0.0555508
-0.0624344
-0.0694259
-0.0764935
-0.083608
-0.0907434
-0.0978755
-0.104982
-0.112041
-0.119033
-0.125938
-0.132736
-0.139406
-0.14593
-0.152284
-0.158449
-0.164399
-0.170112
-0.17556
-0.180717
-0.185554
-0.190038
-0.194139
-0.19782
-0.201046
-0.20378
-0.205982
-0.207612
-0.208631
-0.208998
-0.208673
-0.207621
-0.205804
-0.203194
-0.199764
-0.195495
-0.190377
-0.184409
-0.177602
-0.16998
-0.161581
-0.152459
-0.142685
-0.132347
-0.121549
-0.11041
-0.0990656
-0.0876616
-0.0763532
-0.0653011
-0.0546673
-0.044611
-0.0352842
-0.0268272
-0.0193658
-0.0130079
-0.00783744
-0.00390927
-0.00130317
-0.000172786
-0.000172874
-0.00113995
-0.00321267
-0.00615887
-0.00983811
-0.0141617
-0.0190435
-0.0244029
-0.0301676
-0.0362731
-0.0426617
-0.0492821
-0.0560889
-0.0630416
-0.0701045
-0.0772456
-0.0844365
-0.0916515
-0.098867
-0.106062
-0.113215
-0.120307
-0.12732
-0.134234
-0.141031
-0.147692
-0.154197
-0.160525
-0.166653
-0.172559
-0.178216
-0.183599
-0.188678
-0.193423
-0.197801
-0.201776
-0.205312
-0.20837
-0.210908
-0.212885
-0.214257
-0.21498
-0.215012
-0.214308
-0.21283
-0.210539
-0.207403
-0.203396
-0.198499
-0.192703
-0.186011
-0.178441
-0.170023
-0.160807
-0.150859
-0.140264
-0.129128
-0.117574
-0.105741
-0.0937841
-0.0818703
-0.0701736
-0.0588721
-0.0481421
-0.0381537
-0.0290659
-0.0210222
-0.0141475
-0.00854063
-0.0042689
-0.00142697
-0.00019037
-0.000173665
-0.00114582
-0.00323016
-0.00619369
-0.00989548
-0.0142464
-0.0191598
-0.0245546
-0.0303578
-0.0365044
-0.0429362
-0.0496015
-0.0564548
-0.0634555
-0.0705678
-0.0777603
-0.0850047
-0.0922758
-0.0995511
-0.10681
-0.114032
-0.1212
-0.128296
-0.135302
-0.142201
-0.148975
-0.155606
-0.162074
-0.168357
-0.174434
-0.180281
-0.185872
-0.191177
-0.196168
-0.200812
-0.205073
-0.208913
-0.212294
-0.215172
-0.217503
-0.219242
-0.220341
-0.220752
-0.220429
-0.219324
-0.217395
-0.214601
-0.210907
-0.206288
-0.200725
-0.194212
-0.186758
-0.178385
-0.169136
-0.159072
-0.148275
-0.136848
-0.124915
-0.112622
-0.100132
-0.0876206
-0.0752779
-0.0632977
-0.0518751
-0.0412
-0.0314518
-0.022794
-0.0153708
-0.00929803
-0.00465762
-0.00156138
-0.000209635
-0.000173802
-0.00114765
-0.00323661
-0.00620784
-0.00992044
-0.0142852
-0.0192152
-0.0246289
-0.0304531
-0.0366221
-0.0430775
-0.0497674
-0.0566458
-0.0636723
-0.0708113
-0.0780313
-0.0853048
-0.0926071
-0.0999162
-0.107212
-0.114477
-0.121693
-0.128845
-0.135915
-0.142888
-0.149748
-0.156477
-0.163057
-0.169469
-0.175692
-0.181703
-0.187477
-0.192988
-0.198206
-0.203099
-0.207631
-0.211766
-0.215464
-0.218679
-0.221368
-0.223482
-0.224971
-0.225783
-0.225866
-0.225169
-0.223642
-0.221236
-0.21791
-0.213627
-0.208361
-0.202094
-0.194826
-0.18657
-0.177359
-0.167246
-0.156309
-0.144647
-0.132385
-0.119671
-0.106674
-0.0935834
-0.0806002
-0.0679364
-0.055807
-0.0444233
-0.0339869
-0.0246842
-0.0166806
-0.010112
-0.00507693
-0.00170703
-0.000230705
-0.000173295
-0.0011455
-0.00323222
-0.00620165
-0.00991346
-0.0142786
-0.0192103
-0.0246266
-0.030454
-0.0366267
-0.0430858
-0.0497792
-0.0566608
-0.0636901
-0.0708316
-0.0780543
-0.085331
-0.0926376
-0.0999531
-0.107258
-0.114536
-0.121771
-0.128948
-0.136051
-0.143067
-0.149981
-0.156776
-0.163438
-0.169947
-0.176286
-0.182432
-0.188362
-0.194052
-0.199471
-0.204591
-0.209376
-0.21379
-0.217791
-0.221338
-0.224382
-0.226873
-0.228761
-0.229989
-0.230502
-0.230242
-0.229154
-0.227182
-0.224276
-0.220389
-0.215485
-0.209537
-0.20253
-0.194468
-0.185373
-0.175289
-0.164285
-0.152456
-0.139924
-0.126839
-0.113375
-0.0997304
-0.0861212
-0.0727764
-0.0599315
-0.0478213
-0.036672
-0.0266947
-0.0180795
-0.0109847
-0.00552823
-0.00186455
-0.000253706
-0.000172163
-0.0011395
-0.00321733
-0.00617575
-0.0098755
-0.014228
-0.0191465
-0.0245493
-0.0303624
-0.0365198
-0.0429625
-0.049638
-0.0565002
-0.0635085
-0.0706277
-0.077827
-0.0850796
-0.0923622
-0.0996546
-0.106939
-0.114199
-0.12142
-0.128588
-0.135691
-0.142715
-0.149648
-0.156475
-0.163183
-0.169755
-0.176174
-0.182421
-0.188474
-0.194311
-0.199903
-0.205221
-0.210234
-0.214904
-0.219192
-0.223055
-0.226445
-0.229312
-0.231601
-0.233255
-0.234215
-0.234418
-0.233803
-0.232307
-0.229871
-0.22644
-0.221965
-0.216408
-0.209742
-0.201958
-0.193065
-0.183095
-0.172108
-0.160191
-0.147461
-0.134066
-0.120186
-0.106026
-0.0918151
-0.0778002
-0.0642384
-0.0513891
-0.0395055
-0.0288264
-0.0195693
-0.0119179
-0.0060128
-0.00203452
-0.000278767
-0.000170437
-0.00112985
-0.00319246
-0.00613112
-0.00980805
-0.0141353
-0.0190265
-0.0243998
-0.0301814
-0.0363048
-0.0427109
-0.0493469
-0.0561667
-0.0631296
-0.0702007
-0.0773493
-0.0845493
-0.0917782
-0.0990164
-0.106247
-0.113455
-0.120628
-0.127753
-0.134818
-0.141814
-0.148727
-0.155548
-0.162263
-0.168859
-0.17532
-0.181629
-0.187768
-0.193714
-0.199443
-0.204928
-0.210137
-0.215036
-0.219586
-0.223745
-0.227466
-0.230698
-0.233385
-0.235469
-0.236887
-0.237573
-0.237459
-0.236477
-0.234559
-0.23164
-0.227661
-0.22257
-0.216327
-0.208909
-0.200311
-0.19055
-0.179674
-0.167758
-0.154913
-0.141285
-0.127051
-0.112426
-0.0976491
-0.082985
-0.068713
-0.0551186
-0.042484
-0.0310786
-0.0211507
-0.012913
-0.00653178
-0.00221752
-0.000306018
-0.00016816
-0.00111682
-0.00315839
-0.00606915
-0.00971318
-0.0140033
-0.0188536
-0.0241823
-0.0299155
-0.0359865
-0.0423359
-0.0489109
-0.0556649
-0.0625576
-0.069554
-0.076624
-0.0837418
-0.0908857
-0.098037
-0.10518
-0.112301
-0.119389
-0.126432
-0.133421
-0.140347
-0.147201
-0.153974
-0.160654
-0.16723
-0.17369
-0.18002
-0.186201
-0.192216
-0.198042
-0.203654
-0.209023
-0.214117
-0.218899
-0.223327
-0.227357
-0.230937
-0.234012
-0.236522
-0.238403
-0.239584
-0.239995
-0.239559
-0.238202
-0.235849
-0.232429
-0.227878
-0.222143
-0.215183
-0.206976
-0.197526
-0.186864
-0.175051
-0.162189
-0.148414
-0.133905
-0.118877
-0.103583
-0.0883019
-0.073336
-0.0589981
-0.0456015
-0.0334494
-0.022824
-0.0139709
-0.00708612
-0.00241406
-0.000335589
-0.00016539
-0.00110077
-0.00311608
-0.00599164
-0.00959365
-0.0138358
-0.0186325
-0.0239023
-0.029571
-0.0355718
-0.0418448
-0.0483371
-0.0550021
-0.0617994
-0.0686941
-0.0756565
-0.0826615
-0.089688
-0.0967185
-0.103738
-0.110735
-0.117699
-0.12462
-0.131492
-0.138306
-0.145057
-0.151736
-0.158336
-0.164847
-0.171261
-0.177563
-0.183742
-0.18978
-0.195658
-0.201353
-0.20684
-0.212089
-0.217065
-0.22173
-0.226039
-0.229944
-0.233389
-0.236315
-0.238654
-0.240337
-0.241286
-0.241422
-0.240663
-0.238924
-0.236124
-0.232186
-0.227041
-0.220632
-0.21292
-0.203889
-0.193551
-0.181954
-0.169182
-0.155363
-0.140669
-0.125318
-0.109568
-0.0937153
-0.0780828
-0.0630119
-0.0488494
-0.0359346
-0.024588
-0.0150921
-0.00767657
-0.00262463
-0.000367612
-0.000162201
-0.00108217
-0.00306678
-0.00590088
-0.00945291
-0.0136374
-0.0183692
-0.0235668
-0.0291559
-0.0350693
-0.0412469
-0.0476354
-0.0541881
-0.0608645
-0.0676301
-0.0744555
-0.0813163
-0.0881921
-0.0950664
-0.101926
-0.108759
-0.115559
-0.122317
-0.129027
-0.135686
-0.142287
-0.148825
-0.155297
-0.161695
-0.168011
-0.174238
-0.180363
-0.186374
-0.192255
-0.197986
-0.203544
-0.208903
-0.214031
-0.218893
-0.223447
-0.227645
-0.231434
-0.234756
-0.237543
-0.239724
-0.241219
-0.241945
-0.241812
-0.240729
-0.238604
-0.235346
-0.230872
-0.225107
-0.217993
-0.209493
-0.1996
-0.188339
-0.175778
-0.16203
-0.147259
-0.131677
-0.115549
-0.0991826
-0.0829231
-0.0671404
-0.0522158
-0.0385285
-0.0264407
-0.0162764
-0.00830364
-0.00284966
-0.000402216
-0.000158684
-0.00106158
-0.00301205
-0.0057997
-0.00929527
-0.013414
-0.018071
-0.0231846
-0.0286802
-0.0344902
-0.040554
-0.0468181
-0.0532354
-0.0597657
-0.0663745
-0.073033
-0.0797173
-0.0864081
-0.09309
-0.0997508
-0.106381
-0.112974
-0.119525
-0.126029
-0.132485
-0.138888
-0.145238
-0.151531
-0.157763
-0.163932
-0.170029
-0.176049
-0.18198
-0.187811
-0.193525
-0.199103
-0.204522