/*--------------------------------*- C++ -*----------------------------------*\
  =========                 |
  \\      /  F ield         | OpenFOAM: The Open Source CFD Toolbox
   \\    /   O peration     | Website:  https://openfoam.org
    \\  /    A nd           | Version:  dev
     \\/     M anipulation  |
\*---------------------------------------------------------------------------*/
FoamFile
{
    format      ascii;
    class       volScalarField;
    location    "15.3";
    object      p;
}
// * * * * * * * * * * * * * * * * * * * * * * * * * * * * * * * * * * * * * //

dimensions      [0 2 -2 0 0 0 0];

internalField   nonuniform List<scalar> 
5184
(
-1.40923e-08
-1.26603e-05
-9.86684e-05
-0.000251329
-0.000450357
-0.000678529
-0.000921585
-0.00116766
-0.0014076
-0.00163425
-0.00184223
-0.00202752
-0.0021872
-0.00231917
-0.00242197
-0.00249458
-0.00253633
-0.00254682
-0.00252574
-0.00247294
-0.00238834
-0.00227191
-0.00212372
-0.00194391
-0.00173271
-0.00149051
-0.00121786
-0.000915499
-0.000584435
-0.000225938
0.000158404
0.000566665
0.000996559
0.00144542
0.00191018
0.00238742
0.00287333
0.00336373
0.00385417
0.00433992
0.00481604
0.00527746
0.00571907
0.0061358
0.00652271
0.00687509
0.00718858
0.00745927
0.00768378
0.00785938
0.00798407
0.00805664
0.00807675
0.00804495
0.00796274
0.00783255
0.00765777
0.0074427
0.00719254
0.00691334
0.00661194
0.00629593
0.0059736
0.0056539
0.00534638
0.00506109
0.00480851
0.00459926
0.00444329
0.00434905
0.00432204
0.00434918
1.26591e-05
-4.70941e-08
-7.46024e-05
-0.000202153
-0.000367082
-0.000556918
-0.000760739
-0.000968982
-0.00117374
-0.00136863
-0.00154861
-0.00170979
-0.0018492
-0.00196463
-0.00205444
-0.00211742
-0.00215274
-0.00215977
-0.00213811
-0.00208747
-0.00200767
-0.00189863
-0.00176037
-0.00159298
-0.0013967
-0.0011719
-0.000919114
-0.000639075
-0.000332745
-1.34485e-06
0.00035362
0.00073033
0.00112664
0.00154006
0.00196777
0.00240657
0.00285297
0.00330315
0.00375301
0.00419826
0.00463439
0.00505681
0.00546089
0.00584205
0.00619584
0.00651805
0.00680479
0.00705256
0.0072584
0.00741991
0.00753539
0.00760384
0.00762507
0.00759968
0.00752916
0.00741582
0.00726284
0.00707421
0.00685473
0.00660994
0.00634606
0.00606997
0.00578909
0.00551132
0.00524497
0.00499859
0.00478084
0.00460008
0.00446361
0.00437737
0.00434875
0.00437622
9.91484e-05
7.43468e-05
-9.16161e-07
-0.000118256
-0.000265654
-0.000433492
-0.000613068
-0.000796568
-0.000977314
-0.00114975
-0.0013094
-0.00145265
-0.00157671
-0.00167943
-0.00175916
-0.00181466
-0.001845
-0.00184951
-0.00182769
-0.00177917
-0.00170372
-0.00160122
-0.0014716
-0.00131495
-0.00113145
-0.000921437
-0.000685402
-0.00042403
-0.000138225
0.000170868
0.000501837
0.00085298
0.00122229
0.00160744
0.0020058
0.00241439
0.00282995
0.00324893
0.00366754
0.00408175
0.00448742
0.00488029
0.00525606
0.00561049
0.0059395
0.00623918
0.00650596
0.00673665
0.00692853
0.00707945
0.00718788
0.00725295
0.00727456
0.00725335
0.00719076
0.00708901
0.00695112
0.00678083
0.00658264
0.00636167
0.00612369
0.00587498
0.00562229
0.00537273
0.00513364
0.00491249
0.00471671
0.00455338
0.00442852
0.00434736
0.00431952
0.00434998
0.000253999
0.000202532
0.000114826
-3.90967e-06
-0.000146027
-0.000303773
-0.00047003
-0.000638429
-0.000803457
-0.000960434
-0.0011055
-0.00123551
-0.00134799
-0.00144096
-0.0015129
-0.00156264
-0.00158927
-0.00159211
-0.00157064
-0.00152445
-0.00145328
-0.00135694
-0.00123534
-0.0010885
-0.000916562
-0.000719789
-0.000498609
-0.000253634
1.43196e-05
0.0003042
0.000614703
0.000944252
0.00129098
0.00165272
0.002027
0.00241103
0.00280176
0.00319585
0.00358972
0.00397959
0.00436154
0.00473155
0.00508557
0.0054196
0.00572977
0.00601241
0.00626413
0.00648193
0.00666326
0.0068061
0.00690901
0.00697121
0.00699264
0.00697393
0.00691649
0.00682244
0.00669466
0.00653672
0.00635284
0.00614786
0.00592715
0.00569654
0.00546223
0.0052307
0.00500858
0.00480255
0.00461921
0.00446482
0.00434481
0.00426424
0.00423315
0.0042582
0.000458388
0.000369789
0.00026133
0.000133881
-1.01329e-05
-0.000164572
-0.000323672
-0.000482439
-0.000636471
-0.000781978
-0.000915788
-0.0010353
-0.0011384
-0.00122341
-0.001289
-0.00133412
-0.00135796
-0.00135985
-0.00133929
-0.00129587
-0.0012293
-0.00113933
-0.00102585
-0.000888801
-0.000728257
-0.00054441
-0.000337603
-0.000108353
0.000142626
0.000414399
0.000705787
0.00101535
0.00134136
0.00168182
0.0020344
0.00239651
0.00276527
0.00313752
0.00350987
0.00387875
0.00424042
0.00459104
0.00492674
0.00524371
0.00553822
0.00580675
0.00604607
0.00625328
0.00642592
0.00656206
0.00666032
0.00671996
0.00674091
0.00672379
0.00666994
0.00658142
0.00646097
0.00631198
0.00613847
0.005945
0.00573663
0.00551877
0.00529717
0.00507778
0.00486663
0.00466974
0.00449301
0.00434207
0.00422186
0.00413715
0.0040967
0.00410634
0.000696175
0.000564249
0.000429291
0.000287543
0.000135987
-2.06257e-05
-0.000177693
-0.000331491
-0.000478679
-0.000616341
-0.000742016
-0.000853657
-0.000949599
-0.00102849
-0.00108925
-0.00113101
-0.00115307
-0.00115485
-0.00113587
-0.00109575
-0.00103416
-0.000950842
-0.000845604
-0.000718338
-0.000569034
-0.000397795
-0.000204869
9.34312e-06
0.000244246
0.000499033
0.000772661
0.00106383
0.00137098
0.00169225
0.00202548
0.00236825
0.00271782
0.0030712
0.00342518
0.00377632
0.00412103
0.00445561
0.00477633
0.00507946
0.0053614
0.00561872
0.00584825
0.00604714
0.006213
0.00634391
0.00643849
0.00649601
0.00651638
0.00650016
0.00644865
0.00636379
0.00624822
0.00610519
0.00593852
0.00575255
0.00555205
0.00534212
0.00512811
0.00491553
0.00470992
0.00451676
0.00434136
0.00418878
0.00406358
0.00397014
0.00391493
0.00390168
0.000953588
0.000775059
0.000609811
0.000449618
0.00028611
0.000122885
-3.64443e-05
-0.000189287
-0.00033331
-0.000466432
-0.000586883
-0.0006932
-0.000784168
-0.000858819
-0.000916346
-0.000956088
-0.000977497
-0.000980097
-0.00096347
-0.000927248
-0.000871098
-0.00079473
-0.000697901
-0.00058043
-0.000442218
-0.000283269
-0.000103713
9.61683e-05
0.000315915
0.000554859
0.000812107
0.00108651
0.00137666
0.00168084
0.00199707
0.00232305
0.00265621
0.00299369
0.00333241
0.00366903
0.00400008
0.00432196
0.004631
0.00492354
0.00519602
0.00544504
0.00566744
0.00586039
0.00602146
0.00614873
0.00624078
0.00629683
0.00631673
0.00630099
0.00625081
0.00616806
0.00605526
0.00591552
0.00575252
0.0055704
0.00537371
0.00516728
0.00495616
0.00474549
0.00454042
0.00434599
0.00416706
0.00400817
0.00387357
0.00376729
0.00369298
0.00365184
0.00121855
0.000992093
0.000794309
0.000612829
0.000434177
0.000260987
9.60478e-05
-5.90765e-05
-0.000202981
-0.000334374
-0.000452157
-0.000555436
-0.000643469
-0.000715662
-0.000771514
-0.000810594
-0.000832521
-0.000836938
-0.000823498
-0.000791862
-0.000741697
-0.00067268
-0.000584516
-0.000476943
-0.000349769
-0.000202884
-3.62939e-05
0.000149855
0.000355246
0.000579364
0.000821469
0.00108057
0.00135541
0.00164444
0.00194581
0.00225737
0.00257668
0.00290099
0.00322733
0.00355245
0.00387294
0.00418524
0.00448573
0.00477077
0.00503678
0.00528033
0.00549823
0.0056876
0.00584595
0.00597127
0.00606208
0.00611751
0.00613733
0.00612195
0.00607248
0.0059907
0.005879
0.00574039
0.0055784
0.00539704
0.00520065
0.00499389
0.00478154
0.00456849
0.00435957
0.00415949
0.00397271
0.00380341
0.00365557
0.00353293
0.0034362
0.00336396
0.00148083
0.00120623
0.00097475
0.000770157
0.000574149
0.000388556
0.000215458
5.54978e-05
-9.07723e-05
-0.000222794
-0.000340116
-0.00044239
-0.00052935
-0.000600768
-0.000656453
-0.000696217
-0.000719853
-0.00072713
-0.000717777
-0.000691492
-0.000647939
-0.000586765
-0.000507613
-0.00041014
-0.000294051
-0.000159114
-5.19892e-06
0.000167693
0.000359398
0.000569562
0.000797609
0.00104271
0.00130377
0.00157938
0.00186785
0.00216716
0.00247497
0.00278865
0.0031053
0.00342173
0.00373457
0.00404028
0.00433523
0.00461574
0.00487818
0.00511906
0.00533509
0.0055233
0.00568108
0.0058063
0.00589737
0.00595329
0.00597369
0.0059589
0.00590989
0.00582833
0.00571652
0.00557734
0.00541421
0.00523102
0.00503198
0.00482158
0.00460446
0.00438528
0.00416866
0.00395906
0.00376067
0.00357735
0.00341296
0.00327104
0.00314939
0.00304406
0.00173148
0.00140924
0.00114367
0.000914898
0.000700072
0.000500348
0.000317195
0.000150413
-2.2216e-07
-0.000134839
-0.000253597
-0.000356672
-0.000444245
-0.000516461
-0.000573433
-0.000615208
-0.000641757
-0.000652974
-0.000648665
-0.000628564
-0.000592334
-0.000539583
-0.000469889
-0.000382821
-0.000277969
-0.000154975
-1.35642e-05
0.000146418
0.000324975
0.000521918
0.000736843
0.000969089
0.00121772
0.00148149
0.00175884
0.00204787
0.00234637
0.00265179
0.00296127
0.00327168
0.00357966
0.00388165
0.00417397
0.00445287
0.00471464
0.00495566
0.00517252
0.00536209
0.0055216
0.00564876
0.00574182
0.0057996
0.0058216
0.00580796
0.00575955
0.0056779
0.00556518
0.00542419
0.00525824
0.00507111
0.00486694
0.0046501
0.00442511
0.00419653
0.00396883
0.0037463
0.00353296
0.00333247
0.00314868
0.00298502
0.00283654
0.00269691
0.00196257
0.00159364
0.00129411
0.00104067
0.00080615
0.000591128
0.000396548
0.000221438
6.48504e-05
-7.39859e-05
-0.000195796
-0.000301261
-0.000390981
-0.000465463
-0.000525111
-0.000570198
-0.000600869
-0.000617137
-0.000618882
-0.000605866
-0.000577746
-0.000534088
-0.000474398
-0.000398149
-0.000304807
-0.000193878
-6.49324e-05
8.23507e-05
0.000248147
0.000432448
0.000635022
0.000855387
0.00109277
0.00134609
0.00161392
0.00189449
0.00218569
0.00248504
0.00278974
0.00309667
0.00340246
0.00370351
0.00399606
0.00427627
0.00454028
0.00478433
0.00500481
0.00519841
0.00536215
0.00549353
0.00559057
0.00565191
0.00567684
0.00566532
0.00561804
0.00553639
0.00542243
0.00527882
0.00510882
0.00491611
0.00470477
0.00447912
0.00424363
0.00400279
0.00376101
0.00352255
0.0032913
0.00307086
0.00286515
0.00267766
0.00250082
0.00232608
0.002167
0.00175258
0.00141957
0.00114139
0.000886748
0.000655714
0.000448761
0.000264205
0.000100423
-4.3957e-05
-0.000170194
-0.00027944
-0.000372696
-0.000450811
-0.00051446
-0.000564136
-0.00060014
-0.000622599
-0.000631458
-0.000626497
-0.000607359
-0.000573561
-0.000524529
-0.000459629
-0.000378198
-0.000279594
-0.000163222
-2.85855e-05
0.000124674
0.000296733
0.000487551
0.000696826
0.00092396
0.00116803
0.00142776
0.0017015
0.00198724
0.00228256
0.00258471
0.00289058
0.00319676
0.00349959
0.00379522
0.00407965
0.00434887
0.00459891
0.00482596
0.00502644
0.00519714
0.00533528
0.00543863
0.00550557
0.00553514
0.00552709
0.0054819
0.0054008
0.00528569
0.00513914
0.00496429
0.00476479
0.00454468
0.00430827
0.00406003
0.00380446
0.00354599
0.0032889
0.00303712
0.00279423
0.00256436
0.00235117
0.00214464
0.00193411
0.00233825
0.00187972
0.00151395
0.00121127
0.000936421
0.000689009
0.000469076
0.00027427
0.000102334
-4.86666e-05
-0.000180498
-0.000294747
-0.000392801
-0.000475825
-0.000544746
-0.000600258
-0.000642814
-0.000672633
-0.000689713
-0.000693848
-0.000684653
-0.000661587
-0.000623985
-0.000571095
-0.000502118
-0.000416252
-0.000312727
-0.000190859
-5.00987e-05
0.000109932
0.000289389
0.000488162
0.000705837
0.000941661
0.00119451
0.00146286
0.00174479
0.00203796
0.00233966
0.00264677
0.00295584
0.00326313
0.00356465
0.00385626
0.00413373
0.00439287
0.0046296
0.00484004
0.00502069
0.00516845
0.00528078
0.00535574
0.00539209
0.0053893
0.00534762
0.00526806
0.00515237
0.00500297
0.00482295
0.00461589
0.00438584
0.00413711
0.00387425
0.00360181
0.00332435
0.00304625
0.00277153
0.00250391
0.00224782
0.00200719
0.00176968
0.00152265
0.00247025
0.0019691
0.00157151
0.00124478
0.000949897
0.000686011
0.000452756
0.000247151
6.63319e-05
-9.21628e-05
-0.000230578
-0.000350917
-0.000454925
-0.000544056
-0.000619475
-0.000682059
-0.000732389
-0.000770769
-0.000797235
-0.000811581
-0.000813384
-0.000802031
-0.000776757
-0.000736684
-0.000680862
-0.000608317
-0.000518094
-0.000409313
-0.000281215
-0.000133214
3.50574e-05
0.000223693
0.000432476
0.000660831
0.000907795
0.00117198
0.00145157
0.00174431
0.00204751
0.00235804
0.00267242
0.00298679
0.00329704
0.00359882
0.0038877
0.00415919
0.0044089
0.00463265
0.00482654
0.00498713
0.00511149
0.00519732
0.00524302
0.00524776
0.00521149
0.00513497
0.00501974
0.00486811
0.00468304
0.0044681
0.00422733
0.00396512
0.00368611
0.003395
0.00309653
0.00279525
0.00249541
0.00220092
0.00191663
0.00164687
0.00137706
0.00109261
0.00255732
0.00201513
0.00158677
0.00123664
0.000922089
0.000641838
0.000395128
0.000178369
-1.18752e-05
-0.000178577
-0.000324428
-0.000451832
-0.000562858
-0.000659234
-0.000742344
-0.000813225
-0.000872573
-0.000920755
-0.000957835
-0.000983591
-0.000997549
-0.000999014
-0.000987107
-0.000960812
-0.000919018
-0.000860566
-0.000784306
-0.000689144
-0.000574102
-0.000438367
-0.00028135
-0.000102735
9.74715e-05
0.000318888
0.000560726
0.000821749
0.00110026
0.00139408
0.00170056
0.00201658
0.00233858
0.00266263
0.00298443
0.00329946
0.00360299
0.00389025
0.0041565
0.00439715
0.00460792
0.00478493
0.0049248
0.00502482
0.00508297
0.00509801
0.00506957
0.0049981
0.00488493
0.00473216
0.00454267
0.00431997
0.00406814
0.00379167
0.00349534
0.00318406
0.0028628
0.0025364
0.00220938
0.00188599
0.00157156
0.00127095
0.00096736
0.000644316
0.00259406
0.0020125
0.00155455
0.0011818
0.000848102
0.000551752
0.000291612
6.34981e-05
-0.000136574
-0.000312069
-0.000466106
-0.000601459
-0.000720502
-0.000825222
-0.000917196
-0.000997603
-0.00106724
-0.00112651
-0.00117551
-0.00121396
-0.00124135
-0.00125687
-0.00125952
-0.00124814
-0.00122144
-0.00117806
-0.00111665
-0.00103588
-0.000934539
-0.000811573
-0.00066615
-0.000497717
-0.000306051
-9.13188e-05
0.000145884
0.000404488
0.000682932
0.000979137
0.0012905
0.00161392
0.00194577
0.00228202
0.00261822
0.00294959
0.00327116
0.00357779
0.00386435
0.00412584
0.00435749
0.00455492
0.00471426
0.00483229
0.0049065
0.0049352
0.00491759
0.00485379
0.00474481
0.00459256
0.00439978
0.00416995
0.00390717
0.00361606
0.00330158
0.00296891
0.00262332
0.00227002
0.00191391
0.00155962
0.00121311
0.000879825
0.00054079
0.000177599
0.00257535
0.00195619
0.00146992
0.00107544
0.000723221
0.000411164
0.00013774
-0.000101811
-0.000312011
-0.000496789
-0.000659681
-0.000803803
-0.000931822
-0.00104596
-0.00114796
-0.00123915
-0.00132037
-0.00139209
-0.00145438
-0.00150693
-0.00154914
-0.0015801
-0.00159868
-0.00160354
-0.0015932
-0.00156611
-0.00152068
-0.00145534
-0.00136862
-0.00125922
-0.00112603
-0.000968253
-0.000785403
-0.000577414
-0.000344661
-8.80208e-05
0.000191101
0.000490748
0.000808389
0.00114093
0.00148473
0.00183564
0.00218904
0.00253993
0.00288301
0.0032128
0.00352372
0.00381028
0.00406719
0.00428951
0.00447279
0.00461321
0.00470769
0.00475401
0.00475088
0.00469797
0.00459596
0.0044465
0.00425215
0.00401633
0.00374319
0.00343748
0.00310438
0.0027494
0.00237818
0.00199636
0.00160931
0.00122216
0.000841564
0.000473663
9.72599e-05
-0.00030803
0.00249632
0.0018414
0.00132818
0.000912934
0.000542939
0.000215661
-7.08132e-05
-0.000321802
-0.000542351
-0.000736841
-0.000909197
-0.00106287
-0.0012008
-0.00132541
-0.00143863
-0.00154186
-0.00163603
-0.00172162
-0.00179867
-0.00186684
-0.00192541
-0.00197336
-0.0020094
-0.00203203
-0.00203956
-0.00203022
-0.00200216
-0.00195357
-0.00188271
-0.00178799
-0.00166802
-0.00152171
-0.0013483
-0.00114746
-0.000919311
-0.000664513
-0.000384279
-8.04226e-05
0.000244628
0.000587822
0.000945496
0.00131341
0.00168678
0.00206037
0.00242855
0.00278545
0.00312502
0.00344123
0.00372821
0.00398036
0.00419258
0.00436038
0.00448
0.00454859
0.00456426
0.0045262
0.00443463
0.00429087
0.0040973
0.00385722
0.00357483
0.00325501
0.00290323
0.00252532
0.00212739
0.00171559
0.00129585
0.000873854
0.000457089
5.24635e-05
-0.000363518
-0.000813292
0.00235232
0.00166361
0.00112487
0.000689925
0.000302958
-3.89861e-05
-0.000338206
-0.000600575
-0.000831641
-0.00103622
-0.00121862
-0.0013826
-0.00153136
-0.00166753
-0.00179315
-0.00190975
-0.00201829
-0.00211925
-0.00221264
-0.00229805
-0.00237466
-0.00244132
-0.00249657
-0.00253872
-0.00256587
-0.00257599
-0.00256701
-0.00253682
-0.00248338
-0.00240481
-0.0022994
-0.00216575
-0.00200279
-0.00180989
-0.00158689
-0.00133419
-0.00105278
-0.000744274
-0.000410981
-5.58736e-05
0.000317392
0.000704502
0.00110053
0.00149999
0.00189693
0.00228505
0.00265781
0.00300858
0.00333084
0.00361827
0.00386503
0.00406582
0.00421615
0.00431239
0.00435199
0.00433348
0.00425658
0.00412221
0.00393246
0.00369051
0.00340056
0.00306764
0.0026975
0.0022964
0.00187094
0.00142787
0.000973744
0.000514917
5.97888e-05
-0.000383859
-0.000841935
-0.00133904
0.00213895
0.00141851
0.000855804
0.000402277
-7.93578e-07
-0.000356794
-0.000668411
-0.000942056
-0.00118377
-0.0013988
-0.0015918
-0.00176684
-0.00192736
-0.00207616
-0.00221544
-0.00234676
-0.00247115
-0.00258908
-0.0027005
-0.00280492
-0.00290141
-0.00298868
-0.00306509
-0.00312874
-0.00317751
-0.00320913
-0.00322122
-0.0032114
-0.00317732
-0.00311674
-0.00302764
-0.00290826
-0.00275719
-0.00257346
-0.00235658
-0.00210666
-0.0018244
-0.00151121
-0.0011692
-0.000801232
-0.000410925
-2.6282e-06
0.000418598
0.000847044
0.00127643
0.00170001
0.00211071
0.00250127
0.00286444
0.00319313
0.0034806
0.00372071
0.00390806
0.00403816
0.00410761
0.00411423
0.00405709
0.00393661
0.00375452
0.00351381
0.00321864
0.00287421
0.00248654
0.00206235
0.00160881
0.00113336
0.000643236
0.000145571
-0.000350222
-0.000835389
-0.0013384
-0.00188617
0.00185208
0.00110209
0.000517036
4.6113e-05
-0.000372141
-0.000741542
-0.00106517
-0.00134996
-0.00160244
-0.00182825
-0.00203241
-0.00221927
-0.0023925
-0.00255506
-0.00270925
-0.00285673
-0.00299854
-0.00313511
-0.00326636
-0.0033917
-0.00351008
-0.00362004
-0.00371977
-0.00380716
-0.00387983
-0.00393525
-0.00397076
-0.00398364
-0.00397121
-0.00393089
-0.00386027
-0.00375722
-0.00361995
-0.00344709
-0.0032378
-0.00299181
-0.00270951
-0.00239203
-0.00204125
-0.00165987
-0.0012514
-0.000820203
-0.000371432
8.8995e-05
0.000554473
0.00101782
0.0014714
0.00190728
0.0023174
0.0026938
0.00302881
0.00331527
0.00354675
0.00371776
0.00382393
0.00386218
0.00383084
0.00372968
0.00355997
0.00332443
0.00302714
0.00267342
0.00226959
0.00182286
0.00134104
0.000832277
0.000304651
-0.000233872
-0.00077274
-0.00130212
-0.00185324
-0.00245549
0.00148785
0.000710621
0.00010491
-0.000382165
-0.000814637
-0.00119675
-0.00153198
-0.00182777
-0.00209111
-0.00232805
-0.00254393
-0.00274338
-0.00293028
-0.00310774
-0.00327819
-0.00344331
-0.00360416
-0.00376117
-0.00391417
-0.00406248
-0.00420491
-0.00433985
-0.00446528
-0.00457887
-0.00467801
-0.00475986
-0.00482145
-0.00485974
-0.00487168
-0.0048543
-0.0048048
-0.00472062
-0.00459954
-0.00443977
-0.00424004
-0.00399968
-0.00371869
-0.00339784
-0.00303873
-0.00264382
-0.00221648
-0.00176102
-0.00128264
-0.000787431
-0.000282303
0.000225124
0.000726637
0.00121359
0.00167707
0.00210817
0.00249814
0.00283871
0.00312227
0.00334216
0.00349289
0.00357033
0.00357186
0.00349647
0.00334486
0.00311935
0.00282388
0.00246383
0.00204586
0.00157765
0.00106769
0.000524968
-4.15497e-05
-0.000622943
-0.0012074
-0.0017839
-0.00238663
-0.00304766
0.0010427
0.000240656
-0.000383921
-0.000885852
-0.00133153
-0.00172564
-0.00207204
-0.00237868
-0.00265298
-0.00290139
-0.00312957
-0.0033424
-0.00354396
-0.00373751
-0.00392557
-0.00410988
-0.00429151
-0.00447082
-0.00464761
-0.00482107
-0.00498988
-0.00515226
-0.005306
-0.00544852
-0.00557695
-0.00568816
-0.00577885
-0.00584563
-0.00588506
-0.00589376
-0.00586849
-0.00580623
-0.00570428
-0.00556039
-0.00537277
-0.0051403
-0.00486253
-0.00453981
-0.00417337
-0.00376536
-0.00331895
-0.0028383
-0.00232862
-0.00179612
-0.00124798
-0.000692239
-0.000137692
0.000406267
0.000929842
0.00142306
0.00187603
0.0022792
0.00262364
0.00290136
0.00310555
0.00323081
0.00327341
0.0032314
0.0031047
0.00289514
0.00260639
0.00224386
0.00181447
0.00132643
0.000788947
0.000211912
-0.000394719
-0.00102096
-0.00165361
-0.00228031
-0.00293849
-0.00366311
0.000513427
-0.000310895
-0.000952474
-0.00146791
-0.00192576
-0.00233113
-0.00268826
-0.00300558
-0.00329095
-0.00355118
-0.00379223
-0.00401924
-0.00423648
-0.00444734
-0.00465443
-0.00485953
-0.00506371
-0.0052673
-0.00547001
-0.00567093
-0.00586861
-0.00606107
-0.00624592
-0.00642033
-0.00658115
-0.00672497
-0.00684813
-0.00694686
-0.00701732
-0.00705568
-0.00705824
-0.00702146
-0.00694215
-0.00681748
-0.00664515
-0.00642348
-0.00615149
-0.00582904
-0.00545691
-0.00503686
-0.00457173
-0.00406551
-0.00352332
-0.00295142
-0.0023572
-0.00174909
-0.00113647
-0.000529477
6.1147e-05
0.000624316
0.00114886
0.00162384
0.00203884
0.00238432
0.00265194
0.00283486
0.00292798
0.00292818
0.00283445
0.00264793
0.00237191
0.00201171
0.00157448
0.00106895
0.000505097
-0.000106225
-0.000753963
-0.00142695
-0.00211044
-0.00279063
-0.00350841
-0.0043019
-0.000102832
-0.000946766
-0.00160341
-0.00213096
-0.00259992
-0.00301578
-0.00338319
-0.00371102
-0.00400756
-0.00427996
-0.00453448
-0.00477649
-0.00501043
-0.00523985
-0.00546741
-0.00569494
-0.00592351
-0.0061534
-0.00638426
-0.00661507
-0.00684422
-0.00706958
-0.00728853
-0.00749801
-0.00769459
-0.00787454
-0.00803385
-0.00816836
-0.0082738
-0.00834586
-0.00838033
-0.00837315
-0.00832053
-0.00821906
-0.00806583
-0.00785852
-0.00759558
-0.00727625
-0.00690077
-0.00647042
-0.00598764
-0.00545611
-0.00488077
-0.00426787
-0.00362493
-0.00296072
-0.00228516
-0.00160914
-0.000944378
-0.000303128
0.000302068
0.000858728
0.00135478
0.00177895
0.00212114
0.00237278
0.00252719
0.00257982
0.00252847
0.00237339
0.00211733
0.00176539
0.00132489
0.000805027
0.000216588
-0.00042853
-0.00111808
-0.0018396
-0.00257661
-0.00331369
-0.00409555
-0.0049637
-0.000808518
-0.0016693
-0.00233901
-0.00287724
-0.0033562
-0.00378178
-0.004159
-0.00449718
-0.00480499
-0.00508991
-0.00535848
-0.0056163
-0.00586799
-0.0061172
-0.00636669
-0.00661833
-0.00687315
-0.00713144
-0.00739274
-0.00765593
-0.00791928
-0.00818047
-0.00843668
-0.0086846
-0.00892053
-0.0091404
-0.00933985
-0.00951432
-0.00965907
-0.0097693
-0.00984026
-0.0098673
-0.00984601
-0.00977233
-0.00964266
-0.00945399
-0.00920406
-0.00889146
-0.00851575
-0.00807764
-0.00757904
-0.0070232
-0.0064148
-0.00575993
-0.00506619
-0.00434261
-0.00359957
-0.00284871
-0.00210271
-0.00137507
-0.000679767
-3.09669e-05
0.00055743
0.00107219
0.00150121
0.00183395
0.0020618
0.00217852
0.00218045
0.00206668
0.00183919
0.00150272
0.00106461
0.000534534
-7.59347e-05
-0.000753792
-0.00148549
-0.00225712
-0.00305031
-0.00384784
-0.00469854
-0.00564759
-0.00160565
-0.00248043
-0.00316113
-0.00370858
-0.00419642
-0.00463094
-0.0050175
-0.00536584
-0.005685
-0.00598277
-0.00626597
-0.0065404
-0.00681085
-0.0070811
-0.00735397
-0.00763137
-0.00791433
-0.00820311
-0.00849717
-0.00879531
-0.00909565
-0.0093957
-0.00969245
-0.00998234
-0.0102614
-0.0105252
-0.0107691
-0.010988
-0.0111767
-0.01133
-0.0114425
-0.0115088
-0.0115241
-0.0114834
-0.0113824
-0.0112173
-0.0109852
-0.0106837
-0.0103117
-0.0098692
-0.00935746
-0.00877918
-0.00813861
-0.00744161
-0.0066957
-0.00591006
-0.0050955
-0.00426432
-0.00343017
-0.00260778
-0.00181269
-0.00106083
-0.000368107
0.000250068
0.000779317
0.0012068
0.00152171
0.00171574
0.00178342
0.00172243
0.00153366
0.00122129
0.000792545
0.000257457
-0.000371597
-0.00108045
-0.00185416
-0.00267724
-0.00352919
-0.0043908
-0.00531537
-0.00635203
-0.00249579
-0.00338162
-0.00407123
-0.00462641
-0.00512199
-0.00556463
-0.00596005
-0.00631834
-0.00664891
-0.00695984
-0.00725821
-0.00755002
-0.00784021
-0.00813269
-0.00843034
-0.00873512
-0.00904808
-0.00936942
-0.00969857
-0.0100342
-0.0103744
-0.0107164
-0.011057
-0.0113925
-0.0117186
-0.0120305
-0.0123232
-0.0125913
-0.0128291
-0.0130306
-0.01319
-0.0133014
-0.0133588
-0.0133569
-0.0132903
-0.0131546
-0.0129457
-0.0126605
-0.0122971
-0.0118545
-0.0113332
-0.0107353
-0.0100644
-0.00932597
-0.00852738
-0.0076778
-0.00678834
-0.0058719
-0.00494304
-0.00401774
-0.00311311
-0.00224696
-0.00143737
-0.000702152
-5.82267e-05
0.000478949
0.000895993
0.00118215
0.00132978
0.00133473
0.00119653
0.000918479
0.000507517
-2.61008e-05
-0.000669243
-0.00140655
-0.00222156
-0.00309705
-0.0040102
-0.00493957
-0.00594329
-0.00707473
-0.00348
-0.00437391
-0.00507029
-0.00563169
-0.00613386
-0.00658381
-0.00698756
-0.00735557
-0.00769757
-0.00802193
-0.00833595
-0.00864583
-0.00895667
-0.00927249
-0.00959627
-0.00992998
-0.0102747
-0.0106306
-0.0109971
-0.0113728
-0.0117555
-0.0121425
-0.0125304
-0.0129152
-0.0132923
-0.0136567
-0.0140029
-0.0143251
-0.0146171
-0.0148724
-0.0150845
-0.0152468
-0.0153527
-0.0153958
-0.0153701
-0.01527
-0.0150906
-0.0148278
-0.0144785
-0.014041
-0.0135148
-0.0129011
-0.0122027
-0.0114247
-0.0105739
-0.00965947
-0.00869261
-0.00768671
-0.00665717
-0.00562117
-0.00459739
-0.00360563
-0.00266627
-0.00179971
-0.00102572
-0.000362694
0.000173001
0.000567748
0.000811281
0.000897184
0.000823223
0.0005915
0.000208364
-0.000315867
-0.000967386
-0.00172963
-0.00258452
-0.00351296
-0.00448952
-0.00549031
-0.00657864
-0.00781246
-0.00455884
-0.00545783
-0.00615883
-0.00672495
-0.00723256
-0.00768896
-0.00810051
-0.00847798
-0.00883138
-0.00916935
-0.00949941
-0.00982796
-0.0101602
-0.0105004
-0.0108515
-0.0112156
-0.0115937
-0.0119861
-0.0123921
-0.0128102
-0.0132382
-0.0136732
-0.0141117
-0.0145494
-0.0149815
-0.0154027
-0.0158071
-0.0161884
-0.01654
-0.0168548
-0.0171256
-0.0173452
-0.0175061
-0.017601
-0.017623
-0.0175655
-0.0174225
-0.0171889
-0.0168604
-0.0164342
-0.0159086
-0.0152839
-0.0145622
-0.0137474
-0.0128461
-0.011867
-0.0108213
-0.00972273
-0.00858736
-0.00743351
-0.00628142
-0.00515288
-0.00407069
-0.00305805
-0.00213781
-0.00133169
-0.000659452
-0.000138038
0.00021916
0.000402962
0.000408888
0.000237408
-0.000106045
-0.000611343
-0.00126414
-0.00204666
-0.00293918
-0.00392051
-0.00496239
-0.00603817
-0.00721677
-0.00856097
-0.00573234
-0.00663343
-0.00733693
-0.00790625
-0.00841814
-0.00888015
-0.00929891
-0.00968551
-0.0100502
-0.0104019
-0.0107482
-0.0110959
-0.0114503
-0.0118156
-0.0121951
-0.0125907
-0.0130038
-0.0134343
-0.0138817
-0.0143445
-0.0148203
-0.0153062
-0.0157985
-0.0162926
-0.0167836
-0.0172658
-0.017733
-0.0181785
-0.0185951
-0.0189753
-0.0193111
-0.0195944
-0.0198171
-0.019971
-0.0200481
-0.0200407
-0.0199417
-0.0197447
-0.0194444
-0.0190365
-0.0185182
-0.0178886
-0.0171485
-0.0163013
-0.0153524
-0.01431
-0.0131853
-0.011992
-0.0107468
-0.00946884
-0.00817997
-0.00690393
-0.005666
-0.00449234
-0.00340914
-0.00244179
-0.00161386
-0.000946143
-0.000455716
-0.00015509
-5.15619e-05
-0.000146803
-0.000436737
-0.000911737
-0.00155711
-0.00235396
-0.00328083
-0.0043143
-0.005423
-0.00657719
-0.00785182
-0.00931477
-0.007
-0.00790026
-0.00860416
-0.00917522
-0.00969023
-0.010157
-0.0105823
-0.0109776
-0.0113534
-0.0117187
-0.0120815
-0.0124486
-0.0128255
-0.0132166
-0.0136252
-0.0140535
-0.0145025
-0.0149727
-0.0154632
-0.0159726
-0.0164986
-0.017038
-0.0175869
-0.0181408
-0.0186944
-0.0192418
-0.0197763
-0.020291
-0.020778
-0.0212292
-0.0216362
-0.02199
-0.0222815
-0.0225017
-0.0226415
-0.0226921
-0.0226452
-0.022493
-0.0222289
-0.0218472
-0.0213438
-0.0207163
-0.0199644
-0.01909
-0.0180978
-0.0169952
-0.0157927
-0.014504
-0.0131462
-0.0117391
-0.010306
-0.00887255
-0.00746646
-0.00611697
-0.00485385
-0.00370647
-0.00270266
-0.0018676
-0.00122264
-0.000784281
-0.000563296
-0.000564107
-0.00078453
-0.00121586
-0.00184333
-0.00264706
-0.00360383
-0.00468784
-0.00586431
-0.0071001
-0.00847656
-0.010067
-0.00836077
-0.00925737
-0.00995968
-0.010531
-0.011048
-0.0115186
-0.0119498
-0.0123534
-0.0127398
-0.0131186
-0.0134978
-0.0138843
-0.0142839
-0.0147011
-0.0151393
-0.0156008
-0.0160868
-0.0165977
-0.0171327
-0.0176904
-0.0182684
-0.0188635
-0.0194717
-0.0200884
-0.020708
-0.0213243
-0.0219305
-0.022519
-0.0230817
-0.0236097
-0.0240939
-0.0245247
-0.0248922
-0.0251861
-0.0253965
-0.0255133
-0.0255268
-0.0254281
-0.0252089
-0.024862
-0.024382
-0.0237647
-0.0230084
-0.0221136
-0.0210838
-0.0199253
-0.0186479
-0.0172648
-0.0157932
-0.0142535
-0.0126701
-0.0110704
-0.00948452
-0.00794491
-0.00648501
-0.00513847
-0.00393782
-0.00291315
-0.00209075
-0.00149183
-0.00113137
-0.00101727
-0.0011499
-0.00152199
-0.0021191
-0.00292055
-0.00390138
-0.00503334
-0.00627788
-0.00759813
-0.00908222
-0.0108091
-0.00981308
-0.0107034
-0.0114022
-0.0119724
-0.0124902
-0.0129637
-0.0134002
-0.0138113
-0.0142079
-0.0145997
-0.0149949
-0.0154006
-0.0158227
-0.016266
-0.0167339
-0.0172289
-0.0177523
-0.0183046
-0.018885
-0.0194922
-0.0201237
-0.0207764
-0.0214461
-0.0221282
-0.0228168
-0.0235055
-0.0241872
-0.0248539
-0.025497
-0.0261072
-0.0266746
-0.0271888
-0.027639
-0.0280141
-0.0283029
-0.0284941
-0.0285768
-0.0285404
-0.0283752
-0.0280725
-0.027625
-0.0270269
-0.0262748
-0.0253677
-0.0243073
-0.0230989
-0.021751
-0.0202763
-0.0186914
-0.0170174
-0.0152792
-0.0135059
-0.01173
-0.0099869
-0.0083139
-0.00674915
-0.00533027
-0.00409281
-0.00306868
-0.00228455
-0.00176047
-0.00150866
-0.00153278
-0.00182772
-0.00237983
-0.00316793
-0.00416545
-0.00534155
-0.00665367
-0.00806077
-0.0096582
-0.0115309
-0.0113549
-0.0122363
-0.0129299
-0.0134978
-0.0140153
-0.0144908
-0.0149315
-0.0153495
-0.0157556
-0.0161597
-0.0165702
-0.0169945
-0.0174387
-0.0179075
-0.0184048
-0.0189331
-0.0194939
-0.0200876
-0.0207138
-0.0213711
-0.0220572
-0.0227687
-0.0235017
-0.0242511
-0.0250111
-0.0257752
-0.0265358
-0.0272846
-0.0280126
-0.0287099
-0.0293659
-0.0299695
-0.0305091
-0.0309725
-0.0313473
-0.0316211
-0.0317815
-0.0318166
-0.0317148
-0.0314659
-0.0310606
-0.0304915
-0.0297532
-0.0288428
-0.0277603
-0.0265093
-0.0250972
-0.0235353
-0.0218399
-0.0200317
-0.0181363
-0.016184
-0.0142093
-0.0122507
-0.0103492
-0.00854773
-0.00688923
-0.00541526
-0.004164
-0.00316844
-0.00245459
-0.00203992
-0.00193237
-0.00212974
-0.00261983
-0.00338141
-0.00438648
-0.00560157
-0.00697979
-0.00847558
-0.0101919
-0.0122198
-0.0129836
-0.013854
-0.0145407
-0.0151051
-0.0156213
-0.0160978
-0.0165419
-0.0169657
-0.0173804
-0.0177958
-0.0182206
-0.0186625
-0.0191276
-0.0196211
-0.0201468
-0.0207076
-0.021305
-0.0219399
-0.0226117
-0.0233191
-0.02406