/*--------------------------------*- C++ -*----------------------------------*\
  =========                 |
  \\      /  F ield         | OpenFOAM: The Open Source CFD Toolbox
   \\    /   O peration     | Website:  https://openfoam.org
    \\  /    A nd           | Version:  dev
     \\/     M anipulation  |
\*---------------------------------------------------------------------------*/
FoamFile
{
    format      ascii;
    class       volScalarField;
    location    "15.3";
    object      Ux;
}
// * * * * * * * * * * * * * * * * * * * * * * * * * * * * * * * * * * * * * //

dimensions      [0 1 -1 0 0 0 0];

internalField   nonuniform List<scalar> 
5184
(
1.25172e-05
4.53753e-05
8.02234e-05
9.56294e-05
8.16329e-05
3.5822e-05
-4.12445e-05
-0.000147551
-0.000280319
-0.000436489
-0.000612946
-0.000806659
-0.00101477
-0.00123462
-0.00146375
-0.0016999
-0.00194101
-0.00218517
-0.00243059
-0.0026756
-0.00291859
-0.003158
-0.0033923
-0.00361998
-0.0038395
-0.00404934
-0.00424794
-0.00443373
-0.00460514
-0.00476058
-0.00489851
-0.0050174
-0.0051158
-0.00519232
-0.00524573
-0.00527489
-0.00527887
-0.00525695
-0.00520862
-0.00513365
-0.00503212
-0.00490438
-0.00475115
-0.00457347
-0.00437275
-0.00415074
-0.00390952
-0.00365152
-0.00337946
-0.00309633
-0.00280536
-0.00250999
-0.00221376
-0.00192033
-0.00163336
-0.00135648
-0.00109324
-0.000846994
-0.000620884
-0.000417759
-0.000240114
-9.00248e-05
3.09191e-05
0.000121702
0.000181989
0.000212279
0.000214151
0.000190644
0.000146771
9.06037e-05
3.65758e-05
6.22706e-06
2.09151e-05
6.56023e-05
9.43431e-05
7.20966e-05
-1.98995e-05
-0.000188423
-0.000434049
-0.000753547
-0.00114138
-0.00159079
-0.00209442
-0.00264485
-0.00323478
-0.00385722
-0.00450559
-0.0051737
-0.00585576
-0.00654633
-0.00724029
-0.00793275
-0.00861904
-0.00929461
-0.00995498
-0.0105958
-0.0112125
-0.0118009
-0.0123565
-0.0128748
-0.0133516
-0.0137825
-0.0141632
-0.0144897
-0.0147581
-0.0149647
-0.0151063
-0.0151801
-0.0151837
-0.0151152
-0.0149738
-0.0147588
-0.0144707
-0.0141108
-0.0136811
-0.0131847
-0.0126255
-0.0120084
-0.0113391
-0.0106242
-0.00987102
-0.00908774
-0.008283
-0.00746596
-0.00664614
-0.00583324
-0.00503705
-0.00426721
-0.00353308
-0.00284357
-0.00220696
-0.00163071
-0.00112129
-0.000683996
-0.000322741
-3.98147e-05
0.000164406
0.000291833
0.000347193
0.000338729
0.000278897
0.000185504
8.61575e-05
1.9643e-05
1.76142e-05
4.11474e-05
1.91169e-05
-8.47666e-05
-0.000291185
-0.000608841
-0.00103896
-0.00157773
-0.00221799
-0.00295055
-0.00376517
-0.00465114
-0.00559776
-0.0065946
-0.0076316
-0.00869924
-0.00978844
-0.0108906
-0.0119976
-0.0131015
-0.0141948
-0.0152701
-0.0163202
-0.017338
-0.0183165
-0.0192485
-0.0201271
-0.0209454
-0.0216964
-0.0223734
-0.02297
-0.0234797
-0.0238966
-0.0242154
-0.0244311
-0.0245395
-0.0245372
-0.0244218
-0.0241917
-0.0238465
-0.0233872
-0.0228158
-0.0221358
-0.021352
-0.0204707
-0.0194995
-0.0184473
-0.0173242
-0.0161417
-0.0149121
-0.0136487
-0.0123656
-0.0110772
-0.00979829
-0.00854384
-0.00732849
-0.00616645
-0.00507123
-0.00405536
-0.0031301
-0.00230518
-0.00158848
-0.000985751
-0.000500219
-0.000132216
0.000121314
0.000267439
0.00031796
0.000289966
0.000206626
0.000102129
2.49118e-05
8.79131e-06
-7.21514e-06
-0.00010799
-0.000322892
-0.000670081
-0.00115791
-0.00178709
-0.00255287
-0.00344668
-0.00445753
-0.00557295
-0.00677976
-0.00806457
-0.00941415
-0.0108156
-0.0122566
-0.0137251
-0.0152099
-0.0167
-0.0181848
-0.0196543
-0.0210983
-0.0225072
-0.0238714
-0.0251813
-0.0264276
-0.0276007
-0.0286916
-0.0296911
-0.0305903
-0.0313807
-0.0320541
-0.032603
-0.0330202
-0.0332997
-0.033436
-0.0334251
-0.0332639
-0.0329507
-0.0324853
-0.031869
-0.031105
-0.0301978
-0.029154
-0.0279818
-0.0266912
-0.0252939
-0.0238032
-0.0222339
-0.0206019
-0.0189246
-0.01722
-0.0155069
-0.0138044
-0.0121317
-0.0105076
-0.00895059
-0.00747796
-0.00610587
-0.00484878
-0.0037192
-0.0027272
-0.00188014
-0.00118214
-0.000633682
-0.000231093
3.40716e-05
0.00017566
0.000213345
0.000173227
9.26568e-05
2.39502e-05
-2.17025e-06
-6.74305e-05
-0.000264287
-0.00060982
-0.00111645
-0.00179035
-0.0026305
-0.00363053
-0.00478031
-0.00606716
-0.00747674
-0.00899382
-0.0106029
-0.0122883
-0.0140349
-0.0158279
-0.0176528
-0.019496
-0.0213441
-0.023184
-0.0250034
-0.0267898
-0.0285312
-0.0302157
-0.0318316
-0.0333673
-0.0348112
-0.0361521
-0.037379
-0.038481
-0.0394479
-0.04027
-0.040938
-0.0414438
-0.04178
-0.0419405
-0.0419204
-0.0417164
-0.0413267
-0.0407513
-0.0399921
-0.0390527
-0.0379392
-0.0366594
-0.0352234
-0.0336431
-0.0319328
-0.0301083
-0.0281872
-0.0261889
-0.0241339
-0.0220437
-0.0199408
-0.0178479
-0.0157879
-0.0137833
-0.0118561
-0.0100269
-0.00831512
-0.00673794
-0.00531031
-0.00404438
-0.002949
-0.00202932
-0.0012863
-0.000716201
-0.000310071
-5.31861e-05
7.52722e-05
0.000102738
6.71338e-05
1.95867e-05
-1.37204e-05
-0.000132849
-0.000435656
-0.000924025
-0.00160254
-0.00247372
-0.00353372
-0.00477385
-0.00618202
-0.00774374
-0.00944291
-0.0112625
-0.013185
-0.015193
-0.0172692
-0.0193968
-0.0215593
-0.0237407
-0.0259257
-0.0280991
-0.0302463
-0.0323529
-0.0344047
-0.0363878
-0.0382885
-0.0400931
-0.0417884
-0.0433611
-0.0447985
-0.0460882
-0.0472184
-0.0481778
-0.0489561
-0.0495439
-0.049933
-0.0501165
-0.0500891
-0.049847
-0.0493885
-0.0487138
-0.047825
-0.0467267
-0.0454259
-0.0439315
-0.0422552
-0.0404109
-0.0384145
-0.0362843
-0.0340405
-0.0317051
-0.0293013
-0.0268539
-0.0243883
-0.0219305
-0.0195066
-0.0171424
-0.0148628
-0.0126917
-0.0106511
-0.00876094
-0.00703839
-0.00549756
-0.00414893
-0.00299886
-0.00204916
-0.00129657
-0.000732346
-0.00034182
-0.00010409
8.40478e-06
3.21613e-05
1.35482e-05
-2.51851e-05
-0.000199866
-0.000613475
-0.00125148
-0.00210939
-0.00318503
-0.00447084
-0.00595511
-0.00762337
-0.00945909
-0.0114443
-0.0135603
-0.0157878
-0.0181077
-0.0205009
-0.0229488
-0.0254331
-0.0279361
-0.0304405
-0.0329292
-0.0353859
-0.0377941
-0.040138
-0.0424018
-0.0445699
-0.046627
-0.0485581
-0.0503483
-0.0519834
-0.0534495
-0.0547333
-0.0558225
-0.0567055
-0.0573721
-0.0578131
-0.0580211
-0.0579902
-0.0577164
-0.0571979
-0.0564349
-0.0554301
-0.0541886
-0.0527179
-0.0510284
-0.0491327
-0.0470463
-0.0447868
-0.0423745
-0.0398317
-0.0371825
-0.0344529
-0.0316702
-0.0288625
-0.0260588
-0.0232879
-0.0205786
-0.0179588
-0.0154549
-0.0130918
-0.0108917
-0.00887433
-0.00705565
-0.00544793
-0.00405903
-0.00289195
-0.00194445
-0.0012086
-0.000670523
-0.000310055
-0.000100439
-7.98681e-06
6.7988e-06
-3.63081e-05
-0.00026661
-0.000792647
-0.00158329
-0.00262438
-0.00390835
-0.00542325
-0.00715381
-0.00908275
-0.0111912
-0.0134594
-0.0158665
-0.018392
-0.0210149
-0.0237146
-0.0264709
-0.0292641
-0.0320747
-0.0348838
-0.0376729
-0.0404237
-0.0431185
-0.0457394
-0.0482693
-0.050691
-0.0529875
-0.0551424
-0.0571394
-0.0589627
-0.0605973
-0.0620287
-0.0632434
-0.0642288
-0.0649737
-0.0654683
-0.0657046
-0.0656761
-0.0653786
-0.06481
-0.0639707
-0.0628635
-0.0614939
-0.0598701
-0.0580031
-0.0559068
-0.0535975
-0.0510947
-0.0484199
-0.0455974
-0.0426533
-0.0396157
-0.0365143
-0.0333798
-0.0302435
-0.0271372
-0.0240922
-0.0211391
-0.0183071
-0.0156236
-0.0131135
-0.0107986
-0.00869728
-0.0068237
-0.0051875
-0.00379328
-0.00264024
-0.00172182
-0.0010255
-0.000532509
-0.000217569
-5.06508e-05
-1.32186e-07
-4.69944e-05
-0.000332104
-0.000970198
-0.00191387
-0.00313914
-0.00463266
-0.00637765
-0.00835486
-0.0105438
-0.0129232
-0.0154709
-0.0181645
-0.0209815
-0.0238997
-0.0268971
-0.0299518
-0.0330429
-0.0361494
-0.0392511
-0.042328
-0.0453605
-0.0483292
-0.0512152
-0.0539996
-0.056664
-0.0591901
-0.0615599
-0.063756
-0.0657615
-0.0675599
-0.0691358
-0.0704746
-0.0715629
-0.0723885
-0.0729409
-0.0732114
-0.0731931
-0.0728814
-0.0722739
-0.071371
-0.0701753
-0.0686928
-0.0669319
-0.0649042
-0.0626242
-0.0601095
-0.0573802
-0.0544597
-0.0513734
-0.0481493
-0.0448176
-0.0414099
-0.0379591
-0.0344992
-0.0310643
-0.0276885
-0.0244049
-0.0212455
-0.0182404
-0.015417
-0.0127997
-0.0104092
-0.00826196
-0.00636969
-0.00473898
-0.00337089
-0.00226067
-0.00139764
-0.000764904
-0.000339096
-9.42772e-05
-6.97562e-06
-5.72342e-05
-0.000395877
-0.00114441
-0.00223973
-0.00364815
-0.00535038
-0.00732453
-0.0095471
-0.0119942
-0.0146417
-0.0174652
-0.0204404
-0.0235432
-0.0267498
-0.0300368
-0.0333813
-0.0367609
-0.0401534
-0.0435375
-0.0468918
-0.0501956
-0.0534284
-0.0565698
-0.0595998
-0.0624987
-0.0652471
-0.0678259
-0.0702164
-0.0724005
-0.0743609
-0.0760811
-0.0775453
-0.0787395
-0.0796505
-0.0802672
-0.0805801
-0.0805817
-0.0802669
-0.079633
-0.07868
-0.0774105
-0.0758302
-0.073948
-0.0717756
-0.069328
-0.0666234
-0.063683
-0.0605309
-0.0571942
-0.0537022
-0.0500868
-0.0463815
-0.0426216
-0.0388431
-0.0350828
-0.0313773
-0.0277625
-0.0242732
-0.0209421
-0.0177996
-0.0148727
-0.0121849
-0.00975499
-0.00759732
-0.00572076
-0.00412862
-0.00281835
-0.00178151
-0.00100339
-0.000462816
-0.000138053
-1.36164e-05
-6.70465e-05
-0.000457705
-0.00131428
-0.00255866
-0.00414772
-0.0060562
-0.00825702
-0.0107222
-0.0134243
-0.0163363
-0.0194313
-0.0226831
-0.0260658
-0.0295543
-0.0331238
-0.0367503
-0.0404101
-0.0440802
-0.0477379
-0.0513611
-0.0549278
-0.0584165
-0.0618058
-0.0650746
-0.0682022
-0.0711682
-0.0739522
-0.0765348
-0.0788967
-0.0810197
-0.0828863
-0.0844798
-0.0857853
-0.0867888
-0.0874783
-0.0878436
-0.0878765
-0.0875713
-0.0869247
-0.0859362
-0.0846081
-0.0829459
-0.0809582
-0.0786568
-0.076057
-0.0731774
-0.0700396
-0.0666688
-0.0630929
-0.0593427
-0.0554515
-0.0514548
-0.0473898
-0.0432949
-0.0392093
-0.0351722
-0.0312225
-0.0273978
-0.0237338
-0.020264
-0.0170183
-0.0140231
-0.0113004
-0.00886719
-0.006735
-0.00490979
-0.00339158
-0.00217445
-0.00124612
-0.000587726
-0.000181656
-2.00286e-05
-7.64551e-05
-0.000517488
-0.00147923
-0.00286926
-0.00463534
-0.00674637
-0.00917005
-0.0118739
-0.0148269
-0.0179987
-0.0213602
-0.0248831
-0.0285399
-0.0323038
-0.036149
-0.0400502
-0.0439829
-0.047923
-0.0518469
-0.0557317
-0.0595544
-0.0632926
-0.0669241
-0.0704268
-0.0737793
-0.0769599
-0.0799477
-0.0827221
-0.0852631
-0.0875515
-0.0895687
-0.0912976
-0.0927218
-0.0938268
-0.0945996
-0.0950292
-0.0951065
-0.0948251
-0.0941809
-0.0931726
-0.0918021
-0.0900743
-0.0879974
-0.0855829
-0.0828462
-0.0798058
-0.0764838
-0.0729059
-0.0691008
-0.0651005
-0.0609398
-0.0566558
-0.0522876
-0.047876
-0.0434627
-0.0390897
-0.0347988
-0.0306308
-0.0266246
-0.022817
-0.0192414
-0.0159274
-0.0129003
-0.0101802
-0.00778184
-0.00571409
-0.00397984
-0.00257595
-0.00149274
-0.000713675
-0.000225088
-2.62392e-05
-8.54817e-05
-0.000575178
-0.00163889
-0.00317055
-0.00510921
-0.00741809
-0.0100598
-0.0129973
-0.0161958
-0.0196221
-0.0232444
-0.0270325
-0.030957
-0.0349899
-0.039104
-0.0432732
-0.0474718
-0.0516751
-0.0558587
-0.0599987
-0.0640717
-0.0680543
-0.0719236
-0.0756569
-0.0792318
-0.082626
-0.0858178
-0.0887856
-0.0915088
-0.0939671
-0.0961413
-0.0980131
-0.0995654
-0.100783
-0.101651
-0.102159
-0.102295
-0.102053
-0.101428
-0.100417
-0.0990208
-0.0972446
-0.0950954
-0.0925843
-0.0897261
-0.0865392
-0.0830459
-0.0792721
-0.0752472
-0.0710042
-0.0665789
-0.0620102
-0.0573392
-0.0526089
-0.0478636
-0.0431483
-0.038508
-0.0339867
-0.029627
-0.0254693
-0.0215508
-0.0179047
-0.01456
-0.0115405
-0.00886437
-0.00654375
-0.0045847
-0.0029871
-0.00174398
-0.000841117
-0.000268573
-3.23072e-05
-9.41423e-05
-0.00063074
-0.00179298
-0.00346181
-0.00556795
-0.00806916
-0.010923
-0.0140882
-0.0175261
-0.0212006
-0.0250774
-0.029124
-0.0333096
-0.0376047
-0.041981
-0.0464113
-0.0508694
-0.0553295
-0.0597667
-0.0641565
-0.0684747
-0.0726976
-0.0768015
-0.0807631
-0.0845594
-0.0881674
-0.0915646
-0.0947289
-0.0976388
-0.100273
-0.102612
-0.104636
-0.106327
-0.10767
-0.108647
-0.109247
-0.109459
-0.109274
-0.108685
-0.107689
-0.106287
-0.10448
-0.102277
-0.0996862
-0.0967226
-0.0934042
-0.0897527
-0.0857944
-0.0815589
-0.0770799
-0.0723946
-0.0675431
-0.0625687
-0.0575165
-0.0524337
-0.0473683
-0.0423686
-0.0374824
-0.0327561
-0.0282342
-0.0239579
-0.0199648
-0.0162879
-0.0129549
-0.009988
-0.00740296
-0.00520933
-0.00341017
-0.00200136
-0.000970931
-0.000312482
-3.83108e-05
-0.000102446
-0.000684135
-0.00194126
-0.00374241
-0.00601038
-0.00869771
-0.0117572
-0.0151432
-0.0188135
-0.0227291
-0.0268531
-0.0311511
-0.0355906
-0.0401408
-0.0447722
-0.0494569
-0.0541678
-0.0588785
-0.0635637
-0.0681981
-0.0727573
-0.0772169
-0.0815529
-0.0857414
-0.0897588
-0.0935817
-0.097187
-0.100552
-0.103654
-0.106472
-0.108984
-0.111171
-0.113014
-0.114494
-0.115596
-0.116306
-0.11661
-0.1165
-0.115967
-0.115006
-0.113616
-0.111799
-0.10956
-0.106909
-0.103857
-0.100422
-0.0966268
-0.0924958
-0.0880594
-0.0833517
-0.0784108
-0.0732784
-0.0679995
-0.0626218
-0.0571951
-0.0517706
-0.0464004
-0.0411363
-0.0360289
-0.031127
-0.0264766
-0.0221198
-0.0180942
-0.0144321
-0.0111599
-0.00829748
-0.00585811
-0.00384835
-0.00226699
-0.0011043
-0.000357289
-4.43399e-05
-0.000110393
-0.000735302
-0.00208348
-0.00401175
-0.00643542
-0.00930203
-0.0125598
-0.016159
-0.020054
-0.0242027
-0.028566
-0.0331076
-0.0377931
-0.0425907
-0.04747
-0.0524019
-0.0573589
-0.0623141
-0.0672415
-0.0721157
-0.0769117
-0.0816048
-0.0861707
-0.0905852
-0.0948241
-0.0988637
-0.10268
-0.106251
-0.109552
-0.112561
-0.115257
-0.117618
-0.119625
-0.121259
-0.122501
-0.123338
-0.123754
-0.123737
-0.12328
-0.122375
-0.121019
-0.119213
-0.116959
-0.114265
-0.111144
-0.107611
-0.103686
-0.0993954
-0.0947687
-0.0898402
-0.084649
-0.0792379
-0.0736538
-0.0679467
-0.0621694
-0.0563765
-0.050624
-0.0449678
-0.0394635
-0.0341646
-0.0291221
-0.0243833
-0.019991
-0.0159824
-0.0123886
-0.00923415
-0.00653635
-0.00430547
-0.00254337
-0.00124262
-0.000403535
-5.04916e-05
-0.000117976
-0.000784162
-0.00221935
-0.00426923
-0.00684198
-0.00988046
-0.0133285
-0.0171325
-0.0212436
-0.0256168
-0.0302108
-0.0349872
-0.0399105
-0.0449473
-0.0500664
-0.0552381
-0.0604341
-0.0656272
-0.0707911
-0.0758999
-0.0809286
-0.0858522
-0.090646
-0.0952857
-0.0997467
-0.104005
-0.108037
-0.111818
-0.115325
-0.118534
-0.121424
-0.123972
-0.126157
-0.127959
-0.129359
-0.13034
-0.130887
-0.130986
-0.130626
-0.129799
-0.128499
-0.126725
-0.124478
-0.121764
-0.118593
-0.114979
-0.110943
-0.106507
-0.101702
-0.0965624
-0.0911272
-0.0854406
-0.0795513
-0.0735116
-0.0673773
-0.0612066
-0.0550596
-0.0489968
-0.0430788
-0.0373646
-0.0319107
-0.0267702
-0.0219913
-0.017617
-0.0136837
-0.0102207
-0.00724999
-0.00478581
-0.00283333
-0.00138744
-0.000451809
-5.68688e-05
-0.000125183
-0.000830609
-0.00234856
-0.00451418
-0.00722895
-0.0104313
-0.014061
-0.0180608
-0.0223786
-0.0269668
-0.031782
-0.036784
-0.0419358
-0.0472029
-0.0525533
-0.0579567
-0.0633842
-0.0688083
-0.0742024
-0.0795406
-0.0847975
-0.0899481
-0.0949677
-0.0998316
-0.104515
-0.108994
-0.113244
-0.117241
-0.120961
-0.124379
-0.127473
-0.13022
-0.132597
-0.134583
-0.136158
-0.137304
-0.138002
-0.138238
-0.137998
-0.137272
-0.136052
-0.134334
-0.132117
-0.129406
-0.126207
-0.122533
-0.118403
-0.113839
-0.10887
-0.10353
-0.0978594
-0.0919022
-0.0857091
-0.0793348
-0.0728379
-0.0662805
-0.0597269
-0.0532427
-0.0468938
-0.0407452
-0.0348594
-0.0292958
-0.0241091
-0.0193481
-0.0150553
-0.0112654
-0.00800544
-0.00529404
-0.00313989
-0.00154041
-0.000502733
-6.35769e-05
-0.000131997
-0.000874523
-0.00247074
-0.00474588
-0.00759514
-0.0109529
-0.014755
-0.0189407
-0.0234551
-0.0282482
-0.0332743
-0.0384917
-0.043862
-0.0493499
-0.0549223
-0.0605485
-0.0661993
-0.0718468
-0.0774644
-0.0830259
-0.0885061
-0.0938798
-0.0991224
-0.104209
-0.109115
-0.113817
-0.118288
-0.122506
-0.126445
-0.13008
-0.133389
-0.136346
-0.13893
-0.141116
-0.142884
-0.144212
-0.145083
-0.145477
-0.145381
-0.14478
-0.143665
-0.142028
-0.139867
-0.137183
-0.13398
-0.130269
-0.126067
-0.121394
-0.116277
-0.110751
-0.104855
-0.0986341
-0.0921406
-0.0854312
-0.0785677
-0.0716157
-0.0646441
-0.0577239
-0.0509269
-0.0443241
-0.0379851
-0.031976
-0.0263585
-0.0211882
-0.016514
-0.012377
-0.00880945
-0.005835
-0.00346622
-0.00170325
-0.000556949
-7.07224e-05
-0.000138396
-0.000915759
-0.00258549
-0.00496355
-0.00793932
-0.0114433
-0.0154079
-0.0197691
-0.0244693
-0.0294561
-0.0346821
-0.0401039
-0.045682
-0.0513801
-0.0571645
-0.063004
-0.068869
-0.0747316
-0.0805649
-0.086343
-0.0920407
-0.0976328
-0.103095
-0.108402
-0.11353
-0.118454
-0.12315
-0.127592
-0.131756
-0.135617
-0.139149
-0.142329
-0.145132
-0.147534
-0.149512
-0.151043
-0.152106
-0.152682
-0.152753
-0.152302
-0.151318
-0.149789
-0.147711
-0.14508
-0.141899
-0.138177
-0.133926
-0.129165
-0.12392
-0.118224
-0.112116
-0.105642
-0.0988545
-0.0918121
-0.0845798
-0.077227
-0.0698275
-0.0624576
-0.0551953
-0.0481187
-0.0413045
-0.0348264
-0.0287538
-0.0231498
-0.0180708
-0.0135642
-0.00966892
-0.00641371
-0.00381558
-0.00187772
-0.000615112
-7.84123e-05
-0.000144354
-0.000954162
-0.00269238
-0.00516639
-0.00826019
-0.0119008
-0.0160173
-0.0205429
-0.0254172
-0.030586
-0.0359999
-0.0416143
-0.0473885
-0.0532854
-0.0592708
-0.0653129
-0.0713821
-0.0774504
-0.0834909
-0.0894779
-0.0953861
-0.101191
-0.106868
-0.112392
-0.11774
-0.122887
-0.127807
-0.132477
-0.136871
-0.140963
-0.144728
-0.148141
-0.151177
-0.153809
-0.156013
-0.157765
-0.159042
-0.159822
-0.160083
-0.159809
-0.158981
-0.157589
-0.155621
-0.153073
-0.149943
-0.146236
-0.141963
-0.13714
-0.13179
-0.125944
-0.119641
-0.112927
-0.105854
-0.0984838
-0.0908834
-0.0831261
-0.0752903
-0.0674584
-0.0597147
-0.0521448
-0.0448333
-0.0378622
-0.0313091
-0.0252457
-0.0197364
-0.0148362
-0.0105909
-0.00703525
-0.00419128
-0.00206563
-0.000677885
-8.6755e-05
-0.000149844
-0.000989563
-0.00279095
-0.00535354
-0.00855641
-0.0123234
-0.0165807
-0.0212587
-0.0262948
-0.0316329
-0.0372221
-0.0430163
-0.0489741
-0.0550574
-0.0612317
-0.0674649
-0.0737272
-0.0799906
-0.0862285
-0.0924152
-0.098526
-0.104536
-0.110422
-0.116159
-0.121723
-0.12709
-0.132236
-0.137134
-0.141761
-0.14609
-0.150095
-0.15375
-0.157028
-0.159904
-0.16235
-0.164342
-0.165852
-0.166857
-0.167334
-0.167261
-0.166618
-0.16539
-0.163563
-0.161127
-0.158079
-0.154418
-0.150153
-0.145295
-0.139866
-0.133895
-0.127418
-0.120481
-0.113136
-0.105447
-0.0974825
-0.08932
-0.0810425
-0.0727381
-0.0644985
-0.0564167
-0.0485861
-0.0410974
-0.0340378
-0.0274881
-0.0215215
-0.0162018
-0.0115823
-0.00770474
-0.00459666
-0.00226877
-0.000745938
-9.58599e-05
-0.000154837
-0.00102179
-0.00288074
-0.00552414
-0.00882664
-0.0127093
-0.0170955
-0.0219133
-0.0270982
-0.0325922
-0.0383429
-0.0443034
-0.050431
-0.0566874
-0.0630375
-0.0694489
-0.075892
-0.0823388
-0.088763
-0.0951391
-0.101443
-0.10765
-0.113737
-0.11968
-0.125455
-0.131039
-0.136406
-0.141533
-0.146394
-0.150962
-0.155212
-0.159116
-0.162647
-0.165778
-0.168481
-0.170727
-0.17249
-0.173742
-0.174457
-0.174611
-0.174181
-0.173146
-0.171491
-0.1692
-0.166266
-0.162684
-0.158459
-0.153599
-0.148122
-0.142053
-0.135428
-0.128289
-0.120691
-0.112696
-0.104376
-0.0958108
-0.0870894
-0.0783052
-0.069557
-0.0609464
-0.0525756
-0.0445452
-0.0369525
-0.0298886
-0.0234366
-0.0176698
-0.0126501
-0.00842723
-0.00503503
-0.00248895
-0.000819942
-0.000105837
-0.000159303
-0.00105066
-0.00296129
-0.00567733
-0.00906955
-0.0130565
-0.0175592
-0.0225037
-0.0278235
-0.033459
-0.0393569
-0.0454689
-0.0517519
-0.0581669
-0.0646784
-0.0712542
-0.0778644
-0.0844814
-0.0910791
-0.0976325
-0.104118
-0.110511
-0.11679
-0.12293
-0.128909
-0.134704
-0.140289
-0.145641
-0.150734
-0.155542
-0.160039
-0.164197
-0.167988
-0.171384
-0.174354
-0.17687
-0.178902
-0.180421
-0.181397
-0.181803
-0.181613
-0.180802
-0.179349
-0.177237
-0.174451
-0.170985
-0.166836
-0.162009
-0.156518
-0.150385
-0.143641
-0.136328
-0.128499
-0.120216
-0.111554
-0.102595
-0.0934312
-0.0841634
-0.0748972
-0.0657429
-0.0568124
-0.0482169
-0.0400647
-0.0324581
-0.0254914
-0.0192484
-0.0138011
-0.00920774
-0.00550971
-0.00272799
-0.000900569
-0.000116796
-0.000163212
-0.00107602
-0.00303216
-0.0058123
-0.00928388
-0.0133633
-0.0179695
-0.0230267
-0.0284668
-0.034229
-0.0402586
-0.0465067
-0.0529294
-0.0594874
-0.0661449
-0.0728696
-0.0796319
-0.0864044
-0.0931612
-0.0998781
-0.106532
-0.113099
-0.119557
-0.125884
-0.132058
-0.138054
-0.14385
-0.149421
-0.154743
-0.159789
-0.164533
-0.168947
-0.173002
-0.176668
-0.179916
-0.182713
-0.18503
-0.186832
-0.18809
-0.188772
-0.188848
-0.18829
-0.187073
-0.185173
-0.182573
-0.17926
-0.175226
-0.170471
-0.165005
-0.158844
-0.152018
-0.144563
-0.136532
-0.127987
-0.119001
-0.109661
-0.100062
-0.0903115
-0.0805216
-0.0708118
-0.0613044
-0.0521217
-0.0433842
-0.0352064
-0.027695
-0.0209458
-0.0150417
-0.0100511
-0.00602394
-0.00298767
-0.000988492
-0.000128849
-0.000166538
-0.0010977
-0.00309292
-0.0059283
-0.00946846
-0.013628
-0.0183242
-0.0234796
-0.0290248
-0.0348978
-0.041043
-0.0474107
-0.0539565
-0.0606406
-0.0674274
-0.0742844
-0.0811822
-0.0880938
-0.0949938
-0.101858
-0.108665
-0.115391
-0.122016
-0.128516
-0.134871
-0.141058
-0.147055
-0.152836
-0.15838
-0.163658
-0.168645
-0.173313
-0.177633
-0.181574
-0.185105
-0.188193
-0.190805
-0.192907
-0.194465
-0.195445
-0.195813
-0.195536
-0.194586
-0.192934
-0.190557
-0.187437
-0.183559
-0.17892
-0.173522
-0.167377
-0.160508
-0.152951
-0.144754
-0.135976
-0.126692
-0.116991
-0.10697
-0.0967422
-0.0864277
-0.0761547
-0.0660561
-0.0562665
-0.046919
-0.0381421
-0.0300558
-0.0227693
-0.0163781
-0.0109621
-0.0065809
-0.00326976
-0.00108438
-0.000142109
-0.000169256
-0.00111558
-0.00314323
-0.00602467
-0.00962228
-0.0138492
-0.0186213
-0.0238599
-0.0294943
-0.0354616
-0.0417054
-0.0481753
-0.0548265
-0.061619
-0.0685169
-0.0754881
-0.0825034
-0.089536
-0.0965612
-0.103556
-0.110498
-0.117366
-0.12414
-0.130798
-0.137319
-0.143683
-0.149866
-0.155847
-0.1616
-0.167102
-0.172325
-0.177242
-0.181824
-0.186039
-0.189855
-0.193239
-0.196156
-0.19857
-0.200444
-0.201741
-0.202424
-0.202456
-0.201804
-0.200435
-0.19832
-0.195433
-0.191757
-0.187279
-0.181996
-0.175914
-0.16905
-0.161436
-0.153113
-0.144141
-0.134593
-0.124556
-0.114134
-0.103442
-0.0926074
-0.0817683
-0.0710683
-0.0606549
-0.050675
-0.0412719
-0.0325808
-0.0247257
-0.0178161
-0.0119451
-0.00718368
-0.003576
-0.00118891
-0.000156693
-0.000171346
-0.00112953
-0.0031828
-0.00610088
-0.0097445
-0.0140257
-0.0188593
-0.0241655
-0.0298727
-0.0359172
-0.0422417
-0.0487956
-0.0555335
-0.0624154
-0.0694052
-0.0764711
-0.0835841
-0.0907179
-0.0978485
-0.104953
-0.112011
-0.119002
-0.125906
-0.132702
-0.139372
-0.145894
-0.152248
-0.158411
-0.164361
-0.170073
-0.175521
-0.180678
-0.185514
-0.189998
-0.194099
-0.19778
-0.201006
-0.20374
-0.205942
-0.207572
-0.208591
-0.208958
-0.208634
-0.207582
-0.205767
-0.203157
-0.199727
-0.19546
-0.190343
-0.184376
-0.17757
-0.169949
-0.161551
-0.152431
-0.142658
-0.132322
-0.121525
-0.110388
-0.0990459
-0.0876438
-0.0763373
-0.0652872
-0.0546554
-0.044601
-0.035276
-0.0268207
-0.0193609
-0.0130045
-0.00783525
-0.0039081
-0.00130274
-0.000172716
-0.000172794
-0.00113947
-0.00321141
-0.00615656
-0.00983456
-0.0141567
-0.019037
-0.0243949
-0.030158
-0.0362618
-0.0426487
-0.0492675
-0.0560725
-0.0630236
-0.0700848
-0.0772244
-0.0844138
-0.0916273
-0.0988414
-0.106035
-0.113186
-0.120278
-0.127289
-0.134202
-0.140999
-0.147659
-0.154163
-0.16049
-0.166617
-0.172523
-0.17818
-0.183562
-0.188641
-0.193386
-0.197763
-0.201738
-0.205274
-0.208332
-0.21087
-0.212847
-0.214219
-0.214943
-0.214975
-0.214272
-0.212794
-0.210504
-0.207368
-0.203362
-0.198465
-0.19267
-0.18598
-0.178411
-0.169994
-0.160779
-0.150832
-0.140239
-0.129105
-0.117552
-0.105721
-0.0937663
-0.0818544
-0.0701597
-0.05886
-0.0481319
-0.0381454
-0.0290593
-0.0210173
-0.014144
-0.0085384
-0.00426771
-0.00142653
-0.000190298
-0.00017359
-0.00114537
-0.00322898
-0.00619153
-0.00989216
-0.0142418
-0.0191538
-0.0245471
-0.0303488
-0.0364938
-0.042924
-0.0495878
-0.0564395
-0.0634386
-0.0705495
-0.0777404
-0.0849834
-0.0922532
-0.0995271
-0.106784
-0.114006
-0.121172
-0.128267
-0.135272
-0.142171
-0.148944
-0.155574
-0.162041
-0.168324
-0.174401
-0.180247
-0.185837
-0.191143
-0.196134
-0.200777
-0.205038
-0.208878
-0.212259
-0.215137
-0.217468
-0.219207
-0.220306
-0.220718
-0.220395
-0.21929
-0.217361
-0.214568
-0.210875
-0.206256
-0.200694
-0.194182
-0.186729
-0.178357
-0.169109
-0.159047
-0.148251
-0.136825
-0.124894
-0.112603
-0.100114
-0.0876048
-0.0752639
-0.0632856
-0.0518649
-0.0411917
-0.0314451
-0.022789
-0.0153672
-0.00929577
-0.00465641
-0.00156094
-0.000209562
-0.000173733
-0.00114724
-0.00323553
-0.00620585
-0.00991738
-0.0142809
-0.0192097
-0.024622
-0.0304448
-0.0366123
-0.0430663
-0.0497547
-0.0566317
-0.0636568
-0.0707943
-0.078013
-0.0852852
-0.0925862
-0.0998942
-0.107189
-0.114453
-0.121668
-0.128818
-0.135888
-0.14286
-0.149719
-0.156448
-0.163027
-0.169439
-0.175661
-0.181672
-0.187446
-0.192957
-0.198175
-0.203067
-0.2076
-0.211735
-0.215432
-0.218648
-0.221337
-0.22345
-0.224939
-0.225751
-0.225835
-0.225138
-0.223611
-0.221206
-0.21788
-0.213598
-0.208332
-0.202066
-0.194799
-0.186543
-0.177333
-0.167222
-0.156286
-0.144625
-0.132365
-0.119652
-0.106657
-0.0935678
-0.0805864
-0.0679245
-0.0557969
-0.0444149
-0.0339803
-0.0246792
-0.0166771
-0.0101098
-0.00507571
-0.00170659
-0.000230632
-0.000173233
-0.00114513
-0.00323124
-0.00619985
-0.0099107
-0.0142748
-0.0192052
-0.0246203
-0.0304465
-0.0366178
-0.0430756
-0.0497677
-0.0566479
-0.063676
-0.0708162
-0.0780377
-0.0853132
-0.0926187
-0.0999331
-0.107237
-0.114515
-0.121748
-0.128924
-0.136027
-0.143042
-0.149955
-0.15675
-0.163411
-0.16992
-0.176258
-0.182404
-0.188334
-0.194023
-0.199443
-0.204563
-0.209348
-0.213761
-0.217763
-0.221309
-0.224353
-0.226845
-0.228733
-0.229961
-0.230474
-0.230214
-0.229126
-0.227155
-0.224248
-0.220362
-0.215459
-0.20951
-0.202504
-0.194443
-0.185349
-0.175266
-0.164263
-0.152435
-0.139904
-0.12682
-0.113358
-0.0997153
-0.0861078
-0.0727647
-0.0599216
-0.0478131
-0.0366654
-0.0266897
-0.018076
-0.0109825
-0.00552702
-0.0018641
-0.000253633
-0.000172108
-0.00113918
-0.00321646
-0.00617416
-0.00987306
-0.0142246
-0.0191421
-0.0245437
-0.0303557
-0.036512
-0.0429535
-0.0496278
-0.0564888
-0.063496
-0.0706141
-0.0778122
-0.0850638
-0.0923455
-0.0996369
-0.10692
-0.114179
-0.121399
-0.128567
-0.135669
-0.142693
-0.149625
-0.156452
-0.16316
-0.169731
-0.17615
-0.182397
-0.18845
-0.194286
-0.199878
-0.205197
-0.21021
-0.21488
-0.219168
-0.223031
-0.226421
-0.229287
-0.231577
-0.233231
-0.234191
-0.234394
-0.233779
-0.232283
-0.229847
-0.226416
-0.221942
-0.216385
-0.209719
-0.201935
-0.193043
-0.183074
-0.172088
-0.160171
-0.147442
-0.134049
-0.12017
-0.106012
-0.0918022
-0.0777889
-0.0642287
-0.0513811
-0.0394991
-0.0288215
-0.0195658
-0.0119157
-0.00601161
-0.00203408
-0.000278694
-0.000170389
-0.00112957
-0.00319173
-0.00612977
-0.00980596
-0.0141324
-0.0190227
-0.024395
-0.0301756
-0.0362981
-0.0427031
-0.0493381
-0.0561568
-0.0631188
-0.0701889
-0.0773366
-0.0845357
-0.0917637
-0.0990011
-0.106231
-0.113439
-0.12061
-0.127735
-0.1348
-0.141795
-0.148708
-0.155529
-0.162243
-0.168839
-0.1753
-0.181609
-0.187748
-0.193694
-0.199423
-0.204907
-0.210117
-0.215015
-0.219566
-0.223725
-0.227446
-0.230677
-0.233365
-0.235449
-0.236867
-0.237553
-0.237439
-0.236457
-0.234539
-0.23162
-0.227641
-0.22255
-0.216307
-0.208889
-0.200291
-0.190531
-0.179655
-0.16774
-0.154896
-0.141269
-0.127037
-0.112412
-0.0976369
-0.0829743
-0.0687038
-0.0551109
-0.0424778
-0.0310739
-0.0211474
-0.0129108
-0.00653062
-0.00221709
-0.000305947
-0.000168121
-0.00111659
-0.00315778
-0.00606804
-0.00971147
-0.0140009
-0.0188504
-0.0241784
-0.0299107
-0.0359809
-0.0423295
-0.0489035
-0.0556568
-0.0625486
-0.0695442
-0.0766134
-0.0837304
-0.0908736
-0.0980243
-0.105167
-0.112287
-0.119374
-0.126417
-0.133406
-0.140332
-0.147186
-0.153958
-0.160638
-0.167214
-0.173674
-0.180004
-0.186185
-0.1922
-0.198026
-0.203638
-0.209007
-0.214101
-0.218883
-0.223311
-0.227341
-0.230921
-0.233996
-0.236507
-0.238387
-0.239568
-0.239978
-0.239543
-0.238185
-0.235832
-0.232412
-0.227862
-0.222126
-0.215166
-0.206959
-0.19751
-0.186847
-0.175036
-0.162174
-0.148399
-0.133891
-0.118865
-0.103572
-0.0882919
-0.0733273
-0.0589908
-0.0455956
-0.0334448
-0.0228207
-0.0139688
-0.007085
-0.00241365
-0.000335521
-0.00016536
-0.0011006
-0.00311561
-0.00599079
-0.00959233
-0.0138339
-0.0186301
-0.0238992
-0.0295673
-0.0355674
-0.0418398
-0.0483314
-0.0549957
-0.0617923
-0.0686863
-0.0756481
-0.0826526
-0.0896786
-0.0967085
-0.103728
-0.110724
-0.117687
-0.124609
-0.13148
-0.138295
-0.145045
-0.151724
-0.158324
-0.164835
-0.171249
-0.177552
-0.18373
-0.189768
-0.195646
-0.201342
-0.206829
-0.212078
-0.217054
-0.221719
-0.226028
-0.229933
-0.233378
-0.236304
-0.238643
-0.240325
-0.241275
-0.24141
-0.240651
-0.238912
-0.236112
-0.232173
-0.227028
-0.220618
-0.212906
-0.203875
-0.193538
-0.181941
-0.169169
-0.15535
-0.140657
-0.125307
-0.109558
-0.0937061
-0.0780747
-0.0630051
-0.0488439
-0.0359303
-0.024585
-0.0150901
-0.0076755
-0.00262424
-0.000367546
-0.000162181
-0.00108205
-0.00306647
-0.0059003
-0.009452
-0.0136361
-0.0183675
-0.0235647
-0.0291533
-0.0350662
-0.0412433
-0.0476313
-0.0541835
-0.0608594
-0.0676245
-0.0744495
-0.0813098
-0.0881853
-0.0950592
-0.101918
-0.108752
-0.115551
-0.122309
-0.129019
-0.135677
-0.142278
-0.148817
-0.155289
-0.161687
-0.168004
-0.174231
-0.180356
-0.186367
-0.192248
-0.197979
-0.203538
-0.208897
-0.214025
-0.218887
-0.223441
-0.227639
-0.231428
-0.23475
-0.237537
-0.239717
-0.241212
-0.241937
-0.241804
-0.240721
-0.238595
-0.235337
-0.230862
-0.225097
-0.217982
-0.209483
-0.199589
-0.188328
-0.175767
-0.16202
-0.147248
-0.131667
-0.11554
-0.0991743
-0.0829159
-0.0671342
-0.0522108
-0.0385246
-0.0264379
-0.0162745
-0.00830264
-0.00284929
-0.000402153
-0.000158674
-0.00106152
-0.00301189
-0.00579939
-0.00929479
-0.0134133
-0.0180701
-0.0231834
-0.0286787
-0.0344884
-0.0405519
-0.0468157
-0.0532327
-0.0597627
-0.0663712
-0.0730294
-0.0797135
-0.0864041
-0.0930858
-0.0997465
-0.106377
-0.11297
-0.119521
-0.126025
-0.13248
-0.138884
-0.145234
-0.151527
-0.15776
-0.163928
-0.170027
-0.176046
-0.181978
-0.187809
-0.193523
-0.199101
-0.204521