/*--------------------------------*- C++ -*----------------------------------*\
  =========                 |
  \\      /  F ield         | OpenFOAM: The Open Source CFD Toolbox
   \\    /   O peration     | Website:  https://openfoam.org
    \\  /    A nd           | Version:  dev
     \\/     M anipulation  |
\*---------------------------------------------------------------------------*/
FoamFile
{
    format      ascii;
    class       volScalarField;
    location    "15.3";
    object      Uy;
}
// * * * * * * * * * * * * * * * * * * * * * * * * * * * * * * * * * * * * * //

dimensions      [0 1 -1 0 0 0 0];

internalField   nonuniform List<scalar> 
5184
(
-1.24819e-05
-2.07022e-05
-1.71228e-05
-8.10424e-06
2.73544e-06
1.36608e-05
2.38721e-05
3.30541e-05
4.1095e-05
4.79989e-05
5.38269e-05
5.8664e-05
6.26014e-05
6.57323e-05
6.81404e-05
6.99006e-05
7.10775e-05
7.17225e-05
7.18767e-05
7.15702e-05
7.08222e-05
6.96429e-05
6.80351e-05
6.59959e-05
6.35182e-05
6.05929e-05
5.72093e-05
5.33578e-05
4.90315e-05
4.42272e-05
3.89471e-05
3.32007e-05
2.70053e-05
2.03864e-05
1.33799e-05
6.0317e-06
-1.60234e-06
-9.45588e-06
-1.74526e-05
-2.55071e-05
-3.35254e-05
-4.1406e-05
-4.90419e-05
-5.63224e-05
-6.3135e-05
-6.9368e-05
-7.49129e-05
-7.96672e-05
-8.35365e-05
-8.64371e-05
-8.82984e-05
-8.90648e-05
-8.86983e-05
-8.71792e-05
-8.45073e-05
-8.07019e-05
-7.58016e-05
-6.98649e-05
-6.29696e-05
-5.52113e-05
-4.6704e-05
-3.75803e-05
-2.79943e-05
-1.81279e-05
-8.20611e-06
1.47622e-06
1.04982e-05
1.82233e-05
2.36414e-05
2.50647e-05
1.98114e-05
6.24337e-06
-4.54653e-05
-6.52179e-05
-4.01312e-05
7.9807e-06
6.59267e-05
0.00012613
0.000184326
0.000238264
0.000286811
0.00032953
0.000366381
0.000397552
0.000423353
0.000444154
0.000460328
0.000472235
0.000480197
0.000484486
0.000485327
0.000482891
0.000477299
0.000468629
0.000456919
0.000442177
0.000424392
0.000403542
0.000379601
0.000352555
0.000322403
0.000289172
0.000252922
0.000213756
0.000171824
0.000127326
8.0524e-05
3.17352e-05
-1.86623e-05
-7.02315e-05
-0.000122478
-0.000174857
-0.000226775
-0.000277602
-0.000326679
-0.000373327
-0.000416864
-0.000456617
-0.000491932
-0.000522199
-0.000546855
-0.000565408
-0.000577445
-0.000582646
-0.000580795
-0.00057179
-0.000555644
-0.000532498
-0.000502612
-0.000466375
-0.0004243
-0.000377025
-0.000325318
-0.000270079
-0.000212369
-0.000153435
-9.47847e-05
-3.82938e-05
1.35889e-05
5.75617e-05
8.90415e-05
0.000101543
8.63096e-05
3.64337e-05
-8.08809e-05
-9.42891e-05
-1.83678e-05
0.000106567
0.000255071
0.00041074
0.000563295
0.000706614
0.00083726
0.000953536
0.00105485
0.0011413
0.00121339
0.00127185
0.0013175
0.00135117
0.00137361
0.00138551
0.00138742
0.00137979
0.00136294
0.00133711
0.00130241
0.00125891
0.00120663
0.00114554
0.00107565
0.000996969
0.000909558
0.000813559
0.000709201
0.000596829
0.000476916
0.000350075
0.00021707
7.88221e-05
-6.35907e-05
-0.000208936
-0.000355835
-0.000502772
-0.000648117
-0.000790142
-0.000927048
-0.001057
-0.00117814
-0.00128867
-0.00138682
-0.00147097
-0.0015396
-0.0015914
-0.00162529
-0.00164041
-0.0016362
-0.00161242
-0.00156912
-0.0015067
-0.00142592
-0.00132786
-0.00121397
-0.00108604
-0.000946258
-0.000797171
-0.000641782
-0.000483615
-0.000326858
-0.000176588
-3.91081e-05
7.75822e-05
0.000163205
0.000204618
0.000185731
9.01934e-05
-9.72265e-05
-7.2163e-05
8.58035e-05
0.000319155
0.000590495
0.000874276
0.00115352
0.00141746
0.00165967
0.00187661
0.00206675
0.00222982
0.0023664
0.00247751
0.00256443
0.00262848
0.00267095
0.00269298
0.00269555
0.00267945
0.00264527
0.00259345
0.00252426
0.00243785
0.0023343
0.00221366
0.00207599
0.00192139
0.00175007
0.00156238
0.00135885
0.0011402
0.000907416
0.000661724
0.00040464
0.000137959
-0.000136235
-0.000415578
-0.00069744
-0.000978952
-0.00125703
-0.00152844
-0.0017898
-0.00203767
-0.00226863
-0.00247929
-0.0026664
-0.00282692
-0.00295809
-0.00305748
-0.00312307
-0.00315331
-0.00314719
-0.00310426
-0.00302466
-0.00290916
-0.00275921
-0.00257688
-0.00236493
-0.00212681
-0.00186664
-0.00158932
-0.00130055
-0.00100698
-0.000716413
-0.000438096
-0.000183157
3.48259e-05
0.000199166
0.000289507
0.000281586
0.00014689
-8.37817e-05
2.20367e-05
0.000296554
0.000668736
0.00109091
0.00152926
0.00196042
0.00236896
0.00274519
0.00308351
0.00338115
0.0036373
0.00385241
0.00402773
0.00416492
0.00426578
0.00433212
0.00436557
0.00436755
0.00433924
0.00428154
0.00419513
0.00408044
0.00393778
0.00376735
0.0035693
0.00334381
0.00309117
0.00281181
0.0025064
0.00217588
0.00182152
0.00144496
0.00104826
0.000633886
0.00020475
-0.000235793
-0.000683965
-0.00113559
-0.00158612
-0.0020307
-0.00246423
-0.00288142
-0.00327691
-0.00364532
-0.00398139
-0.00428007
-0.00453663
-0.00474677
-0.00490673
-0.0050134
-0.00506437
-0.00505808
-0.00499385
-0.00487193
-0.00469357
-0.00446103
-0.00417763
-0.00384773
-0.00347678
-0.00307133
-0.00263911
-0.00218909
-0.00173164
-0.00127881
-0.000844594
-0.000445461
-0.000100929
0.000165711
0.000326775
0.000349576
0.000193539
-3.68387e-05
0.000198515
0.000627848
0.00117065
0.00177113
0.00238854
0.00299391
0.00356752
0.00409656
0.0045733
0.00499367
0.00535618
0.0056611
0.00590977
0.00610419
0.0062466
0.00633928
0.00638437
0.00638373
0.00633892
0.00625118
0.00612144
0.00595038
0.00573845
0.00548603
0.00519342
0.00486101
0.00448933
0.00407914
0.00363153
0.00314798
0.00263044
0.00208139
0.00150387
0.000901506
0.000278554
-0.000360137
-0.00100913
-0.00166243
-0.00231355
-0.00295558
-0.00358126
-0.00418312
-0.00475355
-0.00528498
-0.00576997
-0.00620142
-0.00657265
-0.00687761
-0.00711102
-0.00726848
-0.00734662
-0.00734325
-0.00725741
-0.00708946
-0.00684119
-0.00651582
-0.00611805
-0.00565412
-0.00513177
-0.00456032
-0.00395072
-0.00331565
-0.00266967
-0.00202948
-0.00141422
-0.000845982
-0.000350402
4.26046e-05
0.000298159
0.000375517
0.000223724
4.47719e-05
0.000462232
0.00108755
0.00183423
0.0026406
0.00346056
0.00426056
0.00501725
0.00571506
0.00634434
0.0068998
0.00737927
0.00778278
0.00811176
0.00836847
0.00855556
0.00867578
0.00873171
0.00872566
0.00865959
0.00853505
0.00835326
0.00811514
0.00782135
0.00747246
0.00706901
0.00661163
0.00610117
0.00553881
0.00492616
0.00426537
0.00355919
0.00281108
0.00202522
0.0012066
0.000360967
-0.000505116
-0.00138434
-0.00226867
-0.00314945
-0.00401747
-0.00486309
-0.00567637
-0.00644725
-0.00716567
-0.00782183
-0.0084063
-0.00891027
-0.00932573
-0.00964567
-0.00986428
-0.0099771
-0.00998119
-0.00987525
-0.00965977
-0.00933708
-0.00891145
-0.00838911
-0.00777831
-0.00708934
-0.00633454
-0.00552841
-0.00468763
-0.00383128
-0.00298098
-0.0021613
-0.00140009
-0.000729148
-0.000184891
0.000190951
0.000350344
0.000234029
0.00016103
0.000815026
0.0016794
0.00266445
0.00370467
0.00475019
0.00576409
0.00672016
0.00760068
0.00839439
0.00909501
0.00969981
0.0102086
0.010623
0.0109454
0.0111789
0.0113267
0.0113918
0.0113769
0.0112844
0.0111162
0.0108737
0.0105581
0.0101704
0.00971134
0.00918168
0.00858241
0.00791476
0.00718039
0.00638154
0.00552111
0.00460278
0.00363111
0.00261159
0.00155065
0.000455754
-0.000664681
-0.00180129
-0.00294382
-0.00408124
-0.00520184
-0.00629338
-0.00734327
-0.00833875
-0.00926711
-0.0101159
-0.0108732
-0.0115279
-0.0120697
-0.0124899
-0.0127809
-0.0129372
-0.0129548
-0.0128321
-0.0125697
-0.0121704
-0.0116396
-0.0109852
-0.0102174
-0.00934929
-0.00839647
-0.00737714
-0.00631226
-0.00522561
-0.00414399
-0.00309748
-0.0021198
-0.00124886
-0.000527355
-3.41722e-06
0.000268517
0.000222758
0.000311294
0.00125678
0.00240432
0.00366311
0.00496562
0.00625966
0.0075061
0.00867684
0.00975261
0.0107211
0.0115752
0.012312
0.0129312
0.0134345
0.0138247
0.0141052
0.0142797
0.0143515
0.0143239
0.0141996
0.0139807
0.0136691
0.0132661
0.012773
0.0121908
0.0115205
0.0107636
0.00992165
0.0089969
0.00799229
0.00691154
0.00575938
0.00454155
0.00326494
0.00193762
0.000568822
-0.000831008
-0.00225031
-0.00367646
-0.00509588
-0.00649421
-0.00785642
-0.00916709
-0.0104106
-0.0115713
-0.012634
-0.013584
-0.0144077
-0.0150925
-0.0156274
-0.0160034
-0.0162132
-0.0162521
-0.016118
-0.0158113
-0.0153354
-0.0146967
-0.0139047
-0.012972
-0.0119144
-0.0107508
-0.00950335
-0.00819742
-0.00686166
-0.00552818
-0.00423267
-0.00301475
-0.00191834
-0.000992216
-0.000290438
0.000126948
0.000189268
0.000494653
0.00178625
0.00326143
0.00482984
0.00642339
0.00798896
0.00948633
0.0108864
0.0121691
0.0133215
0.0143364
0.0152106
0.015944
0.0165386
0.0169975
0.0173248
0.0175243
0.0176001
0.0175555
0.0173938
0.0171174
0.0167285
0.0162286
0.0156193
0.0149018
0.0140777
0.0131485
0.0121165
0.0109844
0.00975601
0.00843592
0.00702994
0.0055451
0.00398977
0.00237372
0.000708101
-0.000994543
-0.00272033
-0.00445414
-0.00617973
-0.00787992
-0.00953676
-0.0111318
-0.0126464
-0.0140618
-0.0153599
-0.0165231
-0.0175348
-0.0183801
-0.0190457
-0.0195205
-0.0197957
-0.0198656
-0.0197271
-0.0193806
-0.01883
-0.0180827
-0.0171497
-0.016046
-0.01479
-0.0134043
-0.0119149
-0.0103518
-0.00874854
-0.00714272
-0.0055757
-0.004093
-0.00274449
-0.00158483
-0.000673634
-7.59649e-05
0.000133483
0.000710074
0.00240152
0.00424861
0.00616263
0.00807618
0.00993633
0.0117028
0.0133465
0.0148472
0.0161921
0.017374
0.0183901
0.0192407
0.0199282
0.0204562
0.0208293
0.0210518
0.0211282
0.0210624
0.0208578
0.0205173
0.0200432
0.0194376
0.018702
0.0178382
0.0168478
0.015733
0.0144964
0.0131416
0.0116729
0.0100961
0.00841794
0.00664688
0.00479284
0.00286731
0.000883431
-0.00114405
-0.00319887
-0.00526329
-0.00731832
-0.00934382
-0.0113188
-0.0132217
-0.0150305
-0.0167234
-0.018279
-0.0196765
-0.0208965
-0.0219213
-0.0227349
-0.0233241
-0.0236785
-0.0237906
-0.0236569
-0.0232772
-0.0226558
-0.0218009
-0.0207252
-0.0194457
-0.0179838
-0.0163656
-0.0146211
-0.0127849
-0.0108958
-0.00899679
-0.00713498
-0.00536183
-0.00373316
-0.00230937
-0.00115543
-0.000341049
5.55754e-05
0.000956476
0.00310029
0.00536299
0.00765841
0.00992084
0.0120986
0.0141524
0.0160537
0.0177831
0.0193285
0.0206832
0.0218451
0.0228152
0.0235966
0.0241935
0.0246111
0.0248542
0.0249279
0.0248365
0.0245838
0.0241729
0.0236065
0.0228868
0.0220159
0.0209954
0.0198277
0.0185152
0.0170611
0.0154695
0.0137456
0.0118962
0.0099291
0.00785421
0.00568296
0.00342866
0.00110645
-0.00126667
-0.003672
-0.00608914
-0.00849622
-0.0108701
-0.0131866
-0.0154208
-0.0175474
-0.0195412
-0.0213773
-0.0230316
-0.0244816
-0.0257063
-0.0266871
-0.0274084
-0.0278575
-0.0280256
-0.0279077
-0.0275034
-0.0268169
-0.0258572
-0.0246385
-0.0231799
-0.0215056
-0.0196451
-0.0176327
-0.0155077
-0.0133139
-0.0111
-0.00891902
-0.00682835
-0.00488982
-0.00316955
-0.00173783
-0.000668865
-4.42384e-05
0.00123277
0.00388001
0.00660115
0.00931326
0.0119532
0.0144714
0.0168304
0.0190033
0.0209719
0.0227254
0.0242584
0.0255698
0.0266614
0.0275373
0.0282027
0.0286632
0.0289246
0.0289923
0.0288711
0.0285652
0.0280782
0.027413
0.0265719
0.0255573
0.0243713
0.0230163
0.0214953
0.019812
0.0179711
0.0159787
0.0138423
0.0115711
0.00917629
0.00667083
0.00406985
0.0013905
-0.00134798
-0.00412439
-0.00691563
-0.00969693
-0.012442
-0.0151235
-0.0177129
-0.0201816
-0.0225005
-0.0246413
-0.0265764
-0.0282795
-0.0297266
-0.0308959
-0.031769
-0.0323308
-0.0325705
-0.0324819
-0.0320636
-0.0313198
-0.0302599
-0.0288994
-0.0272595
-0.0253671
-0.0232552
-0.0209622
-0.0185321
-0.0160142
-0.0134628
-0.0109369
-0.00850002
-0.00622013
-0.0041692
-0.0024229
-0.00106005
-0.000165825
0.00153787
0.004738
0.00795928
0.0111226
0.0141683
0.0170495
0.0197315
0.0221897
0.0244079
0.0263771
0.0280936
0.0295577
0.0307726
0.0317436
0.0324768
0.0329789
0.0332562
0.0333148
0.0331601
0.0327967
0.0322284
0.0314585
0.0304895
0.0293241
0.0279646
0.0264137
0.0246749
0.0227522
0.0206511
0.0183783
0.0159423
0.0133534
0.0106241
0.00776883
0.00480458
0.00175046
-0.00137206
-0.00453929
-0.00772544
-0.0109028
-0.0140419
-0.0171119
-0.020081
-0.0229166
-0.0255862
-0.0280574
-0.0302987
-0.0322803
-0.0339742
-0.0353555
-0.0364025
-0.0370973
-0.0374269
-0.0373833
-0.036964
-0.0361726
-0.035019
-0.0335195
-0.0316973
-0.0295819
-0.0272098
-0.0246235
-0.0218718
-0.0190095
-0.0160967
-0.0131986
-0.0103851
-0.0077304
-0.00531265
-0.00321312
-0.0015156
-0.000309222
0.00187067
0.00567142
0.00943327
0.0130816
0.0165604
0.0198269
0.0228494
0.0256063
0.0280843
0.0302767
0.0321818
0.0338019
0.035142
0.0362087
0.0370093
0.0375515
0.0378427
0.0378896
0.0376981
0.0372733
0.0366193
0.0357398
0.0346375
0.0333152
0.0317755
0.0300215
0.0280569
0.0258862
0.0235155
0.020952
0.0182053
0.0152867
0.0122098
0.00899073
0.00564797
0.00220264
-0.00132161
-0.00489863
-0.00849992
-0.0120948
-0.0156507
-0.0191332
-0.022507
-0.0257356
-0.0287825
-0.0316111
-0.0341861
-0.0364734
-0.038441
-0.0400603
-0.0413058
-0.0421567
-0.0425971
-0.0426169
-0.0422119
-0.041385
-0.0401459
-0.0385119
-0.0365077
-0.0341653
-0.0315246
-0.0286322
-0.025542
-0.0223141
-0.0190147
-0.0157155
-0.0124929
-0.00942796
-0.00660511
-0.00411173
-0.002037
-0.000474693
0.00223004
0.00667732
0.0110187
0.0151845
0.0191234
0.0227968
0.0261769
0.0292459
0.0319938
0.0344166
0.0365155
0.0382951
0.0397622
0.0409252
0.041793
0.0423744
0.0426777
0.0427107
0.0424797
0.0419903
0.0412472
0.040254
0.039014
0.03753
0.0358049
0.033842
0.0316452
0.0292194
0.0265712
0.0237087
0.0206418
0.017383
0.0139471
0.0103515
0.00661635
0.00276458
-0.00117805
-0.005183
-0.00921913
-0.0132528
-0.0172482
-0.0211676
-0.0249716
-0.0286201
-0.0320723
-0.0352873
-0.0382252
-0.0408476
-0.0431183
-0.0450041
-0.0464757
-0.0475086
-0.0480836
-0.0481878
-0.0478152
-0.0469673
-0.0456534
-0.0438912
-0.0417066
-0.0391342
-0.036217
-0.0330059
-0.0295595
-0.0259438
-0.0222313
-0.0185003
-0.0148344
-0.0113214
-0.00805291
-0.00512283
-0.00262639
-0.000662778
0.00261485
0.00775261
0.012711
0.0174257
0.0218506
0.0259517
0.0297063
0.0331004
0.036128
0.0387887
0.0410866
0.043029
0.0446252
0.0458855
0.0468204
0.0474404
0.0477548
0.0477721
0.0474996
0.0469434
0.0461085
0.0449988
0.0436178
0.0419686
0.0400541
0.0378778
0.035444
0.0327578
0.029826
0.0266574
0.0232627
0.0196551
0.0158503
0.0118671
0.00772704
0.00345487
-0.000921703
-0.00537187
-0.00986188
-0.0143552
-0.0188129
-0.0231936
-0.0274543
-0.0315505
-0.0354372
-0.0390689
-0.0424012
-0.0453906
-0.0479961
-0.0501799
-0.0519082
-0.0531519
-0.0538884
-0.0541013
-0.0537821
-0.0529305
-0.0515547
-0.0496725
-0.047311
-0.0445068
-0.0413059
-0.0377633
-0.0339429
-0.0299164
-0.0257629
-0.0215677
-0.0174218
-0.0134208
-0.0096637
-0.00625163
-0.00328666
-0.00087431
0.00302389
0.00889405
0.0145052
0.0197989
0.0247345
0.0292838
0.0334289
0.0371609
0.040478
0.0433837
0.0458859
0.0479947
0.0497222
0.051081
0.0520837
0.052742
0.0530668
0.0530676
0.0527524
0.0521279
0.0511994
0.0499714
0.0484475
0.0466307
0.0445244
0.042132
0.0394578
0.0365073
0.0332877
0.029808
0.0260794
0.0221159
0.0179342
0.0135539
0.00899805
0.00429289
-0.000531985
-0.00544363
-0.0104058
-0.0153793
-0.0203217
-0.0251885
-0.0299325
-0.0345052
-0.038857
-0.0429376
-0.0466974
-0.050088
-0.0530629
-0.0555791
-0.0575975
-0.0590845
-0.0600126
-0.0603619
-0.0601203
-0.0592852
-0.0578633
-0.055872
-0.0533389
-0.0503024
-0.0468115
-0.0429253
-0.0387127
-0.0342515
-0.0296276
-0.024934
-0.0202695
-0.015738
-0.0114465
-0.00750448
-0.00402149
-0.00111043
0.0034559
0.0100982
0.0163961
0.0222974
0.0277676
0.0327844
0.0373357
0.0414178
0.0450339
0.048192
0.0509036
0.0531826
0.055044
0.0565029
0.0575741
0.0582711
0.0586063
0.0585902
0.0582319
0.0575385
0.056516
0.0551689
0.0535012
0.0515161
0.0492168
0.046607
0.0436909
0.0404741
0.0369641
0.0331699
0.0291034
0.0247789
0.0202138
0.0154287
0.0104478
0.00529857
1.2372e-05
-0.00537588
-0.0108276
-0.0163009
-0.0217504
-0.0271278
-0.0323823
-0.0374609
-0.0423094
-0.0468725
-0.0510952
-0.0549234
-0.0583049
-0.0611907
-0.0635362
-0.0653022
-0.0664559
-0.0669726
-0.0668365
-0.0660416
-0.0645926
-0.0625057
-0.0598086
-0.0565413
-0.0527553
-0.0485137
-0.0438907
-0.0389703
-0.0338455
-0.0286175
-0.0233935
-0.0182863
-0.013412
-0.00888897
-0.00483538
-0.00137262
0.00390958
0.0113615
0.0183782
0.0249141
0.0309414
0.0364442
0.0414166
0.0458609
0.0497853
0.0532028
0.0561292
0.0585823
0.0605803
0.0621413
0.0632822
0.0640189
0.064365
0.0643325
0.0639314
0.0631695
0.0620533
0.0605877
0.0587767
0.0566237
0.0541319
0.0513049
0.0481469
0.0446636
0.0408623
0.0367523
0.0323456
0.0276568
0.0227039
0.0175082
0.0120946
0.00649199
0.000733011
-0.00514559
-0.0111031
-0.0170951
-0.0230731
-0.0289856
-0.0347777
-0.0403923
-0.0457701
-0.0508506
-0.0555732
-0.0598776
-0.0637055
-0.0670014
-0.0697143
-0.0717985
-0.0732155
-0.0739349
-0.073936
-0.0732088
-0.0717552
-0.0695894
-0.0667388
-0.0632442
-0.0591596
-0.054552
-0.0495006
-0.0440959
-0.0384388
-0.0326385
-0.0268119
-0.0210811
-0.0155725
-0.010414
-0.00573373
-0.00166268
0.00438353
0.0126802
0.0204456
0.0276416
0.0342472
0.0402535
0.0456614
0.050479
0.0547208
0.0584046
0.0615513
0.0641824
0.0663201
0.0679853
0.0691978
0.0699754
0.0703338
0.070286
0.0698432
0.0690141
0.0678057
0.0662231
0.0642705
0.0619515
0.059269
0.0562267
0.0528286
0.0490802
0.0449887
0.0405634
0.0358162
0.0307619
0.0254188
0.0198085
0.0139567
0.00789311
0.00165162
-0.00472949
-0.0112076
-0.0177359
-0.0242632
-0.0307345
-0.0370913
-0.0432719
-0.0492122
-0.0548461
-0.0601071
-0.0649285
-0.0692451
-0.0729946
-0.0761184
-0.0785641
-0.080286
-0.0812474
-0.0814217
-0.080794
-0.0793622
-0.077138
-0.0741476
-0.0704322
-0.0660476
-0.0610645
-0.0555674
-0.0496533
-0.0434311
-0.0370193
-0.0305445
-0.0241395
-0.0179416
-0.0120897
-0.00672281
-0.00198275
0.00487625
0.0140501
0.0225922
0.0304718
0.0376756
0.0442019
0.0500586
0.0552606
0.0598282
0.0637853
0.0671574
0.0699708
0.0722513
0.0740234
0.0753096
0.0761301
0.0765023
0.0764412
0.0759587
0.0750646
0.0737662
0.0720693
0.0699781
0.0674961
0.0646263
0.061372
0.0577372
0.0537269
0.0493482
0.04461
0.039524
0.0341051
0.0283714
0.0223447
0.0160513
0.00952126
0.00278955
-0.00410434
-0.0111162
-0.0181969
-0.0252928
-0.0323458
-0.0392936
-0.0460702
-0.0526063
-0.0588304
-0.0646697
-0.0700505
-0.0749006
-0.0791498
-0.0827317
-0.0855857
-0.0876585
-0.0889056
-0.0892938
-0.0888019
-0.087423
-0.0851652
-0.0820525
-0.0781258
-0.0734424
-0.0680764
-0.0621171
-0.0556687
-0.0488483
-0.041784
-0.0346133
-0.0274806
-0.020535
-0.0139277
-0.00780979
-0.00233531
0.00538619
0.0154671
0.0248115
0.0333966
0.0412169
0.0482784
0.0545965
0.060193
0.0650949
0.0693317
0.0729345
0.0759342
0.078361
0.0802427
0.0816051
0.0824708
0.0828593
0.0827872
0.0822677
0.0813115
0.0799266
0.078119
0.0758932
0.0732527
0.0702003
0.066739
0.0628723
0.0586052
0.0539439
0.0488972
0.0434763
0.0376956
0.0315732
0.0251307
0.0183944
0.0113948
0.00416735
-0.00324742
-0.0108039
-0.0184514
-0.0261337
-0.0337898
-0.0413539
-0.0487556
-0.0559208
-0.0627721
-0.0692302
-0.0752146
-0.0806448
-0.0854426
-0.0895328
-0.092846
-0.0953198
-0.0969012
-0.0975488
-0.0972342
-0.0959442
-0.0936822
-0.0904692
-0.0863448
-0.0813671
-0.075613
-0.0691768
-0.0621697
-0.0547174
-0.0469586
-0.0390421
-0.0311251
-0.0233698
-0.0159409
-0.00900274
-0.0027232
0.00591169
0.0169266
0.0270965
0.036407
0.0448605
0.0524714
0.0592625
0.0652631
0.0705069
0.0750298
0.0788684
0.0820587
0.0846351
0.0866296
0.0880709
0.0889845
0.0893921
0.0893119
0.0887587
0.0877441
0.0862768
0.0843632
0.0820079
0.0792144
0.0759853
0.0723233
0.0682314
0.063714
0.0587768
0.0534279
0.0476779
0.0415407
0.0350336
0.0281782
0.0210002
0.0135304
0.00580429
-0.00213697
-0.0102468
-0.0184729
-0.0267572
-0.035036
-0.04324
-0.0512949
-0.0591215
-0.0666368
-0.0737548
-0.0803875
-0.0864463
-0.0918439
-0.0964959
-0.100323
-0.103252
-0.105221
-0.106179
-0.106088
-0.104929
-0.102698
-0.0994115
-0.0951075
-0.0898438
-0.0836996
-0.0767739
-0.0691848
-0.0610671
-0.0525705
-0.0438565
-0.0350956
-0.0264647
-0.0181433
-0.0103106
-0.00314957
0.00645098
0.018424
0.0294402
0.0394938
0.0485958
0.0567687
0.0640435
0.070457
0.07605
0.0808649
0.0849441
0.0883291
0.0910587
0.093169
0.0946922
0.0956566
0.0960864
0.0960016
0.0954186
0.0943498
0.0928049
0.0907908
0.0883121
0.0853722
0.0819736
0.0781185
0.0738095
0.06905
0.0638452
0.0582024
0.0521312
0.0456447
0.0387596
0.0314966
0.0238809
0.0159428
0.00771783
-0.000752707
-0.00942164
-0.0182356
-0.0271348
-0.0360533
-0.0449189
-0.0536531
-0.0621722
-0.0703874
-0.078206
-0.0855323
-0.0922693
-0.0983199
-0.103589
-0.107988
-0.111431
-0.113846
-0.11517
-0.115357
-0.114376
-0.112216
-0.10889
-0.10443
-0.0988934
-0.0923609
-0.0849358
-0.0767432
-0.0679271
-0.0586489
-0.0490835
-0.0394164
-0.0298401
-0.0205506
-0.0117433
-0.00361795
0.00700225
0.0199542
0.0318349
0.0426473
0.0524113
0.0611577
0.0689257
0.0757602
0.081709
0.0868214
0.0911459
0.0947293
0.0976156
0.0998448
0.101453
0.102471
0.102927
0.102841
0.102232
0.101114
0.0994972
0.0973886
0.0947933
0.0917146
0.0881548
0.0841154
0.0795985
0.0746068
0.0691445
0.0632178
0.0568354
0.0500093
0.042755
0.0350923
0.0270455
0.018644
0.00992307
0.000923566
-0.0083071
-0.0177149
-0.0272389
-0.0368113
-0.046357
-0.0557943
-0.0650347
-0.0739841
-0.0825431
-0.090608
-0.0980731
-0.104831
-0.110777
-0.115808
-0.119829
-0.122752
-0.124505
-0.125027
-0.124278
-0.122239
-0.118911
-0.114325
-0.108534
-0.10162
-0.0936895
-0.0848741
-0.0753279
-0.065224
-0.0547519
-0.0441132
-0.0335178
-0.0231794
-0.0133116
-0.0041322
0.00756358
0.0215122
0.0342729
0.0458577
0.0562952
0.0656251
0.0738949
0.0811574
0.087468
0.0928828
0.0974568
0.101242
0.104288
0.10664
0.108336
0.109411
0.109896
0.109813
0.109183
0.108021
0.106338
0.104141
0.101437
0.0982275
0.0945155
0.0903018
0.0855876
0.0803748
0.0746665
0.0684678
0.0617862
0.0546322
0.0470201
0.0389683
0.0304998
0.021643
0.0124321
0.00290739
-0.00688408
-0.0168881
-0.0270431
-0.0372798
-0.047521
-0.0576817
-0.0676696
-0.0773851
-0.0867223
-0.0955698
-0.103813
-0.111333
-0.118015
-0.123743
-0.128407
-0.131908
-0.134156
-0.13508
-0.134624
-0.132759
-0.129478
-0.124802
-0.118782
-0.111498
-0.103061
-0.0936067
-0.0833001
-0.0723268
-0.0608916
-0.0492134
-0.0375211
-0.0260479
-0.015027
-0.0046965
0.008133
0.0230927
0.0367461
0.0491146
0.0602355
0.0701574
0.0789362
0.0866329
0.0933105
0.0990321
0.103859
0.10785
0.111059
0.113535
0.115322
0.116457
0.116974
0.116899
0.116252
0.115051
0.113307
0.11103
0.108225
0.104894
0.101039
0.0966621
0.0917623
0.0863408
0.0803996
0.0739424
0.0669753
0.0595074
0.0515512
0.0431235
0.0342458
0.0249449
0.0152535
0.00521102
-0.00513645
-0.0157351
-0.0265231
-0.0374304
-0.0483781
-0.0592789
-0.0700365
-0.0805467
-0.0906972
-0.100369
-0.109438
-0.117777
-0.125255
-0.131745
-0.137123
-0.141273
-0.14409
-0.145487
-0.145394
-0.143766
-0.140585
-0.135865
-0.129648
-0.122014
-0.113073
-0.102969
-0.0918743
-0.0799889
-0.0675334
-0.0547455
-0.0418745
-0.0291751
-0.0169021
-0.00531542
0.00870846
0.0246902
0.0392464
0.0524075
0.0642198
0.0747406
0.0840345
0.0921705
0.0992194
0.105252
0.110335
0.114534
0.117908
0.120511
0.122391
0.12359
0.124142
0.124077
0.123418
0.122183
0.120386
0.118035
0.115136
0.111693
0.107707
0.103178
0.0981046
0.0924878
0.086328
0.0796274
0.0723905
0.0646245
0.0563403
0.0475525
0.0382809
0.0285503
0.0183918
0.00784278
-0.00305167
-0.0142388
-0.0256572
-0.0372365
-0.0488972
-0.0605497
-0.0720949
-0.0834241
-0.0944194
-0.104955
-0.114896
-0.124106
-0.132442
-0.139761
-0.145925
-0.1508
-0.154265
-0.156213
-0.156558
-0.155239
-0.152223
-0.147511
-0.141139
-0.133181
-0.123747
-0.112986
-0.101081
-0.088242
-0.0747089
-0.060739
-0.0466038
-0.0325814
-0.0189501
-0.00599383
0.00928792
0.0262993
0.0417654
0.0557257
0.0682354
0.0793605
0.0891742
0.0977535
0.105177
0.111523
0.116865
0.121274
0.124815
0.127547
0.129522
0.130786
0.131377
0.131326
0.130659
0.129395
0.12755
0.125133
0.122149
0.118603
0.114496
0.109826
0.104593
0.098795
0.092432
0.0855043
0.0780147
0.0699686
0.0613745
0.0522452
0.042598
0.0324555
0.0218465
0.0108065
-0.000621492
-0.0123861
-0.0244272
-0.0366749
-0.0490493
-0.0614598
-0.0738049
-0.0859723
-0.0978391
-0.109272
-0.12013
-0.130262
-0.139515
-0.147731
-0.154755
-0.160435
-0.16463
-0.167214
-0.168081
-0.16715
-0.164372
-0.159732
-0.153255
-0.145009
-0.135101
-0.123684
-0.110947
-0.0971174
-0.08245
-0.0672243
-0.0517358
-0.0362881
-0.0211852
-0.00673696
0.00986931
0.0279145
0.0442948
0.0590586
0.0722698
0.0840029
0.0943396
0.103365
0.111166
0.117826
0.123429
0.128049
0.131758
0.134621
0.136693
0.138023
0.138654
0.13862
0.137949
0.136662
0.134774
0.132296
0.129236
0.125597
0.121379
0.116581
0.111201
0.105237
0.0986873
0.09155
0.0838264
0.0755197
0.0666362
0.0571862
0.0471846
0.0366512
0.0256123
0.0141009
0.00215745
-0.0101688
-0.0228194
-0.0357258
-0.0488087
-0.0619771
-0.0751282
-0.0881469
-0.100906
-0.113266
-0.125078
-0.13618
-0.146407
-0.155587
-0.163545
-0.170111
-0.175125
-0.178435
-0.179915
-0.179462
-0.177004
-0.17251
-0.16599
-0.157501
-0.147147
-0.135081
-0.121501
-0.106645
-0.0907883
-0.0742322
-0.0572982
-0.0403175
-0.0236222
-0.00755037
0.0104506
0.0295303
0.0468263
0.0623955
0.0763103
0.0886535
0.0995151
0.108988
0.117167
0.124144
0.130007
0.134839
0.138717
0.141709
0.143878
0.145277
0.14595
0.145935
0.145262
0.143954
0.142029
0.139498
0.136369
0.132645
0.128327
0.123413
0.1179
0.111786
0.105066
0.0977371
0.0897992
0.081253
0.0721023
0.0623549
0.0520226
0.0411227
0.0296782
0.0177191
0.00528302
-0.00758361
-0.0208249
-0.0343742
-0.0481538
-0.0620732
-0.0760293
-0.0899051
-0.10357
-0.11688
-0.129678
-0.141794
-0.153048
-0.163254
-0.172221
-0.179757
-0.185678
-0.189812
-0.192003
-0.192124
-0.19008
-0.185817
-0.179327
-0.170653
-0.159892
-0.147194
-0.132764
-0.116854
-0.0997548
-0.0817937
-0.0633193
-0.0446927
-0.0262768
-0.00843996
0.0110297
0.0311414
0.0493517
0.065726
0.0803445
0.0932982
0.104685
0.114606
0.123163
0.130455
0.136578
0.141621
0.145666
0.148789
0.151054
0.15252
0.153235
0.15324
0.152567
0.151243
0.149284
0.146705
0.143514
0.139714
0.135306
0.130289
0.124657
0.118407
0.111534
0.104033
0.0959019
0.0871386
0.0777447
0.067725
0.0570886
0.0458494
0.0340271
0.0216483
0.00874713
-0.00463337
-0.0184404
-0.0326105
-0.0470678
-0.0617239
-0.076476
-0.091207
-0.105784
-0.120059
-0.133868
-0.147032
-0.159362
-0.170654
-0.180701
-0.189289
-0.196211
-0.201267
-0.204275
-0.205077
-0.203551
-0.199616
-0.193242
-0.184453
-0.173334
-0.160034
-0.144758
-0.127769
-0.109379
-0.0899394
-0.0698276
-0.0494376
-0.0291651
-0.00941193
0.0116047
0.0327427
0.0518635
0.0690401
0.0843605
0.0979232
0.109834
0.120202
0.129135
0.136741
0.143122
0.148374
0.152584
0.155834
0.158194
0.159726
0.160483
0.160507
0.159836
0.158496
0.156507
0.153885
0.150638
0.14677
0.142282
0.137172
0.131434
0.125064
0.118056
0.110402
0.102099
0.0931417
0.0835298
0.0732651
0.0623533
0.0508049
0.038636
0.0258694
0.0125353
-0.00132723
-0.0156693
-0.030431
-0.04554
-0.0609104
-0.0764415
-0.0920165
-0.107502
-0.122747
-0.137584
-0.151825
-0.165271
-0.177704
-0.188897
-0.198619
-0.206634
-0.212715
-0.216649
-0.218247
-0.217354
-0.213856
-0.207697
-0.198877
-0.187466
-0.173603
-0.157495
-0.139414
-0.11969
-0.0986995
-0.0768521
-0.0545763
-0.032304
-0.0104728
0.0121738
0.0343293
0.0543542
0.0723284
0.0883469
0.102516
0.114947
0.125759
0.135066
0.142982
0.149618
0.155074
0.159447
0.16282
0.165272
0.166867
0.167662
0.167705
0.167034
0.16568
0.163663
0.161001
0.157703
0.153774
0.149214
0.144022
0.138192
0.131717
0.12459
0.116803
0.108349
0.0992227
0.0894194
0.0789383
0.0677818
0.0559569
0.0434757
0.030357
0.0166265
0.00231889
-0.0125215
-0.0278393
-0.0435664
-0.0596206
-0.0759043
-0.0923031
-0.108684
-0.124896
-0.140766
-0.156103
-0.170695
-0.184315
-0.196717
-0.207648
-0.216848
-0.224059
-0.229034
-0.23155
-0.231412
-0.228474
-0.222643
-0.213892
-0.202269
-0.187899
-0.170985
-0.151807
-0.130712
-0.108103
-0.0844211
-0.0601335
-0.0357108
-0.0116294
0.0127354
0.035897
0.0568171
0.0755821
0.0922932
0.107063
0.120011
0.131262
0.140937
0.14916
0.156045
0.161701
0.166229
0.169721
0.172259
0.173912
0.174742
0.174801
0.174129
0.172758
0.170715
0.168015
0.164669
0.160685
0.156061
0.150797
0.144886
0.13832
0.131092
0.123191
0.114609
0.105338
0.0953702
0.0847025
0.0733338
0.0612672
0.0485109
0.0350791
0.020993
0.00628211
-0.00901428
-0.0248459
-0.04115
-0.0578492
-0.0748504
-0.0920426
-0.109296
-0.126458
-0.143357
-0.159796
-0.175557
-0.1904
-0.204064
-0.216275
-0.226747
-0.23519
-0.241324
-0.244885
-0.245637
-0.243393
-0.238018
-0.229452
-0.217713
-0.202906
-0.185228
-0.164961
-0.142468
-0.118176
-0.0925624
-0.066134
-0.0394033
-0.0128888
0.013288
0.0374419
0.0592465
0.0787936
0.0961899
0.111554
0.125013
0.136696
0.146734
0.155255
0.162382
0.16823
0.172907
0.176511
0.179127
0.180832
0.181692
0.181761
0.181083
0.179695
0.177623
0.174885
0.171495
0.167459
0.162779
0.157451
0.15147
0.144828
0.137514
0.129519
0.12083
0.111439
0.101335
0.0905113
0.0789641
0.0666925
0.0537005
0.0399977
0.0256003
0.0105325
-0.0051721
-0.0214692
-0.038302
-0.0555992
-0.0732733
-0.0912184
-0.109308
-0.127395
-0.145305
-0.162841
-0.17978
-0.19587
-0.210839
-0.224392
-0.236217
-0.245994
-0.253404
-0.258141
-0.259926
-0.25852
-0.253745
-0.245496
-0.233755
-0.218602
-0.200217
-0.178883
-0.154974
-0.128943
-0.101303
-0.0726022
-0.0433994
-0.0142584
0.0138305
0.0389609
0.0616375
0.0819564
0.100029
0.115979
0.12994
0.142047
0.152439
0.16125
0.168609
0.174641
0.179457
0.183162
0.185848
0.187597
0.188478
0.18855
0.187861
0.186451
0.184347
0.181571
0.178137
0.174053
0.16932
0.163936
0.157896
0.151189
0.143806
0.135734
0.126961
0.117474
0.107262
0.0963138
0.0846227
0.0721842
0.058998
0.0450688
0.0304078
0.0150334
-0.0010269
-0.0177353
-0.0350417
-0.0528819
-0.0711753
-0.0898227
-0.108704
-0.127675
-0.146566
-0.16518
-0.183291
-0.200641
-0.216945
-0.23189
-0.24514
-0.256346
-0.265147
-0.271195
-0.274159
-0.273748
-0.269729
-0.261947
-0.250339
-0.234949
-0.215935
-0.193573
-0.168244
-0.140426
-0.110668
-0.0795624
-0.0477174
-0.0157457
0.0143619
0.0404516
0.0639866
0.0850655
0.103804
0.12033
0.134783
0.147304
0.158038
0.167128
0.174709
0.180911
0.185854
0.189649
0.192393
0.194174
0.195066
0.195133
0.194425
0.192986
0.190846
0.188029
0.18455
0.180419
0.175637
0.170204
0.164112
0.157353
0.149915
0.141785
0.132948
0.12339
0.113097
0.102056
0.0902561
0.0776897
0.064352
0.0502431
0.0353687
0.0197415
0.00338227
-0.013678