#           y            Uy
         0.05             0
         0.05     0.0154281
         0.05     0.0308561
         0.05     0.0462842
         0.05     0.0617122
         0.05      0.076923
         0.05     0.0880067
         0.05     0.0990903
         0.05      0.110174
         0.05      0.121258
         0.05      0.131892
         0.05      0.138479
         0.05      0.145067
         0.05      0.151654
         0.05      0.158241
         0.05      0.164216
         0.05      0.166717
         0.05      0.169218
         0.05      0.171719
         0.05       0.17422
         0.05      0.176037
         0.05      0.175122
         0.05      0.174207
         0.05      0.173291
         0.05      0.172376
         0.05      0.170785
         0.05      0.167169
         0.05      0.163552
         0.05      0.159936
         0.05       0.15632
         0.05       0.15209
         0.05      0.146431
         0.05      0.140771
         0.05      0.135112
         0.05      0.129453
         0.05      0.123275
         0.05      0.116135
         0.05      0.108996
         0.05      0.101856
         0.05     0.0947167
         0.05     0.0871733
         0.05     0.0790242
         0.05     0.0708751
         0.05      0.062726
         0.05     0.0545768
         0.05     0.0461569
         0.05      0.037406
         0.05     0.0286551
         0.05     0.0199042
         0.05     0.0111533
         0.05    0.00229596
         0.05   -0.00666784
         0.05    -0.0156316
         0.05    -0.0245955
         0.05    -0.0335593
         0.05    -0.0424087
         0.05    -0.0511645
         0.05    -0.0599202
         0.05     -0.068676
         0.05    -0.0774318
         0.05    -0.0857604
         0.05    -0.0938042
         0.05     -0.101848
         0.05     -0.109892
         0.05     -0.117935
         0.05     -0.125107
         0.05      -0.13181
         0.05     -0.138512
         0.05     -0.145214
         0.05     -0.151917
         0.05     -0.157139
         0.05     -0.161727
         0.05     -0.166315
         0.05     -0.170904
         0.05     -0.175492
         0.05     -0.177828
         0.05     -0.179413
         0.05     -0.180998
         0.05     -0.182583
         0.05     -0.184169
         0.05     -0.182627
         0.05     -0.180303
         0.05      -0.17798
         0.05     -0.175656
         0.05     -0.173332
         0.05     -0.167064
         0.05     -0.160099
         0.05     -0.153135
         0.05      -0.14617
         0.05     -0.139206
         0.05     -0.127848
         0.05     -0.116002
         0.05     -0.104156
         0.05    -0.0923103
         0.05    -0.0804643
         0.05    -0.0645431
         0.05    -0.0484073
         0.05    -0.0322715
         0.05    -0.0161358
         0.05             0