/*--------------------------------*- C++ -*----------------------------------*\
  =========                 |
  \\      /  F ield         | OpenFOAM: The Open Source CFD Toolbox
   \\    /   O peration     | Website:  https://openfoam.org
    \\  /    A nd           | Version:  dev
     \\/     M anipulation  |
\*---------------------------------------------------------------------------*/
FoamFile
{
    format      ascii;
    class       volScalarField;
    location    "40.5";
    object      p;
}
// * * * * * * * * * * * * * * * * * * * * * * * * * * * * * * * * * * * * * //

dimensions      [0 2 -2 0 0 0 0];

internalField   nonuniform List<scalar> 
5184
(
1.64146e-06
-9.74858e-06
-9.55802e-05
-0.000248485
-0.00044795
-0.000676686
-0.000920453
-0.00116727
-0.00140801
-0.0016355
-0.00184434
-0.0020305
-0.00219104
-0.00232387
-0.0024275
-0.00250094
-0.00254351
-0.00255477
-0.00253445
-0.00248238
-0.00239847
-0.00228271
-0.00213514
-0.0019559
-0.00174523
-0.0015035
-0.00123126
-0.00092926
-0.000598483
-0.000240204
0.000143992
0.000552178
0.000982061
0.00143097
0.00189583
0.00237322
0.00285929
0.0033499
0.00384055
0.00432651
0.00480284
0.00526445
0.00570623
0.00612308
0.00651006
0.00686245
0.00717588
0.00744643
0.00767072
0.00784602
0.00797032
0.00804241
0.00806195
0.0080295
0.00794656
0.00781558
0.00763996
0.007424
0.00717292
0.00689279
0.00659047
0.00627356
0.00595038
0.0056299
0.00532166
0.00503577
0.00478271
0.00457312
0.00441695
0.00432267
0.00429576
0.00432309
1.53283e-05
2.90758e-06
-7.16787e-05
-0.000199474
-0.000364779
-0.000555112
-0.000759541
-0.000968458
-0.00117394
-0.00136959
-0.00155036
-0.00171234
-0.00185257
-0.00196881
-0.00205941
-0.00212319
-0.00215929
-0.00216709
-0.00214617
-0.00209625
-0.00201715
-0.00190877
-0.00177113
-0.00160434
-0.00140861
-0.00118432
-0.000931977
-0.000652328
-0.000346327
-1.51922e-05
0.000339571
0.000716144
0.00111238
0.00152578
0.0019535
0.00239237
0.00283886
0.00328916
0.00373915
0.00418453
0.00462079
0.00504332
0.00544749
0.00582871
0.00618252
0.00650469
0.00679132
0.00703893
0.00724453
0.00740574
0.00752083
0.00758881
0.00760949
0.00758349
0.00751229
0.00739822
0.00724445
0.00705501
0.0068347
0.00658906
0.00632435
0.00604745
0.0057658
0.00548733
0.00522035
0.00497342
0.00475523
0.00457416
0.00443749
0.00435118
0.00432263
0.00435026
0.000102087
7.73833e-05
2.03634e-06
-0.000115538
-0.000263296
-0.000431596
-0.000611727
-0.000795852
-0.000977272
-0.00115043
-0.0013108
-0.00145482
-0.00157966
-0.00168315
-0.00176366
-0.00181993
-0.00185103
-0.0018563
-0.00183521
-0.00178741
-0.00171266
-0.00161082
-0.00148185
-0.00132581
-0.00114288
-0.000933395
-0.000697841
-0.000436897
-0.000151462
0.000157322
0.000488043
0.000838997
0.00120818
0.00159325
0.00199156
0.00240015
0.00281574
0.00323478
0.00365345
0.00406774
0.00447348
0.0048664
0.0052422
0.00559665
0.00592562
0.00622523
0.00649188
0.00672239
0.00691402
0.00706462
0.00717266
0.00723728
0.00725837
0.00723657
0.00717334
0.0070709
0.00693226
0.00676121
0.00656224
0.00634049
0.00610174
0.00585228
0.00559888
0.00534866
0.00510899
0.00488732
0.00469116
0.00452753
0.00440248
0.00432124
0.00429345
0.0043241
0.000257187
0.000205782
0.000117964
-1.01972e-06
-0.000143499
-0.000301692
-0.000468472
-0.000637468
-0.000803139
-0.000960797
-0.00110657
-0.00123731
-0.00135053
-0.00144426
-0.00151696
-0.00156745
-0.00159484
-0.00159842
-0.00157768
-0.00153222
-0.00146176
-0.0013661
-0.00124516
-0.00109895
-0.000927603
-0.000731384
-0.000510715
-0.000266202
1.3412e-06
0.00029087
0.00060108
0.000930395
0.00127694
0.00163855
0.00201273
0.00239672
0.00278742
0.00318151
0.00357539
0.00396528
0.00434726
0.00471728
0.0050713
0.00540531
0.00571542
0.00599796
0.00624954
0.00646714
0.00664821
0.00679072
0.00689324
0.006955
0.00697592
0.00695665
0.00689858
0.00680387
0.00667539
0.00651672
0.0063321
0.00612637
0.00590493
0.00567361
0.00543863
0.00520647
0.0049838
0.0047773
0.00459357
0.00443889
0.0043187
0.00423805
0.00420701
0.00423228
0.000462005
0.000373397
0.000264784
0.000137057
-7.33513e-06
-0.000162225
-0.000321841
-0.000481181
-0.000635835
-0.000782003
-0.000916502
-0.00103672
-0.00114055
-0.00122629
-0.00129263
-0.0013385
-0.00136307
-0.00136571
-0.00134589
-0.00130321
-0.00123735
-0.00114809
-0.00103528
-0.000898885
-0.000738962
-0.0005557
-0.000349438
-0.000120686
0.000129845
0.000401224
0.000692274
0.00100155
0.00132733
0.0016676
0.00202004
0.00238205
0.00275074
0.00312294
0.00349527
0.00386413
0.00422578
0.00457638
0.00491206
0.00522897
0.0055234
0.00579182
0.00603097
0.00623797
0.00641035
0.00654616
0.00664404
0.00670324
0.00672369
0.00670602
0.00665157
0.00656241
0.00644128
0.00629159
0.00611737
0.00592319
0.0057141
0.00549556
0.00527332
0.00505333
0.00484164
0.0046443
0.0044672
0.00431596
0.00419557
0.00411077
0.00407037
0.00408023
0.000700387
0.000568351
0.000433167
0.000291101
0.000139142
-1.79369e-05
-0.00017553
-0.000329895
-0.000477695
-0.000616006
-0.000742353
-0.000854689
-0.000951342
-0.00103096
-0.00109246
-0.00113496
-0.00115777
-0.0011603
-0.00114207
-0.0011027
-0.00104184
-0.000959241
-0.000854704
-0.000728118
-0.000579467
-0.000408848
-0.000216501
-2.82552e-06
0.000231588
0.000485937
0.000759182
0.00105002
0.00135689
0.00167792
0.00201097
0.00235358
0.00270303
0.00305634
0.00341025
0.00376134
0.004106
0.00444054
0.00476121
0.00506427
0.00534612
0.00560331
0.00583266
0.00603134
0.00619693
0.00632751
0.00642172
0.00647881
0.00649869
0.00648194
0.00642983
0.00634435
0.00622812
0.00608441
0.00591704
0.00573038
0.00552919
0.0053186
0.00510396
0.0048908
0.00468466
0.00449104
0.00431527
0.0041624
0.004037
0.00394346
0.00388827
0.00387522
0.000958547
0.000779766
0.000614205
0.000453637
0.000289689
0.00012597
-3.39002e-05
-0.00018732
-0.000331956
-0.00046572
-0.000586838
-0.000693841
-0.00078552
-0.000860892
-0.000919154
-0.000959645
-0.00098181
-0.000985173
-0.000969313
-0.000933855
-0.000878464
-0.000802842
-0.000706744
-0.000589984
-0.000452459
-0.000294166
-0.000115229
8.40738e-05
0.000303287
0.000541749
0.000798566
0.00107259
0.00136241
0.00166631
0.00198231
0.0023081
0.0026411
0.00297846
0.00331708
0.00365362
0.00398461
0.00430643
0.0046154
0.00490786
0.00518024
0.00542913
0.00565135
0.00584409
0.0060049
0.00613184
0.00622352
0.00627915
0.00629857
0.00628231
0.00623156
0.0061482
0.00603475
0.00589434
0.00573066
0.00554786
0.00535049
0.00514341
0.00493167
0.00472042
0.00451482
0.00431993
0.00414061
0.00398142
0.0038466
0.00374019
0.00366588
0.00362489
0.00122436
0.000997497
0.000799301
0.000617373
0.00043823
0.000264512
9.90074e-05
-5.67131e-05
-0.000201241
-0.000333278
-0.00045173
-0.000555696
-0.00064444
-0.00071736
-0.000773955
-0.000813795
-0.000836495
-0.000841693
-0.000829042
-0.000798197
-0.000748819
-0.000680582
-0.000593183
-0.000486359
-0.00035991
-0.000213722
-4.77951e-05
0.00013773
0.000342542
0.000566129
0.000807755
0.00106643
0.00134089
0.0016296
0.00193069
0.00224202
0.00256113
0.0028853
0.00321151
0.00353653
0.00385694
0.00416918
0.0044696
0.00475455
0.00502046
0.00526388
0.00548161
0.00567077
0.00582886
0.00595387
0.00604433
0.00609935
0.0061187
0.00610281
0.00605278
0.0059704
0.00585806
0.00571879
0.00555613
0.00537409
0.00517703
0.00496962
0.00475666
0.00454303
0.00433358
0.00413302
0.00394583
0.00377619
0.00362811
0.00350532
0.00340854
0.00333638
0.00148755
0.00121239
0.00098039
0.00077527
0.000578708
0.000392539
0.000218845
5.82666e-05
-8.86405e-05
-0.000221319
-0.000339317
-0.000442289
-0.000529963
-0.00060212
-0.000658566
-0.000699108
-0.000723539
-0.000731624
-0.00072309
-0.000697629
-0.0006549
-0.000594544
-0.000516199
-0.000419519
-0.0003042
-0.000170007
-1.68036e-05
0.000155415
0.000346491
0.000556075
0.000783592
0.00102822
0.00128885
0.00156409
0.00185224
0.00215128
0.00245887
0.00277238
0.00308888
0.0034052
0.00371796
0.0040236
0.00431848
0.0045989
0.00486125
0.00510201
0.00531788
0.00550589
0.00566343
0.00578836
0.00587909
0.00593461
0.00595457
0.00593928
0.00588972
0.00580757
0.00569513
0.0055553
0.00539151
0.00520764
0.00500793
0.00479688
0.00457913
0.00435937
0.0041422
0.00393211
0.00373328
0.0035496
0.00338493
0.00324281
0.00312106
0.00301573
0.00173914
0.00141618
0.00114997
0.000920595
0.000705151
0.000504797
0.00032101
0.000153585
2.29283e-06
-0.000132998
-0.000252446
-0.000356233
-0.000444537
-0.000517513
-0.000575267
-0.000617846
-0.000645221
-0.00065728
-0.000653828
-0.000634591
-0.000599227
-0.00054734
-0.000478502
-0.000392276
-0.000288247
-0.000166051
-2.54055e-05
0.00013385
0.000311722
0.000508031
0.000722374
0.000954092
0.00120225
0.0014656
0.00174259
0.00203133
0.00232958
0.00263479
0.00294412
0.00325441
0.0035623
0.00386422
0.00415648
0.00443531
0.004697
0.00493792
0.00515464
0.00534403
0.00550333
0.00563023
0.00572296
0.00578037
0.00580194
0.00578782
0.00573888
0.00565665
0.00554331
0.00540168
0.00523507
0.00504727
0.00484243
0.00462493
0.0043993
0.00417011
0.00394184
0.0037188
0.003505
0.00330412
0.00312
0.00295609
0.00280744
0.00266771
0.00197119
0.00160137
0.00130107
0.00104694
0.000811736
0.000596033
0.000400778
0.000224993
6.77237e-05
-7.18062e-05
-0.000194327
-0.000300523
-0.000390999
-0.000466267
-0.000526726
-0.000572651
-0.000604185
-0.000621337
-0.000623984
-0.000611882
-0.00058468
-0.00054194
-0.000483161
-0.000407811
-0.000315351
-0.000205279
-7.7159e-05
6.93364e-05
0.000234389
0.000417995
0.000619932
0.000839716
0.00107658
0.00132944
0.00159687
0.00187711
0.00216803
0.00246716
0.00277169
0.00307851
0.00338421
0.0036852
0.0039777
0.00425786
0.00452182
0.00476579
0.00498616
0.00517961
0.00534317
0.00547431
0.00557107
0.00563207
0.00565659
0.00564461
0.00559682
0.00551461
0.00540004
0.0052558
0.00508514
0.00489177
0.00467975
0.00445343
0.00421729
0.00397582
0.00373346
0.00349445
0.00326271
0.00304183
0.00283575
0.00264794
0.00247086
0.00229593
0.00217655
0.00176107
0.00142717
0.00114821
0.000892813
0.000661046
0.000453376
0.000268109
0.000103615
-4.14841e-05
-0.000168458
-0.000278461
-0.000372504
-0.000451437
-0.000515934
-0.000566487
-0.0006034
-0.000626792
-0.000636604
-0.000632613
-0.000614453
-0.000581636
-0.00053358
-0.000469645
-0.000389163
-0.000291482
-0.000176003
-4.22209e-05
0.000110229
0.000281532
0.000471652
0.000680291
0.000906855
0.00115042
0.00140971
0.00168309
0.00196853
0.00226362
0.00256559
0.00287134
0.00317745
0.00348023
0.00377583
0.00406024
0.00432943
0.00457943
0.00480641
0.00500679
0.00517734
0.00531529
0.00541839
0.00548503
0.00551423
0.00550575
0.00546008
0.00537843
0.00526273
0.00511556
0.00494006
0.0047399
0.00451912
0.00428203
0.00403311
0.00377689
0.00351781
0.00326014
0.00300783
0.00276445
0.00253415
0.00232059
0.00211373
0.00190292
0.00234866
0.0018889
0.00152213
0.00121858
0.000942912
0.000694713
0.00047402
0.000278467
0.000105787
-4.59634e-05
-0.00017856
-0.000293602
-0.000392479
-0.000476359
-0.000546172
-0.000602611
-0.000646125
-0.000676932
-0.000695026
-0.000700195
-0.000692047
-0.000670031
-0.000633478
-0.000581628
-0.000513676
-0.000428808
-0.000326249
-0.00020531
-6.54279e-05
9.37798e-05
0.000272475
0.000470554
0.000687606
0.000922879
0.00117525
0.0014432
0.00172481
0.00201774
0.00231926
0.00262625
0.00293526
0.00324252
0.00354404
0.00383566
0.00411315
0.00437229
0.00460899
0.00481938
0.00499994
0.00514756
0.00525969
0.00533439
0.00537041
0.00536724
0.00532511
0.00524504
0.00512878
0.00497878
0.00479812
0.00459041
0.00435967
0.00411026
0.0038467
0.0035736
0.0032955
0.00301677
0.00274148
0.00247332
0.00221673
0.00197567
0.00173777
0.00149036
0.00248144
0.00197889
0.00158019
0.00125252
0.000956743
0.000692016
0.000457958
0.000251566
6.99702e-05
-8.93104e-05
-0.000228528
-0.000349699
-0.000454569
-0.000544601
-0.000620962
-0.000684526
-0.000735874
-0.000775306
-0.000802854
-0.000818307
-0.000821233
-0.000811011
-0.000786868
-0.000747918
-0.000693204
-0.00062174
-0.000532567
-0.000424793
-0.00029765
-0.000150544
1.6898e-05
0.000204778
0.000412882
0.000640638
0.000887084
0.00115084
0.00143009
0.00172257
0.00202558
0.00233601
0.00265034
0.00296471
0.00327499
0.00357683
0.00386577
0.00413731
0.00438706
0.00461081
0.00480467
0.00496518
0.0050894
0.00517504
0.00522048
0.00522488
0.0051882
0.0051112
0.00499545
0.00484324
0.00465755
0.00444195
0.0042005
0.0039376
0.00365789
0.00336609
0.00306694
0.002765
0.00246453
0.00216945
0.00188461
0.00161435
0.00134406
0.00105914
0.00256917
0.00202544
0.00159586
0.00124471
0.000929202
0.000648056
0.000400498
0.000182913
-8.1467e-06
-0.000175672
-0.000322369
-0.000450645
-0.000562581
-0.00065991
-0.000744017
-0.000815938
-0.000876369
-0.000925676
-0.000963915
-0.000990859
-0.00100603
-0.00100871
-0.000998028
-0.00097295
-0.000932356
-0.000875078
-0.000799957
-0.000705889
-0.000591884
-0.000457124
-0.000301008
-0.000123214
7.62532e-05
0.00029702
0.0005383
0.000798861
0.00107701
0.00137056
0.00167686
0.00199277
0.00231475
0.00263883
0.00296071
0.00327584
0.00357949
0.00386686
0.00413321
0.00437394
0.00458476
0.00476176
0.00490157
0.00500146
0.0050594
0.00507418
0.00504539
0.0049735
0.00485984
0.00470653
0.00451644
0.0042931
0.0040406
0.00376343
0.00346639
0.00315439
0.00283242
0.00250532
0.00217763
0.00185358
0.00153854
0.00123736
0.000933223
0.000609605
0.00260644
0.0020232
0.00156392
0.00119008
0.000855365
0.000558072
0.000297039
6.80601e-05
-0.00013287
-0.00030923
-0.000464156
-0.000600427
-0.000720434
-0.000826163
-0.000919195
-0.00100071
-0.0010715
-0.00113198
-0.00118222
-0.00122196
-0.00125064
-0.00126748
-0.00127146
-0.0012614
-0.001236
-0.0011939
-0.00113372
-0.00105414
-0.000953929
-0.000832021
-0.000687578
-0.000520037
-0.000329173
-0.000115145
0.000121455
0.000379566
0.000657623
0.000953547
0.00126473
0.00158806
0.00191991
0.00225622
0.00259254
0.00292408
0.00324582
0.00355264
0.00383939
0.00410104
0.00433281
0.00453033
0.0046897
0.00480768
0.00488177
0.00491028
0.0048924
0.00482824
0.00471883
0.00456608
0.00437274
0.0041423
0.00387886
0.00358705
0.00327184
0.00293843
0.0025921
0.00223806
0.00188122
0.00152622
0.00117904
0.000845124
0.000505457
0.000141594
0.00258809
0.00196712
0.00147943
0.00108379
0.000730504
0.000417456
0.000143095
-9.73643e-05
-0.000308464
-0.000494153
-0.000657977
-0.000803069
-0.00093211
-0.00104732
-0.00115045
-0.00124281
-0.00132527
-0.00139829
-0.00146191
-0.00151585
-0.00155946
-0.00159186
-0.00161187
-0.00161816
-0.00160924
-0.00158353
-0.00153944
-0.00147539
-0.0013899
-0.00128164
-0.00114952
-0.000992711
-0.000810731
-0.000603502
-0.000371398
-0.000115288
0.000163425
0.000462778
0.00078024
0.00111271
0.00145653
0.00180754
0.00216111
0.00251222
0.00285556
0.00318561
0.00349681
0.00378363
0.00404077
0.00426328
0.00444669
0.00458716
0.00468163
0.00472785
0.00472453
0.00467135
0.00456898
0.00441908
0.00422422
0.00398782
0.00371404
0.00340763
0.0030738
0.00271806
0.00234607
0.00196347
0.00157565
0.00118773
0.000806398
0.000437794
6.06789e-05
-0.000345377
0.00250923
0.00185239
0.00133767
0.000921202
0.000550088
0.000221772
-6.56804e-05
-0.000317619
-0.000539109
-0.000734553
-0.000907892
-0.00106259
-0.0012016
-0.00132735
-0.00144177
-0.00154626
-0.00164176
-0.00172874
-0.00180723
-0.00187688
-0.00193697
-0.00198647
-0.00202407
-0.00204825
-0.00205732
-0.00204948
-0.00202288
-0.00197569
-0.00190616
-0.00181269
-0.00169388
-0.00154862
-0.00137615
-0.00117613
-0.000948684
-0.000694455
-0.000414658
-0.000111107
0.000213765
0.000556899
0.000914623
0.00128268
0.00165628
0.00203015
0.00239867
0.00275593
0.00309588
0.00341246
0.00369978
0.00395224
0.00416471
0.00433268
0.0044524
0.00452101
0.00453661
0.00449836
0.00440652
0.0042624
0.00406837
0.00382776
0.00354476
0.00322426
0.00287173
0.00249305
0.00209432
0.00168172
0.00126116
0.000838342
0.000420776
1.53777e-05
-0.000401394
-0.000852029
0.00236519
0.00167445
0.00113415
0.000697931
0.000309798
-3.32248e-05
-0.000333463
-0.000596819
-0.000828867
-0.00103445
-0.00121788
-0.00138295
-0.00153285
-0.00167023
-0.00179713
-0.00191508
-0.00202504
-0.00212749
-0.00222244
-0.00230945
-0.0023877
-0.00245603
-0.00251297
-0.0025568
-0.00258561
-0.00259738
-0.00258998
-0.0025613
-0.00250931
-0.00243209
-0.00232794
-0.00219543
-0.0020335
-0.00184149
-0.00161925
-0.00136716
-0.00108621
-0.000778025
-0.000444912
-8.98503e-05
0.000283493
0.000670793
0.0010671
0.00146692
0.00186429
0.00225287
0.00262612
0.00297739
0.00330012
0.003588
0.00383514
0.00403625
0.00418681
0.0042832
0.00432284
0.00430426
0.0042272
0.00409255
0.00390242
0.00366
0.00336947
0.0030359
0.00266503
0.00226315
0.00183687
0.00139296
0.000937968
0.000478271
2.22817e-05
-0.000422205
-0.000881147
-0.00137921
0.00215155
0.00142901
0.000864674
0.000409825
5.54918e-06
-0.000351565
-0.000664235
-0.000938905
-0.00118164
-0.00139772
-0.0015918
-0.00176799
-0.00192972
-0.00207982
-0.00222045
-0.00235322
-0.00247914
-0.00259867
-0.00271176
-0.00281791
-0.00291618
-0.00300525
-0.00308348
-0.00314895
-0.00319953
-0.00323291
-0.00324673
-0.00323855
-0.00320604
-0.00314693
-0.00305919
-0.00294105
-0.00279109
-0.00260833
-0.00239227
-0.002143
-0.00186125
-0.00154839
-0.00120657
-0.000838634
-0.000448219
-3.96871e-05
0.000381886
0.000810773
0.00124067
0.00166483
0.00207614
0.00246734
0.00283113
0.0031604
0.00344842
0.00368901
0.00387674
0.00400713
0.00407677
0.00408346
0.00402628
0.00390563
0.00372325
0.00348213
0.00318645
0.00284139
0.00245301
0.00202805
0.00157368
0.00109735
0.000606331
0.000107747
-0.000388963
-0.000875031
-0.00137898
-0.0019278
0.00186417
0.00111201
0.000525273
5.29942e-05
-0.000366496
-0.000737041
-0.00106175
-0.0013476
-0.00160114
-0.00182805
-0.00203336
-0.00222143
-0.00239593
-0.00255986
-0.00271551
-0.00286454
-0.00300798
-0.00314628
-0.00327933
-0.00340653
-0.00352682
-0.00363873
-0.00374043
-0.00382978
-0.0039044
-0.00396174
-0.0039991
-0.00401377
-0.00400304
-0.00396432
-0.00389518
-0.00379347
-0.0036574
-0.00348559
-0.00327718
-0.0030319
-0.00275015
-0.00243303
-0.00208244
-0.00170108
-0.00129248
-0.000860996
-0.000411813
4.91396e-05
0.00051524
0.000979282
0.00143361
0.00187026
0.00228116
0.00265832
0.00299405
0.00328115
0.0035132
0.00368467
0.00379119
0.00382967
0.00379842
0.00369722
0.00352733
0.00329147
0.00299373
0.00263943
0.00223494
0.00178745
0.00130479
0.000795135
0.000266574
-0.000272911
-0.00081275
-0.00134309
-0.00189522
-0.0024986
0.00149916
0.000719705
0.000112286
-0.000376169
-0.0008099
-0.00119318
-0.00152952
-0.0018264
-0.00209085
-0.00232893
-0.00254601
-0.00274674
-0.00293499
-0.00311391
-0.00328591
-0.00345269
-0.0036153
-0.00377415
-0.00392908
-0.00407939
-0.00422388
-0.00436091
-0.00448847
-0.00460418
-0.00470541
-0.00478933
-0.00485293
-0.00489315
-0.00490694
-0.00489129
-0.00484339
-0.00476067
-0.0046409
-0.00448227
-0.0042835
-0.0040439
-0.00376349
-0.00344304
-0.00308412
-0.00268923
-0.00226173
-0.00180594
-0.00132708
-0.000831262
-0.000325404
0.000182846
0.00068525
0.00117313
0.00163757
0.00206961
0.00246048
0.00280189
0.00308621
0.00330676
0.00345803
0.00353586
0.00353764
0.00346236
0.00331069
0.00308497
0.00278914
0.0024286
0.00201
0.00154105
0.00103026
0.000486638
-8.08403e-05
-0.000663234
-0.00124871
-0.00182622
-0.00243003
-0.00309228
0.00105296
0.00024866
-0.000377644
-0.000880969
-0.00132793
-0.00172322
-0.00207075
-0.00237851
-0.00265396
-0.00290356
-0.00313299
-0.00334716
-0.00355016
-0.00374526
-0.00393498
-0.00412106
-0.00430456
-0.00448585
-0.0046647
-0.00484031
-0.00501133
-0.00517597
-0.00533198
-0.00547678
-0.00560747
-0.00572091
-0.00581378
-0.00588265
-0.00592407
-0.00593464
-0.0059111
-0.00585042
-0.00574989
-0.00560723
-0.00542066
-0.00518903
-0.00491189
-0.0045896
-0.00422337
-0.00381538
-0.00336878
-0.00288775
-0.00237753
-0.00184433
-0.00129535
-0.00073865
-0.00018306
0.000362001
0.000886711
0.00138107
0.00183515
0.00223936
0.00258478
0.00286337
0.0030683
0.00319416
0.0032372
0.00319545
0.00306884
0.0028592
0.00257021
0.00220726
0.00177731
0.00128857
0.000750282
0.000172344
-0.000435262
-0.00106253
-0.00169624
-0.00232401
-0.00298333
-0.00370925
0.000522346
-0.000304231
-0.000947542
-0.00146438
-0.00192351
-0.00233007
-0.00268836
-0.00300682
-0.00329337
-0.00355484
-0.00379721
-0.00402563
-0.00424439
-0.0044569
-0.00466575
-0.00487274
-0.00507891
-0.00528461
-0.00548953
-0.00569275
-0.00589279
-0.00608768
-0.00627496
-0.00645182
-0.00661508
-0.00676129
-0.00688678
-0.00698777
-0.00706037
-0.00710076
-0.00710519
-0.00707013
-0.00699235
-0.00686902
-0.00669783
-0.00647707
-0.00620578
-0.0058838
-0.0055119
-0.00509186
-0.00462653
-0.0041199
-0.00357709
-0.00300439
-0.00240922
-0.00180003
-0.0011862
-0.000577931
1.40237e-05
0.00057854
0.00110442
0.00158067
0.00199687
0.00234346
0.00261205
0.00279578
0.00288955
0.00289021
0.00279675
0.0026103
0.00233416
0.00197365
0.00153594
0.00102977
0.000465139
-0.000147072
-0.000795791
-0.00146983
-0.00215442
-0.00283571
-0.00355469
-0.00434957
-9.55292e-05
-0.000941705
-0.00160007
-0.00212901
-0.00259924
-0.00301631
-0.00338488
-0.00371389
-0.00401164
-0.00428532
-0.00454122
-0.00478471
-0.00502026
-0.00525142
-0.00548085
-0.00571039
-0.00594109
-0.00617324
-0.00640646
-0.00663971
-0.00687139
-0.00709933
-0.00732089
-0.00753299
-0.00773219
-0.0079147
-0.00807652
-0.00821346
-0.0083212
-0.00839545
-0.00843194
-0.00842661
-0.00837565
-0.00827564
-0.00812364
-0.00791733
-0.00765514
-0.00733633
-0.00696111
-0.00653078
-0.00604778
-0.0055158
-0.00493978
-0.004326
-0.00368199
-0.00301656
-0.00233964
-0.00166216
-0.000995856
-0.000353038
0.000253721
0.000811905
0.00130941
0.00173493
0.00207834
0.00233104
0.00248633
0.00253963
0.00248874
0.00233392
0.00207788
0.00172576
0.00128487
0.000764448
0.000175286
-0.000470693
-0.00116122
-0.0018838
-0.00262193
-0.00336017
-0.00414328
-0.00501288
-0.000803118
-0.0016661
-0.0023375
-0.00287711
-0.00335733
-0.00378412
-0.00416252
-0.00450189
-0.00481094
-0.00509718
-0.00536719
-0.00562657
-0.00587995
-0.006131
-0.00638248
-0.00663624
-0.00689333
-0.00715402
-0.00741783
-0.00768363
-0.00794967
-0.00821361
-0.00847261
-0.00872333
-0.00896204
-0.00918466
-0.00938681
-0.00956387
-0.0097111
-0.00982368
-0.00989681
-0.00992585
-0.00990636
-0.00983425
-0.00970591
-0.00951833
-0.00926924
-0.0089572
-0.00858179
-0.0081437
-0.00764487
-0.00708855
-0.0064794
-0.00582357
-0.00512865
-0.0044037
-0.00365914
-0.00290663
-0.00215889
-0.00142945
-0.00073235
-8.17706e-05
0.000508342
0.00102472
0.00145523
0.00178929
0.00201828
0.00213592
0.00213852
0.0020252
0.00179791
0.00146141
0.00102304
0.000492495
-0.000118632
-0.000797309
-0.00152996
-0.00230266
-0.00309699
-0.0038957
-0.00474771
-0.00569828
-0.00160243
-0.00247935
-0.00316171
-0.0037105
-0.00419959
-0.0046353
-0.00502304
-0.00537258
-0.00569301
-0.00599216
-0.00627685
-0.00655291
-0.00682514
-0.00709733
-0.0073723
-0.00765195
-0.00793732
-0.00822863
-0.00852536
-0.00882627
-0.00912947
-0.00943245
-0.00973216
-0.010025
-0.010307
-0.0105738
-0.0108205
-0.0110422
-0.0112336
-0.0113894
-0.0115042
-0.0115727
-0.0115899
-0.0115509
-0.0114514
-0.0112875
-0.0110562
-0.0107554
-0.0103837
-0.00994128
-0.00942929
-0.00885049
-0.00820912
-0.00751107
-0.00676388
-0.00597674
-0.0051605
-0.00432749
-0.00349139
-0.00266698
-0.00186983
-0.00111593
-0.000421217
0.00019886
0.000729882
0.00115897
0.00147529
0.0016705
0.00173911
0.00167878
0.00149042
0.00117818
0.000749329
0.000213887
-0.000415739
-0.00112536
-0.0019
-0.00272412
-0.00357722
-0.00444004
-0.00536596
-0.00640421
-0.00249502
-0.00338292
-0.00407412
-0.0046306
-0.00512741
-0.00557122
-0.00596781
-0.00632732
-0.00665919
-0.00697153
-0.00727145
-0.00756495
-0.00785702
-0.00815153
-0.0084514
-0.00875856
-0.00907405
-0.00939808
-0.00973005
-0.0100686
-0.0104118
-0.0107569
-0.0111007
-0.0114393
-0.0117686
-0.0120837
-0.0123794
-0.0126505
-0.012891
-0.0130953
-0.0132572
-0.0133708
-0.0134304
-0.0134302
-0.0133653
-0.0132308
-0.0130229
-0.0127384
-0.0123753
-0.0119328
-0.0114113
-0.0108128
-0.0101411
-0.00940154
-0.00860156
-0.00775036
-0.00685906
-0.00594061
-0.0050096
-0.00408205
-0.00317511
-0.00230665
-0.0014948
-0.000757381
-0.000111383
0.000427699
0.000846444
0.00113407
0.0012829
0.00128876
0.00115119
0.000873475
0.000462567
-7.12698e-05
-0.00071488
-0.00145287
-0.00226876
-0.00314528
-0.00405958
-0.00499017
-0.00599527
-0.00712835
-0.00348194
-0.00437782
-0.00507571
-0.00563836
-0.00614173
-0.00659282
-0.00699773
-0.00736698
-0.0077103
-0.00803611
-0.00835172
-0.00866337
-0.00897616
-0.00929412
-0.00962022
-0.00995644
-0.0103038
-0.0106626
-0.0110321
-0.0114108
-0.0117968
-0.0121871
-0.0125783
-0.0129664
-0.0133468
-0.0137145
-0.014064
-0.0143893
-0.0146843
-0.0149424
-0.0151572
-0.015322
-0.0154301
-0.0154751
-0.0154511
-0.0153524
-0.015174
-0.014912
-0.0145632
-0.0141258
-0.0135993
-0.012985
-0.0122858
-0.0115066
-0.0106543
-0.00973813
-0.00876929
-0.00776121
-0.00672932
-0.00569085
-0.00466453
-0.00367019
-0.00272827
-0.00185922
-0.00108284
-0.000417602
0.000120103
0.000516616
0.000761639
0.000848732
0.000775651
0.000544486
0.000161593
-0.000362699
-0.00101456
-0.00177739
-0.0026331
-0.00356252
-0.00454021
-0.00554222
-0.00663197
-0.00786748
-0.00456373
-0.00546458
-0.006167
-0.00673431
-0.00724306
-0.00770058
-0.00811328
-0.00849197
-0.00884671
-0.00918616
-0.00951787
-0.00984826
-0.0101826
-0.010525
-0.0108785
-0.0112452
-0.0116261
-0.0120215
-0.0124306
-0.012852
-0.0132834
-0.0137219
-0.0141638
-0.014605
-0.0150407
-0.0154653
-0.0158731
-0.0162578
-0.0166125
-0.0169303
-0.017204
-0.0174262
-0.0175894
-0.0176864
-0.0177102
-0.0176542
-0.0175124
-0.0172796
-0.0169516
-0.0165255
-0.0159997
-0.0153744
-0.0146518
-0.0138358
-0.0129329
-0.0119519
-0.0109041
-0.00980321
-0.0086653
-0.00750877
-0.0063539
-0.00522252
-0.00413749
-0.00312206
-0.00219913
-0.00139048
-0.000715903
-0.000192404
0.000166592
0.00035188
0.000358956
0.000188279
-0.00015472
-0.000659897
-0.00131288
-0.00209588
-0.00298913
-0.00397139
-0.00501437
-0.00609136
-0.0072714
-0.00861732
-0.00574041
-0.00664322
-0.00734804
-0.00791848
-0.00843145
-0.00889454
-0.00931444
-0.00970225
-0.0100683
-0.0104215
-0.0107695
-0.0111191
-0.0114756
-0.0118433
-0.0122252
-0.0126237
-0.0130396
-0.0134733
-0.013924
-0.0143901
-0.0148695
-0.0153591
-0.0158549
-0.0163528
-0.0168475
-0.0173333
-0.0178041
-0.0182531
-0.0186731
-0.0190564
-0.0193952
-0.0196813
-0.0199065
-0.0200626
-0.0201416
-0.0201357
-0.020038
-0.0198419
-0.0195421
-0.0191343
-0.0186159
-0.0179857
-0.0172447
-0.0163961
-0.0154456
-0.0144013
-0.0132744
-0.0120786
-0.0108306
-0.00954981
-0.00825794
-0.00697881
-0.00573778
-0.00456103
-0.00347483
-0.00250463
-0.00167403
-0.00100391
-0.000511359
-0.000208938
-0.000103971
-0.000198144
-0.000487385
-0.000962059
-0.00160745
-0.00240465
-0.00333214
-0.00436646
-0.00547622
-0.00663161
-0.00790767
-0.00937238
-0.00701146
-0.00791327
-0.0086184
-0.00919049
-0.00970651
-0.0101743
-0.0106007
-0.0109973
-0.0113744
-0.0117412
-0.0121058
-0.0124748
-0.0128539
-0.0132474
-0.0136587
-0.0140898
-0.0145419
-0.0150153
-0.0155093
-0.0160222
-0.0165519
-0.017095
-0.0176478
-0.0182056
-0.018763
-0.0193142
-0.0198525
-0.0203708
-0.0208613
-0.0213159
-0.021726
-0.0220827
-0.0223768
-0.0225994
-0.0227412
-0.0227935
-0.0227478
-0.0225966
-0.0223331
-0.0219516
-0.021448
-0.0208199
-0.020067
-0.0191913
-0.0181974
-0.0170928
-0.0158879
-0.0145967
-0.0132359
-0.0118259
-0.0103896
-0.00895277
-0.00754332
-0.00619046
-0.00492405
-0.00377349
-0.0027667
-0.00192889
-0.00128148
-0.000841007
-0.000618277
-0.000617736
-0.000837206
-0.00126798
-0.00189528
-0.00269919
-0.00365645
-0.00474124
-0.00591871
-0.00715567
-0.00853356
-0.0101258
-0.0083758
-0.00927378
-0.00997718
-0.0105495
-0.0110674
-0.0115389
-0.0119713
-0.012376
-0.0127638
-0.0131441
-0.0135251
-0.0139136
-0.0143155
-0.0147352
-0.0151761
-0.0156405
-0.0161297
-0.016644
-0.0171826
-0.017744
-0.0183258
-0.0189248
-0.019537
-0.0201577
-0.0207813
-0.0214016
-0.0220117
-0.022604
-0.0231703
-0.0237018
-0.0241893
-0.0246231
-0.0249933
-0.0252897
-0.0255022
-0.0256207
-0.0256356
-0.0255379
-0.0253193
-0.0249727
-0.0244925
-0.0238746
-0.0231173
-0.0222212
-0.0211897
-0.0200291
-0.0187492
-0.0173635
-0.0158888
-0.014346
-0.0127592
-0.0111559
-0.00956648
-0.00802324
-0.00655977
-0.00520976
-0.0040058
-0.00297806
-0.00215288
-0.00155152
-0.00118899
-0.00107324
-0.00120464
-0.00157593
-0.00217266
-0.00297411
-0.0039553
-0.00508792
-0.00633338
-0.00765475
-0.00914025
-0.010869
-0.00983186
-0.0107233
-0.0114231
-0.0119942
-0.0125129
-0.0129872
-0.0134247
-0.013837
-0.014235
-0.0146284
-0.0150253
-0.0154331
-0.0158576
-0.0163034
-0.0167741
-0.0172722
-0.0177989
-0.0183546
-0.0189387
-0.0195497
-0.0201852
-0.0208419
-0.0215158
-0.022202
-0.0228947
-0.0235876
-0.0242733
-0.024944
-0.0255908
-0.0262046
-0.0267754
-0.0272927
-0.0277458
-0.0281234
-0.0284144
-0.0286074
-0.0286915
-0.0286562
-0.0284917
-0.0281893
-0.0277415
-0.0271429
-0.0263898
-0.0254813
-0.0244192
-0.0232086
-0.0218582
-0.0203807
-0.0187928
-0.0171154
-0.0153737
-0.0135967
-0.011817
-0.01007
-0.00839319
-0.00682469
-0.00540221
-0.00416136
-0.00313412
-0.00234723
-0.00182077
-0.00156699
-0.0015896
-0.00188347
-0.00243497
-0.00322287
-0.0042206
-0.00539724
-0.00671018
-0.00811834
-0.00971714
-0.0115916
-0.0113775
-0.01226
-0.0129543
-0.0135229
-0.0140413
-0.0145176
-0.0149593
-0.0153784
-0.0157859
-0.0161915
-0.0166039
-0.0170302
-0.0174767
-0.0179482
-0.0184484
-0.0189798
-0.019544
-0.0201413
-0.0207713
-0.0214325
-0.0221226
-0.0228384
-0.0235755
-0.0243292
-0.0250936
-0.0258619
-0.0266266
-0.0273795
-0.0281113
-0.0288123
-0.0294718
-0.0300787
-0.0306212
-0.0310871
-0.0314642
-0.0317399
-0.0319018
-0.031938
-0.0318369
-0.0315883
-0.0311828
-0.0306131
-0.0298738
-0.028962
-0.0278777
-0.0266246
-0.0252099
-0.0236452
-0.0219466
-0.0201349
-0.0182359
-0.0162797
-0.0143011
-0.0123384
-0.0104329
-0.00862743
-0.00696507
-0.00548742
-0.00423274
-0.0032341
-0.00251755
-0.00210061
-0.00199125
-0.00218728
-0.00267651
-0.00343769
-0.00444278
-0.00565826
-0.0070372
-0.00853396
-0.0102516
-0.0122812
-0.0130102
-0.0138814
-0.0145687
-0.0151337
-0.0156506
-0.0161278
-0.0165729
-0.0169978
-0.0174138
-0.0178308
-0.0182575
-0.0187014
-0.0191689
-0.0196651
-0.0201937
-0.0207577
-0.0213586
-0.0219971
-0.0226728
-0.0233843
-0.0241293
-0.0249046
-0.0257061
-0.0265287