/*--------------------------------*- C++ -*----------------------------------*\
  =========                 |
  \\      /  F ield         | OpenFOAM: The Open Source CFD Toolbox
   \\    /   O peration     | Website:  https://openfoam.org
    \\  /    A nd           | Version:  dev
     \\/     M anipulation  |
\*---------------------------------------------------------------------------*/
FoamFile
{
    format      ascii;
    class       surfaceScalarField;
    location    "40.5";
    object      phi;
}
// * * * * * * * * * * * * * * * * * * * * * * * * * * * * * * * * * * * * * //

dimensions      [0 3 -1 0 0 0 0];

internalField   nonuniform List<scalar> 
10224
(
3.38009e-08
-3.48982e-08
8.78786e-08
-5.40921e-08
1.24466e-07
-3.65861e-08
1.25449e-07
-9.78815e-10
8.38255e-08
4.16242e-08
-1.67481e-09
8.54992e-08
-1.29223e-07
1.27546e-07
-2.95515e-07
1.66292e-07
-4.9649e-07
2.00974e-07
-7.27845e-07
2.31354e-07
-9.85309e-07
2.57463e-07
-1.26479e-06
2.79479e-07
-1.56244e-06
2.97654e-07
-1.87471e-06
3.12273e-07
-2.19833e-06
3.2362e-07
-2.53029e-06
3.31962e-07
-2.86783e-06
3.37535e-07
-3.20837e-06
3.40542e-07
-3.54951e-06
3.41142e-07
-3.88897e-06
3.39458e-07
-4.22454e-06
3.35576e-07
-4.55409e-06
3.29548e-07
-4.87549e-06
3.21399e-07
-5.18662e-06
3.11132e-07
-5.48535e-06
2.98734e-07
-5.76954e-06
2.84186e-07
-6.037e-06
2.67464e-07
-6.28556e-06
2.48552e-07
-6.513e-06
2.27446e-07
-6.71716e-06
2.04159e-07
-6.89589e-06
1.7873e-07
-7.04712e-06
1.51227e-07
-7.16887e-06
1.21751e-07
-7.25932e-06
9.04422e-08
-7.3168e-06
5.74811e-08
-7.33989e-06
2.30905e-08
-7.32743e-06
-1.24637e-08
-7.27855e-06
-4.88729e-08
-7.19276e-06
-8.57879e-08
-7.06994e-06
-1.22821e-07
-6.91039e-06
-1.59552e-07
-6.71486e-06
-1.9553e-07
-6.48457e-06
-2.30287e-07
-6.22124e-06
-2.63337e-07
-5.92704e-06
-2.94195e-07
-5.60467e-06
-3.22377e-07
-5.25725e-06
-3.47417e-07
-4.88837e-06
-3.68877e-07
-4.50202e-06
-3.86354e-07
-4.10252e-06
-3.99495e-07
-3.69452e-06
-4.08003e-07
-3.28287e-06
-4.1165e-07
-2.87259e-06
-4.10279e-07
-2.46878e-06
-4.03815e-07
-2.07651e-06
-3.92267e-07
-1.70078e-06
-3.75733e-07
-1.34638e-06
-3.54397e-07
-1.01785e-06
-3.28534e-07
-7.19347e-07
-2.98505e-07
-4.54588e-07
-2.6476e-07
-2.26752e-07
-2.27837e-07
-3.83845e-08
-1.88369e-07
1.08708e-07
-1.47094e-07
2.13589e-07
-1.04882e-07
2.76373e-07
-6.27846e-08
2.98495e-07
-2.212e-08
2.83135e-07
1.53626e-08
2.35893e-07
4.72438e-08
1.6583e-07
7.00581e-08
8.7246e-08
7.8574e-08
2.25369e-08
6.47079e-08
2.25558e-08
5.39203e-08
-8.88335e-08
1.12481e-07
-1.12649e-07
1.18326e-07
-4.24235e-08
3.90361e-08
7.83132e-08
-1.41801e-07
2.2246e-07
-4.2951e-07
3.73207e-07
-8.22329e-07
5.20364e-07
-1.31411e-06
6.58072e-07
-1.89629e-06
7.83152e-07
-2.55905e-06
8.94114e-07
-3.29211e-06
9.90526e-07
-4.08523e-06
1.07259e-06
-4.92847e-06
1.14089e-06
-5.81239e-06
1.1962e-06
-6.72811e-06
1.23933e-06
-7.66728e-06
1.27114e-06
-8.6221e-06
1.29236e-06
-9.58523e-06
1.30367e-06
-1.05497e-05
1.30562e-06
-1.15089e-05
1.29863e-06
-1.24563e-05
1.28301e-06
-1.33857e-05
1.25898e-06
-1.4291e-05
1.22665e-06
-1.51659e-05
1.18606e-06
-1.60044e-05
1.13723e-06
-1.68003e-05
1.08012e-06
-1.75476e-05
1.0147e-06
-1.824e-05
9.40988e-07
-1.88716e-05
8.59014e-07
-1.94363e-05
7.68897e-07
-1.99284e-05
6.70839e-07
-2.03424e-05
5.65152e-07
-2.06729e-05
4.52269e-07
-2.09152e-05
3.32761e-07
-2.10651e-05
2.07341e-07
-2.11189e-05
7.68742e-08
-2.10737e-05
-5.76237e-08
-2.09276e-05
-1.94987e-07
-2.06795e-05
-3.33908e-07
-2.03293e-05
-4.72949e-07
-1.98783e-05
-6.10555e-07
-1.93288e-05
-7.45081e-07
-1.86843e-05
-8.7481e-07
-1.79496e-05
-9.97985e-07
-1.7131e-05
-1.11284e-06
-1.62357e-05
-1.21764e-06
-1.52724e-05
-1.31071e-06
-1.42508e-05
-1.39046e-06
-1.31817e-05
-1.45548e-06
-1.20767e-05
-1.50449e-06
-1.09483e-05
-1.53644e-06
-9.80938e-06
-1.55053e-06
-8.67344e-06
-1.54622e-06
-7.55401e-06
-1.52325e-06
-6.4646e-06
-1.48168e-06
-5.41844e-06
-1.4219e-06
-4.42824e-06
-1.34459e-06
-3.50596e-06
-1.25081e-06
-2.66255e-06
-1.14192e-06
-1.90768e-06
-1.01962e-06
-1.24956e-06
-8.85964e-07
-6.94565e-07
-7.43362e-07
-2.47011e-07
-5.94648e-07
9.12605e-08
-4.43153e-07
3.21332e-07
-2.92856e-07
4.47806e-07
-1.48596e-07
4.79687e-07
-1.65227e-08
4.31459e-07
9.54664e-08
3.24575e-07
1.76938e-07
1.89059e-07
2.14083e-07
6.43992e-08
1.89366e-07
8.69521e-08
3.73668e-08
-1.26201e-07
4.33819e-08
-1.18656e-07
-4.3195e-08
4.41595e-08
-2.58665e-07
2.93785e-07
-6.22654e-07
5.86448e-07
-1.14228e-06
8.92833e-07
-1.81582e-06
1.1939e-06
-2.6356e-06
1.47786e-06
-3.59027e-06
1.73781e-06
-4.66628e-06
1.97013e-06
-5.84908e-06
2.17332e-06
-7.12376e-06
2.34727e-06
-8.47561e-06
2.49275e-06
-9.89038e-06
2.61097e-06
-1.13545e-05
2.70341e-06
-1.28549e-05
2.77156e-06
-1.43794e-05
2.81685e-06
-1.59162e-05
2.84055e-06
-1.74544e-05
2.84375e-06
-1.8983e-05
2.82728e-06
-2.04918e-05
2.79181e-06
-2.19706e-05
2.73778e-06
-2.34094e-05
2.66547e-06
-2.47984e-05
2.57503e-06
-2.61277e-05
2.46652e-06
-2.73876e-05
2.33997e-06
-2.85682e-05
2.1954e-06
-2.96602e-05
2.03291e-06
-3.06538e-05
1.85267e-06
-3.154e-05
1.65504e-06
-3.23097e-05
1.44053e-06
-3.29544e-05
1.2099e-06
-3.34663e-05
9.64155e-07
-3.38381e-05
7.0458e-07
-3.40636e-05
4.32763e-07
-3.41373e-05
1.506e-07
-3.40552e-05
-1.39705e-07
-3.38145e-05
-4.35644e-07
-3.3414e-05
-7.34421e-07
-3.2854e-05
-1.03298e-06
-3.21365e-05
-1.32803e-06
-3.12655e-05
-1.61611e-06
-3.02467e-05
-1.8936e-06
-2.90879e-05
-2.15684e-06
-2.77986e-05
-2.40214e-06
-2.63903e-05
-2.62587e-06
-2.48765e-05
-2.82456e-06
-2.3272e-05
-2.99493e-06
-2.15935e-05
-3.13402e-06
-1.98587e-05
-3.23921e-06
-1.80868e-05
-3.30836e-06
-1.62976e-05
-3.33978e-06
-1.45114e-05
-3.33239e-06
-1.2749e-05
-3.28569e-06
-1.10308e-05
-3.19984e-06
-9.37706e-06
-3.07565e-06
-7.807e-06
-2.91466e-06
-6.33874e-06
-2.71907e-06
-4.98883e-06
-2.49183e-06
-3.77186e-06
-2.23659e-06
-2.70008e-06
-1.95774e-06
-1.78296e-06
-1.66048e-06
-1.02673e-06
-1.35088e-06
-4.33858e-07
-1.03603e-06
-2.42402e-09
-7.24294e-07
2.74659e-07
-4.25678e-07
4.10466e-07
-1.5232e-07
4.25247e-07
8.0698e-08
3.47645e-07
2.54548e-07
2.15876e-07
3.45848e-07
7.86866e-08
3.26552e-07
1.65627e-07
1.92769e-09
-1.28125e-07
-7.89127e-08
-3.78126e-08
-2.97625e-07
2.62873e-07
-6.87954e-07
6.84114e-07
-1.26823e-06
1.16672e-06
-2.04473e-06
1.66934e-06
-3.01467e-06
2.16383e-06
-4.16879e-06
2.63198e-06
-5.49349e-06
3.06251e-06
-6.97243e-06
3.44907e-06
-8.58777e-06
3.78866e-06
-1.0321e-05
4.08053e-06
-1.21537e-05
4.32539e-06
-1.40675e-05
4.52484e-06
-1.6045e-05
4.6809e-06
-1.80692e-05
4.79578e-06
-2.0124e-05
4.8716e-06
-2.21937e-05
4.91031e-06
-2.42636e-05
4.91359e-06
-2.63191e-05
4.8828e-06
-2.83463e-05
4.81897e-06
-3.03314e-05
4.72288e-06
-3.22609e-05
4.59501e-06
-3.41216e-05
4.4357e-06
-3.59002e-05
4.24512e-06
-3.75836e-05
4.02342e-06
-3.9159e-05
3.77075e-06
-4.06135e-05
3.4874e-06
-4.19346e-05
3.17381e-06
-4.31102e-05
2.83068e-06
-4.41287e-05
2.45904e-06
-4.49791e-05
2.06028e-06
-4.56512e-05
1.63622e-06
-4.61358e-05
1.18916e-06
-4.64249e-05
7.21858e-07
-4.65119e-05
2.37605e-07
-4.63918e-05
-2.59815e-07
-4.60613e-05
-7.66125e-07
-4.55191e-05
-1.27658e-06
-4.47661e-05
-1.78603e-06
-4.38052e-05
-2.28893e-06
-4.26418e-05
-2.77947e-06
-4.12838e-05
-3.25162e-06
-3.97414e-05
-3.69927e-06
-3.80272e-05
-4.11626e-06
-3.61565e-05
-4.49659e-06
-3.41466e-05
-4.83448e-06
-3.2017e-05
-5.12453e-06
-2.97892e-05
-5.36181e-06
-2.74864e-05
-5.54203e-06
-2.51331e-05
-5.66161e-06
-2.27551e-05
-5.71782e-06
-2.03786e-05
-5.70887e-06
-1.80303e-05
-5.63396e-06
-1.57368e-05
-5.49339e-06
-1.35239e-05
-5.28857e-06
-1.14164e-05
-5.02209e-06
-9.43783e-06
-4.69769e-06
-7.60931e-06
-4.32035e-06
-5.94963e-06
-3.89627e-06
-4.47449e-06
-3.43288e-06
-3.196e-06
-2.93897e-06
-2.12213e-06
-2.42475e-06
-1.25607e-06
-1.9021e-06
-5.95551e-07
-1.38481e-06
-1.32141e-07
-8.89092e-07
1.49679e-07
-4.34144e-07
2.73386e-07
-4.30116e-08
2.71458e-07
2.56476e-07
1.86419e-07
4.30891e-07
7.22579e-08
4.40712e-07
2.37879e-07
-4.2045e-08
-8.60791e-08
-2.30038e-07
1.50181e-07
-6.06621e-07
6.39455e-07
-1.1984e-06
1.27589e-06
-2.01912e-06
1.98745e-06
-3.07197e-06
2.72218e-06
-4.35176e-06
3.44363e-06
-5.84706e-06
4.12727e-06
-7.542e-06
4.75745e-06
-9.41777e-06
5.32484e-06
-1.14538e-05
5.82469e-06
-1.36287e-05
6.25541e-06
-1.59208e-05
6.61747e-06
-1.83086e-05
6.91269e-06
-2.07713e-05
7.14361e-06
-2.32886e-05
7.31306e-06
-2.58409e-05
7.42387e-06
-2.84092e-05
7.47867e-06
-3.09754e-05
7.47976e-06
-3.35216e-05
7.42902e-06
-3.60306e-05
7.32795e-06
-3.84854e-05
7.17765e-06
-4.08693e-05
6.97891e-06
-4.31658e-05
6.73227e-06
-4.53588e-05
6.43809e-06
-4.74321e-05
6.09671e-06
-4.93699e-05
5.70852e-06
-5.11566e-05
5.27409e-06
-5.2777e-05
4.79425e-06
-5.42165e-05
4.27021e-06
-5.54612e-05
3.70368e-06
-5.64978e-05
3.09689e-06
-5.73143e-05
2.45272e-06
-5.78998e-05
1.7747e-06
-5.82451e-05
1.06709e-06
-5.83423e-05
3.34883e-07
-5.81859e-05
-4.16214e-07
-5.77723e-05
-1.17978e-06
-5.71001e-05
-1.94873e-06
-5.61708e-05
-2.71538e-06
-5.49882e-05
-3.47154e-06
-5.35591e-05
-4.20859e-06
-5.1893e-05
-4.91766e-06
-5.00026e-05
-5.58972e-06
-4.79031e-05
-6.21574e-06
-4.56128e-05
-6.78689e-06
-4.31526e-05
-7.29471e-06
-4.05458e-05
-7.73128e-06
-3.78182e-05
-8.08938e-06
-3.49975e-05
-8.36273e-06
-3.2113e-05
-8.5461e-06
-2.91954e-05
-8.63551e-06
-2.62759e-05
-8.62832e-06
-2.33865e-05
-8.5234e-06
-2.05587e-05
-8.3212e-06
-1.78234e-05
-8.02385e-06
-1.52103e-05
-7.63516e-06
-1.27473e-05
-7.16073e-06
-1.04597e-05
-6.60794e-06
-8.37002e-06
-5.98598e-06
-6.49698e-06
-5.30591e-06
-4.85522e-06
-4.58074e-06
-3.45444e-06
-3.82553e-06
-2.29887e-06
-3.05767e-06
-1.38656e-06
-2.29713e-06
-7.0863e-07
-1.56702e-06
-2.48606e-07
-8.94167e-07
1.83812e-08
-3.09998e-07
1.264e-07
1.48455e-07
1.19626e-07
4.37673e-07
5.37001e-08
5.06636e-07
2.9158e-07
-8.94461e-08
3.36667e-09
-3.95408e-07
4.56142e-07
-9.45287e-07
1.18933e-06
-1.75568e-06
2.08628e-06
-2.8334e-06
3.06516e-06
-4.17668e-06
4.06547e-06
-5.77668e-06
5.04363e-06
-7.61901e-06
5.9696e-06
-9.68519e-06
6.82363e-06
-1.19539e-05
7.59357e-06
-1.44021e-05
8.27291e-06
-1.70058e-05
8.85911e-06
-1.97407e-05
9.35234e-06
-2.25826e-05
9.75455e-06
-2.55077e-05
1.00687e-05
-2.84928e-05
1.02982e-05
-3.15155e-05
1.04466e-05
-3.45538e-05
1.0517e-05
-3.75866e-05
1.05126e-05
-4.05932e-05
1.04356e-05
-4.35532e-05
1.0288e-05
-4.64469e-05
1.00713e-05
-4.92546e-05
9.78667e-06
-5.19572e-05
9.43484e-06
-5.45356e-05
9.01644e-06
-5.69709e-05
8.53209e-06
-5.92449e-05
7.98249e-06
-6.13394e-05
7.36859e-06
-6.32369e-05
6.69174e-06
-6.49205e-05
5.95384e-06
-6.63742e-05
5.1574e-06
-6.75831e-05
4.3057e-06
-6.85332e-05
3.40288e-06
-6.92125e-05
2.45398e-06
-6.96104e-05
1.46498e-06
-6.97184e-05
4.4286e-07
-6.95301e-05
-6.04434e-07
-6.90419e-05
-1.66802e-06
-6.82525e-05
-2.73814e-06
-6.71636e-05
-3.80424e-06
-6.57801e-05
-4.85508e-06
-6.41098e-05
-5.87891e-06
-6.21638e-05
-6.8636e-06
-5.99567e-05
-7.79685e-06
-5.7506e-05
-8.6664e-06
-5.48327e-05
-9.46023e-06
-5.19606e-05
-1.01668e-05
-4.89164e-05
-1.07755e-05
-4.57295e-05
-1.12763e-05
-4.24313e-05
-1.16609e-05
-3.90555e-05
-1.1922e-05
-3.56367e-05
-1.20543e-05
-3.22109e-05
-1.20541e-05
-2.88143e-05
-1.192e-05
-2.5483e-05
-1.16525e-05
-2.22523e-05
-1.12546e-05
-1.91561e-05
-1.07313e-05
-1.62263e-05
-1.00905e-05
-1.34922e-05
-9.34207e-06
-1.09795e-05
-8.49868e-06
-8.71e-06
-7.5754e-06
-6.70079e-06
-6.58995e-06
-4.96355e-06
-5.56278e-06
-3.50392e-06
-4.51729e-06
-2.32087e-06
-3.48018e-06
-1.40602e-06
-2.48187e-06
-7.43054e-07
-1.55714e-06
-3.07108e-07
-7.45944e-07
-6.41965e-08
-9.44587e-08
2.94652e-08
3.44017e-07
2.83468e-08
5.0775e-07
3.1993e-07
-1.3767e-07
1.41036e-07
-5.66441e-07
8.84912e-07
-1.29779e-06
1.92068e-06
-2.33682e-06
3.12531e-06
-3.68183e-06
4.41018e-06
-5.32477e-06
5.7084e-06
-7.25202e-06
6.97088e-06
-9.44546e-06
8.16305e-06
-1.18835e-05
9.2617e-06
-1.45422e-05
1.02523e-05
-1.7396e-05
1.11267e-05
-2.04184e-05
1.18815e-05
-2.35828e-05
1.25167e-05
-2.68625e-05
1.30342e-05
-3.02313e-05
1.34375e-05
-3.36635e-05
1.37304e-05
-3.71341e-05
1.39172e-05
-4.06187e-05
1.40016e-05
-4.40933e-05
1.39872e-05
-4.75348e-05
1.3877e-05
-5.09202e-05
1.36734e-05
-5.42272e-05
1.33783e-05
-5.74336e-05
1.29931e-05
-6.05176e-05
1.25189e-05
-6.34578e-05
1.19566e-05
-6.62329e-05
1.13073e-05
-6.88223e-05
1.05719e-05
-7.12057e-05
9.75195e-06
-7.33634e-05
8.84944e-06
-7.52766e-05
7.86703e-06
-7.69274e-05
6.80824e-06
-7.82993e-05
5.67756e-06
-7.9377e-05
4.48057e-06
-8.0147e-05
3.224e-06
-8.05978e-05
1.91581e-06
-8.07202e-05
5.65207e-07
-8.05072e-05
-8.17382e-07
-7.99549e-05
-2.22034e-06
-7.90621e-05
-3.63093e-06
-7.78309e-05
-5.03545e-06
-7.62667e-05
-6.41932e-06
-7.43783e-05
-7.76731e-06
-7.21781e-05
-9.06374e-06
-6.96823e-05
-1.02927e-05
-6.69103e-05
-1.14384e-05
-6.38852e-05
-1.24853e-05
-6.06335e-05
-1.34185e-05
-5.71847e-05
-1.42243e-05
-5.35713e-05
-1.48898e-05
-4.9828e-05
-1.54041e-05
-4.59919e-05
-1.5758e-05
-4.21017e-05
-1.59445e-05
-3.8197e-05
-1.59588e-05
-3.43182e-05
-1.57989e-05
-3.05053e-05
-1.54655e-05
-2.67976e-05
-1.49622e-05
-2.3233e-05
-1.42959e-05
-1.98473e-05
-1.34762e-05
-1.66731e-05
-1.25163e-05
-1.37396e-05
-1.14322e-05
-1.10716e-05
-1.02434e-05
-8.68873e-06
-8.97278e-06
-6.60502e-06
-7.64648e-06
-4.82796e-06
-6.29435e-06
-3.35805e-06
-4.9501e-06
-2.18818e-06
-3.65175e-06
-1.30312e-06
-2.4422e-06
-6.79122e-07
-1.36994e-06
-2.83543e-07
-4.90042e-07
-7.44953e-08
1.3497e-07
-5.53318e-10
4.33805e-07
3.19378e-07
-1.85469e-07
3.26504e-07
-7.38244e-07
1.43769e-06
-1.65434e-06
2.83678e-06
-2.92678e-06
4.39775e-06
-4.54448e-06
6.02788e-06
-6.49211e-06
7.65604e-06
-8.75046e-06
9.22922e-06
-1.1297e-05
1.07096e-05
-1.41066e-05
1.20713e-05
-1.71522e-05
1.3298e-05
-2.04058e-05
1.43803e-05
-2.38385e-05
1.53142e-05
-2.74213e-05
1.60995e-05
-3.11254e-05
1.67384e-05
-3.49224e-05
1.72345e-05
-3.87844e-05
1.75925e-05
-4.26842e-05
1.78169e-05
-4.65951e-05
1.79125e-05
-5.0491e-05
1.78831e-05
-5.43463e-05
1.77323e-05
-5.81359e-05
1.7463e-05
-6.18351e-05
1.70775e-05
-6.54196e-05
1.65775e-05
-6.88653e-05
1.59645e-05
-7.21485e-05
1.52399e-05
-7.5246e-05
1.44048e-05
-7.8135e-05
1.34608e-05
-8.07932e-05
1.24101e-05
-8.31991e-05
1.12553e-05
-8.53321e-05
1.00001e-05
-8.71728e-05
8.64894e-06
-8.8703e-05
7.2078e-06
-8.99063e-05
5.68383e-06
-9.0768e-05
4.08566e-06
-9.12755e-05
2.42339e-06
-9.1419e-05
7.08648e-07
-9.11909e-05
-1.04543e-06
-9.0587e-05
-2.82427e-06
-8.9606e-05
-4.61193e-06
-8.82502e-05
-6.39129e-06
-8.65253e-05
-8.14418e-06
-8.4441e-05
-9.85163e-06
-8.20106e-05
-1.14941e-05
-7.92514e-05
-1.30519e-05
-7.61846e-05
-1.45053e-05
-7.28349e-05
-1.58349e-05
-6.9231e-05
-1.70224e-05
-6.54048e-05
-1.80505e-05
-6.13913e-05
-1.89033e-05
-5.72284e-05
-1.95671e-05
-5.29561e-05
-2.00303e-05
-4.86166e-05
-2.0284e-05
-4.4253e-05
-2.03224e-05
-3.99093e-05
-2.01426e-05
-3.56292e-05
-1.97455e-05
-3.14559e-05
-1.91355e-05
-2.7431e-05
-1.83207e-05
-2.3594e-05
-1.73133e-05
-1.99811e-05
-1.61292e-05
-1.66248e-05
-1.47884e-05
-1.35531e-05
-1.33151e-05
-1.07886e-05
-1.17373e-05
-8.34774e-06
-1.00873e-05
-6.24053e-06
-8.40156e-06
-4.46952e-06
-6.7211e-06
-3.02956e-06
-5.09172e-06
-1.90731e-06
-3.56446e-06
-1.08099e-06
-2.19626e-06
-5.20217e-07
-1.05082e-06
-1.86019e-07
-1.99231e-07
-3.10441e-08
2.78829e-07
2.88333e-07
-2.32201e-07
5.58705e-07
-9.08055e-07
2.11354e-06
-2.00895e-06
3.93768e-06
-3.51583e-06
5.90463e-06
-5.40781e-06
7.91986e-06
-7.66174e-06
9.90997e-06
-1.02522e-05
1.18197e-05
-1.31516e-05
1.3609e-05
-1.6331e-05
1.52507e-05
-1.976e-05
1.6727e-05
-2.34078e-05
1.8028e-05
-2.7243e-05
1.91494e-05
-3.12345e-05
2.00911e-05
-3.53515e-05
2.08553e-05
-3.95636e-05
2.14465e-05
-4.38408e-05
2.18697e-05
-4.8154e-05
2.21302e-05
-5.24746e-05
2.22331e-05
-5.67746e-05
2.2183e-05
-6.10263e-05
2.1984e-05
-6.52027e-05
2.16394e-05
-6.92771e-05
2.11519e-05
-7.32231e-05
2.05236e-05
-7.70149e-05
1.97563e-05
-8.06267e-05
1.88517e-05
-8.40335e-05
1.78115e-05
-8.72106e-05
1.66379e-05
-9.0134e-05
1.53335e-05
-9.27805e-05
1.39019e-05
-9.51279e-05
1.23475e-05
-9.71554e-05
1.06764e-05
-9.88434e-05
8.89578e-06
-0.000100174
7.01459e-06
-0.000101132
5.04345e-06
-0.000101703
2.99479e-06
-0.000101877
8.82801e-07
-0.000101646
-1.2765e-06
-0.000101005
-3.46538e-06
-9.99527e-05
-5.66454e-06
-9.84908e-05
-7.85321e-06
-9.66256e-05
-1.00094e-05
-9.4367e-05
-1.21102e-05
-9.17291e-05
-1.4132e-05
-8.87301e-05
-1.60509e-05
-8.53923e-05
-1.78431e-05
-8.17419e-05
-1.94853e-05
-7.78093e-05
-2.09551e-05
-7.36283e-05
-2.22314e-05
-6.92363e-05
-2.32952e-05
-6.46738e-05
-2.41296e-05
-5.99836e-05
-2.47205e-05
-5.52107e-05
-2.50568e-05
-5.04018e-05
-2.51313e-05
-4.56041e-05
-2.49403e-05
-4.08651e-05
-2.44846e-05
-3.62316e-05
-2.3769e-05
-3.17489e-05
-2.28034e-05
-2.74602e-05
-2.1602e-05
-2.34054e-05
-2.0184e-05
-1.96207e-05
-1.85732e-05
-1.61373e-05
-1.67985e-05
-1.2981e-05
-1.48936e-05
-1.01716e-05
-1.28968e-05
-7.72155e-06
-1.08516e-05
-5.63629e-06
-8.80635e-06
-3.91318e-06
-6.81483e-06
-2.5414e-06
-4.93624e-06
-1.5018e-06
-3.23587e-06
-7.66918e-07
-1.7857e-06
-3.01286e-07
-6.64865e-07
-6.20239e-08
3.95664e-08
2.26308e-07
-2.77586e-07
8.3629e-07
-1.07434e-06
2.91029e-06
-2.35797e-06
5.22131e-06
-4.09766e-06
7.64431e-06
-6.26265e-06
1.00849e-05
-8.82167e-06
1.2469e-05
-1.17427e-05
1.47407e-05
-1.49929e-05
1.68592e-05
-1.85388e-05
1.87966e-05
-2.23467e-05
2.05349e-05
-2.63827e-05
2.2064e-05
-3.0613e-05
2.33798e-05
-3.50044e-05
2.44825e-05
-3.9524e-05
2.53749e-05
-4.41395e-05
2.6062e-05
-4.88194e-05
2.65495e-05
-5.35326e-05
2.68434e-05
-5.82489e-05
2.69494e-05
-6.29386e-05
2.68727e-05
-6.75723e-05
2.66178e-05
-7.21213e-05
2.61884e-05
-7.65572e-05
2.55878e-05
-8.08519e-05
2.48183e-05
-8.49778e-05
2.38822e-05
-8.89075e-05
2.27814e-05
-9.26143e-05
2.15183e-05
-9.60719e-05
2.00955e-05
-9.92548e-05
1.85164e-05
-0.000102138
1.67853e-05
-0.000104699
1.49079e-05
-0.000106914
1.28914e-05
-0.000108762
1.07446e-05
-0.000110226
8.47828e-06
-0.000111288
6.10518e-06
-0.000111933
3.64012e-06
-0.00011215
1.10002e-06
-0.000111931
-1.49612e-06
-0.000111269
-4.1273e-06
-0.000110163
-6.77065e-06
-0.000108614
-9.40162e-06
-0.000106629
-1.19942e-05
-0.000104218
-1.45214e-05
-0.000101395
-1.69552e-05
-9.81785e-05
-1.92674e-05
-9.45918e-05
-2.14299e-05
-9.06622e-05
-2.34149e-05
-8.64214e-05
-2.51959e-05
-8.19049e-05
-2.67479e-05
-7.71521e-05
-2.80481e-05
-7.22056e-05
-2.90762e-05
-6.71108e-05
-2.98152e-05
-6.19157e-05
-3.02519e-05
-5.66699e-05
-3.03771e-05
-5.14241e-05
-3.01862e-05
-4.62292e-05
-2.96794e-05
-4.11358e-05
-2.88625e-05
-3.6193e-05
-2.77462e-05
-3.14478e-05
-2.63472e-05
-2.69441e-05
-2.46877e-05
-2.27218e-05
-2.27955e-05
-1.8816e-05
-2.07044e-05
-1.52561e-05
-1.84535e-05
-1.20652e-05
-1.60877e-05
-9.25942e-06
-1.36574e-05
-6.84712e-06
-1.12186e-05
-4.82883e-06
-8.83311e-06
-3.19681e-06
-6.56826e-06
-1.93504e-06
-4.49764e-06
-1.01941e-06
-2.70134e-06
-4.18185e-07
-1.26609e-06
-9.29385e-08
-2.8568e-07
1.33369e-07
-3.21512e-07
1.1578e-06
-1.23624e-06
3.82502e-06
-2.69916e-06
6.68423e-06
-4.66814e-06
9.61329e-06
-7.10271e-06
1.25194e-05
-9.96339e-06
1.53297e-05
-1.32114e-05
1.79886e-05
-1.68082e-05
2.04561e-05
-2.0716e-05
2.27044e-05
-2.48972e-05
2.47161e-05
-2.9315e-05
2.64817e-05
-3.39329e-05
2.79978e-05
-3.87156e-05
2.92651e-05
-4.36282e-05
3.02875e-05
-4.86367e-05
3.10706e-05
-5.3708e-05
3.16208e-05
-5.88096e-05
3.1945e-05
-6.39096e-05
3.20494e-05
-6.89769e-05
3.194e-05
-7.39808e-05
3.16216e-05
-7.88909e-05
3.10986e-05
-8.36774e-05
3.03743e-05
-8.83108e-05
2.94517e-05
-9.2762e-05
2.83333e-05
-9.70022e-05
2.70216e-05
-0.000101003
2.55193e-05
-0.000104737
2.38295e-05
-0.000108177
2.19565e-05
-0.000111297
1.99054e-05
-0.000114073
1.76831e-05
-0.000116479
1.5298e-05
-0.000118495
1.27606e-05
-0.0001201
1.00835e-05
-0.000121277
7.28167e-06
-0.000122009
4.37235e-06
-0.000122284
1.37525e-06
-0.000122093
-1.68755e-06
-0.000121429
-4.79165e-06
-0.000120289
-7.91053e-06
-0.000118675
-1.10157e-05
-0.000116592
-1.40771e-05
-0.00011405
-1.70632e-05
-0.000111063
-1.99417e-05
-0.000107651
-2.26798e-05
-0.000103836
-2.52445e-05
-9.96475e-05
-2.76037e-05
-9.5117e-05
-2.97264e-05
-9.02818e-05
-3.15831e-05
-8.51828e-05
-3.3147e-05
-7.98647e-05
-3.43943e-05
-7.43752e-05
-3.53047e-05
-6.8765e-05
-3.58621e-05
-6.30867e-05
-3.60554e-05
-5.73942e-05
-3.58786e-05
-5.17422e-05
-3.53314e-05
-4.6185e-05
-3.44197e-05
-4.07757e-05
-3.31555e-05
-3.55655e-05
-3.15574e-05
-3.06023e-05
-2.96508e-05
-2.59303e-05
-2.74675e-05
-2.15888e-05
-2.50459e-05
-1.76113e-05
-2.2431e-05
-1.40249e-05
-1.96741e-05
-1.08493e-05
-1.68329e-05
-8.09691e-06
-1.39711e-05
-5.77168e-06
-1.11583e-05
-3.86941e-06
-8.47053e-06
-2.37758e-06
-5.98946e-06
-1.27568e-06
-3.80324e-06
-5.35785e-07
-2.00599e-06
-1.23585e-07
-6.97881e-07
9.78347e-09
-3.63937e-07
1.52174e-06
-1.39328e-06
4.85437e-06
-3.0311e-06
8.32205e-06
-5.22451e-06
1.18067e-05
-7.92357e-06
1.52185e-05
-1.10807e-05
1.84868e-05
-1.46502e-05
2.15581e-05
-1.85881e-05
2.43939e-05
-2.28516e-05
2.69679e-05
-2.73995e-05
2.9264e-05
-3.21917e-05
3.1274e-05
-3.71893e-05
3.29954e-05
-4.23546e-05
3.44304e-05
-4.7651e-05
3.55838e-05
-5.30428e-05
3.64624e-05
-5.84954e-05
3.70734e-05
-6.39748e-05
3.74245e-05
-6.94482e-05
3.75227e-05
-7.48828e-05
3.73746e-05
-8.02469e-05
3.69856e-05
-8.55088e-05
3.63605e-05
-9.06375e-05
3.5503e-05
-9.56022e-05
3.44164e-05
-0.000100372
3.31036e-05
-0.000104918
3.15675e-05
-0.00010921
2.98113e-05
-0.000113219
2.78387e-05
-0.000116918
2.56545e-05
-0.000120277
2.3265e-05
-0.000123272
2.0678e-05
-0.000125877
1.79033e-05
-0.00012807
1.49531e-05
-0.000129828
1.18418e-05
-0.000131133
8.58648e-06
-0.000131968
5.20701e-06
-0.000132318
1.72585e-06
-0.000132174
-1.83178e-06
-0.000131528
-5.43805e-06
-0.000130375
-9.06271e-06
-0.000128718
-1.26733e-05
-0.00012656
-1.62353e-05
-0.00012391
-1.9713e-05
-0.000120782
-2.30692e-05
-0.000117196
-2.62662e-05
-0.000113174
-2.92664e-05
-0.000108745
-3.20327e-05
-0.000103942
-3.45292e-05
-9.88033e-05
-3.67219e-05
-9.33708e-05
-3.85795e-05
-8.7691e-05
-4.00741e-05
-8.1814e-05
-4.11817e-05
-7.57929e-05
-4.18833e-05
-6.96832e-05
-4.21651e-05
-6.35424e-05
-4.20195e-05
-5.74286e-05
-4.14452e-05
-5.14002e-05
-4.04481e-05
-4.55147e-05
-3.90411e-05
-3.98274e-05
-3.72447e-05
-3.43911e-05
-3.50871e-05
-2.92545e-05
-3.26041e-05
-2.44615e-05
-2.98388e-05
-2.00503e-05
-2.68422e-05
-1.60523e-05
-2.36721e-05
-1.24919e-05
-2.03933e-05
-9.38548e-06
-1.70775e-05
-6.74108e-06
-1.38027e-05
-4.55842e-06
-1.06532e-05
-2.82879e-06
-7.7191e-06
-1.53538e-06
-5.09664e-06
-6.5398e-07
-2.88739e-06
-1.53987e-07
-1.19787e-06
-1.44204e-07
-4.04846e-07
1.92658e-06
-1.54517e-06
5.99469e-06
-3.35286e-06
1.01297e-05
-5.76482e-06
1.42187e-05
-8.72199e-06
1.81757e-05
-1.21689e-05
2.19337e-05
-1.6053e-05
2.54423e-05
-2.03247e-05
2.86656e-05
-2.49366e-05
3.15798e-05
-2.98435e-05
3.41709e-05
-3.5002e-05
3.64325e-05
-4.03707e-05
3.83641e-05
-4.59097e-05
3.99694e-05
-5.15806e-05
4.12547e-05
-5.73462e-05
4.2228e-05
-6.31705e-05
4.28977e-05
-6.90183e-05
4.32723e-05
-7.48556e-05
4.336e-05
-8.06486e-05
4.31676e-05
-8.63644e-05
4.27015e-05
-9.19705e-05
4.19666e-05
-9.74347e-05
4.09672e-05
-0.000102725
3.97069e-05
-0.000107811
3.8189e-05
-0.00011266
3.64167e-05
-0.000117242
3.43936e-05
-0.000121528
3.21241e-05
-0.000125487
2.96136e-05
-0.000129091
2.68693e-05
-0.000132313
2.39001e-05
-0.000135127
2.07171e-05
-0.000137508
1.73339e-05
-0.000139433
1.37671e-05
-0.000140882
1.00357e-05
-0.000141837
6.16203e-06
-0.000142283
2.17146e-06
-0.000142207
-1.9077e-06
-0.000141601
-6.04419e-06
-0.00014046
-1.0204e-05
-0.000138782
-1.43505e-05
-0.000136573
-1.8445e-05
-0.000133839
-2.24469e-05
-0.000130594
-2.63143e-05
-0.000126855
-3.00046e-05
-0.000122647
-3.34749e-05
-0.000117997
-3.66829e-05
-0.000112938
-3.95876e-05
-0.00010751
-4.215e-05
-0.000101756
-4.43339e-05
-9.57231e-05
-4.61069e-05
-8.9464e-05
-4.74408e-05
-8.30341e-05
-4.83132e-05
-7.6492e-05
-4.87072e-05
-6.98984e-05
-4.8613e-05
-6.33156e-05
-4.80281e-05
-5.68059e-05
-4.69578e-05
-5.04313e-05
-4.54156e-05
-4.42523e-05
-4.34237e-05
-3.83265e-05
-4.1013e-05
-3.27076e-05
-3.82229e-05
-2.74449e-05
-3.51015e-05
-2.25816e-05
-3.17055e-05
-1.81544e-05
-2.80993e-05
-1.41923e-05
-2.43554e-05
-1.07165e-05
-2.05533e-05
-7.73964e-06
-1.67796e-05
-5.26567e-06
-1.31271e-05
-3.2899e-06
-9.69486e-06
-1.79932e-06
-6.58722e-06
-7.73239e-07
-3.91347e-06
-1.84324e-07
-1.78679e-06
-3.28528e-07
-4.44228e-07
2.37081e-06
-1.69167e-06
7.24213e-06
-3.66372e-06
1.21018e-05
-6.28757e-06
1.68425e-05
-9.49546e-06
2.13835e-05
-1.32242e-05
2.56625e-05
-1.74148e-05
2.96329e-05
-2.20119e-05
3.32627e-05
-2.69634e-05
3.65313e-05
-3.22203e-05
3.94277e-05
-3.77361e-05
4.19483e-05
-4.34666e-05
4.40947e-05
-4.937e-05
4.58728e-05
-5.5406e-05
4.72907e-05
-6.15359e-05
4.83579e-05
-6.77225e-05
4.90843e-05
-7.39297e-05
4.94795e-05
-8.01221e-05
4.95524e-05
-8.62655e-05
4.9311e-05
-9.23258e-05
4.87618e-05
-9.82697e-05
4.79105e-05
-0.000104064
4.67617e-05
-0.000109677
4.53194e-05
-0.000115075
4.35872e-05
-0.000120227
4.15685e-05
-0.0001251
3.92675e-05
-0.000129665
3.6689e-05
-0.000133891
3.38392e-05
-0.000137747
3.07258e-05
-0.000141206
2.7359e-05
-0.00014424
2.37511e-05
-0.000146824
1.99172e-05
-0.000148932
1.58755e-05
-0.000150544
1.16474e-05
-0.000151639
7.25746e-06
-0.000152202
2.73379e-06
-0.000152217
-1.8922e-06
-0.000151675
-6.58582e-06
-0.00015057
-1.13093e-05
-0.000148899
-1.60219e-05
-0.000146663
-2.06804e-05
-0.00014387
-2.52397e-05
-0.000140532
-2.96527e-05
-0.000136665
-3.38716e-05
-0.000132292
-3.78482e-05
-0.00012744
-4.15347e-05
-0.000122143
-4.48845e-05
-0.00011644
-4.7853e-05
-0.000110375
-5.0399e-05
-0.000103997
-5.24847e-05
-9.73604e-05
-5.40776e-05
-9.05227e-05
-5.51509e-05
-8.35455e-05
-5.56843e-05
-7.64933e-05
-5.56653e-05
-6.9432e-05
-5.50894e-05
-6.24287e-05
-5.39611e-05
-5.55503e-05
-5.2294e-05
-4.88623e-05
-5.01117e-05
-4.2428e-05
-4.74473e-05
-3.63069e-05
-4.4344e-05
-3.05538e-05
-4.08546e-05
-2.52179e-05
-3.70415e-05
-2.03413e-05
-3.29759e-05
-1.59587e-05
-2.8738e-05
-1.20966e-05
-2.44155e-05
-8.77247e-06
-2.01037e-05
-5.99494e-06
-1.59047e-05
-3.76356e-06
-1.19262e-05
-2.06916e-06
-8.28162e-06
-8.94432e-07
-5.08819e-06
-2.14873e-07
-2.46635e-06
-5.43399e-07
-4.82062e-07
2.85287e-06
-1.83259e-06
8.59265e-06
-3.96307e-06
1.42323e-05
-6.7915e-06
1.96709e-05
-1.02418e-05
2.48339e-05
-1.42435e-05
2.96641e-05
-1.87311e-05
3.41205e-05
-2.36439e-05
3.81755e-05
-2.89252e-05
4.18126e-05
-3.45222e-05
4.50247e-05
-4.03852e-05
4.78113e-05
-4.64675e-05
5.01771e-05
-5.27253e-05
5.21305e-05
-5.91164e-05
5.36818e-05
-6.5601e-05
5.48425e-05
-7.21406e-05
5.56239e-05
-7.86981e-05
5.6037e-05
-8.52374e-05
5.60918e-05
-9.17235e-05
5.5797e-05
-9.81216e-05
5.51599e-05
-0.000104398
5.41867e-05
-0.000110518
5.28823e-05
-0.00011645
5.12511e-05
-0.00012216
4.92968e-05
-0.000127615
4.70235e-05
-0.000132783
4.44355e-05
-0.000137632
4.1538e-05
-0.00014213
3.83378e-05
-0.000146248
3.48435e-05
-0.000149955
3.10661e-05
-0.000153223
2.70189e-05
-0.000156024
2.27187e-05
-0.000158334
1.81852e-05
-0.000160128
1.34417e-05
-0.000161386
8.51518e-06
-0.000162088
3.43638e-06
-0.00016222
-1.76032e-06
-0.000161769
-7.03687e-06
-0.000160727
-1.23517e-05
-0.000159089
-1.76601e-05
-0.000156855
-2.29144e-05
-0.00015403
-2.80645e-05
-0.000150624
-3.30584e-05
-0.000146653
-3.78427e-05
-0.000142137
-4.23636e-05
-0.000137105
-4.65674e-05
-0.000131588
-5.04017e-05
-0.000125625
-5.38159e-05
-0.000119261
-5.67629e-05
-0.000112546
-5.91994e-05
-0.000105536
-6.10875e-05
-9.82913e-05
-6.23957e-05
-9.08759e-05
-6.30996e-05
-8.3358e-05
-6.31833e-05
-7.58077e-05
-6.26396e-05
-6.8297e-05
-6.14718e-05
-6.08979e-05
-5.9693e-05
-5.36819e-05
-5.73277e-05
-4.67181e-05
-5.44111e-05
-4.00724e-05
-5.09897e-05
-3.3806e-05
-4.7121e-05
-2.79745e-05
-4.2873e-05
-2.26263e-05
-3.83241e-05
-1.78023e-05
-3.35619e-05
-1.35347e-05
-2.86831e-05
-9.84658e-06
-2.37919e-05
-6.75146e-06
-1.89998e-05
-4.25341e-06
-1.44243e-05
-2.34718e-06
-1.01879e-05
-1.01871e-06
-6.41667e-06
-2.4598e-07
-3.23908e-06
-7.89378e-07
-5.1831e-07
3.37118e-06
-1.96771e-06
1.00421e-05
-4.25031e-06
1.65149e-05
-7.27542e-06
2.2696e-05
-1.09591e-05
2.85175e-05
-1.52238e-05
3.39289e-05
-1.99981e-05
3.88948e-05
-2.52158e-05
4.33932e-05
-3.08159e-05
4.74127e-05
-3.67418e-05
5.09506e-05
-4.2941e-05
5.40104e-05
-4.93642e-05
5.66004e-05
-5.59655e-05
5.87318e-05
-6.27013e-05
6.04176e-05
-6.95303e-05
6.16715e-05
-7.64132e-05
6.25068e-05
-8.3312e-05
6.29358e-05
-9.019e-05
6.29698e-05
-9.70113e-05
6.26183e-05
-0.000103741
6.18895e-05
-0.000110344
6.079e-05
-0.000116787
5.93252e-05
-0.000123036
5.74997e-05
-0.000129056
5.53176e-05
-0.000134816
5.27832e-05
-0.000140282
4.99009e-05
-0.00014542
4.66766e-05
-0.0001502
4.31174e-05
-0.000154589
3.92325e-05
-0.000158556
3.50337e-05
-0.000162073
3.05354e-05
-0.00016511
2.57555e-05
-0.00016764
2.07153e-05
-0.000169638
1.54399e-05
-0.000171081
9.95858e-06
-0.000171949
4.30437e-06
-0.000172224
-1.48543e-06
-0.000171892
-7.36952e-06
-0.000170941
-1.33027e-05
-0.000169365
-1.92362e-05
-0.000167161
-2.51179e-05
-0.000164333
-3.08928e-05
-0.000160888
-3.65036e-05
-0.000156839
-4.18914e-05
-0.000152206
-4.69963e-05
-0.000147015
-5.17587e-05
-0.000141297
-5.61196e-05
-0.000135091
-6.00221e-05
-0.000128441
-6.34126e-05
-0.000121399
-6.62417e-05
-0.000114021
-6.84654e-05
-0.00010637
-7.00467e-05
-9.85136e-05
-7.09563e-05
-9.05227e-05
-7.11741e-05
-8.24724e-05
-7.069e-05
-7.44395e-05
-6.95047e-05
-6.65019e-05
-6.76306e-05
-5.87371e-05
-6.50925e-05
-5.1221e-05
-6.19272e-05
-4.40264e-05
-5.81843e-05
-3.72216e-05
-5.39258e-05
-3.08692e-05
-4.92254e-05
-2.50248e-05
-4.41684e-05
-1.97361e-05
-3.88507e-05
-1.50416e-05
-3.33775e-05
-1.09704e-05
-2.78631e-05
-7.54156e-06
-2.24287e-05
-4.76386e-06
-1.7202e-05
-2.63611e-06
-1.23156e-05
-1.14743e-06
-7.90535e-06
-2.78036e-07
-4.10847e-06
-1.06741e-06
-5.5292e-07
3.9241e-06
-2.09677e-06
1.15859e-05
-4.5248e-06
1.89429e-05
-7.73813e-06
2.59094e-05
-1.16454e-05
3.24248e-05
-1.61624e-05
3.84459e-05
-2.12118e-05
4.39442e-05
-2.67225e-05
4.89039e-05
-3.26294e-05
5.33196e-05
-3.88722e-05
5.71934e-05
-4.53954e-05
6.05336e-05
-5.21476e-05
6.33525e-05
-5.90807e-05
6.56649e-05
-6.61499e-05
6.74868e-05
-7.33127e-05
6.88343e-05
-8.05287e-05
6.97228e-05
-8.77593e-05
7.01664e-05
-9.49672e-05
7.01777e-05
-0.000102116
6.97673e-05
-0.000109171
6.89441e-05