/*--------------------------------*- C++ -*----------------------------------*\
  =========                 |
  \\      /  F ield         | OpenFOAM: The Open Source CFD Toolbox
   \\    /   O peration     | Website:  https://openfoam.org
    \\  /    A nd           | Version:  dev
     \\/     M anipulation  |
\*---------------------------------------------------------------------------*/
FoamFile
{
    format      ascii;
    class       volVectorField;
    location    "40.5";
    object      U;
}
// * * * * * * * * * * * * * * * * * * * * * * * * * * * * * * * * * * * * * //

dimensions      [0 1 -1 0 0 0 0];

internalField   nonuniform List<vector> 
5184
(
(1.23221e-05 -1.27188e-05 0)
(4.51691e-05 -2.09014e-05 0)
(8.03533e-05 -1.72572e-05 0)
(9.60329e-05 -8.2021e-06 0)
(8.22149e-05 2.66616e-06 0)
(3.65191e-05 1.36175e-05 0)
(-4.05065e-05 2.38479e-05 0)
(-0.000146842 3.3053e-05 0)
(-0.000279694 4.11129e-05 0)
(-0.000436004 4.80333e-05 0)
(-0.000612651 5.38759e-05 0)
(-0.000806601 5.87254e-05 0)
(-0.00101498 6.26744e-05 0)
(-0.00123514 6.58142e-05 0)
(-0.00146459 6.82296e-05 0)
(-0.0017011 6.9996e-05 0)
(-0.00194258 7.11776e-05 0)
(-0.00218713 7.1827e-05 0)
(-0.00243295 7.1985e-05 0)
(-0.00267836 7.16811e-05 0)
(-0.00292176 7.09347e-05 0)
(-0.00316158 6.97563e-05 0)
(-0.00339629 6.81489e-05 0)
(-0.00362438 6.61094e-05 0)
(-0.0038443 6.36306e-05 0)
(-0.00405453 6.07027e-05 0)
(-0.0042535 5.73152e-05 0)
(-0.00443964 5.34585e-05 0)
(-0.00461138 4.91255e-05 0)
(-0.00476712 4.43133e-05 0)
(-0.00490532 3.90243e-05 0)
(-0.00502445 3.32677e-05 0)
(-0.00512304 2.70608e-05 0)
(-0.00519971 2.04296e-05 0)
(-0.00525322 1.34097e-05 0)
(-0.00528244 6.04706e-06 0)
(-0.00528642 -1.60227e-06 0)
(-0.00526445 -9.47183e-06 0)
(-0.00521601 -1.74851e-05 0)
(-0.00514088 -2.55562e-05 0)
(-0.00503913 -3.35907e-05 0)
(-0.00491112 -4.14869e-05 0)
(-0.00475757 -4.91376e-05 0)
(-0.00457953 -5.64318e-05 0)
(-0.0043784 -6.32567e-05 0)
(-0.00415594 -6.95006e-05 0)
(-0.00391424 -7.50546e-05 0)
(-0.00365573 -7.98158e-05 0)
(-0.00338314 -8.36893e-05 0)
(-0.00309948 -8.65916e-05 0)
(-0.00280798 -8.8452e-05 0)
(-0.00251208 -8.92153e-05 0)
(-0.00221533 -8.88434e-05 0)
(-0.00192141 -8.73164e-05 0)
(-0.00163397 -8.46339e-05 0)
(-0.00135668 -8.08154e-05 0)
(-0.00109305 -7.59003e-05 0)
(-0.000846468 -6.99473e-05 0)
(-0.000620079 -6.30343e-05 0)
(-0.000416734 -5.52571e-05 0)
(-0.00023893 -4.673e-05 0)
(-8.87461e-05 -3.75859e-05 0)
(3.22297e-05 -2.79798e-05 0)
(0.000122983 -1.80941e-05 0)
(0.000183184 -8.15437e-06 0)
(0.000213334 1.5446e-06 0)
(0.000215024 1.0578e-05 0)
(0.000191306 1.83086e-05 0)
(0.000147208 2.37243e-05 0)
(9.08252e-05 2.51341e-05 0)
(3.66326e-05 1.98532e-05 0)
(6.2245e-06 6.24691e-06 0)
(2.08484e-05 -4.59123e-05 0)
(6.56446e-05 -6.57494e-05 0)
(9.47739e-05 -4.05896e-05 0)
(7.28945e-05 7.61582e-06 0)
(-1.88407e-05 6.56757e-05 0)
(-0.000187249 0.000126004 0)
(-0.000432913 0.000184323 0)
(-0.000752617 0.000238384 0)
(-0.00114081 0.000287047 0)
(-0.00159072 0.000329869 0)
(-0.00209499 0.000366811 0)
(-0.00264617 0.000398061 0)
(-0.00323695 0.000423932 0)
(-0.00386033 0.000444791 0)
(-0.00450972 0.000461014 0)
(-0.0051789 0.000472961 0)
(-0.00586208 0.000480954 0)
(-0.00655382 0.000485269 0)
(-0.00724897 0.000486129 0)
(-0.00794264 0.000483706 0)
(-0.00863015 0.000478121 0)
(-0.00930694 0.00046945 0)
(-0.00996852 0.000457733 0)
(-0.0106105 0.000442977 0)
(-0.0112284 0.000425172 0)
(-0.0118179 0.000404294 0)
(-0.0123745 0.000380318 0)
(-0.0128939 0.000353228 0)
(-0.0133716 0.000323024 0)
(-0.0138033 0.000289733 0)
(-0.0141847 0.000253415 0)
(-0.0145119 0.000214173 0)
(-0.0147807 0.000172157 0)
(-0.0149877 0.000127571 0)
(-0.0151296 8.06736e-05 0)
(-0.0152035 3.17844e-05 0)
(-0.015207 -1.87174e-05 0)
(-0.0151384 -7.03938e-05 0)
(-0.0149966 -0.000122749 0)
(-0.0147811 -0.000175237 0)
(-0.0144924 -0.000227261 0)
(-0.0141316 -0.00027819 0)
(-0.013701 -0.000327363 0)
(-0.0132035 -0.0003741 0)
(-0.0126432 -0.000417716 0)
(-0.0120247 -0.000457537 0)
(-0.0113541 -0.000492909 0)
(-0.0106377 -0.000523218 0)
(-0.00988307 -0.000547901 0)
(-0.00909828 -0.000566466 0)
(-0.00829201 -0.000578499 0)
(-0.00747346 -0.000583681 0)
(-0.00665216 -0.000581795 0)
(-0.00583785 -0.000572739 0)
(-0.00504033 -0.000556528 0)
(-0.00426925 -0.000533302 0)
(-0.003534 -0.000503325 0)
(-0.0028435 -0.000466986 0)
(-0.00220605 -0.000424801 0)
(-0.0016291 -0.000377409 0)
(-0.00111916 -0.00032558 0)
(-0.0006815 -0.000270219 0)
(-0.00032005 -0.000212386 0)
(-3.70889e-05 -0.000153336 0)
(0.000167018 -9.45788e-05 0)
(0.000294194 -3.79936e-05 0)
(0.000349193 1.3957e-05 0)
(0.00034029 5.79681e-05 0)
(0.00027998 8.94473e-05 0)
(0.000186122 0.000101897 0)
(8.63972e-05 8.65492e-05 0)
(1.96856e-05 3.65015e-05 0)
(1.76426e-05 -8.1351e-05 0)
(4.13587e-05 -9.50949e-05 0)
(1.96539e-05 -1.91837e-05 0)
(-8.3938e-05 0.000105908 0)
(-0.000290213 0.000254667 0)
(-0.000607921 0.000410642 0)
(-0.00103833 0.000563519 0)
(-0.00157761 0.000707159 0)
(-0.00221862 0.000838111 0)
(-0.00295215 0.000954666 0)
(-0.00376792 0.00105623 0)
(-0.00465523 0.0011429 0)
(-0.00560335 0.00121518 0)
(-0.00660181 0.0012738 0)
(-0.00764056 0.00131959 0)
(-0.00871002 0.00135336 0)
(-0.00980112 0.0013759 0)
(-0.0109053 0.00138786 0)
(-0.0120142 0.00138982 0)
(-0.0131201 0.00138221 0)
(-0.0142155 0.00136538 0)
(-0.0152928 0.00133953 0)
(-0.0163449 0.0013048 0)
(-0.0173647 0.00126125 0)
(-0.018345 0.00120889 0)
(-0.0192788 0.00114771 0)
(-0.0201591 0.00107771 0)
(-0.020979 0.000998885 0)
(-0.0217315 0.000911313 0)
(-0.0224098 0.00081513 0)
(-0.0230075 0.000710567 0)
(-0.0235181 0.00059797 0)
(-0.0239358 0.000477811 0)
(-0.0242552 0.000350708 0)
(-0.0244712 0.000217425 0)
(-0.0245797 7.88875e-05 0)
(-0.0245773 -6.38253e-05 0)
(-0.0244615 -0.000209477 0)
(-0.0242307 -0.000356683 0)
(-0.0238847 -0.000503927 0)
(-0.0234243 -0.000649571 0)
(-0.0228516 -0.000791882 0)
(-0.02217 -0.000929058 0)
(-0.0213845 -0.00105925 0)
(-0.0205013 -0.00118062 0)
(-0.019528 -0.00129134 0)
(-0.0184735 -0.00138965 0)
(-0.0173481 -0.0014739 0)
(-0.0161632 -0.00154261 0)
(-0.0149311 -0.00159445 0)
(-0.0136653 -0.00162832 0)
(-0.0123797 -0.00164339 0)
(-0.0110889 -0.00163909 0)
(-0.00980777 -0.00161517 0)
(-0.00855114 -0.00157169 0)
(-0.00733376 -0.00150906 0)
(-0.00616986 -0.00142803 0)
(-0.00507299 -0.00132969 0)
(-0.00405568 -0.0012155 0)
(-0.00312923 -0.00108725 0)
(-0.00230335 -0.000947139 0)
(-0.00158595 -0.000797718 0)
(-0.00098276 -0.000641999 0)
(-0.000497017 -0.000483518 0)
(-0.000129028 -0.000326473 0)
(0.00012428 -0.000175955 0)
(0.000270009 -3.82841e-05 0)
(0.000320014 7.85223e-05 0)
(0.000291433 0.000164165 0)
(0.0002075 0.000205476 0)
(0.000102497 0.000186346 0)
(2.49872e-05 9.04202e-05 0)
(8.84586e-06 -9.77949e-05 0)
(-6.99008e-06 -7.32211e-05 0)
(-0.000107554 8.47324e-05 0)
(-0.000322356 0.000318361 0)
(-0.000669648 0.000590156 0)
(-0.00115784 0.000874486 0)
(-0.00178768 0.00115431 0)
(-0.00255441 0.00141885 0)
(-0.00344947 0.00166162 0)
(-0.00446183 0.00187908 0)
(-0.00557901 0.00206968 0)
(-0.00678781 0.00223316 0)
(-0.00807481 0.0023701 0)
(-0.00942674 0.00248151 0)
(-0.0108307 0.00256869 0)
(-0.0122743 0.00263295 0)
(-0.0137455 0.00267557 0)
(-0.0152331 0.00269772 0)
(-0.016726 0.00270037 0)
(-0.0182136 0.00268431 0)
(-0.0196859 0.00265013 0)
(-0.0211327 0.00259827 0)
(-0.0225444 0.002529 0)
(-0.0239113 0.00244247 0)
(-0.0252238 0.00233876 0)
(-0.0264724 0.00221792 0)
(-0.0276479 0.00207999 0)
(-0.0287409 0.0019251 0)
(-0.0297423 0.00175345 0)
(-0.0306433 0.00156539 0)
(-0.0314352 0.00136144 0)
(-0.0321099 0.00114234 0)
(-0.0326597 0.000909069 0)
(-0.0330776 0.000662859 0)
(-0.0333574 0.000405227 0)
(-0.0334938 0.000137977 0)
(-0.0334827 -0.000136802 0)
(-0.0333208 -0.000416739 0)
(-0.0330067 -0.000699198 0)
(-0.0325401 -0.000981299 0)
(-0.0319223 -0.00125996 0)
(-0.0311564 -0.00153191 0)
(-0.0302471 -0.00179378 0)
(-0.0292009 -0.00204213 0)
(-0.028026 -0.00227351 0)
(-0.0267326 -0.00248452 0)
(-0.0253323 -0.00267193 0)
(-0.0238384 -0.00283268 0)
(-0.0222657 -0.00296399 0)
(-0.0206305 -0.00306345 0)
(-0.0189498 -0.00312902 0)
(-0.0172419 -0.00315917 0)
(-0.0155256 -0.00315287 0)
(-0.0138199 -0.00310968 0)
(-0.0121442 -0.00302974 0)
(-0.0105173 -0.00291385 0)
(-0.00895769 -0.00276343 0)
(-0.00748273 -0.00258058 0)
(-0.00610859 -0.00236807 0)
(-0.00484975 -0.00212935 0)
(-0.00371873 -0.00186856 0)
(-0.00272562 -0.00159062 0)
(-0.00187776 -0.00130123 0)
(-0.00117927 -0.00100708 0)
(-0.000630625 -0.000715968 0)
(-0.000228115 -0.000437187 0)
(3.67423e-05 -0.000181878 0)
(0.000177852 3.63426e-05 0)
(0.000214947 0.000200754 0)
(0.000174203 0.000290959 0)
(9.30783e-05 0.000282666 0)
(2.40391e-05 0.000147329 0)
(-2.12104e-06 -8.4464e-05 0)
(-6.72864e-05 2.0825e-05 0)
(-0.000264124 0.000295424 0)
(-0.000609836 0.000668081 0)
(-0.00111693 0.00109098 0)
(-0.00179161 0.00153018 0)
(-0.0026329 0.00196225 0)
(-0.00363441 0.0023717 0)
(-0.00478602 0.00274881 0)
(-0.00607501 0.00308793 0)
(-0.00748703 0.00338629 0)
(-0.00900682 0.00364308 0)
(-0.0106188 0.00385875 0)
(-0.0123073 0.00403454 0)
(-0.0140572 0.00417212 0)
(-0.0158536 0.0042733 0)
(-0.0176821 0.00433988 0)
(-0.0195289 0.0043735 0)
(-0.0213805 0.00437559 0)
(-0.0232241 0.00434732 0)
(-0.0250471 0.0042896 0)
(-0.026837 0.00420309 0)
(-0.0285819 0.00408825 0)
(-0.0302698 0.00394537 0)
(-0.031889 0.00377465 0)
(-0.0334277 0.00357624 0)
(-0.0348745 0.00335032 0)
(-0.036218 0.00309718 0)
(-0.0374473 0.00281725 0)
(-0.0385514 0.00251121 0)
(-0.0395201 0.00217999 0)
(-0.0403437 0.00182488 0)
(-0.0410128 0.00144752 0)
(-0.0415194 0.00104996 0)
(-0.0418559 0.000634688 0)
(-0.0420164 0.000204624 0)
(-0.041996 -0.00023687 0)
(-0.0417912 -0.000686005 0)
(-0.0414003 -0.00113859 0)
(-0.0408233 -0.00159007 0)
(-0.040062 -0.00203557 0)
(-0.0391203 -0.00246998 0)
(-0.0380041 -0.00288799 0)
(-0.0367212 -0.00328423 0)
(-0.0352818 -0.00365331 0)
(-0.033698 -0.00398995 0)
(-0.0319839 -0.00428911 0)
(-0.0301554 -0.00454602 0)
(-0.0282302 -0.0047564 0)
(-0.0262278 -0.00491647 0)
(-0.0241685 -0.00502312 0)
(-0.0220742 -0.00507394 0)
(-0.0199672 -0.00506738 0)
(-0.0178703 -0.00500275 0)
(-0.0158066 -0.00488031 0)
(-0.0137984 -0.00470132 0)
(-0.0118679 -0.00446806 0)
(-0.0100357 -0.00418385 0)
(-0.0083212 -0.00385307 0)
(-0.00674168 -0.00348118 0)
(-0.00531209 -0.00307477 0)
(-0.00404457 -0.00264157 0)
(-0.00294798 -0.00219058 0)
(-0.00202746 -0.00173222 0)
(-0.00128396 -0.00127853 0)
(-0.000713706 -0.000843577 0)
(-0.000307697 -0.000443849 0)
(-5.1157e-05 -9.89128e-05 0)
(7.68004e-05 0.000167889 0)
(0.000103692 0.000328819 0)
(6.75524e-05 0.000351137 0)
(1.96758e-05 0.000194207 0)
(-1.36946e-05 -3.75775e-05 0)
(-0.000132849 0.000197322 0)
(-0.000435891 0.000626938 0)
(-0.000924799 0.0011705 0)
(-0.00160421 0.00177203 0)
(-0.00247669 0.00239067 0)
(-0.00353839 0.00299733 0)
(-0.00478062 0.00357222 0)
(-0.00619127 0.00410248 0)
(-0.00775584 0.00458035 0)
(-0.00945817 0.00500174 0)
(-0.0112812 0.00536516 0)
(-0.0132074 0.00567085 0)
(-0.0152194 0.00592019 0)
(-0.0172997 0.00611514 0)
(-0.0194315 0.00625799 0)
(-0.0215983 0.006351 0)
(-0.0237841 0.00639631 0)
(-0.0259735 0.00639579 0)
(-0.0281513 0.00635101 0)
(-0.0303029 0.0062632 0)
(-0.0324138 0.00613329 0)
(-0.0344698 0.00596196 0)
(-0.0364569 0.00574967 0)
(-0.0383614 0.00549678 0)
(-0.0401697 0.0052036 0)
(-0.0418684 0.00487053 0)
(-0.0434442 0.00449808 0)
(-0.0448844 0.00408703 0)
(-0.0461766 0.00363846 0)
(-0.0473088 0.00315387 0)
(-0.0482699 0.0026352 0)
(-0.0490494 0.00208495 0)
(-0.049638 0.00150616 0)
(-0.0500275 0.000902478 0)
(-0.050211 0.000278163 0)
(-0.050183 -0.00036192 0)
(-0.0499399 -0.00101231 0)
(-0.0494799 -0.00166701 0)
(-0.0488031 -0.00231951 0)
(-0.0479119 -0.00296287 0)
(-0.0468108 -0.00358982 0)
(-0.0455066 -0.00419287 0)
(-0.0440086 -0.00476438 0)
(-0.0423284 -0.00529677 0)
(-0.0404797 -0.0057826 0)
(-0.0384788 -0.00621472 0)
(-0.036344 -0.00658646 0)
(-0.0340953 -0.00689177 0)
(-0.0317549 -0.00712535 0)
(-0.0293461 -0.00728279 0)
(-0.0268937 -0.00736074 0)
(-0.0244232 -0.00735699 0)
(-0.0219607 -0.00727058 0)
(-0.0195322 -0.00710191 0)
(-0.0171637 -0.00685276 0)
(-0.0148801 -0.00652636 0)
(-0.0127053 -0.00612746 0)
(-0.0106614 -0.00566228 0)
(-0.00876823 -0.00513861 0)
(-0.00704314 -0.00456579 0)
(-0.0055002 -0.00395481 0)
(-0.00414989 -0.00331838 0)
(-0.00299858 -0.00267109 0)
(-0.00204802 -0.00202968 0)
(-0.00129496 -0.00141335 0)
(-0.000730593 -0.00084424 0)
(-0.000340197 -0.000348042 0)
(-0.000102803 4.52617e-05 0)
(9.23704e-06 0.000300723 0)
(3.25359e-05 0.000377521 0)
(1.36293e-05 0.000224608 0)
(-2.51892e-05 4.40628e-05 0)
(-0.000200048 0.000461283 0)
(-0.000614199 0.0010872 0)
(-0.00125316 0.00183502 0)
(-0.00211248 0.00264286 0)
(-0.00318999 0.00346447 0)
(-0.00447813 0.00426619 0)
(-0.00596518 0.00502457 0)
(-0.00763664 0.005724 0)
(-0.00947595 0.00635477 0)
(-0.0114651 0.00691156 0)
(-0.0135853 0.00739222 0)
(-0.0158174 0.00779675 0)
(-0.018142 0.00812659 0)
(-0.0205401 0.008384 0)
(-0.0229931 0.00857164 0)
(-0.0254825 0.00869226 0)
(-0.0279907 0.00874846 0)
(-0.0305003 0.00874253 0)
(-0.0329942 0.00867645 0)
(-0.035456 0.00855177 0)
(-0.0378692 0.0083697 0)
(-0.040218 0.00813116 0)
(-0.0424864 0.00783682 0)
(-0.044659 0.00748724 0)
(-0.0467202 0.00708297 0)
(-0.0486552 0.00662463 0)
(-0.0504489 0.00611308 0)
(-0.0520872 0.0055495 0)
(-0.053556 0.0049355 0)
(-0.0548421 0.00427325 0)
(-0.0559331 0.0035655 0)
(-0.0568175 0.00281572 0)
(-0.057485 0.00202812 0)
(-0.0579263 0.00120768 0)
(-0.0581341 0.000360177 0)
(-0.0581025 -0.000507807 0)
(-0.0578274 -0.00138894 0)
(-0.0573071 -0.00227517 0)
(-0.0565418 -0.00315782 0)
(-0.0555341 -0.00402764 0)
(-0.0542892 -0.00487497 0)
(-0.0528148 -0.00568985 0)
(-0.0511211 -0.00646219 0)
(-0.0492208 -0.00718192 0)
(-0.0471295 -0.00783919 0)
(-0.0448648 -0.00842458 0)
(-0.0424471 -0.00892925 0)
(-0.0398986 -0.00934519 0)
(-0.0372437 -0.00966537 0)
(-0.0345084 -0.00988398 0)
(-0.0317199 -0.00999654 0)
(-0.0289066 -0.0100001 0)
(-0.0260973 -0.00989347 0)
(-0.0233212 -0.00967704 0)
(-0.0206068 -0.0093532 0)
(-0.0179822 -0.00892622 0)
(-0.015474 -0.00840238 0)
(-0.0131068 -0.00778994 0)
(-0.0109032 -0.00709922 0)
(-0.00888264 -0.00634262 0)
(-0.00706129 -0.00553465 0)
(-0.00545138 -0.00469206 0)
(-0.00406075 -0.00383396 0)
(-0.0028924 -0.00298204 0)
(-0.00194404 -0.0021609 0)
(-0.00120773 -0.00139849 0)
(-0.000669498 -0.00072667 0)
(-0.000309139 -0.000181931 0)
(-9.98014e-05 0.000193906 0)
(-7.68504e-06 0.000352711 0)
(6.86727e-06 0.000235098 0)
(-3.63469e-05 0.000160454 0)
(-0.000266997 0.00081458 0)
(-0.000793922 0.00167999 0)
(-0.00158599 0.00266665 0)
(-0.00262903 0.00370885 0)
(-0.0039155 0.00475653 0)
(-0.00543342 0.00577262 0)
(-0.00716749 0.00673085 0)
(-0.0091004 0.00761339 0)
(-0.0112133 0.00840898 0)
(-0.0134861 0.00911127 0)
(-0.0158984 0.00971755 0)
(-0.0184291 0.0102276 0)
(-0.0210576 0.010643 0)
(-0.0237631 0.0109663 0)
(-0.0265253 0.0112005 0)
(-0.0293244 0.0113487 0)
(-0.032141 0.0114141 0)
(-0.034956 0.0113994 0)
(-0.037751 0.0113068 0)
(-0.0405077 0.0111383 0)
(-0.0432081 0.0108954 0)
(-0.0458346 0.0105792 0)
(-0.0483697 0.0101907 0)
(-0.0507963 0.00973069 0)
(-0.0530975 0.00919991 0)
(-0.0552567 0.00859933 0)
(-0.0572576 0.0079302 0)
(-0.0590845 0.00719419 0)
(-0.0607221 0.00639354 0)
(-0.062156 0.00553117 0)
(-0.0633726 0.00461077 0)
(-0.0643595 0.0036369 0)
(-0.0651053 0.00261507 0)
(-0.0656002 0.00155176 0)
(-0.0658361 0.000454426 0)
(-0.0658067 -0.000668483 0)
(-0.0655077 -0.00180757 0)
(-0.064937 -0.00295256 0)
(-0.064095 -0.00409239 0)
(-0.0629846 -0.00521531 0)
(-0.0616112 -0.00630905 0)
(-0.0599832 -0.007361 0)
(-0.0581115 -0.00835837 0)
(-0.05601 -0.0092884 0)
(-0.0536952 -0.0101386 0)
(-0.0511865 -0.0108971 0)
(-0.0485057 -0.0115527 0)
(-0.0456769 -0.0120952 0)
(-0.0427264 -0.0125157 0)
(-0.0396823 -0.0128067 0)
(-0.0365745 -0.0129627 0)
(-0.0334335 -0.0129797 0)
(-0.030291 -0.0128562 0)
(-0.0271786 -0.0125926 0)
(-0.0241278 -0.0121918 0)
(-0.0211692 -0.0116594 0)
(-0.0183321 -0.011003 0)
(-0.0156439 -0.0102331 0)
(-0.0131296 -0.00936285 0)
(-0.0108109 -0.00840774 0)
(-0.00870636 -0.00738609 0)
(-0.00683002 -0.00631891 0)
(-0.00519157 -0.00523003 0)
(-0.00379561 -0.00414632 0)
(-0.00264128 -0.00309794 0)
(-0.00172201 -0.00211869 0)
(-0.00102521 -0.00124654 0)
(-0.00053206 -0.000524319 0)
(-0.00021718 -2.40588e-07 0)
(-5.04414e-05 0.000271135 0)
(-7.92607e-08 0.000223968 0)
(-4.70708e-05 0.00031096 0)
(-0.000332713 0.00125712 0)
(-0.000972061 0.00240628 0)
(-0.00191765 0.00366727 0)
(-0.00314546 0.00497233 0)
(-0.00464215 0.00626908 0)
(-0.00639087 0.00751826 0)
(-0.00837235 0.00869164 0)
(-0.0105661 0.00976989 0)
(-0.0129506 0.0107406 0)
(-0.0155039 0.0115968 0)
(-0.0182034 0.0123354 0)
(-0.0210266 0.0129561 0)
(-0.0239512 0.0134606 0)
(-0.026955 0.0138518 0)
(-0.0300165 0.0141331 0)
(-0.0331143 0.0143081 0)
(-0.0362276 0.0143802 0)
(-0.039336 0.0143527 0)
(-0.0424195 0.0142282 0)
(-0.0454584 0.0140089 0)
(-0.0484335 0.0136967 0)
(-0.0513256 0.0132929 0)
(-0.0541158 0.0127987 0)
(-0.0567857 0.0122152 0)
(-0.0593168 0.0115435 0)
(-0.0616914 0.0107848 0)
(-0.0638918 0.00994096 0)
(-0.065901 0.0090141 0)
(-0.0677027 0.00800717 0)
(-0.0692813 0.00692394 0)
(-0.0706223 0.00576913 0)
(-0.071712 0.00454852 0)
(-0.0725385 0.003269 0)
(-0.0730912 0.00193868 0)
(-0.0733612 0.000566818 0)
(-0.0733419 -0.000836114 0)
(-0.0730285 -0.00225852 0)
(-0.0724186 -0.00368774 0)
(-0.0715127 -0.00511017 0)
(-0.0703135 -0.00651138 0)
(-0.0688267 -0.00787634 0)
(-0.0670611 -0.00918957 0)
(-0.0650282 -0.0104354 0)
(-0.0627426 -0.0115982 0)
(-0.0602217 -0.0126627 0)
(-0.0574861 -0.0136142 0)
(-0.0545588 -0.014439 0)
(-0.0514656 -0.0151246 0)
(-0.0482345 -0.01566 0)
(-0.0448956 -0.016036 0)
(-0.0414807 -0.0162455 0)
(-0.0380228 -0.0162838 0)
(-0.0345559 -0.0161486 0)
(-0.0311143 -0.0158404 0)
(-0.0277319 -0.0153628 0)
(-0.0244421 -0.0147221 0)
(-0.0212769 -0.0139278 0)
(-0.0182664 -0.0129926 0)
(-0.0154381 -0.0119323 0)
(-0.0128164 -0.0107659 0)
(-0.010422 -0.0095156 0)
(-0.00827145 -0.00820684 0)
(-0.00637639 -0.00686833 0)
(-0.00474342 -0.00553226 0)
(-0.00337357 -0.00423441 0)
(-0.00226208 -0.00301448 0)
(-0.00139821 -0.00191651 0)
(-0.000764992 -0.000989368 0)
(-0.000338993 -0.000287244 0)
(-9.41734e-05 0.000129684 0)
(-6.94018e-06 0.000190568 0)
(-5.73491e-05 0.000494677 0)
(-0.000396713 0.00178768 0)
(-0.00114688 0.00326519 0)
(-0.00224463 0.0048365 0)
(-0.0036562 0.00643328 0)
(-0.00536227 0.00800218 0)
(-0.0073409 0.00950286 0)
(-0.00956852 0.0109061 0)
(-0.0120212 0.0121917 0)
(-0.0146746 0.0133468 0)
(-0.0175045 0.0143641 0)
(-0.0204865 0.0152404 0)
(-0.0235963 0.0159755 0)
(-0.0268101 0.0165716 0)
(-0.0301045 0.0170317 0)
(-0.0334564 0.0173598 0)
(-0.0368435 0.0175599 0)
(-0.0402435 0.0176359 0)
(-0.043635 0.0175913 0)
(-0.0469966 0.0174293 0)
(-0.0503076 0.0171524 0)
(-0.0535472 0.0167626 0)
(-0.0566952 0.0162616 0)
(-0.0597316 0.0156509 0)
(-0.0626365 0.0149318 0)
(-0.0653904 0.0141057 0)
(-0.0679742 0.0131744 0)
(-0.0703693 0.0121399 0)
(-0.0725576 0.0110052 0)
(-0.0745214 0.00977397 0)
(-0.0762444 0.0084508 0)
(-0.077711 0.00704155 0)
(-0.0789067 0.00555328 0)
(-0.0798186 0.00399439 0)
(-0.0804355 0.00237466 0)
(-0.0807478 0.000705291 0)
(-0.0807482 -0.00100114 0)
(-0.0804315 -0.0027307 0)
(-0.079795 -0.00446824 0)
(-0.0788387 -0.00619747 0)
(-0.0775653 -0.00790116 0)
(-0.0759805 -0.00956133 0)
(-0.0740931 -0.0111595 0)
(-0.0719151 -0.0126769 0)
(-0.0694614 -0.0140949 0)
(-0.0667502 -0.0153951 0)
(-0.0638028 -0.0165601 0)
(-0.0606435 -0.0175733 0)
(-0.0572992 -0.0184196 0)
(-0.0537995 -0.0190858 0)
(-0.0501763 -0.0195606 0)
(-0.0464632 -0.0198355 0)
(-0.0426955 -0.0199046 0)
(-0.0389094 -0.0197648 0)
(-0.0351416 -0.0194167 0)
(-0.0314288 -0.0188641 0)
(-0.0278072 -0.0181144 0)
(-0.0243113 -0.0171787 0)
(-0.0209742 -0.016072 0)
(-0.0178261 -0.0148129 0)
(-0.0148941 -0.0134239 0)
(-0.0122017 -0.0119311 0)
(-0.00976788 -0.0103645 0)
(-0.00760683 -0.00875801 0)
(-0.00572747 -0.00714906 0)
(-0.00413307 -0.00557918 0)
(-0.00282108 -0.004094 0)
(-0.001783 -0.0027435 0)
(-0.00100406 -0.00158246 0)
(-0.000463024 -0.000670649 0)
(-0.000138063 -7.32607e-05 0)
(-1.35997e-05 0.000134816 0)
(-6.71994e-05 0.000710574 0)
(-0.00045877 0.00240434 0)
(-0.00131736 0.00425463 0)
(-0.0025647 0.00617237 0)
(-0.00415752 0.00808989 0)
(-0.00607054 0.00995407 0)
(-0.00827658 0.0117245 0)
(-0.0107476 0.0133719 0)
(-0.0134561 0.0148761 0)
(-0.0163748 0.016224 0)
(-0.0194771 0.0174087 0)
(-0.0227364 0.0184272 0)
(-0.026127 0.0192798 0)
(-0.0296234 0.0199688 0)
(-0.0332011 0.0204982 0)
(-0.0368358 0.0208721 0)
(-0.0405038 0.0210952 0)
(-0.044182 0.0211718 0)
(-0.0478479 0.0211058 0)
(-0.051479 0.0209008 0)
(-0.0550534 0.0205595 0)
(-0.0585496 0.0200844 0)
(-0.061946 0.0194773 0)
(-0.0652217 0.01874 0)
(-0.0683557 0.0178741 0)
(-0.0713275 0.0168813 0)
(-0.074117 0.0157639 0)
(-0.0767045 0.0145244 0)
(-0.0790707 0.0131663 0)
(-0.0811974 0.0116942 0)
(-0.0830669 0.0101136 0)
(-0.0846629 0.00843149 0)
(-0.0859699 0.00665631 0)
(-0.0869743 0.00479798 0)
(-0.087664 0.00286805 0)
(-0.0880287 0.0008797 0)
(-0.0880603 -0.00115229 0)
(-0.087753 -0.0032116 0)
(-0.0871035 -0.00528045 0)
(-0.0861115 -0.0073398 0)
(-0.0847792 -0.00936946 0)
(-0.0831121 -0.0113484 0)
(-0.0811189 -0.0132549 0)
(-0.0788115 -0.0150671 0)
(-0.0762052 -0.016763 0)
(-0.0733185 -0.0183212 0)
(-0.0701733 -0.0197209 0)
(-0.0667947 -0.0209427 0)
(-0.0632107 -0.0219686 0)
(-0.0594522 -0.022783 0)
(-0.0555527 -0.0233724 0)
(-0.0515475 -0.0237264 0)
(-0.0474741 -0.0238377 0)
(-0.0433708 -0.0237026 0)
(-0.0392771 -0.0233211 0)
(-0.0352321 -0.0226973 0)
(-0.0312748 -0.0218397 0)
(-0.0274428 -0.0207608 0)
(-0.0237721 -0.0194779 0)
(-0.0202959 -0.0180124 0)
(-0.0170445 -0.0163903 0)
(-0.0140442 -0.0146418 0)
(-0.0113169 -0.0128017 0)
(-0.00887966 -0.0109087 0)
(-0.0067441 -0.00900593 0)
(-0.00491612 -0.0071407 0)
(-0.00339571 -0.00536454 0)
(-0.00217692 -0.00373339 0)
(-0.00124741 -0.0023078 0)
(-0.00058826 -0.0011529 0)
(-0.000181785 -0.000338537 0)
(-2.00313e-05 5.68805e-05 0)
(-7.66458e-05 0.000957571 0)
(-0.000518781 0.0031048 0)
(-0.00148292 0.00537172 0)
(-0.00287642 0.00767178 0)
(-0.00464688 0.00993903 0)
(-0.00676313 0.0121216 0)
(-0.00919277 0.0141799 0)
(-0.0119033 0.0160856 0)
(-0.0148633 0.017819 0)
(-0.0180428 0.0193678 0)
(-0.0214123 0.0207257 0)
(-0.0249436 0.0218903 0)
(-0.0286089 0.0228626 0)
(-0.0323816 0.0236457 0)
(-0.0362357 0.024244 0)
(-0.0401459 0.0246625 0)
(-0.0440874 0.0249062 0)
(-0.0480364 0.02498 0)
(-0.051969 0.0248883 0)
(-0.0558623 0.0246349 0)
(-0.0596933 0.024223 0)
(-0.0634395 0.0236552 0)
(-0.0670786 0.0229338 0)
(-0.0705886 0.0220607 0)
(-0.0739478 0.0210377 0)
(-0.0771347 0.0198671 0)
(-0.0801283 0.0185514 0)
(-0.0829079 0.0170937 0)
(-0.0854534 0.0154983 0)
(-0.0877456 0.0137703 0)
(-0.089766 0.0119164 0)
(-0.0914972 0.00994467 0)
(-0.0929231 0.0078649 0)
(-0.0940291 0.00568861 0)
(-0.094802 0.00342915 0)
(-0.0952309 0.00110171 0)
(-0.0953068 -0.00127669 0)
(-0.0950232 -0.00368726 0)
(-0.0943759 -0.00610957 0)
(-0.093364 -0.00852168 0)
(-0.091989 -0.0109004 0)
(-0.090256 -0.0132215 0)
(-0.0881733 -0.01546 0)
(-0.0857525 -0.0175906 0)
(-0.0830089 -0.0195879 0)
(-0.079961 -0.021427 0)
(-0.0766311 -0.0230839 0)
(-0.0730449 -0.0245359 0)
(-0.0692313 -0.0257621 0)
(-0.0652223 -0.0267438 0)
(-0.0610526 -0.0274654 0)
(-0.0567595 -0.0279142 0)
(-0.0523823 -0.0280813 0)
(-0.0479617 -0.027962 0)
(-0.0435396 -0.0275556 0)
(-0.039158 -0.0268665 0)
(-0.0348588 -0.0259038 0)
(-0.0306829 -0.0246815 0)
(-0.0266692 -0.023219 0)
(-0.0228546 -0.0215405 0)
(-0.0192726 -0.0196756 0)
(-0.0159528 -0.0176587 0)
(-0.0129204 -0.015529 0)
(-0.0101957 -0.0133308 0)
(-0.00779342 -0.0111125 0)
(-0.00572236 -0.00892747 0)
(-0.00398542 -0.00683322 0)
(-0.00257943 -0.00489167 0)
(-0.00149467 -0.00316912 0)
(-0.000714544 -0.00173601 0)
(-0.000225338 -0.000666709 0)
(-2.62613e-05 -4.30223e-05 0)
(-8.57097e-05 0.00123458 0)
(-0.000576692 0.00388652 0)
(-0.00164318 0.00661303 0)
(-0.00317881 0.00933082 0)
(-0.00512246 0.0119765 0)
(-0.00743722 0.0145003 0)
(-0.0100856 0.0168646 0)
(-0.0130304 0.0190424 0)
(-0.0162369 0.0210156 0)
(-0.0196716 0.0227731 0)
(-0.0233027 0.0243095 0)
(-0.0270999 0.0256238 0)
(-0.0310337 0.0267178 0)
(-0.0350761 0.0275956 0)
(-0.0391999 0.0282624 0)
(-0.0433786 0.0287238 0)
(-0.0475868 0.0289857 0)
(-0.0517996 0.0290534 0)
(-0.0559925 0.0289318 0)
(-0.0601416 0.0286251 0)
(-0.0642233 0.0281367 0)
(-0.0682144 0.0274697 0)
(-0.0720918 0.0266265 0)
(-0.0758327 0.0256093 0)
(-0.0794148 0.0244203 0)
(-0.0828156 0.0230619 0)
(-0.0860133 0.0215371 0)
(-0.0889866 0.0198496 0)
(-0.0917145 0.0180042 0)
(-0.0941768 0.0160069 0)
(-0.0963543 0.0138653 0)
(-0.0982285 0.0115888 0)
(-0.0997826 0.00918829 0)
(-0.101001 0.006677 0)
(-0.101869 0.00407005 0)
(-0.102376 0.00138466 0)
(-0.102511 -0.00135989 0)
(-0.102267 -0.00414232 0)
(-0.101638 -0.0069395 0)
(-0.100623 -0.00972658 0)
(-0.0992229 -0.0124772 0)
(-0.0974413 -0.0151639 0)
(-0.095286 -0.0177583 0)
(-0.0927683 -0.0202315 0)
(-0.0899028 -0.0225545 0)
(-0.0867082 -0.0246989 0)
(-0.0832066 -0.026637 0)
(-0.0794241 -0.0283425 0)
(-0.0753902 -0.0297913 0)
(-0.0711379 -0.0309618 0)
(-0.0667031 -0.0318353 0)
(-0.0621248 -0.0323968 0)
(-0.0574442 -0.0326356 0)
(-0.0527043 -0.0325453 0)
(-0.0479496 -0.0321249 0)
(-0.0432251 -0.0313781 0)
(-0.0385758 -0.0303149 0)
(-0.0340459 -0.0289505 0)
(-0.0296781 -0.0273062 0)
(-0.0255127 -0.0254091 0)
(-0.021587 -0.0232922 0)
(-0.0179345 -0.020994 0)
(-0.0145839 -0.0185587 0)
(-0.0115592 -0.0160356 0)
(-0.00887847 -0.0134792 0)
(-0.00655398 -0.0109486 0)
(-0.00459174 -0.00850752 0)
(-0.0029916 -0.00622401 0)
(-0.00174655 -0.00417024 0)
(-0.000842324 -0.00242203 0)
(-0.000268944 -0.00105842 0)
(-3.23482e-05 -0.000164759 0)
(-9.44061e-05 0.0015405 0)
(-0.000632469 0.0047468 0)
(-0.00179784 0.00797475 0)
(-0.00347113 0.011145 0)
(-0.00558283 0.0141973 0)
(-0.00809057 0.0170851 0)
(-0.0109518 0.0197731 0)
(-0.014125 0.0222368 0)
(-0.0175716 0.0244601 0)
(-0.0212553 0.0264337 0)
(-0.0251416 0.028154 0)
(-0.029198 0.0296213 0)
(-0.0333937 0.0308388 0)
(-0.037699 0.0318118 0)
(-0.0420855 0.0325465 0)
(-0.0465261 0.0330494 0)
(-0.0509943 0.0333271 0)
(-0.0554644 0.0333856 0)
(-0.0599115 0.0332303 0)
(-0.0643108 0.0328657 0)
(-0.0686384 0.0322958 0)
(-0.0728701 0.0315237 0)
(-0.0769825 0.0305522 0)
(-0.0809521 0.0293837 0)
(-0.0847558 0.0280206 0)
(-0.0883707 0.0264658 0)
(-0.0917742 0.0247225 0)
(-0.0949441 0.022795 0)
(-0.0978589 0.0206886 0)
(-0.100497 0.0184102 0)
(-0.10284 0.0159683 0)
(-0.104866 0.0133732 0)
(-0.10656 0.0106374 0)
(-0.107903 0.00777552 0)
(-0.10888 0.00480448 0)
(-0.10948 0.00174349 0)
(-0.10969 -0.00138592 0)
(-0.109502 -0.00456 0)
(-0.10891 -0.00775288 0)
(-0.10791 -0.0109368 0)
(-0.106503 -0.0140822 0)
(-0.104691 -0.0171582 0)
(-0.102481 -0.0201329 0)
(-0.099884 -0.0229737 0)
(-0.0969129 -0.0256479 0)
(-0.0935863 -0.0281232 0)
(-0.0899264 -0.0303679 0)
(-0.0859589 -0.0323523 0)
(-0.0817141 -0.0340483 0)
(-0.0772254 -0.035431 0)
(-0.0725301 -0.0364785 0)
(-0.0676685 -0.0371732 0)
(-0.0626839 -0.0375019 0)
(-0.0576217 -0.0374566 0)
(-0.0525288 -0.0370349 0)
(-0.0474535 -0.0362404 0)
(-0.0424442 -0.0350831 0)
(-0.0375487 -0.0335793 0)
(-0.0328136 -0.0317522 0)
(-0.0282834 -0.0296316 0)
(-0.0239993 -0.0272539 0)
(-0.019999 -0.0246618 0)
(-0.0163155 -0.0219043 0)
(-0.0129767 -0.0190361 0)
(-0.0100046 -0.0161176 0)
(-0.00741519 -0.0132141 0)
(-0.00521785 -0.0103957 0)
(-0.0034157 -0.00773673 0)
(-0.00200458 -0.0053155 0)
(-0.000972475 -0.00321349 0)
(-0.000312974 -0.00151466 0)
(-3.83701e-05 -0.000308365 0)
(-0.000102743 0.00187422 0)
(-0.000686065 0.00568279 0)
(-0.00194667 0.00945274 0)
(-0.00375273 0.0131091 0)
(-0.00602681 0.0165958 0)
(-0.00872128 0.0198697 0)
(-0.0117887 0.0228991 0)
(-0.0151835 0.0256622 0)
(-0.0188632 0.0281458 0)
(-0.0227886 0.030343 0)
(-0.0269229 0.0322522 0)
(-0.0312314 0.0338758 0)
(-0.0356816 0.0352187 0)
(-0.0402426 0.0362874 0)
(-0.0448849 0.0370895 0)
(-0.0495804 0.0376326 0)
(-0.054302 0.037924 0)
(-0.0590233 0.0379706 0)
(-0.0637187 0.0377782 0)
(-0.0683632 0.0373519 0)
(-0.072932 0.036696 0)
(-0.0774009 0.0358139 0)
(-0.0817457 0.0347085 0)
(-0.0859425 0.0333826 0)
(-0.0899676 0.0318389 0)
(-0.0937977 0.0300803 0)
(-0.0974095 0.0281106 0)
(-0.10078 0.0259344 0)
(-0.103887 0.0235576 0)
(-0.10671 0.0209878 0)
(-0.109226 0.0182344 0)
(-0.111415 0.0153087 0)
(-0.11326 0.0122246 0)
(-0.114741 0.00899797 0)
(-0.115843 0.00564756 0)
(-0.116552 0.00219451 0)
(-0.116855 -0.00133747 0)
(-0.116742 -0.00492217 0)
(-0.116205 -0.00853102 0)
(-0.115241 -0.0121333 0)
(-0.113846 -0.0156962 0)
(-0.112024 -0.0191855 0)
(-0.109778 -0.0225655 0)
(-0.107119 -0.0258 0)
(-0.10406 -0.0288521 0)
(-0.100617 -0.0316854 0)
(-0.0968128 -0.0342643 0)
(-0.0926725 -0.0365548 0)
(-0.0882263 -0.0385249 0)
(-0.0835086 -0.0401458 0)
(-0.0785573 -0.0413921 0)
(-0.0734144 -0.042243 0)
(-0.0681248 -0.0426825 0)
(-0.0627364 -0.0427005 0)
(-0.0572991 -0.0422931 0)
(-0.0518642 -0.0414628 0)
(-0.0464838 -0.0402198 0)
(-0.0412097 -0.0385811 0)
(-0.0360928 -0.0365715 0)
(-0.0311819 -0.0342235 0)
(-0.0265231 -0.0315765 0)
(-0.0221584 -0.0286778 0)
(-0.0181257 -0.025581 0)
(-0.0144571 -0.0223465 0)
(-0.0111791 -0.0190407 0)
(-0.0083117 -0.0157353 0)
(-0.00586812 -0.0125071 0)
(-0.00385491 -0.00943715 0)
(-0.00227084 -0.00661012 0)
(-0.00110618 -0.00411358 0)
(-0.000357899 -0.00203692 0)
(-4.4417e-05 -0.000474109 0)
(-0.00011072 0.00223463 0)
(-0.00073742 0.00669151 0)
(-0.00208939 0.0110426 0)
(-0.00402301 0.0152179 0)
(-0.0064533 0.0191658 0)
(-0.00932761 0.0228475 0)
(-0.012594 0.0262353 0)
(-0.0162025 0.0293112 0)
(-0.0201076 0.0320651 0)
(-0.0242668 0.0344933 0)
(-0.028641 0.0365967 0)
(-0.0331936 0.0383799 0)
(-0.0378905 0.0398499 0)
(-0.0426995 0.0410151 0)
(-0.0475901 0.0418843 0)
(-0.0525334 0.0424665 0)
(-0.0575016 0.04277 0)
(-0.0624678 0.0428023 0)
(-0.0674059 0.0425702 0)
(-0.0722905 0.0420791 0)
(-0.0770965 0.0413335 0)
(-0.0817993 0.0403374 0)
(-0.0863743 0.0390938 0)
(-0.0907973 0.0376057 0)
(-0.0950443 0.0358759 0)
(-0.0990912 0.0339077 0)