/*--------------------------------*- C++ -*----------------------------------*\
  =========                 |
  \\      /  F ield         | OpenFOAM: The Open Source CFD Toolbox
   \\    /   O peration     | Website:  https://openfoam.org
    \\  /    A nd           | Version:  dev
     \\/     M anipulation  |
\*---------------------------------------------------------------------------*/
FoamFile
{
    format      ascii;
    class       volScalarField;
    location    "40.5";
    object      Uy;
}
// * * * * * * * * * * * * * * * * * * * * * * * * * * * * * * * * * * * * * //

dimensions      [0 1 -1 0 0 0 0];

internalField   nonuniform List<scalar> 
5184
(
-1.27188e-05
-2.09014e-05
-1.72572e-05
-8.2021e-06
2.66616e-06
1.36175e-05
2.38479e-05
3.3053e-05
4.11129e-05
4.80333e-05
5.38759e-05
5.87254e-05
6.26744e-05
6.58142e-05
6.82296e-05
6.9996e-05
7.11776e-05
7.1827e-05
7.1985e-05
7.16811e-05
7.09347e-05
6.97563e-05
6.81489e-05
6.61094e-05
6.36306e-05
6.07027e-05
5.73152e-05
5.34585e-05
4.91255e-05
4.43133e-05
3.90243e-05
3.32677e-05
2.70608e-05
2.04296e-05
1.34097e-05
6.04706e-06
-1.60227e-06
-9.47183e-06
-1.74851e-05
-2.55562e-05
-3.35907e-05
-4.14869e-05
-4.91376e-05
-5.64318e-05
-6.32567e-05
-6.95006e-05
-7.50546e-05
-7.98158e-05
-8.36893e-05
-8.65916e-05
-8.8452e-05
-8.92153e-05
-8.88434e-05
-8.73164e-05
-8.46339e-05
-8.08154e-05
-7.59003e-05
-6.99473e-05
-6.30343e-05
-5.52571e-05
-4.673e-05
-3.75859e-05
-2.79798e-05
-1.80941e-05
-8.15437e-06
1.5446e-06
1.0578e-05
1.83086e-05
2.37243e-05
2.51341e-05
1.98532e-05
6.24691e-06
-4.59123e-05
-6.57494e-05
-4.05896e-05
7.61582e-06
6.56757e-05
0.000126004
0.000184323
0.000238384
0.000287047
0.000329869
0.000366811
0.000398061
0.000423932
0.000444791
0.000461014
0.000472961
0.000480954
0.000485269
0.000486129
0.000483706
0.000478121
0.00046945
0.000457733
0.000442977
0.000425172
0.000404294
0.000380318
0.000353228
0.000323024
0.000289733
0.000253415
0.000214173
0.000172157
0.000127571
8.06736e-05
3.17844e-05
-1.87174e-05
-7.03938e-05
-0.000122749
-0.000175237
-0.000227261
-0.00027819
-0.000327363
-0.0003741
-0.000417716
-0.000457537
-0.000492909
-0.000523218
-0.000547901
-0.000566466
-0.000578499
-0.000583681
-0.000581795
-0.000572739
-0.000556528
-0.000533302
-0.000503325
-0.000466986
-0.000424801
-0.000377409
-0.00032558
-0.000270219
-0.000212386
-0.000153336
-9.45788e-05
-3.79936e-05
1.3957e-05
5.79681e-05
8.94473e-05
0.000101897
8.65492e-05
3.65015e-05
-8.1351e-05
-9.50949e-05
-1.91837e-05
0.000105908
0.000254667
0.000410642
0.000563519
0.000707159
0.000838111
0.000954666
0.00105623
0.0011429
0.00121518
0.0012738
0.00131959
0.00135336
0.0013759
0.00138786
0.00138982
0.00138221
0.00136538
0.00133953
0.0013048
0.00126125
0.00120889
0.00114771
0.00107771
0.000998885
0.000911313
0.00081513
0.000710567
0.00059797
0.000477811
0.000350708
0.000217425
7.88875e-05
-6.38253e-05
-0.000209477
-0.000356683
-0.000503927
-0.000649571
-0.000791882
-0.000929058
-0.00105925
-0.00118062
-0.00129134
-0.00138965
-0.0014739
-0.00154261
-0.00159445
-0.00162832
-0.00164339
-0.00163909
-0.00161517
-0.00157169
-0.00150906
-0.00142803
-0.00132969
-0.0012155
-0.00108725
-0.000947139
-0.000797718
-0.000641999
-0.000483518
-0.000326473
-0.000175955
-3.82841e-05
7.85223e-05
0.000164165
0.000205476
0.000186346
9.04202e-05
-9.77949e-05
-7.32211e-05
8.47324e-05
0.000318361
0.000590156
0.000874486
0.00115431
0.00141885
0.00166162
0.00187908
0.00206968
0.00223316
0.0023701
0.00248151
0.00256869
0.00263295
0.00267557
0.00269772
0.00270037
0.00268431
0.00265013
0.00259827
0.002529
0.00244247
0.00233876
0.00221792
0.00207999
0.0019251
0.00175345
0.00156539
0.00136144
0.00114234
0.000909069
0.000662859
0.000405227
0.000137977
-0.000136802
-0.000416739
-0.000699198
-0.000981299
-0.00125996
-0.00153191
-0.00179378
-0.00204213
-0.00227351
-0.00248452
-0.00267193
-0.00283268
-0.00296399
-0.00306345
-0.00312902
-0.00315917
-0.00315287
-0.00310968
-0.00302974
-0.00291385
-0.00276343
-0.00258058
-0.00236807
-0.00212935
-0.00186856
-0.00159062
-0.00130123
-0.00100708
-0.000715968
-0.000437187
-0.000181878
3.63426e-05
0.000200754
0.000290959
0.000282666
0.000147329
-8.4464e-05
2.0825e-05
0.000295424
0.000668081
0.00109098
0.00153018
0.00196225
0.0023717
0.00274881
0.00308793
0.00338629
0.00364308
0.00385875
0.00403454
0.00417212
0.0042733
0.00433988
0.0043735
0.00437559
0.00434732
0.0042896
0.00420309
0.00408825
0.00394537
0.00377465
0.00357624
0.00335032
0.00309718
0.00281725
0.00251121
0.00217999
0.00182488
0.00144752
0.00104996
0.000634688
0.000204624
-0.00023687
-0.000686005
-0.00113859
-0.00159007
-0.00203557
-0.00246998
-0.00288799
-0.00328423
-0.00365331
-0.00398995
-0.00428911
-0.00454602
-0.0047564
-0.00491647
-0.00502312
-0.00507394
-0.00506738
-0.00500275
-0.00488031
-0.00470132
-0.00446806
-0.00418385
-0.00385307
-0.00348118
-0.00307477
-0.00264157
-0.00219058
-0.00173222
-0.00127853
-0.000843577
-0.000443849
-9.89128e-05
0.000167889
0.000328819
0.000351137
0.000194207
-3.75775e-05
0.000197322
0.000626938
0.0011705
0.00177203
0.00239067
0.00299733
0.00357222
0.00410248
0.00458035
0.00500174
0.00536516
0.00567085
0.00592019
0.00611514
0.00625799
0.006351
0.00639631
0.00639579
0.00635101
0.0062632
0.00613329
0.00596196
0.00574967
0.00549678
0.0052036
0.00487053
0.00449808
0.00408703
0.00363846
0.00315387
0.0026352
0.00208495
0.00150616
0.000902478
0.000278163
-0.00036192
-0.00101231
-0.00166701
-0.00231951
-0.00296287
-0.00358982
-0.00419287
-0.00476438
-0.00529677
-0.0057826
-0.00621472
-0.00658646
-0.00689177
-0.00712535
-0.00728279
-0.00736074
-0.00735699
-0.00727058
-0.00710191
-0.00685276
-0.00652636
-0.00612746
-0.00566228
-0.00513861
-0.00456579
-0.00395481
-0.00331838
-0.00267109
-0.00202968
-0.00141335
-0.00084424
-0.000348042
4.52617e-05
0.000300723
0.000377521
0.000224608
4.40628e-05
0.000461283
0.0010872
0.00183502
0.00264286
0.00346447
0.00426619
0.00502457
0.005724
0.00635477
0.00691156
0.00739222
0.00779675
0.00812659
0.008384
0.00857164
0.00869226
0.00874846
0.00874253
0.00867645
0.00855177
0.0083697
0.00813116
0.00783682
0.00748724
0.00708297
0.00662463
0.00611308
0.0055495
0.0049355
0.00427325
0.0035655
0.00281572
0.00202812
0.00120768
0.000360177
-0.000507807
-0.00138894
-0.00227517
-0.00315782
-0.00402764
-0.00487497
-0.00568985
-0.00646219
-0.00718192
-0.00783919
-0.00842458
-0.00892925
-0.00934519
-0.00966537
-0.00988398
-0.00999654
-0.0100001
-0.00989347
-0.00967704
-0.0093532
-0.00892622
-0.00840238
-0.00778994
-0.00709922
-0.00634262
-0.00553465
-0.00469206
-0.00383396
-0.00298204
-0.0021609
-0.00139849
-0.00072667
-0.000181931
0.000193906
0.000352711
0.000235098
0.000160454
0.00081458
0.00167999
0.00266665
0.00370885
0.00475653
0.00577262
0.00673085
0.00761339
0.00840898
0.00911127
0.00971755
0.0102276
0.010643
0.0109663
0.0112005
0.0113487
0.0114141
0.0113994
0.0113068
0.0111383
0.0108954
0.0105792
0.0101907
0.00973069
0.00919991
0.00859933
0.0079302
0.00719419
0.00639354
0.00553117
0.00461077
0.0036369
0.00261507
0.00155176
0.000454426
-0.000668483
-0.00180757
-0.00295256
-0.00409239
-0.00521531
-0.00630905
-0.007361
-0.00835837
-0.0092884
-0.0101386
-0.0108971
-0.0115527
-0.0120952
-0.0125157
-0.0128067
-0.0129627
-0.0129797
-0.0128562
-0.0125926
-0.0121918
-0.0116594
-0.011003
-0.0102331
-0.00936285
-0.00840774
-0.00738609
-0.00631891
-0.00523003
-0.00414632
-0.00309794
-0.00211869
-0.00124654
-0.000524319
-2.40588e-07
0.000271135
0.000223968
0.00031096
0.00125712
0.00240628
0.00366727
0.00497233
0.00626908
0.00751826
0.00869164
0.00976989
0.0107406
0.0115968
0.0123354
0.0129561
0.0134606
0.0138518
0.0141331
0.0143081
0.0143802
0.0143527
0.0142282
0.0140089
0.0136967
0.0132929
0.0127987
0.0122152
0.0115435
0.0107848
0.00994096
0.0090141
0.00800717
0.00692394
0.00576913
0.00454852
0.003269
0.00193868
0.000566818
-0.000836114
-0.00225852
-0.00368774
-0.00511017
-0.00651138
-0.00787634
-0.00918957
-0.0104354
-0.0115982
-0.0126627
-0.0136142
-0.014439
-0.0151246
-0.01566
-0.016036
-0.0162455
-0.0162838
-0.0161486
-0.0158404
-0.0153628
-0.0147221
-0.0139278
-0.0129926
-0.0119323
-0.0107659
-0.0095156
-0.00820684
-0.00686833
-0.00553226
-0.00423441
-0.00301448
-0.00191651
-0.000989368
-0.000287244
0.000129684
0.000190568
0.000494677
0.00178768
0.00326519
0.0048365
0.00643328
0.00800218
0.00950286
0.0109061
0.0121917
0.0133468
0.0143641
0.0152404
0.0159755
0.0165716
0.0170317
0.0173598
0.0175599
0.0176359
0.0175913
0.0174293
0.0171524
0.0167626
0.0162616
0.0156509
0.0149318
0.0141057
0.0131744
0.0121399
0.0110052
0.00977397
0.0084508
0.00704155
0.00555328
0.00399439
0.00237466
0.000705291
-0.00100114
-0.0027307
-0.00446824
-0.00619747
-0.00790116
-0.00956133
-0.0111595
-0.0126769
-0.0140949
-0.0153951
-0.0165601
-0.0175733
-0.0184196
-0.0190858
-0.0195606
-0.0198355
-0.0199046
-0.0197648
-0.0194167
-0.0188641
-0.0181144
-0.0171787
-0.016072
-0.0148129
-0.0134239
-0.0119311
-0.0103645
-0.00875801
-0.00714906
-0.00557918
-0.004094
-0.0027435
-0.00158246
-0.000670649
-7.32607e-05
0.000134816
0.000710574
0.00240434
0.00425463
0.00617237
0.00808989
0.00995407
0.0117245
0.0133719
0.0148761
0.016224
0.0174087
0.0184272
0.0192798
0.0199688
0.0204982
0.0208721
0.0210952
0.0211718
0.0211058
0.0209008
0.0205595
0.0200844
0.0194773
0.01874
0.0178741
0.0168813
0.0157639
0.0145244
0.0131663
0.0116942
0.0101136
0.00843149
0.00665631
0.00479798
0.00286805
0.0008797
-0.00115229
-0.0032116
-0.00528045
-0.0073398
-0.00936946
-0.0113484
-0.0132549
-0.0150671
-0.016763
-0.0183212
-0.0197209
-0.0209427
-0.0219686
-0.022783
-0.0233724
-0.0237264
-0.0238377
-0.0237026
-0.0233211
-0.0226973
-0.0218397
-0.0207608
-0.0194779
-0.0180124
-0.0163903
-0.0146418
-0.0128017
-0.0109087
-0.00900593
-0.0071407
-0.00536454
-0.00373339
-0.0023078
-0.0011529
-0.000338537
5.68805e-05
0.000957571
0.0031048
0.00537172
0.00767178
0.00993903
0.0121216
0.0141799
0.0160856
0.017819
0.0193678
0.0207257
0.0218903
0.0228626
0.0236457
0.024244
0.0246625
0.0249062
0.02498
0.0248883
0.0246349
0.024223
0.0236552
0.0229338
0.0220607
0.0210377
0.0198671
0.0185514
0.0170937
0.0154983
0.0137703
0.0119164
0.00994467
0.0078649
0.00568861
0.00342915
0.00110171
-0.00127669
-0.00368726
-0.00610957
-0.00852168
-0.0109004
-0.0132215
-0.01546
-0.0175906
-0.0195879
-0.021427
-0.0230839
-0.0245359
-0.0257621
-0.0267438
-0.0274654
-0.0279142
-0.0280813
-0.027962
-0.0275556
-0.0268665
-0.0259038
-0.0246815
-0.023219
-0.0215405
-0.0196756
-0.0176587
-0.015529
-0.0133308
-0.0111125
-0.00892747
-0.00683322
-0.00489167
-0.00316912
-0.00173601
-0.000666709
-4.30223e-05
0.00123458
0.00388652
0.00661303
0.00933082
0.0119765
0.0145003
0.0168646
0.0190424
0.0210156
0.0227731
0.0243095
0.0256238
0.0267178
0.0275956
0.0282624
0.0287238
0.0289857
0.0290534
0.0289318
0.0286251
0.0281367
0.0274697
0.0266265
0.0256093
0.0244203
0.0230619
0.0215371
0.0198496
0.0180042
0.0160069
0.0138653
0.0115888
0.00918829
0.006677
0.00407005
0.00138466
-0.00135989
-0.00414232
-0.0069395
-0.00972658
-0.0124772
-0.0151639
-0.0177583
-0.0202315
-0.0225545
-0.0246989
-0.026637
-0.0283425
-0.0297913
-0.0309618
-0.0318353
-0.0323968
-0.0326356
-0.0325453
-0.0321249
-0.0313781
-0.0303149
-0.0289505
-0.0273062
-0.0254091
-0.0232922
-0.020994
-0.0185587
-0.0160356
-0.0134792
-0.0109486
-0.00850752
-0.00622401
-0.00417024
-0.00242203
-0.00105842
-0.000164759
0.0015405
0.0047468
0.00797475
0.011145
0.0141973
0.0170851
0.0197731
0.0222368
0.0244601
0.0264337
0.028154
0.0296213
0.0308388
0.0318118
0.0325465
0.0330494
0.0333271
0.0333856
0.0332303
0.0328657
0.0322958
0.0315237
0.0305522
0.0293837
0.0280206
0.0264658
0.0247225
0.022795
0.0206886
0.0184102
0.0159683
0.0133732
0.0106374
0.00777552
0.00480448
0.00174349
-0.00138592
-0.00456
-0.00775288
-0.0109368
-0.0140822
-0.0171582
-0.0201329
-0.0229737
-0.0256479
-0.0281232
-0.0303679
-0.0323523
-0.0340483
-0.035431
-0.0364785
-0.0371732
-0.0375019
-0.0374566
-0.0370349
-0.0362404
-0.0350831
-0.0335793
-0.0317522
-0.0296316
-0.0272539
-0.0246618
-0.0219043
-0.0190361
-0.0161176
-0.0132141
-0.0103957
-0.00773673
-0.0053155
-0.00321349
-0.00151466
-0.000308365
0.00187422
0.00568279
0.00945274
0.0131091
0.0165958
0.0198697
0.0228991
0.0256622
0.0281458
0.030343
0.0322522
0.0338758
0.0352187
0.0362874
0.0370895
0.0376326
0.037924
0.0379706
0.0377782
0.0373519
0.036696
0.0358139
0.0347085
0.0333826
0.0318389
0.0300803
0.0281106
0.0259344
0.0235576
0.0209878
0.0182344
0.0153087
0.0122246
0.00899797
0.00564756
0.00219451
-0.00133747
-0.00492217
-0.00853102
-0.0121333
-0.0156962
-0.0191855
-0.0225655
-0.0258
-0.0288521
-0.0316854
-0.0342643
-0.0365548
-0.0385249
-0.0401458
-0.0413921
-0.042243
-0.0426825
-0.0427005
-0.0422931
-0.0414628
-0.0402198
-0.0385811
-0.0365715
-0.0342235
-0.0315765
-0.0286778
-0.025581
-0.0223465
-0.0190407
-0.0157353
-0.0125071
-0.00943715
-0.00661012
-0.00411358
-0.00203692
-0.000474109
0.00223463
0.00669151
0.0110426
0.0152179
0.0191658
0.0228475
0.0262353
0.0293112
0.0320651
0.0344933
0.0365967
0.0383799
0.0398499
0.0410151
0.0418843
0.0424665
0.04277
0.0428023
0.0425702
0.0420791
0.0413335
0.0403374
0.0390938
0.0376057
0.0358759
0.0339077
0.0317051
0.0292731
0.0266181
0.0237484
0.020674
0.0174074
0.0139633
0.0103594
0.00661568
0.00275531
-0.00119591
-0.0052094
-0.00925392
-0.0132958
-0.017299
-0.0212259
-0.025037
-0.0286919
-0.0321499
-0.0353702
-0.0383126
-0.0409387
-0.0432122
-0.0451
-0.0465727
-0.0476057
-0.0481799
-0.0482824
-0.0479072
-0.0470558
-0.0457376
-0.0439703
-0.04178
-0.0392014
-0.0362774
-0.0330592
-0.0296056
-0.0259826
-0.0222629
-0.018525
-0.0148527
-0.0113339
-0.00806043
-0.00512644
-0.00262734
-0.000662526
0.00262055
0.00776988
0.0127396
0.0174653
0.0219003
0.0260109
0.0297739
0.0331757
0.0362099
0.0388763
0.041179
0.0431253
0.0447245
0.045987
0.0469234
0.047544
0.0478583
0.0478748
0.0476009
0.0470425
0.0462048
0.0450917
0.0437066
0.0420526
0.0401328
0.0379506
0.0355103
0.032817
0.0298778
0.0267012
0.0232981
0.0196818
0.015868
0.0118756
0.00772615
0.0034445
-0.000941536
-0.00540109
-0.00990034
-0.0144027
-0.018869
-0.023258
-0.0275264
-0.0316298
-0.035523
-0.0391607
-0.0424979
-0.0454916
-0.0481004
-0.0502865
-0.0520161
-0.0532602
-0.053996
-0.0542073
-0.0538854
-0.0530301
-0.0516499
-0.0497623
-0.0473947
-0.0445837
-0.0413755
-0.0378252
-0.0339968
-0.0299623
-0.0258007
-0.0215978
-0.0174447
-0.013437
-0.00967407
-0.00625726
-0.00328881
-0.000874448
0.0030308
0.00891461
0.0145389
0.019845
0.0247921
0.0293519
0.0335064
0.0372467
0.040571
0.0434829
0.0459901
0.048103
0.0498337
0.0511947
0.0521987
0.0528575
0.053182
0.0531817
0.0528647
0.0522377
0.051306
0.050074
0.0485454
0.0467234
0.044611
0.042212
0.0395306
0.0365724
0.0333445
0.029856
0.0261182
0.0221451
0.0179535
0.0135631
0.008997
0.0042815
-0.000553723
-0.00547563
-0.0104479
-0.0154312
-0.0203831
-0.0252589
-0.0300115
-0.0345921
-0.0389511
-0.0430382
-0.0468037
-0.050199
-0.0531777
-0.0556966
-0.0577167
-0.0592043
-0.060132
-0.0604796
-0.0602354
-0.0593965
-0.05797
-0.055973
-0.0534334
-0.0503896
-0.0468908
-0.0429963
-0.038775
-0.0343049
-0.0296722
-0.02497
-0.0202974
-0.0157583
-0.0114601
-0.00751237
-0.00402499
-0.00111102
0.00346409
0.0101223
0.0164352
0.0223504
0.0278335
0.0328619
0.0374234
0.0415146
0.0451385
0.0483031
0.0510201
0.0533034
0.055168
0.0566291
0.0577015
0.0583989
0.0587335
0.0587161
0.0583555
0.0576592
0.0566329
0.0552814
0.0536085
0.0516175
0.0493115
0.0466943
0.0437703
0.040545
0.0370259
0.0332221
0.0291456
0.0248106
0.0202348
0.0154387
0.0104467
0.00528623
-1.11784e-05
-0.00541055
-0.0108732
-0.0163572
-0.0218169
-0.0272042
-0.032468
-0.0375553
-0.0424118
-0.046982
-0.051211
-0.0550444
-0.0584302
-0.0613193
-0.0636669
-0.0654337
-0.0665872
-0.0671025
-0.0669638
-0.0661651
-0.0647112
-0.0626184
-0.0599145
-0.0566394
-0.052845
-0.0485944
-0.043962
-0.0390319
-0.0338975
-0.02866
-0.0234269
-0.0183111
-0.0134291
-0.00889939
-0.0048404
-0.00137371
0.00391912
0.0113892
0.0184229
0.0249744
0.0310159
0.0365315
0.0415151
0.0459691
0.0499018
0.0533262
0.0562584
0.0587159
0.0607171
0.0622802
0.0634223
0.0641591
0.0645045
0.0644703
0.0640666
0.0633013
0.0621808
0.0607102
0.0588934
0.0567338
0.0542347
0.0513996
0.048233
0.0447404
0.0409292
0.0368088
0.0323912
0.0276912
0.0227267
0.0175191
0.0120936
0.00647883
0.00070777
-0.00518281
-0.0111521
-0.0171556
-0.0231447
-0.0290678
-0.0348701
-0.0404941
-0.0458806
-0.0509689
-0.0556984
-0.0600087
-0.0638415
-0.0671411
-0.0698565
-0.0719421
-0.073359
-0.0740772
-0.0740757
-0.0733448
-0.0718862
-0.0697143
-0.0668565
-0.0633538
-0.0592602
-0.054643
-0.0495815
-0.0441664
-0.0384986
-0.0326879
-0.0268512
-0.0211108
-0.0155934
-0.0104272
-0.00574042
-0.00166433
0.00439446
0.0127117
0.0204961
0.0277094
0.0343306
0.0403509
0.0457708
0.050599
0.0548496
0.0585408
0.0616933
0.064329
0.06647
0.0681373
0.0693508
0.0701284
0.0704856
0.0704359
0.0699901
0.0691571
0.0679439
0.0663557
0.0643967
0.0620704
0.05938
0.0563289
0.0529214
0.0491629
0.0450607
0.0406242
0.0358653
0.030799
0.0254434
0.0198204
0.0139558
0.00787923
0.00162483
-0.00476909
-0.0112598
-0.0178004
-0.0243396
-0.0308224
-0.0371901
-0.0433809
-0.0493305
-0.0549731
-0.0602416
-0.0650696
-0.0693917
-0.0731454
-0.0762723
-0.0787196
-0.0804419
-0.0814023
-0.0815742
-0.0809428
-0.079506
-0.0772755
-0.0742777
-0.0705537
-0.0661596
-0.0611663
-0.0556583
-0.049733
-0.0434994
-0.0370761
-0.0305902
-0.0241746
-0.0179667
-0.0121059
-0.00673133
-0.00198502
0.00488862
0.0140855
0.0226487
0.0305474
0.0377682
0.0443095
0.0501793
0.0553925
0.0599695
0.0639343
0.0673126
0.0701306
0.0724144
0.0741886
0.0754756
0.0762958
0.0766667
0.0766031
0.0761172
0.0752187
0.0739151
0.072212
0.0701138
0.0676239
0.0647454
0.0614817
0.0578367
0.0538156
0.0494254
0.0446751
0.0395767
0.0341448
0.0283978
0.0223577
0.0160506
0.00950681
0.00276137
-0.00414615
-0.0111714
-0.0182652
-0.0253739
-0.0324391
-0.0393986
-0.0461861
-0.0527323
-0.0589658
-0.0648133
-0.0702014
-0.0750576
-0.0793115
-0.082897
-0.0857532
-0.0878267
-0.0890732
-0.0894592
-0.0889637
-0.0875798
-0.0853156
-0.0821952
-0.0782596
-0.0735664
-0.0681895
-0.0622187
-0.0557582
-0.0489254
-0.0418487
-0.0346658
-0.0275213
-0.0205646
-0.0139472
-0.00782029
-0.00233825
0.00540003
0.0155065
0.024874
0.0334799
0.0413187
0.0483965
0.0547285
0.0603369
0.0652487
0.0694937
0.0731028
0.0761074
0.0785375
0.0804212
0.0817842
0.0826493
0.0830361
0.0829612
0.0824379
0.0814768
0.080086
0.0782717
0.0760383
0.0733892
0.0703274
0.0668559
0.0629784
0.0586997
0.0540262
0.0489666
0.0435325
0.0377381
0.0316016
0.0251448
0.018394
0.0113799
0.00413793
-0.00329124
-0.010862
-0.0185233
-0.0262191
-0.0338882
-0.0414647
-0.0488781
-0.0560542
-0.0629155
-0.0693826
-0.0753749
-0.0808119
-0.0856151
-0.0897095
-0.0930253
-0.0955003
-0.0970814
-0.0977271
-0.0974091
-0.0961142
-0.0938457
-0.0906249
-0.0864913
-0.0815033
-0.0757378
-0.0692894
-0.0622694
-0.0548039
-0.0470316
-0.0391018
-0.0311718
-0.0234041
-0.0159638
-0.00901536
-0.00272686
0.005927
0.01697
0.0271651
0.0364981
0.0449717
0.0525999
0.0594059
0.0654192
0.0706734
0.0752048
0.07905
0.0822452
0.0848249
0.0868212
0.0882629
0.0891757
0.0895812
0.0894979
0.0889404
0.0879204
0.0864467
0.0845257
0.0821622
0.0793595
0.0761203
0.0724474
0.068344
0.0638142
0.0588641
0.0535016
0.0477375
0.0415858
0.035064
0.0281935
0.0210003
0.0135152
0.00577381
-0.0021826
-0.0103074
-0.0185481
-0.0268466
-0.0351391
-0.0433563
-0.0514236
-0.0592618
-0.0667879
-0.0739156
-0.0805569
-0.0866231
-0.0920268
-0.0966835
-0.100513
-0.103444
-0.105414
-0.10637
-0.106276
-0.105112
-0.102875
-0.0995804
-0.095267
-0.0899926
-0.0838365
-0.0768979
-0.0692952
-0.0611633
-0.0526523
-0.0439237
-0.0351487
-0.0265041
-0.0181699
-0.0103255
-0.00315401
0.00646777
0.0184713
0.0295148
0.0395928
0.0487162
0.0569076
0.0641983
0.0706251
0.0762291
0.0810528
0.0851388
0.0885287
0.0912616
0.0933736
0.0948971
0.0958603
0.0962877
0.0961994
0.0956115
0.0945369
0.0929851
0.090963
0.0884753
0.0855256
0.0821163
0.0782497
0.0739283
0.0691558
0.0639373
0.0582802
0.0521942
0.0456926
0.0387919
0.0315131
0.0238815
0.0159274
0.00768644
-0.000799952
-0.00948452
-0.0183138
-0.0272279
-0.0361609
-0.0450402
-0.0537875
-0.062319
-0.0705456
-0.0783746
-0.0857102
-0.0924553
-0.0985126
-0.103788
-0.10819
-0.111636
-0.114051
-0.115374
-0.115558
-0.114572
-0.112407
-0.109072
-0.104602
-0.0990549
-0.0925101
-0.0850716
-0.0768645
-0.0680334
-0.0587397
-0.0491587
-0.0394761
-0.0298849
-0.0205811
-0.0117606
-0.00362321
0.0070205
0.0200055
0.0319156
0.0427541
0.0525408
0.0613069
0.0690917
0.0759402
0.0819005
0.087022
0.0913535
0.0949419
0.0978314
0.100062
0.10167
0.102687
0.10314
0.10305
0.102436
0.101312
0.0996873
0.0975701
0.0949653
0.0918761
0.0883049
0.0842533
0.0797234
0.0747179
0.0692412
0.0632995
0.0569016
0.0500596
0.0427892
0.03511
0.0270466
0.0186285
0.00989089
0.000874895
-0.00837204
-0.0177958
-0.0273354
-0.0369228
-0.046483
-0.055934
-0.0651874
-0.0741489
-0.0827189
-0.0907939
-0.0982677
-0.105033
-0.110985
-0.11602
-0.120044
-0.122969
-0.124721
-0.125241
-0.124488
-0.122442
-0.119107
-0.114511
-0.108709
-0.101782
-0.0938372
-0.0850067
-0.0754445
-0.0653242
-0.0548354
-0.0441799
-0.0335682
-0.023214
-0.0133314
-0.00413832
0.00758326
0.0215673
0.0343595
0.0459721
0.0564338
0.0657844
0.0740718
0.081349
0.0876716
0.0930959
0.097677
0.101468
0.104517
0.10687
0.108565
0.109639
0.11012
0.110033
0.109398
0.108228
0.106537
0.104332
0.101617
0.0983967
0.0946726
0.090446
0.0857181
0.0804909
0.0747676
0.0685532
0.0618554
0.0546849
0.047056
0.0389871
0.0305014
0.0216274
0.0123993
0.00285746
-0.00695086
-0.0169714
-0.0271426
-0.0373949
-0.0476511
-0.0578262
-0.0678277
-0.0775559
-0.0869047
-0.0957629
-0.104015
-0.111544
-0.118232
-0.123965
-0.128633
-0.132135
-0.134384
-0.135305
-0.134846
-0.132975
-0.129686
-0.125001
-0.118969
-0.111673
-0.10322
-0.0937507
-0.0834274
-0.0724366
-0.0609835
-0.0492874
-0.0375772
-0.0260868
-0.0150494
-0.00470354
0.00815405
0.0231515
0.0368384
0.0492363
0.0603828
0.0703265
0.0791238
0.0868358
0.0935258
0.0992572
0.104092
0.108088
0.1113
0.113777
0.115563
0.116697
0.11721
0.11713
0.116477
0.115268
0.113516
0.111229
0.108413
0.10507
0.101203
0.0968124
0.0918982
0.0864616
0.0805047
0.0740312
0.0670474
0.0595623
0.0515887
0.0431433
0.0342478
0.0249291
0.0152201
0.00515997
-0.00520486
-0.0158205
-0.0266252
-0.0375485
-0.0485119
-0.0594275
-0.0701993
-0.0807227
-0.0908855
-0.100569
-0.109648
-0.117995
-0.125481
-0.131977
-0.137359
-0.141511
-0.144329
-0.145724
-0.145628
-0.143994
-0.140806
-0.136076
-0.129848
-0.122201
-0.113245
-0.103124
-0.0920124
-0.0801086
-0.0676341
-0.0548269
-0.0419366
-0.0292184
-0.0169273
-0.00532342
0.00873084
0.0247526
0.0393442
0.0525362
0.0643754
0.0749191
0.0842323
0.0923842
0.099446
0.105488
0.110579
0.114783
0.11816
0.120765
0.122644
0.12384
0.124388
0.124318
0.123653
0.12241
0.120603
0.118242
0.115332
0.111877
0.107877
0.103333
0.0982454
0.0926129
0.0864368
0.0797193
0.072465
0.0646814
0.0563791
0.0475732
0.0382833
0.0285345
0.0183577
0.00779071
-0.00312153
-0.0143261
-0.0257615
-0.0373574
-0.0490341
-0.0607019
-0.0722617
-0.0836047
-0.0946128
-0.10516
-0.115112
-0.124332
-0.132675
-0.140001
-0.14617
-0.151048
-0.154514
-0.156461
-0.156804
-0.155479
-0.152456
-0.147735
-0.141352
-0.13338
-0.123931
-0.113154
-0.10123
-0.0883717
-0.0748184
-0.060828
-0.0466721
-0.0326293
-0.0189782
-0.00600283
0.00931156
0.0263651
0.0418683
0.0558611
0.0683989
0.0795479
0.0893816
0.0979776
0.105414
0.11177
0.11712
0.121534
0.125078
0.127811
0.129786
0.131047
0.131633
0.131577
0.130902
0.12963
0.127775
0.125347
0.122352
0.118793
0.114671
0.109987
0.104738
0.0989239
0.0925439
0.0855988
0.0780913
0.070027
0.0614145
0.0522665
0.0426006
0.0324395
0.0218119
0.0107534
-0.000692652
-0.0124751
-0.0245335
-0.0367981
-0.0491888
-0.061615
-0.0739751
-0.0861567
-0.0980367
-0.109482
-0.120351
-0.130493
-0.139755
-0.147978
-0.155007
-0.160691
-0.164888
-0.167472
-0.168337
-0.167402
-0.164617
-0.159968
-0.15348
-0.14522
-0.135297
-0.123863
-0.111107
-0.097257
-0.0825684
-0.067321
-0.0518104
-0.0363407
-0.0212162
-0.00674699
0.0098941
0.0279835
0.0444025
0.0592002
0.0724406
0.0841987
0.0945562
0.103599
0.111413
0.118084
0.123694
0.12832
0.132032
0.134895
0.136966
0.138294
0.13892
0.13888
0.138201
0.136904
0.135006
0.132517
0.129445
0.125792
0.121559
0.116746
0.11135
0.105369
0.0988019
0.0916467
0.0839047
0.0755792
0.0666769
0.0572079
0.0471871
0.0366348
0.025577
0.0140469
0.00208508
-0.0102592
-0.0229274
-0.0358509
-0.0489504
-0.0621347
-0.075301
-0.0883342
-0.101107
-0.11348
-0.125303
-0.136416
-0.146652
-0.155839
-0.163804
-0.170375
-0.175391
-0.178702
-0.180181
-0.179723
-0.17726
-0.172757
-0.166226
-0.157724
-0.147355
-0.135271
-0.121671
-0.106795
-0.0909157
-0.0743366
-0.0573792
-0.0403749
-0.0236563
-0.00756147
0.0104764
0.0296021
0.0469384
0.0625428
0.0764879
0.0888569
0.09974
0.109231
0.117424
0.124411
0.130282
0.135119
0.139
0.141993
0.144161
0.145556
0.146224
0.146202
0.145521
0.144204
0.142268
0.139725
0.136583
0.132844
0.128511
0.123582
0.118052
0.11192
0.105182
0.0978353
0.0898786
0.0813133
0.0721433
0.0623765
0.0520249
0.0411057
0.0296421
0.0176641
0.00520949
-0.00767531
-0.0209343
-0.0345009
-0.0482971
-0.0622326
-0.0762041
-0.0900946
-0.103774
-0.117097
-0.129906
-0.142033
-0.153297
-0.163511
-0.172485
-0.180026
-0.185951
-0.190086
-0.192277
-0.192395
-0.190346
-0.186075
-0.179574
-0.170887
-0.16011
-0.147395
-0.132945
-0.117013
-0.0998911
-0.0819059
-0.0634067
-0.044755
-0.0263139
-0.00845215
0.0110565
0.0312158
0.0494679
0.0658785
0.0805283
0.0935085
0.104918
0.114857
0.123428
0.130731
0.136862
0.14191
0.145959
0.149081
0.151345
0.152807
0.153517
0.153515
0.152834
0.151499
0.149529
0.146938
0.143733
0.139918
0.135495
0.13046
0.124811
0.118544
0.111652
0.104133
0.0959819
0.0871991
0.0777856
0.0677463
0.0570903
0.0458316
0.03399
0.0215922
0.00867243
-0.00472628
-0.0185511
-0.0327384
-0.0472124
-0.0618845
-0.0766522
-0.0913978
-0.105989
-0.120277
-0.134098
-0.147274
-0.159613
-0.170915
-0.180969
-0.189563
-0.196489
-0.201548
-0.204555
-0.205355
-0.203825
-0.199883
-0.193498
-0.184697
-0.173563
-0.160245
-0.144949
-0.127938
-0.109525
-0.0900594
-0.0699214
-0.0495047
-0.0292053
-0.00942523
0.0116323
0.0328193
0.0519831
0.0691972
0.0845497
0.0981397
0.110073
0.12046
0.129408
0.137025
0.143414
0.148671
0.152884
0.156134
0.158492
0.16002
0.160771
0.160788
0.160108
0.158757
0.156757
0.154122
0.15086
0.146977
0.142473
0.137346
0.13159
0.125202
0.118175
0.110502
0.102179
0.0932019
0.0835702
0.0732856
0.062354
0.050786
0.0385977
0.0258121
0.0124594
-0.00142131
-0.0157811
-0.0305599
-0.0456855
-0.0610719
-0.0766183
-0.092208
-0.107708
-0.122966
-0.137815
-0.152068
-0.165524
-0.177966
-0.189168
-0.198896
-0.206916
-0.213
-0.216935
-0.218532
-0.217634
-0.214131
-0.207962
-0.19913
-0.187705
-0.173824
-0.157696
-0.139592
-0.119844
-0.098827
-0.0769522
-0.0546482
-0.0323473
-0.0104872
0.0122022
0.0344079
0.0544767
0.0724893
0.0885407
0.102737
0.115193
0.126023
0.135345
0.143273
0.149917
0.155379
0.159754
0.163127
0.165576
0.167167
0.167956
0.167992
0.167311
0.165946
0.163917
0.161241
0.157928
0.153983
0.149407
0.144197
0.138349
0.131855
0.124709
0.116902
0.108429
0.0992821
0.0894587
0.0789575
0.0677811
0.0559365
0.043436
0.0302983
0.0165493
0.00222364
-0.0126343
-0.027969
-0.0437124
-0.0597823
-0.0760812
-0.0924945
-0.108889
-0.125114
-0.140997
-0.156345
-0.170948
-0.184578
-0.196988
-0.207927
-0.217132
-0.224346
-0.229324
-0.231839
-0.231699
-0.228755
-0.222916
-0.214154
-0.202516
-0.188128
-0.171194
-0.151994
-0.130874
-0.108237
-0.0845274
-0.0602102
-0.0357572
-0.011645
0.0127643
0.0359771
0.0569421
0.0757462
0.0924908
0.107289
0.120261
0.131531
0.141222
0.149456
0.156349
0.162011
0.166542
0.170034
0.172569
0.174217
0.175041
0.175092
0.174409
0.173028
0.170971
0.168257
0.164897
0.160896
0.156255
0.150973
0.145043
0.138458
0.13121
0.12329
0.114687
0.105396
0.0954078
0.0847199
0.0733313
0.061245
0.0484694
0.0350188
0.0209143
0.00618564
-0.00912798
-0.0249763
-0.0412963
-0.0580109
-0.0750269
-0.0922333
-0.1095
-0.126675
-0.143586
-0.160037
-0.175809
-0.190661
-0.204335
-0.216553
-0.227031
-0.235479
-0.241616
-0.245177
-0.245928
-0.243679
-0.238297
-0.22972
-0.217967
-0.203144
-0.185446
-0.165156
-0.142637
-0.118317
-0.0926748
-0.0662154
-0.0394528
-0.0129055
0.0133173
0.0375231
0.0593733
0.07896
0.0963904
0.111784
0.125266
0.136969
0.147023
0.155556
0.162691
0.168545
0.173224
0.176827
0.179441
0.181142
0.181995
0.182055
0.181367
0.179967
0.177881
0.175129
0.171724
0.167671
0.162973
0.157627
0.151626
0.144965
0.137631
0.129615
0.120907
0.111495
0.10137
0.0905265
0.0789593
0.0666681
0.0536569
0.0399355
0.02552
0.0104348
-0.00528672
-0.0216001
-0.0384484
-0.0557605
-0.0734489
-0.0914078
-0.109511
-0.12761
-0.145532
-0.16308
-0.180029
-0.196129
-0.211107
-0.224668
-0.236499
-0.246282
-0.253696
-0.258434
-0.260218
-0.258809
-0.254027
-0.245769
-0.234015
-0.218846
-0.200442
-0.179086
-0.155151
-0.129092
-0.101421
-0.0726882
-0.0434519
-0.0142762
0.01386
0.0390428
0.0617655
0.0821244
0.100231
0.116211
0.130196
0.142324
0.152731
0.161554
0.168922
0.174959
0.179777
0.183482
0.186166
0.187909
0.188783
0.188846
0.188147
0.186724
0.184606
0.181816
0.178366
0.174264
0.169514
0.164111
0.158051
0.151324
0.143921
0.135829
0.127035
0.117527
0.107294
0.0963262
0.0846153
0.0721573
0.058952
0.0450045
0.0303257
0.0149342
-0.00114248
-0.0178666
-0.0351881
-0.0530426
-0.0713498
-0.0900102
-0.108904
-0.127887
-0.146789
-0.165415
-0.183535
-0.200895
-0.217208
-0.232162
-0.24542
-0.256631
-0.265437
-0.271487
-0.274451
-0.274038
-0.270014
-0.262224
-0.250604
-0.235199
-0.216166
-0.193781
-0.168427
-0.140581
-0.110791
-0.0796527
-0.0477728
-0.0157645
0.0143915
0.0405339
0.064115
0.0852343
0.104007
0.120563
0.135041
0.147582
0.158333
0.167434
0.175023
0.181231
0.186177
0.189971
0.192713
0.194488
0.195373
0.19543
0.194712
0.193259
0.191105
0.188273
0.184778
0.180629
0.175829
0.170377
0.164265
0.157486
0.150027
0.141876
0.133019
0.12344
0.113126
0.102065
0.0902456
0.0776599
0.0643035
0.0501765
0.0352847
0.0196408
0.0032657
-0.0138097
-0.0315429
-0.0498775
-0.068741
-0.0880424