/*--------------------------------*- C++ -*----------------------------------*\
  =========                 |
  \\      /  F ield         | OpenFOAM: The Open Source CFD Toolbox
   \\    /   O peration     | Website:  https://openfoam.org
    \\  /    A nd           | Version:  dev
     \\/     M anipulation  |
\*---------------------------------------------------------------------------*/
FoamFile
{
    format      ascii;
    class       volScalarField;
    location    "27";
    object      p;
}
// * * * * * * * * * * * * * * * * * * * * * * * * * * * * * * * * * * * * * //

dimensions      [0 2 -2 0 0 0 0];

internalField   nonuniform List<scalar> 
5184
(
2.09732e-06
-9.00039e-06
-9.47454e-05
-0.000247556
-0.000446882
-0.000675451
-0.000919026
-0.00116565
-0.00140618
-0.00163347
-0.0018421
-0.00202805
-0.00218839
-0.00232101
-0.00242445
-0.0024977
-0.00254008
-0.00255117
-0.00253068
-0.00247845
-0.00239439
-0.00227849
-0.00213079
-0.00195144
-0.00174067
-0.00149887
-0.00122657
-0.000924519
-0.000593719
-0.000235436
0.000148743
0.000556895
0.000986726
0.00143557
0.00190036
0.00237765
0.00286363
0.00335412
0.00384467
0.00433052
0.00480675
0.00526827
0.00570996
0.00612674
0.00651367
0.00686603
0.00717945
0.00745002
0.00767435
0.00784972
0.00797412
0.00804634
0.00806602
0.00803374
0.007951
0.00782023
0.00764482
0.0074291
0.00717827
0.00689839
0.00659631
0.00627965
0.0059567
0.00563643
0.00532839
0.00504265
0.00478973
0.00458023
0.00442414
0.00432988
0.00430293
0.00433017
1.60931e-05
3.69611e-06
-7.08448e-05
-0.000198551
-0.000363735
-0.000553922
-0.000758187
-0.00096693
-0.00117223
-0.00136769
-0.00154827
-0.00171006
-0.0018501
-0.00196614
-0.00205656
-0.00212016
-0.00215608
-0.0021637
-0.00214262
-0.00209254
-0.00201328
-0.00190476
-0.001767
-0.00160008
-0.00140425
-0.00117986
-0.000927451
-0.000647745
-0.000341705
-1.05496e-05
0.000344217
0.000720776
0.00111698
0.00153034
0.00195801
0.00239681
0.00284323
0.00329345
0.00374337
0.00418866
0.00462484
0.0050473
0.00545141
0.00583258
0.00618635
0.00650851
0.00679514
0.00704278
0.00724842
0.0074097
0.00752488
0.00759299
0.00761381
0.00758797
0.00751695
0.00740307
0.00724951
0.00706028
0.00684019
0.00659477
0.00633029
0.0060536
0.00577216
0.00549388
0.00522707
0.00498029
0.00476222
0.00458123
0.00444463
0.00435836
0.0043298
0.00435736
0.000102862
7.81428e-05
2.83736e-06
-0.000114652
-0.000262299
-0.000430468
-0.000610451
-0.000794418
-0.00097567
-0.00114865
-0.00130885
-0.00145268
-0.00157734
-0.00168066
-0.00176098
-0.00181707
-0.001848
-0.00185309
-0.00183184
-0.00178388
-0.00170898
-0.00160699
-0.00147788
-0.00132171
-0.00113867
-0.000929086
-0.000693448
-0.000432437
-0.00014695
0.000161869
0.00049261
0.000843568
0.00121274
0.00159778
0.00199607
0.00240461
0.00282015
0.00323913
0.00365774
0.00407197
0.00447765
0.00487051
0.00524627
0.00560068
0.00592963
0.00622924
0.0064959
0.00672644
0.00691812
0.0070688
0.00717693
0.00724166
0.00726288
0.00724124
0.00717817
0.00707591
0.00693748
0.00676663
0.00656785
0.00634631
0.00610776
0.00585849
0.00560528
0.00535524
0.00511573
0.0048942
0.00469814
0.00453458
0.00440958
0.00432838
0.0043006
0.00433121
0.000257875
0.000206471
0.000118701
-2.00669e-07
-0.000142575
-0.000300645
-0.000467287
-0.000636134
-0.000801649
-0.000959143
-0.00110474
-0.00123532
-0.00134836
-0.00144191
-0.00151443
-0.00156475
-0.00159196
-0.00159537
-0.00157447
-0.00152884
-0.00145822
-0.00136241
-0.00124133
-0.00109499
-0.00092352
-0.000727194
-0.000506433
-0.000261841
5.76621e-06
0.000295343
0.000605588
0.000934922
0.00128147
0.00164307
0.00201724
0.0024012
0.00279187
0.00318592
0.00357975
0.00396961
0.00435153
0.00472152
0.00507551
0.00540949
0.00571959
0.00600213
0.00625373
0.00647136
0.00665249
0.00679507
0.00689769
0.00695956
0.0069806
0.00696148
0.00690357
0.00680903
0.00668073
0.00652225
0.00633783
0.0061323
0.00591104
0.0056799
0.00544509
0.0052131
0.00499058
0.00478421
0.00460059
0.00444598
0.00432584
0.00424521
0.00421417
0.0042394
0.000462567
0.000373984
0.000265427
0.000137783
-6.50463e-06
-0.000161276
-0.000320761
-0.000479959
-0.000634463
-0.000780473
-0.000914809
-0.00103486
-0.00113851
-0.00122409
-0.00129025
-0.00133594
-0.00136034
-0.00136281
-0.00134282
-0.00129996
-0.00123394
-0.00114453
-0.00103157
-0.00089504
-0.00073499
-0.000551613
-0.000345248
-0.000116408
0.000134199
0.00040564
0.000696739
0.00100605
0.00133185
0.00167213
0.00202457
0.00238657
0.00275524
0.00312742
0.00349972
0.00386855
0.00423017
0.00458075
0.0049164
0.0052333
0.00552772
0.00579615
0.00603533
0.00624236
0.0064148
0.00655069
0.00664866
0.00670797
0.00672854
0.00671101
0.00665671
0.00656771
0.00644676
0.00629725
0.00612321
0.00592921
0.00572031
0.00550194
0.00527986
0.00506003
0.00484849
0.00465126
0.00447426
0.00432311
0.00420276
0.00411798
0.00407758
0.00408739
0.000700787
0.000568803
0.00043369
0.000291714
0.000139862
-1.70995e-05
-0.000174565
-0.000328792
-0.000476445
-0.000614602
-0.000740791
-0.000852963
-0.000949449
-0.0010289
-0.00109022
-0.00113255
-0.00115518
-0.00115753
-0.00113913
-0.00109958
-0.00103855
-0.000955794
-0.000851104
-0.000724373
-0.000575587
-0.000404845
-0.000212385
1.39018e-06
0.000235892
0.000490316
0.000763624
0.00105452
0.00136142
0.00168248
0.00201554
0.00235815
0.0027076
0.0030609
0.0034148
0.00376587
0.00411052
0.00444504
0.00476569
0.00506875
0.00535059
0.0056078
0.00583717
0.00603589
0.00620154
0.00633219
0.0064265
0.00648369
0.00650369
0.00648707
0.00643512
0.00634979
0.00623373
0.00609019
0.005923
0.00573651
0.00553549
0.00532507
0.00511059
0.00489758
0.00469158
0.00449808
0.00432241
0.00416962
0.00404427
0.00395076
0.00389556
0.00388246
0.000958753
0.000780057
0.000614587
0.00045412
0.000290285
0.000126686
-3.30555e-05
-0.000186339
-0.00033083
-0.000464442
-0.000585403
-0.000692243
-0.000783756
-0.000858957
-0.000917043
-0.000957356
-0.000979341
-0.000982522
-0.000966482
-0.000930846
-0.000875279
-0.000799489
-0.00070323
-0.000586318
-0.000448649
-0.000290223
-0.000111163
8.82516e-05
0.000307566
0.000546116
0.000803011
0.0010771
0.00136697
0.00167092
0.00198694
0.00231275
0.00264576
0.00298312
0.00332174
0.00365828
0.00398926
0.00431107
0.00462003
0.00491249
0.00518487
0.00543377
0.00565602
0.00584879
0.00600966
0.00613668
0.00622845
0.00628418
0.00630372
0.00628759
0.00623698
0.00615377
0.00604048
0.00590024
0.00573673
0.0055541
0.0053569
0.00514998
0.00493839
0.0047273
0.00452184
0.00432707
0.00414784
0.00398873
0.00385397
0.0037476
0.00367328
0.00363225
0.00122435
0.000997611
0.000799528
0.000617715
0.000438693
0.000265102
9.97294e-05
-5.58536e-05
-0.000200237
-0.000332123
-0.000450417
-0.00055422
-0.000642796
-0.000715544
-0.000771962
-0.00081162
-0.000834135
-0.000839147
-0.000826308
-0.000795277
-0.000745718
-0.000677304
-0.000589735
-0.000482749
-0.000356146
-0.000209814
-4.37515e-05
0.000141898
0.000346824
0.000570514
0.000812231
0.00107099
0.00134552
0.00163428
0.00193541
0.00224677
0.00256591
0.00289009
0.0032163
0.00354133
0.00386174
0.00417397
0.00447439
0.00475935
0.00502526
0.00526869
0.00548644
0.00567564
0.00583379
0.00595887
0.00604941
0.00610453
0.006124
0.00610824
0.00605835
0.00597611
0.00586393
0.00572482
0.00556232
0.00538045
0.00518356
0.00497631
0.0047635
0.00455001
0.0043407
0.00414026
0.00395318
0.00378362
0.0036356
0.00351285
0.00341608
0.0033439
0.00148732
0.00121232
0.000980454
0.000775464
0.000579035
0.000393002
0.000219446
5.90084e-05
-8.77529e-05
-0.000220279
-0.000338119
-0.000440926
-0.000528431
-0.000600412
-0.000656676
-0.000697032
-0.000721273
-0.000729164
-0.000720435
-0.000694779
-0.00065186
-0.000591318
-0.000512794
-0.00041594
-0.000300455
-0.000166104
-1.27517e-05
0.000159606
0.000350811
0.000560512
0.000788135
0.00103285
0.00129357
0.00156888
0.00185709
0.00215617
0.00246379
0.00277732
0.00309384
0.00341017
0.00372293
0.00402857
0.00432345
0.00460388
0.00486623
0.005107
0.0053229
0.00551094
0.00566853
0.00579352
0.00588433
0.00593995
0.00596002
0.00594485
0.00589543
0.00581342
0.00570113
0.00556145
0.00539783
0.00521412
0.00501459
0.0048037
0.00458611
0.00436648
0.00414945
0.00393948
0.00374076
0.00355716
0.00339256
0.00325049
0.00312876
0.00302343
0.00173869
0.00141592
0.00114987
0.000920643
0.000705344
0.000505135
0.000321493
0.000154215
3.07236e-06
-0.000132064
-0.000251352
-0.000354972
-0.000443103
-0.000515898
-0.000573466
-0.000615852
-0.000643029
-0.000654887
-0.000651231
-0.00063179
-0.000596224
-0.00054414
-0.00047511
-0.000388698
-0.00028449
-0.00016212
-2.13106e-05
0.0001381
0.000316118
0.00051256
0.000727023
0.00095885
0.0012071
0.00147054
0.0017476
0.00203639
0.00233468
0.00263993
0.00294927
0.00325958
0.00356748
0.0038694
0.00416165
0.00444049
0.00470218
0.00494311
0.00515985
0.00534927
0.00550861
0.00563557
0.00572838
0.00578588
0.00580754
0.00579355
0.00574473
0.00566264
0.00554946
0.00540797
0.00524152
0.00505389
0.00484921
0.00463188
0.00440641
0.00417737
0.00394924
0.00372632
0.00351263
0.00331183
0.00312779
0.00296393
0.00281532
0.00267561
0.00197052
0.00160093
0.00130082
0.00104685
0.000811804
0.000596255
0.000401153
0.000225521
6.84059e-05
-7.0966e-05
-0.000193324
-0.000299349
-0.000389647
-0.000464729
-0.000524994
-0.000570719
-0.000602047
-0.000618988
-0.00062142
-0.000609103
-0.000581686
-0.000538735
-0.000479751
-0.000404199
-0.000311545
-0.000201283
-7.29817e-05
7.36866e-05
0.000238902
0.000422659
0.000624733
0.000844641
0.00108161
0.00133457
0.00160208
0.00188239
0.00217336
0.00247253
0.00277709
0.00308391
0.00338962
0.00369061
0.00398311
0.00426327
0.00452723
0.0047712
0.00499159
0.00518506
0.00534866
0.00547985
0.00557668
0.00563775
0.00566237
0.0056505
0.00560283
0.00552076
0.00540633
0.00526225
0.00509175
0.00489853
0.00468668
0.00446053
0.00422454
0.00398323
0.00374101
0.00350212
0.0032705
0.00304972
0.00284372
0.00265598
0.00247894
0.00230405
0.00217567
0.00176046
0.00142677
0.00114799
0.000892767
0.000661165
0.000453655
0.000268548
0.000104215
-4.07214e-05
-0.000167527
-0.000277355
-0.000371214
-0.000449954
-0.00051425
-0.000564594
-0.000601291
-0.00062446
-0.000634046
-0.000629827
-0.000611438
-0.000578394
-0.000530115
-0.000465962
-0.000385267
-0.000287379
-0.000171699
-3.77254e-05
0.000114906
0.000286379
0.000476655
0.000685433
0.00091212
0.00115579
0.00141518
0.00168863
0.00197412
0.00226926
0.00257126
0.00287703
0.00318314
0.00348592
0.00378151
0.00406591
0.0043351
0.0045851
0.00481209
0.00501248
0.00518306
0.00532105
0.00542422
0.00549092
0.0055202
0.00551183
0.00546627
0.00538476
0.0052692
0.00512217
0.00494683
0.00474683
0.00452621
0.00428928
0.00404052
0.00378446
0.00352553
0.003268
0.0030158
0.00277254
0.00254233
0.00232884
0.00212204
0.00191128
0.0023476
0.00188813
0.0015216
0.00121825
0.000942769
0.000694745
0.000474221
0.000278835
0.000106322
-4.52594e-05
-0.000177682
-0.000292542
-0.000391229
-0.000474907
-0.00054451
-0.000600729
-0.000644016
-0.000674589
-0.000692443
-0.000697369
-0.000688975
-0.000666715
-0.000629919
-0.000577831
-0.000509644
-0.000424549
-0.00032177
-0.000200618
-6.05354e-05
9.8861e-05
0.00027773
0.000475966
0.000693156
0.000928548
0.00118102
0.00144905
0.00173073
0.00202371
0.00232526
0.00263227
0.00294128
0.00324854
0.00355004
0.00384165
0.00411913
0.00437826
0.00461496
0.00482536
0.00500593
0.00515358
0.00526576
0.00534052
0.00537661
0.00537353
0.0053315
0.00525155
0.00513543
0.00498558
0.00480507
0.00459751
0.00436694
0.00411769
0.00385429
0.00358134
0.00330339
0.00302481
0.00274965
0.00248161
0.00222513
0.00198416
0.00174632
0.00149898
0.00248022
0.001978
0.00157955
0.0012521
0.000956524
0.000691982
0.000458102
0.000251884
7.04616e-05
-8.86423e-05
-0.000227678
-0.00034866
-0.000453331
-0.000543153
-0.000619293
-0.000682626
-0.000733734
-0.000772918
-0.000800211
-0.000815404
-0.000818065
-0.000807578
-0.000783171
-0.00074396
-0.000688988
-0.000617274
-0.000527857
-0.00041985
-0.000292486
-0.000145172
2.24636e-05
0.000210518
0.000418776
0.000646665
0.000893222
0.00115707
0.00143639
0.00172892
0.00203197
0.00234241
0.00265674
0.0029711
0.00328137
0.00358319
0.0038721
0.00414362
0.00439336
0.0046171
0.00481097
0.00497149
0.00509575
0.00518143
0.00522693
0.0052314
0.00519482
0.00511793
0.0050023
0.00485023
0.00466469
0.00444925
0.00420796
0.00394522
0.00366567
0.00337403
0.00307503
0.00277324
0.00247291
0.00217796
0.00189324
0.00162308
0.00135289
0.00106805
0.00256781
0.00202444
0.00159514
0.00124422
0.000928931
0.000647981
0.00040061
0.000183207
-7.67204e-06
-0.000175014
-0.00032152
-0.000449599
-0.000561326
-0.000658435
-0.000742309
-0.000813987
-0.000874163
-0.000923206
-0.000961172
-0.000987837
-0.00100272
-0.00100512
-0.000994146
-0.000968781
-0.000927903
-0.000870349
-0.00079496
-0.000700635
-0.000586387
-0.000451397
-0.000295069
-0.000117084
8.25544e-05
0.000303468
0.00054487
0.000805529
0.00108375
0.00137735
0.00168369
0.00199962
0.0023216
0.00264566
0.00296751
0.00328261
0.00358622
0.00387357
0.00413989
0.0043806
0.0045914
0.0047684
0.00490823
0.00500815
0.00506614
0.00508097
0.00505226
0.00498048
0.00486693
0.00471374
0.00452379
0.00430061
0.00404827
0.00377126
0.00347438
0.00316254
0.00284072
0.00251378
0.00218624
0.00186233
0.00154742
0.00124636
0.000942328
0.000618816
0.00260498
0.00202213
0.00156316
0.00118956
0.000855073
0.000557987
0.000297149
6.83594e-05
-0.000132382
-0.00030855
-0.000463277
-0.000599341
-0.000719129
-0.000824626
-0.000917412
-0.000998669
-0.00106919
-0.00112939
-0.00117933
-0.00121877
-0.00124715
-0.00126368
-0.00126734
-0.00125697
-0.00123126
-0.00118885
-0.00112838
-0.00104851
-0.000948033
-0.000825874
-0.000681199
-0.000513449
-0.000322398
-0.000108209
0.000128526
0.000386743
0.000664882
0.000960862
0.00127208
0.00159542
0.00192727
0.00226356
0.00259984
0.00293134
0.00325303
0.0035598
0.0038465
0.00410811
0.00433986
0.00453735
0.00469672
0.00481472
0.00488883
0.00491738
0.00489956
0.00483548
0.00472617
0.00457354
0.00438034
0.00415003
0.00388675
0.0035951
0.00328006
0.00294682
0.00260064
0.00224676
0.00189008
0.00153523
0.00118819
0.0008544
0.000514859
0.000151125
0.00258658
0.00196601
0.00147865
0.00108327
0.000730225
0.000417394
0.000143236
-9.7025e-05
-0.000307927
-0.000493415
-0.000657032
-0.000801906
-0.000930716
-0.00104568
-0.00114855
-0.00124064
-0.00132281
-0.00139552
-0.00145883
-0.00151244
-0.00155573
-0.00158778
-0.00160745
-0.0016134
-0.00160414
-0.0015781
-0.00153368
-0.00146932
-0.00138353
-0.00127501
-0.00114263
-0.000985592
-0.000803409
-0.000596004
-0.000363753
-0.000107526
0.000171274
0.000470687
0.000788182
0.00112066
0.00146447
0.00181546
0.00216898
0.00252004
0.00286331
0.0031933
0.00350443
0.00379119
0.00404828
0.00427074
0.00445412
0.00459459
0.00468906
0.0047353
0.00473202
0.00467891
0.00457662
0.00442682
0.00423207
0.00399581
0.00372217
0.00341592
0.00308226
0.00272669
0.00235486
0.00197243
0.00158477
0.001197
0.000815825
0.000447367
7.03937e-05
-0.000335512
0.00250771
0.0018513
0.00133691
0.000920722
0.000549858
0.00022177
-6.54696e-05
-0.000317202
-0.000538487
-0.000733721
-0.000906841
-0.00106131
-0.00120007
-0.00132557
-0.00143971
-0.00154391
-0.0016391
-0.00172575
-0.00180391
-0.00187321
-0.00193294
-0.00198207
-0.0020193
-0.0020431
-0.0020518
-0.00204359
-0.00201664
-0.00196911
-0.00189926
-0.00180549
-0.0016864
-0.00154089
-0.0013682
-0.00116799
-0.000940387
-0.000686031
-0.000406139
-0.000102524
0.000222383
0.000565526
0.000923235
0.00129126
0.0016648
0.0020386
0.00240704
0.00276421
0.00310407
0.00342057
0.00370781
0.0039602
0.00417262
0.00434055
0.00446024
0.00452885
0.00454446
0.00450626
0.00441447
0.00427044
0.00407651
0.00383603
0.00355316
0.00323281
0.00288045
0.00250194
0.00210338
0.00169095
0.00127056
0.000847907
0.000430503
2.52622e-05
-0.000391351
-0.000841816
0.0023637
0.00167342
0.00113347
0.000697533
0.00030966
-3.31258e-05
-0.000333143
-0.000596284
-0.000828118
-0.00103348
-0.00121668
-0.00138151
-0.00153115
-0.00166825
-0.00179486
-0.0019125
-0.00202213
-0.00212423
-0.00221881
-0.00230545
-0.00238331
-0.00245124
-0.00250777
-0.0025512
-0.00257961
-0.00259097
-0.00258319
-0.00255414
-0.0025018
-0.00242426
-0.0023198
-0.00218702
-0.00202485
-0.00183263
-0.00161022
-0.00135799
-0.00107693
-0.000768683
-0.000435533
-8.0464e-05
0.00029286
0.000680115
0.00107636
0.0014761
0.00187336
0.00226184
0.00263497
0.00298612
0.00330874
0.00359652
0.00384357
0.00404461
0.00419512
0.00429147
0.0043311
0.00431254
0.00423551
0.00410093
0.00391088
0.00366857
0.00337816
0.00304473
0.00267402
0.00227231
0.00184621
0.00140247
0.000947663
0.000488142
3.23256e-05
-0.000411993
-0.000870761
-0.00136864
0.00215016
0.00142808
0.000864108
0.000409555
5.54766e-06
-0.000351321
-0.000663762
-0.000938208
-0.00118072
-0.00139657
-0.00159041
-0.00176635
-0.00192781
-0.0020776
-0.00221793
-0.00235036
-0.00247593
-0.00259508
-0.00270778
-0.00281352
-0.00291136
-0.003
-0.0030778
-0.00314283
-0.00319297
-0.00322592
-0.00323932
-0.00323074
-0.00319784
-0.00313838
-0.00305031
-0.00293188
-0.00278166
-0.00259867
-0.00238242
-0.002133
-0.00185113
-0.0015382
-0.00119634
-0.000828398
-0.000438008
-2.95288e-05
0.000391966
0.000820751
0.00125053
0.00167455
0.00208572
0.00247677
0.00284042
0.00316956
0.00345745
0.00369793
0.00388557
0.00401589
0.00408549
0.00409216
0.00403499
0.00391438
0.00373206
0.00349103
0.00319546
0.00285053
0.00246231
0.00203751
0.00158332
0.00110717
0.000616334
0.000117936
-0.00037859
-0.000864477
-0.00136824
-0.00191685
0.00186292
0.00111124
0.000524879
5.29029e-05
-0.000366312
-0.000736605
-0.00106108
-0.0013467
-0.00160001
-0.00182667
-0.00203173
-0.00221953
-0.00239374
-0.00255736
-0.00271268
-0.00286135
-0.00300441
-0.0031423
-0.00327493
-0.00340169
-0.00352152
-0.00363296
-0.00373418
-0.00382306
-0.00389721
-0.00395408
-0.00399099
-0.00400523
-0.00399409
-0.00395497
-0.00388548
-0.00378345
-0.0036471
-0.00347504
-0.00326643
-0.00302098
-0.0027391
-0.0024219
-0.00207127
-0.0016899
-0.00128133
-0.000849909
-0.000400818
6.0016e-05
0.000525974
0.000989856
0.00144401
0.00188048
0.0022912
0.00266819
0.00300374
0.0032907
0.00352261
0.00369397
0.00380041
0.00383884
0.00380757
0.00370637
0.00353652
0.00330073
0.00300309
0.00264891
0.00224455
0.00179722
0.00131474
0.000805267
0.000276897
-0.000262394
-0.000802037
-0.00133219
-0.00188411
-0.00248727
0.00149812
0.000719158
0.000112118
-0.00037603
-0.00080948
-0.0011925
-0.0015286
-0.00182524
-0.00208945
-0.00232728
-0.00254409
-0.00274453
-0.00293248
-0.00311107
-0.00328271
-0.0034491
-0.0036113
-0.00376972
-0.0039242
-0.00407403
-0.00421803
-0.00435456
-0.0044816
-0.0045968
-0.00469752
-0.00478094
-0.00484405
-0.00488381
-0.00489714
-0.00488108
-0.00483279
-0.00474972
-0.00462964
-0.00447074
-0.00427175
-0.00403197
-0.00375143
-0.00343087
-0.00307191
-0.00267701
-0.00224955
-0.00179383
-0.00131508
-0.000819396
-0.000313704
0.000194358
0.000696555
0.00118422
0.00164844
0.00208025
0.00247092
0.00281213
0.00309627
0.00331667
0.00346781
0.00354555
0.00354726
0.00347195
0.00332029
0.00309462
0.00279886
0.00243842
0.00201995
0.00155116
0.00104054
0.000497097
-7.01876e-05
-0.000652379
-0.00123765
-0.00181496
-0.00241854
-0.00308055
0.00105219
0.000248391
-0.000377531
-0.000880544
-0.00132722
-0.00172225
-0.00206953
-0.00237704
-0.00265224
-0.00290158
-0.00313073
-0.0033446
-0.00354727
-0.00374202
-0.00393136
-0.00411703
-0.00430008
-0.00448092
-0.00465928
-0.00483438
-0.00500487
-0.00516896
-0.00532443
-0.00546867
-0.00559882
-0.00571171
-0.00580405
-0.00587242
-0.00591336
-0.00592348
-0.00589952
-0.00583846
-0.0057376
-0.00559464
-0.00540783
-0.005176
-0.00489871
-0.00457631
-0.00421003
-0.00380203
-0.00335547
-0.00287453
-0.00236442
-0.00183138
-0.00128259
-0.000726111
-0.000170762
0.000374043
0.000898488
0.00139258
0.0018464
0.00225037
0.00259556
0.00287394
0.00307869
0.00320441
0.00324734
0.00320553
0.0030789
0.00286927
0.00258032
0.00221746
0.00178762
0.00129902
0.000760898
0.000183142
-0.000424268
-0.00105133
-0.00168482
-0.00231237
-0.00297146
-0.00369711
0.00052192
-0.000304162
-0.000947091
-0.00146361
-0.00192246
-0.00232876
-0.00268679
-0.003005
-0.00329129
-0.00355248
-0.00379456
-0.00402266
-0.00424108
-0.00445321
-0.00466165
-0.0048682
-0.0050739
-0.00527911
-0.00548351
-0.00568618
-0.00588566
-0.00607996
-0.00626665
-0.00644292
-0.00660559
-0.00675121
-0.00687614
-0.00697659
-0.00704868
-0.00708858
-0.00709255
-0.00705708
-0.00697894
-0.00685529
-0.00668383
-0.00646286
-0.00619139
-0.0058693
-0.00549733
-0.00507728
-0.004612
-0.00410546
-0.00356279
-0.00299028
-0.00239532
-0.00178638
-0.00117283
-0.000564852
2.67933e-05
0.000590994
0.00111656
0.00159251
0.00200843
0.00235475
0.00262312
0.00280666
0.00290027
0.00290082
0.00280729
0.00262082
0.0023447
0.00198424
0.00154663
0.00104058
0.00047611
-0.000135924
-0.000784447
-0.00145828
-0.00214264
-0.0028237
-0.00354244
-0.00433703
-9.55517e-05
-0.000941236
-0.00159922
-0.00212786
-0.0025978
-0.0030146
-0.00338292
-0.00371167
-0.00400915
-0.00428255
-0.00453813
-0.00478129
-0.00501647
-0.00524723
-0.00547623
-0.0057053
-0.0059355
-0.00616711
-0.00639977
-0.00663244
-0.00686352
-0.00709084
-0.00731176
-0.00752323
-0.00772179
-0.00790368
-0.0080649
-0.00820125
-0.00830844
-0.00838216
-0.00841817
-0.0084124
-0.00836104
-0.00826068
-0.00810839
-0.00790185
-0.00763947
-0.00732053
-0.00694524
-0.00651489
-0.00603194
-0.00550006
-0.0049242
-0.00431062
-0.00366686
-0.00300171
-0.0023251
-0.00164796
-0.000982013
-0.000339562
0.00026683
0.000824653
0.00132182
0.00174702
0.00209014
0.0023426
0.00249767
0.00255082
0.00249982
0.00234492
0.00208887
0.00173678
0.00129596
0.000775644
0.000186624
-0.000459186
-0.00114952
-0.00187188
-0.00260979
-0.00334778
-0.00413064
-0.00499993
-0.000802672
-0.00166518
-0.00233621
-0.00287551
-0.00335545
-0.00378197
-0.00416011
-0.00449921
-0.00480799
-0.00509393
-0.00536362
-0.00562264
-0.00587563
-0.00612627
-0.00637728
-0.00663055
-0.0068871
-0.00714722
-0.00741043
-0.00767561
-0.007941
-0.00820428
-0.0084626
-0.00871264
-0.00895069
-0.00917264
-0.00937414
-0.00955057
-0.00969721
-0.00980922
-0.00988184
-0.0099104
-0.00989047
-0.00981799
-0.00968933
-0.0095015
-0.0092522
-0.00894002
-0.00856453
-0.00812643
-0.00762764
-0.00707142
-0.00646245
-0.00580684
-0.0051122
-0.00438757
-0.00364336
-0.00289124
-0.0021439
-0.00141488
-0.000718198
-6.80385e-05
0.00052167
0.00103767
0.00146783
0.00180158
0.0020303
0.00214773
0.00215017
0.00203674
0.00180939
0.00147287
0.00103455
0.000504085
-0.000106917
-0.000785435
-0.0015179
-0.00229038
-0.00308448
-0.00388294
-0.00473467
-0.00568492
-0.00160145
-0.00247791
-0.0031599
-0.0037084
-0.00419721
-0.00463266
-0.00502014
-0.00536941
-0.00568956
-0.00598839
-0.00627275
-0.00654844
-0.00682026
-0.007092
-0.00736648
-0.0076456
-0.0079304
-0.00822111
-0.00851721
-0.00881745
-0.00911995
-0.00942223
-0.00972122
-0.0100134
-0.0102947
-0.0105607
-0.0108068
-0.0110278
-0.0112185
-0.0113737
-0.011488
-0.011556
-0.0115727
-0.0115333
-0.0114334
-0.0112692
-0.0110378
-0.0107368
-0.010365
-0.00992254
-0.0094106
-0.00883191
-0.00819073
-0.00749292
-0.00674603
-0.00595925
-0.0051434
-0.00431082
-0.00347517
-0.00265123
-0.00185457
-0.00110114
-0.000406898
0.000212733
0.000743341
0.00117206
0.00148805
0.00168298
0.00175137
0.00169088
0.00150241
0.00119012
0.000761271
0.000225885
-0.000403637
-0.00111311
-0.00188757
-0.00271148
-0.00356434
-0.00442691
-0.00535254
-0.00639045
-0.00249345
-0.0033809
-0.00407175
-0.00462795
-0.00512448
-0.00556804
-0.00596436
-0.00632361
-0.00665518
-0.00696721
-0.00726677
-0.00755989
-0.00785152
-0.00814556
-0.00844491
-0.00875151
-0.00906641
-0.0093898
-0.00972109
-0.010059
-0.0104014
-0.0107458
-0.0110888
-0.0114267
-0.0117551
-0.0120695
-0.0123645
-0.0126348
-0.0128747
-0.0130783
-0.0132396
-0.0133527
-0.0134118
-0.0134112
-0.0133458
-0.0132111
-0.0130029
-0.0127183
-0.0123551
-0.0119125
-0.0113911
-0.0107927
-0.0101212
-0.00938191
-0.00858226
-0.00773144
-0.00684058
-0.0059226
-0.00499209
-0.00406507
-0.00315866
-0.00229074
-0.00147942
-0.000742516
-9.70008e-05
0.000441639
0.000859988
0.00114727
0.00129581
0.00130145
0.00116372
0.00088591
0.000474966
-5.88483e-05
-0.00070238
-0.00144025
-0.00225597
-0.00313228
-0.00404633
-0.00497666
-0.00598147
-0.0071142
-0.00347972
-0.00437518
-0.00507274
-0.00563512
-0.00613822
-0.00658906
-0.00699371
-0.00736268
-0.00770571
-0.00803119
-0.00834644
-0.00865768
-0.00897002
-0.00928747
-0.00961302
-0.00994865
-0.0102954
-0.0106535
-0.0110222
-0.0114003
-0.0117854
-0.0121749
-0.0125653
-0.0129527
-0.0133323
-0.0136992
-0.0140479
-0.0143724
-0.0146667
-0.0149242
-0.0151383
-0.0153025
-0.01541
-0.0154546
-0.0154302
-0.0153311
-0.0151525
-0.0148903
-0.0145414
-0.014104
-0.0135776
-0.0129634
-0.0122644
-0.0114854
-0.0106335
-0.00971774
-0.00874937
-0.00774181
-0.00671047
-0.00567257
-0.00464684
-0.0036531
-0.00271178
-0.0018433
-0.00106748
-0.000402754
0.000134483
0.000530582
0.000775253
0.000862058
0.000788756
0.00055744
0.000174466
-0.00034984
-0.00100165
-0.00176438
-0.00261993
-0.00354915
-0.00452661
-0.00552836
-0.00661781
-0.00785295
-0.00456081
-0.00546126
-0.00616338
-0.00673042
-0.00723892
-0.0076962
-0.00810864
-0.00848706
-0.0088415
-0.00918061
-0.00951194
-0.0098419
-0.0101758
-0.0105176
-0.0108706
-0.0112366
-0.0116169
-0.0120116
-0.0124199
-0.0128405
-0.0132711
-0.0137087
-0.0141499
-0.0145902
-0.015025
-0.0154488
-0.0158558
-0.0162396
-0.0165936
-0.0169107
-0.0171837
-0.0174053
-0.0175679
-0.0176645
-0.0176878
-0.0176314
-0.0174894
-0.0172563
-0.0169282
-0.0165021
-0.0159764
-0.0153512
-0.0146288
-0.0138131
-0.0129106
-0.01193
-0.0108827
-0.00978235
-0.00864505
-0.00748914
-0.00633492
-0.0052042
-0.00411983
-0.00310504
-0.00218273
-0.00137467
-0.00070064
-0.00017763
0.00018094
0.00036587
0.000372661
0.000201775
-0.000141355
-0.00064659
-0.00129956
-0.00208248
-0.00297559
-0.00395766
-0.00500042
-0.00607715
-0.00725687
-0.00860242
-0.00573674
-0.00663918
-0.00734372
-0.00791392
-0.00842665
-0.0088895
-0.00930915
-0.00969668
-0.0100624
-0.0104152
-0.0107629
-0.0111121
-0.0114681
-0.0118352
-0.0122166
-0.0126143
-0.0130295
-0.0134625
-0.0139124
-0.0143777
-0.0148563
-0.0153449
-0.0158399
-0.0163368
-0.0168306
-0.0173156
-0.0177856
-0.0182337
-0.0186529
-0.0190354
-0.0193735
-0.0196589
-0.0198835
-0.0200391
-0.0201176
-0.0201114
-0.0200134
-0.0198171
-0.0195172
-0.0191093
-0.0185909
-0.0179609
-0.0172201
-0.0163718
-0.0154217
-0.0143779
-0.0132515
-0.0120563
-0.0108089
-0.0095288
-0.00823763
-0.00695922
-0.0057189
-0.00454287
-0.00345737
-0.00248782
-0.00165785
-0.000988289
-0.000496244
-0.000194255
-8.96426e-05
-0.000184088
-0.000473517
-0.000948296
-0.00159371
-0.00239086
-0.00331824
-0.00435239
-0.00546193
-0.00661706
-0.0078928
-0.00935713
-0.00700699
-0.00790848
-0.00861334
-0.00918521
-0.00970101
-0.0101686
-0.0105948
-0.010991
-0.0113678
-0.0117343
-0.0120985
-0.0124671
-0.0128456
-0.0132386
-0.0136492
-0.0140796
-0.014531
-0.0150036
-0.0154968
-0.0160089
-0.0165376
-0.0170799
-0.0176317
-0.0181885
-0.018745
-0.0192953
-0.0198327
-0.0203501
-0.0208398
-0.0212936
-0.0217029
-0.0220589
-0.0223525
-0.0225744
-0.0227158
-0.0227676
-0.0227217
-0.0225703
-0.0223066
-0.021925
-0.0214215
-0.0207935
-0.0200409
-0.0191655
-0.018172
-0.0170678
-0.0158635
-0.0145729
-0.0132128
-0.0118035
-0.0103679
-0.00893189
-0.00752321
-0.00617113
-0.00490548
-0.00375566
-0.00274956
-0.0019124
-0.00126557
-0.000825609
-0.000603307
-0.000603105
-0.000822824
-0.00125376
-0.00188113
-0.00268503
-0.0036422
-0.00472683
-0.00590409
-0.0071408
-0.00851837
-0.0101102
-0.00837051
-0.0092682
-0.00997137
-0.0105435
-0.0110612
-0.0115325
-0.0119646
-0.012369
-0.0127566
-0.0131365
-0.013517
-0.0139051
-0.0143064
-0.0147255
-0.0151658
-0.0156296
-0.016118
-0.0166314
-0.0171691
-0.0177296
-0.0183105
-0.0189086
-0.0195199
-0.0201396
-0.0207622
-0.0213816
-0.0219907
-0.0225821
-0.0231475
-0.0236782
-0.0241649
-0.024598
-0.0249675
-0.0252633
-0.0254753
-0.0255934
-0.025608
-0.02551
-0.0252913
-0.0249446
-0.0244644
-0.0238467
-0.0230897
-0.0221939
-0.0211627
-0.0200026
-0.0187233
-0.0173382
-0.0158643
-0.0143222
-0.0127362
-0.0111337
-0.00954513
-0.00800273
-0.00654009
-0.00519089
-0.0039877
-0.00296068
-0.00213616
-0.00153539
-0.00117337
-0.00105803
-0.00118974
-0.00156124
-0.00215809
-0.00295957
-0.0039407
-0.00507319
-0.00631846
-0.00763958
-0.00912475
-0.0108531
-0.0098257
-0.0107169
-0.0114165
-0.0119874
-0.0125059
-0.0129801
-0.0134173
-0.0138293
-0.014227
-0.01462
-0.0150166
-0.0154238
-0.0158477
-0.016293
-0.016763
-0.0172603
-0.0177863
-0.0183411
-0.0189243
-0.0195344
-0.0201689
-0.0208247
-0.0214976
-0.0221827
-0.0228745
-0.0235663
-0.0242511
-0.0249208
-0.0255668
-0.0261797
-0.0267496
-0.0272662
-0.0277186
-0.0280956
-0.0283861
-0.0285787
-0.0286624
-0.0286269
-0.0284622
-0.0281597
-0.027712
-0.0271135
-0.0263607
-0.0254525
-0.0243908
-0.0231807
-0.0218309
-0.020354
-0.0187669
-0.0170903
-0.0153494
-0.0135732
-0.0117944
-0.0100484
-0.00837241
-0.00680478
-0.00538314
-0.0041431
-0.0031166
-0.00233037
-0.00180449
-0.0015512
-0.00157418
-0.00186833
-0.00241999
-0.00320797
-0.00420567
-0.00538221
-0.00669497
-0.00810289
-0.00970137
-0.0115754
-0.0113705
-0.0122527
-0.0129469
-0.0135153
-0.0140335
-0.0145096
-0.0149512
-0.01537
-0.0157771
-0.0161824
-0.0165943
-0.0170202
-0.0174662
-0.017937
-0.0184365
-0.0189672
-0.0195305
-0.0201269
-0.020756
-0.0214163
-0.0221054
-0.0228201
-0.0235563
-0.0243089
-0.0250723
-0.0258395
-0.0266033
-0.0273552
-0.0280861
-0.0287862
-0.0294448
-0.0300509
-0.0305927
-0.031058
-0.0314346
-0.0317098
-0.0318714
-0.0319073
-0.0318061
-0.0315573
-0.0311519
-0.0305824
-0.0298433
-0.0289318
-0.027848
-0.0265954
-0.0251812
-0.0236172
-0.0219194
-0.0201085
-0.0182103
-0.0162551
-0.0142774
-0.0123156
-0.0104111
-0.00860651
-0.00694506
-0.00546827
-0.00421442
-0.00321652
-0.00250061
-0.00208424
-0.00197532
-0.00217169
-0.00266115
-0.00342244
-0.00442754
-0.00564295
-0.00702173
-0.00851826
-0.0102356
-0.0122648
-0.0130022
-0.0138733
-0.0145605
-0.0151253
-0.0156421
-0.0161192
-0.016564
-0.0169887
-0.0174044
-0.017821
-0.0182472
-0.0186906
-0.0191576
-0.0196531
-0.020181
-0.0207442
-0.0213443
-0.0219819
-0.0226567
-0.0233672
-0.0241112
-0.0248855
-0.0256859
-0.0265074