/*--------------------------------*- C++ -*----------------------------------*\
  =========                 |
  \\      /  F ield         | OpenFOAM: The Open Source CFD Toolbox
   \\    /   O peration     | Website:  https://openfoam.org
    \\  /    A nd           | Version:  dev
     \\/     M anipulation  |
\*---------------------------------------------------------------------------*/
FoamFile
{
    format      ascii;
    class       surfaceScalarField;
    location    "27";
    object      phi;
}
// * * * * * * * * * * * * * * * * * * * * * * * * * * * * * * * * * * * * * //

dimensions      [0 3 -1 0 0 0 0];

internalField   nonuniform List<scalar> 
10224
(
3.36409e-08
-3.50175e-08
8.77524e-08
-5.41126e-08
1.24321e-07
-3.65697e-08
1.25283e-07
-9.63421e-10
8.36579e-08
4.1625e-08
-1.82135e-09
8.54795e-08
-1.29327e-07
1.27506e-07
-2.95555e-07
1.66228e-07
-4.96443e-07
2.00888e-07
-7.27692e-07
2.31248e-07
-9.85032e-07
2.5734e-07
-1.26437e-06
2.79341e-07
-1.56188e-06
2.97504e-07
-1.87399e-06
3.12112e-07
-2.19744e-06
3.2345e-07
-2.52922e-06
3.31785e-07
-2.86658e-06
3.37353e-07
-3.20693e-06
3.40355e-07
-3.54789e-06
3.40954e-07
-3.88715e-06
3.39269e-07
-4.22254e-06
3.35387e-07
-4.5519e-06
3.29361e-07
-4.87312e-06
3.21215e-07
-5.18407e-06
3.10953e-07
-5.48263e-06
2.98562e-07
-5.76666e-06
2.84022e-07
-6.03397e-06
2.6731e-07
-6.28238e-06
2.4841e-07
-6.50969e-06
2.27317e-07
-6.71374e-06
2.04045e-07
-6.89237e-06
1.78633e-07
-7.04352e-06
1.51148e-07
-7.16521e-06
1.21691e-07
-7.25561e-06
9.04033e-08
-7.31307e-06
5.7464e-08
-7.33617e-06
2.30958e-08
-7.32373e-06
-1.24356e-08
-7.27491e-06
-4.88217e-08
-7.1892e-06
-8.57134e-08
-7.06647e-06
-1.22723e-07
-6.90704e-06
-1.59431e-07
-6.71165e-06
-1.95388e-07
-6.48153e-06
-2.30124e-07
-6.21837e-06
-2.63157e-07
-5.92437e-06
-2.93998e-07
-5.60221e-06
-3.22167e-07
-5.25501e-06
-3.47196e-07
-4.88636e-06
-3.68648e-07
-4.50024e-06
-3.8612e-07
-4.10099e-06
-3.99259e-07
-3.69322e-06
-4.07767e-07
-3.2818e-06
-4.11418e-07
-2.87174e-06
-4.10054e-07
-2.46814e-06
-4.03601e-07
-2.07607e-06
-3.92068e-07
-1.70052e-06
-3.75551e-07
-1.34628e-06
-3.54235e-07
-1.01789e-06
-3.28393e-07
-7.19505e-07
-2.98387e-07
-4.54839e-07
-2.64666e-07
-2.27072e-07
-2.27767e-07
-3.87475e-08
-1.88322e-07
1.08327e-07
-1.47072e-07
2.13214e-07
-1.04885e-07
2.76025e-07
-6.2811e-08
2.9819e-07
-2.21663e-08
2.82888e-07
1.53033e-08
2.35712e-07
4.71786e-08
1.65723e-07
6.99922e-08
8.72112e-08
7.85112e-08
2.25457e-08
6.46555e-08
2.25335e-08
5.38097e-08
-8.88281e-08
1.12294e-07
-1.12597e-07
1.18089e-07
-4.23631e-08
3.87869e-08
7.83387e-08
-1.42012e-07
2.22423e-07
-4.29627e-07
3.73093e-07
-8.2229e-07
5.20168e-07
-1.31386e-06
6.57794e-07
-1.89576e-06
7.82795e-07
-2.5582e-06
8.93687e-07
-3.2909e-06
9.90035e-07
-4.08361e-06
1.07205e-06
-4.9264e-06
1.1403e-06
-5.80986e-06
1.19556e-06
-6.72507e-06
1.23867e-06
-7.66373e-06
1.27044e-06
-8.61803e-06
1.29165e-06
-9.58063e-06
1.30295e-06
-1.05446e-05
1.30489e-06
-1.15032e-05
1.29789e-06
-1.24501e-05
1.28228e-06
-1.3379e-05
1.25826e-06
-1.42837e-05
1.22594e-06
-1.51581e-05
1.18538e-06
-1.59961e-05
1.13657e-06
-1.67916e-05
1.0795e-06
-1.75384e-05
1.01412e-06
-1.82305e-05
9.40453e-07
-1.88617e-05
8.58532e-07
-1.94261e-05
7.68473e-07
-1.9918e-05
6.7048e-07
-2.03317e-05
5.64863e-07
-2.0662e-05
4.52055e-07
-2.09043e-05
3.32627e-07
-2.10541e-05
2.0729e-07
-2.11079e-05
7.69081e-08
-2.10628e-05
-5.75027e-08
-2.09169e-05
-1.94778e-07
-2.0669e-05
-3.33612e-07
-2.03191e-05
-4.72566e-07
-1.98685e-05
-6.10089e-07
-1.93193e-05
-7.44535e-07
-1.86753e-05
-8.7419e-07
-1.79411e-05
-9.97297e-07
-1.7123e-05
-1.11209e-06
-1.62284e-05
-1.21684e-06
-1.52657e-05
-1.30987e-06
-1.42447e-05
-1.3896e-06
-1.31763e-05
-1.45459e-06
-1.20719e-05
-1.50359e-06
-1.09441e-05
-1.53555e-06
-9.8059e-06
-1.54966e-06
-8.67058e-06
-1.54537e-06
-7.55174e-06
-1.52244e-06
-6.46288e-06
-1.48093e-06
-5.41724e-06
-1.4212e-06
-4.4275e-06
-1.34397e-06
-3.50563e-06
-1.25027e-06
-2.66256e-06
-1.14146e-06
-1.90798e-06
-1.01924e-06
-1.25007e-06
-8.85675e-07
-6.95229e-07
-7.43162e-07
-2.47762e-07
-5.94537e-07
9.04841e-08
-4.43127e-07
3.20585e-07
-2.92908e-07
4.47138e-07
-1.48718e-07
4.79131e-07
-1.6692e-08
4.31038e-07
9.52705e-08
3.24298e-07
1.76739e-07
1.88924e-07
2.13905e-07
6.43731e-08
1.89235e-07
8.69001e-08
3.72923e-08
-1.26121e-07
4.32245e-08
-1.1853e-07
-4.33871e-08
4.42496e-08
-2.58823e-07
2.93775e-07
-6.22696e-07
5.86296e-07
-1.14212e-06
8.92517e-07
-1.81536e-06
1.19341e-06
-2.63476e-06
1.47719e-06
-3.58896e-06
1.73699e-06
-4.66443e-06
1.96916e-06
-5.84661e-06
2.17221e-06
-7.12061e-06
2.34605e-06
-8.47173e-06
2.49142e-06
-9.88573e-06
2.60956e-06
-1.1349e-05
2.70193e-06
-1.28486e-05
2.77003e-06
-1.43722e-05
2.81528e-06
-1.59082e-05
2.83896e-06
-1.74455e-05
2.84214e-06
-1.89733e-05
2.82567e-06
-2.04812e-05
2.79021e-06
-2.19591e-05
2.73621e-06
-2.33971e-05
2.66393e-06
-2.47853e-05
2.57354e-06
-2.61138e-05
2.4651e-06
-2.73729e-05
2.33862e-06
-2.8553e-05
2.19415e-06
-2.96443e-05
2.03176e-06
-3.06374e-05
1.85164e-06
-3.1523e-05
1.65414e-06
-3.22923e-05
1.43977e-06
-3.29368e-05
1.2093e-06
-3.34484e-05
9.63714e-07
-3.38201e-05
7.04311e-07
-3.40455e-05
4.32674e-07
-3.41193e-05
1.50696e-07
-3.40374e-05
-1.39421e-07
-3.3797e-05
-4.3517e-07
-3.33968e-05
-7.3376e-07
-3.28373e-05
-1.03213e-06
-3.21203e-05
-1.32701e-06
-3.125e-05
-1.61491e-06
-3.02319e-05
-1.89225e-06
-2.90738e-05
-2.15535e-06
-2.77854e-05
-2.40052e-06
-2.63781e-05
-2.62414e-06
-2.48652e-05
-2.82274e-06
-2.32618e-05
-2.99305e-06
-2.15843e-05
-3.1321e-06
-1.98506e-05
-3.23728e-06
-1.80797e-05
-3.30643e-06
-1.62915e-05
-3.33789e-06
-1.45063e-05
-3.33056e-06
-1.27448e-05
-3.28394e-06
-1.10275e-05
-3.19819e-06
-9.37458e-06
-3.07414e-06
-7.80526e-06
-2.91329e-06
-6.33766e-06
-2.71786e-06
-4.98832e-06
-2.4908e-06
-3.77183e-06
-2.23573e-06
-2.70043e-06
-1.95707e-06
-1.78359e-06
-1.66e-06
-1.02754e-06
-1.35059e-06
-4.34753e-07
-1.03591e-06
-3.31998e-09
-7.24337e-07
2.73829e-07
-4.25861e-07
4.09759e-07
-1.52619e-07
4.24699e-07
8.03246e-08
3.47269e-07
2.54154e-07
2.15672e-07
3.45495e-07
7.86261e-08
3.26295e-07
1.65527e-07
1.88028e-09
-1.28001e-07
-7.89999e-08
-3.76513e-08
-2.97687e-07
2.62936e-07
-6.87898e-07
6.83986e-07
-1.26795e-06
1.16635e-06
-2.04411e-06
1.66868e-06
-3.01359e-06
2.16289e-06
-4.16714e-06
2.63074e-06
-5.49115e-06
3.06101e-06
-6.96932e-06
3.44732e-06
-8.58379e-06
3.78668e-06
-1.03161e-05
4.07836e-06
-1.21477e-05
4.32305e-06
-1.40605e-05
4.52236e-06
-1.60369e-05
4.67831e-06
-1.806e-05
4.7931e-06
-2.01135e-05
4.86885e-06
-2.21821e-05
4.90753e-06
-2.42508e-05
4.91079e-06
-2.63051e-05
4.87999e-06
-2.83311e-05
4.8162e-06
-3.0315e-05
4.72015e-06
-3.22434e-05
4.59236e-06
-3.4103e-05
4.43314e-06
-3.58806e-05
4.24267e-06
-3.75631e-05
4.02111e-06
-3.91376e-05
3.76861e-06
-4.05912e-05
3.48544e-06
-4.19116e-05
3.17205e-06
-4.30867e-05
2.82915e-06
-4.41046e-05
2.45776e-06
-4.49546e-05
2.05927e-06
-4.56264e-05
1.6355e-06
-4.61108e-05
1.18873e-06
-4.63999e-05
7.21741e-07
-4.6487e-05
2.37806e-07
-4.63671e-05
-2.59292e-07
-4.6037e-05
-7.6528e-07
-4.54954e-05
-1.27542e-06
-4.47429e-05
-1.78455e-06
-4.37828e-05
-2.28715e-06
-4.26203e-05
-2.7774e-06
-4.12633e-05
-3.2493e-06
-3.97219e-05
-3.69669e-06
-3.8009e-05
-4.11347e-06
-3.61395e-05
-4.49362e-06
-3.41309e-05
-4.83137e-06
-3.20026e-05
-5.12131e-06
-2.97762e-05
-5.35852e-06
-2.74747e-05
-5.53871e-06
-2.51229e-05
-5.65831e-06
-2.27462e-05
-5.71458e-06
-2.0371e-05
-5.70573e-06
-1.8024e-05
-5.63096e-06
-1.57316e-05
-5.49056e-06
-1.35198e-05
-5.28595e-06
-1.14134e-05
-5.0197e-06
-9.4357e-06
-4.69557e-06
-7.60797e-06
-4.31853e-06
-5.94897e-06
-3.89474e-06
-4.47437e-06
-3.43166e-06
-3.19631e-06
-2.93807e-06
-2.12274e-06
-2.42416e-06
-1.25685e-06
-1.9018e-06
-5.96413e-07
-1.38478e-06
-1.3298e-07
-8.8929e-07
1.48941e-07
-4.3453e-07
2.72803e-07
-4.353e-08
2.71056e-07
2.55899e-07
1.86191e-07
4.30349e-07
7.21843e-08
4.40305e-07
2.37712e-07
-4.20615e-08
-8.59398e-08
-2.3003e-07
1.50317e-07
-6.06498e-07
6.39403e-07
-1.19804e-06
1.27553e-06
-2.0184e-06
1.9867e-06
-3.07075e-06
2.72102e-06
-4.34989e-06
3.44203e-06
-5.84441e-06
4.12526e-06
-7.53844e-06
4.75504e-06
-9.41319e-06
5.32206e-06
-1.14481e-05
5.82159e-06
-1.36218e-05
6.25202e-06
-1.59125e-05
6.61383e-06
-1.8299e-05
6.90885e-06
-2.07603e-05
7.1396e-06
-2.32762e-05
7.30893e-06
-2.5827e-05
7.41965e-06
-2.83938e-05
7.47439e-06
-3.09585e-05
7.47546e-06
-3.35032e-05
7.42473e-06
-3.60107e-05
7.32371e-06
-3.84641e-05
7.1735e-06
-4.08466e-05
6.97487e-06
-4.31418e-05
6.72838e-06
-4.53336e-05
6.43438e-06
-4.74057e-05
6.09322e-06
-4.93424e-05
5.70529e-06
-5.11281e-05
5.27115e-06
-5.27476e-05
4.79162e-06
-5.41864e-05
4.26794e-06
-5.54304e-05
3.70179e-06
-5.64666e-05
3.09541e-06
-5.72828e-05
2.45167e-06
-5.78681e-05
1.7741e-06
-5.82133e-05
1.06696e-06
-5.83108e-05
3.35235e-07
-5.81547e-05
-4.15376e-07
-5.77415e-05
-1.17846e-06
-5.707e-05
-1.94693e-06
-5.61414e-05
-2.71311e-06
-5.49598e-05
-3.46882e-06
-5.35317e-05
-4.20545e-06
-5.18669e-05
-4.91412e-06
-4.99778e-05
-5.58582e-06
-4.78797e-05
-6.21152e-06
-4.5591e-05
-6.7824e-06
-4.31323e-05
-7.29001e-06
-4.05272e-05
-7.72641e-06
-3.78013e-05
-8.08441e-06
-3.49823e-05
-8.35772e-06
-3.20995e-05
-8.54111e-06
-2.91835e-05
-8.6306e-06
-2.62657e-05
-8.62355e-06
-2.33778e-05
-8.51883e-06
-2.05515e-05
-8.31689e-06
-1.78176e-05
-8.01984e-06
-1.52058e-05
-7.6315e-06
-1.27439e-05
-7.15746e-06
-1.04573e-05
-6.60509e-06
-8.36848e-06
-5.98358e-06
-6.49617e-06
-5.30397e-06
-4.85498e-06
-4.57925e-06
-3.45464e-06
-3.8245e-06
-2.29937e-06
-3.05707e-06
-1.38722e-06
-2.29693e-06
-7.0934e-07
-1.56717e-06
-2.49272e-07
-8.94597e-07
1.78333e-08
-3.10629e-07
1.26017e-07
1.47722e-07
1.19406e-07
4.36957e-07
5.36292e-08
5.0608e-07
2.91339e-07
-8.94296e-08
3.48905e-09
-3.95289e-07
4.56176e-07
-9.44944e-07
1.18906e-06
-1.75497e-06
2.08555e-06
-2.83216e-06
3.06389e-06
-4.17475e-06
4.06361e-06
-5.7739e-06
5.04118e-06
-7.61523e-06
5.96659e-06
-9.68027e-06
6.82007e-06
-1.19477e-05
7.58952e-06
-1.43946e-05
8.26842e-06
-1.69968e-05
8.85423e-06
-1.97301e-05
9.34713e-06
-2.25703e-05
9.74906e-06
-2.54937e-05
1.0063e-05
-2.84771e-05
1.02923e-05
-3.1498e-05
1.04406e-05
-3.45345e-05
1.0511e-05
-3.75656e-05
1.05065e-05
-4.05703e-05
1.04295e-05
-4.35286e-05
1.0282e-05
-4.64206e-05
1.00655e-05
-4.92267e-05
9.781e-06
-5.19278e-05
9.42939e-06
-5.45046e-05
9.01127e-06
-5.69386e-05
8.52723e-06
-5.92114e-05
7.978e-06
-6.13047e-05
7.36451e-06
-6.32012e-05
6.68812e-06
-6.4884e-05
5.95071e-06
-6.6337e-05
5.15481e-06
-6.75453e-05
4.30369e-06
-6.84951e-05
3.40148e-06
-6.91742e-05
2.45321e-06
-6.95721e-05
1.46487e-06
-6.96803e-05
4.43415e-07
-6.94925e-05
-6.03205e-07
-6.90048e-05
-1.66612e-06
-6.82162e-05
-2.73557e-06
-6.71282e-05
-3.80102e-06
-6.57458e-05
-4.85125e-06
-6.40768e-05
-5.87449e-06
-6.21322e-05
-6.85864e-06
-5.99267e-05
-7.7914e-06
-5.74777e-05
-8.6605e-06
-5.48061e-05
-9.45396e-06
-5.19359e-05
-1.01603e-05
-4.88936e-05
-1.07687e-05
-4.57086e-05
-1.12694e-05
-4.24125e-05
-1.16539e-05
-3.90386e-05
-1.1915e-05
-3.56218e-05
-1.20474e-05
-3.21979e-05
-1.20474e-05
-2.88031e-05
-1.19136e-05
-2.54735e-05
-1.16465e-05
-2.22444e-05
-1.12489e-05
-1.91498e-05
-1.07262e-05
-1.62214e-05
-1.00858e-05
-1.34885e-05
-9.338e-06
-1.09769e-05
-8.49521e-06
-8.70831e-06
-7.57255e-06
-6.69984e-06
-6.58772e-06
-4.96318e-06
-5.56116e-06
-3.50397e-06
-4.51627e-06
-2.3212e-06
-3.4797e-06
-1.4065e-06
-2.48187e-06
-7.43562e-07
-1.55754e-06
-3.07561e-07
-7.4663e-07
-6.45273e-08
-9.53059e-08
2.92725e-08
3.4316e-07
2.82853e-08
5.07066e-07
3.19623e-07
-1.3762e-07
1.41107e-07
-5.66203e-07
8.84759e-07
-1.2972e-06
1.92006e-06
-2.33571e-06
3.12405e-06
-3.68002e-06
4.4082e-06
-5.32206e-06
5.70566e-06
-7.24824e-06
6.96736e-06
-9.44045e-06
8.15879e-06
-1.18771e-05
9.25676e-06
-1.45343e-05
1.02467e-05
-1.73864e-05
1.11205e-05
-2.04071e-05
1.18749e-05
-2.35696e-05
1.25096e-05
-2.68474e-05
1.30268e-05
-3.02142e-05
1.34298e-05
-3.36444e-05
1.37225e-05
-3.7113e-05
1.39091e-05
-4.05954e-05
1.39935e-05
-4.40681e-05
1.39791e-05
-4.75075e-05
1.38689e-05
-5.08909e-05
1.36655e-05
-5.4196e-05
1.33705e-05
-5.74005e-05
1.29855e-05
-6.04828e-05
1.25116e-05
-6.34213e-05
1.19498e-05
-6.61949e-05
1.13008e-05
-6.87829e-05
1.0566e-05
-7.11649e-05
9.7466e-06
-7.33215e-05
8.8447e-06
-7.52338e-05
7.86297e-06
-7.68839e-05
6.8049e-06
-7.82552e-05
5.67499e-06
-7.93325e-05
4.4788e-06
-8.01023e-05
3.22306e-06
-8.05532e-05
1.91574e-06
-8.06758e-05
5.66017e-07
-8.04633e-05
-8.15685e-07
-7.99117e-05
-2.21776e-06
-7.90198e-05
-3.62748e-06
-7.77896e-05
-5.03116e-06
-7.62267e-05
-6.41421e-06
-7.43397e-05
-7.76144e-06
-7.21412e-05
-9.05716e-06
-6.96471e-05
-1.02855e-05
-6.6877e-05
-1.14306e-05
-6.3854e-05
-1.2477e-05
-6.06044e-05
-1.34099e-05
-5.71578e-05
-1.42153e-05
-5.35465e-05
-1.48807e-05
-4.98055e-05
-1.53949e-05
-4.59716e-05
-1.57488e-05
-4.20836e-05
-1.59354e-05
-3.81811e-05
-1.59499e-05
-3.43044e-05
-1.57904e-05
-3.04935e-05
-1.54574e-05
-2.67877e-05
-1.49547e-05
-2.32249e-05
-1.4289e-05
-1.98407e-05
-1.347e-05
-1.6668e-05
-1.25107e-05
-1.37357e-05
-1.14274e-05
-1.10688e-05
-1.02395e-05
-8.68691e-06
-8.96964e-06
-6.60395e-06
-7.64413e-06
-4.82746e-06
-6.29275e-06
-3.35796e-06
-4.94921e-06
-2.18834e-06
-3.65149e-06
-1.3034e-06
-2.44247e-06
-6.79431e-07
-1.3706e-06
-2.83793e-07
-4.90942e-07
-7.46477e-08
1.34018e-07
-6.0399e-10
4.33023e-07
3.19018e-07
-1.85383e-07
3.26489e-07
-7.37881e-07
1.43726e-06
-1.6535e-06
2.83567e-06
-2.92525e-06
4.3958e-06
-4.54205e-06
6.025e-06
-6.48858e-06
7.65219e-06
-8.74563e-06
9.22442e-06
-1.12907e-05
1.07038e-05
-1.40986e-05
1.20647e-05
-1.71425e-05
1.32906e-05
-2.03942e-05
1.43722e-05
-2.38248e-05
1.53055e-05
-2.74055e-05
1.60903e-05
-3.11074e-05
1.67287e-05
-3.49021e-05
1.72246e-05
-3.87619e-05
1.75823e-05
-4.26593e-05
1.78066e-05
-4.65679e-05
1.7902e-05
-5.04615e-05
1.78727e-05
-5.43145e-05
1.7722e-05
-5.81019e-05
1.74529e-05
-6.1799e-05
1.70676e-05
-6.53814e-05
1.65679e-05
-6.88251e-05
1.59554e-05
-7.21065e-05
1.52312e-05
-7.52023e-05
1.43966e-05
-7.80897e-05
1.34534e-05
-8.07465e-05
1.24034e-05
-8.31512e-05
1.12494e-05
-8.52832e-05
9.99498e-06
-8.71231e-05
8.64478e-06
-8.86527e-05
7.20462e-06
-8.98556e-05
5.68168e-06
-9.07171e-05
4.08457e-06
-9.12248e-05
2.42339e-06
-9.13685e-05
7.09766e-07
-9.1141e-05
-1.04319e-06
-9.05379e-05
-2.82092e-06
-8.95579e-05
-4.60749e-06
-8.82032e-05
-6.38578e-06
-8.64798e-05
-8.13766e-06
-8.43971e-05
-9.84415e-06
-8.19685e-05
-1.14858e-05
-7.92112e-05
-1.30427e-05
-7.61465e-05
-1.44954e-05
-7.2799e-05
-1.58244e-05
-6.91975e-05
-1.70115e-05
-6.53736e-05
-1.80391e-05
-6.13626e-05
-1.88917e-05
-5.72022e-05
-1.95554e-05
-5.29324e-05
-2.00186e-05
-4.85953e-05
-2.02725e-05
-4.42342e-05
-2.03111e-05
-3.98927e-05
-2.01318e-05
-3.56149e-05
-1.97352e-05
-3.14437e-05
-1.91259e-05
-2.74209e-05
-1.83118e-05
-2.35857e-05
-1.73052e-05
-1.99744e-05
-1.6122e-05
-1.66196e-05
-1.47822e-05
-1.35492e-05
-1.33099e-05
-1.07858e-05
-1.17331e-05
-8.34587e-06
-1.0084e-05
-6.23938e-06
-8.39924e-06
-4.46892e-06
-6.71967e-06
-3.02934e-06
-5.09108e-06
-1.90733e-06
-3.56449e-06
-1.08112e-06
-2.19681e-06
-5.20364e-07
-1.0517e-06
-1.86122e-07
-2.00224e-07
-3.10829e-08
2.77984e-07
2.87935e-07
-2.32079e-07
5.58567e-07
-9.07565e-07
2.11274e-06
-2.00785e-06
3.93595e-06
-3.51386e-06
5.90182e-06
-5.40475e-06
7.91588e-06
-7.65736e-06
9.9048e-06
-1.02463e-05
1.18133e-05
-1.3144e-05
1.36016e-05
-1.63214e-05
1.52422e-05
-1.97484e-05
1.67176e-05
-2.3394e-05
1.80177e-05
-2.72269e-05
1.91385e-05
-3.12161e-05
2.00795e-05
-3.53306e-05
2.08433e-05
-3.95401e-05
2.14341e-05
-4.38148e-05
2.1857e-05
-4.81254e-05
2.21172e-05
-5.24435e-05
2.22201e-05
-5.67409e-05
2.217e-05
-6.09901e-05
2.19712e-05
-6.51641e-05
2.16268e-05
-6.92361e-05
2.11396e-05
-7.31799e-05
2.05117e-05
-7.69695e-05
1.9745e-05
-8.05794e-05
1.8841e-05
-8.39843e-05
1.78016e-05
-8.71597e-05
1.66288e-05
-9.00816e-05
1.53253e-05
-9.27268e-05
1.38946e-05
-9.50732e-05
1.23414e-05
-9.70998e-05
1.06714e-05
-9.87871e-05
8.89197e-06
-0.000100118
7.01205e-06
-0.000101075
5.04222e-06
-0.000101647
2.9949e-06
-0.000101821
8.84276e-07
-0.000101591
-1.27365e-06
-0.00010095
-3.46118e-06
-9.98989e-05
-5.65901e-06
-9.84383e-05
-7.84638e-06
-9.65747e-05
-1.00013e-05
-9.43178e-05
-1.2101e-05
-9.16819e-05
-1.41217e-05
-8.8685e-05
-1.60396e-05
-8.53495e-05
-1.78309e-05
-8.17015e-05
-1.94724e-05
-7.77714e-05
-2.09416e-05
-7.3593e-05
-2.22175e-05
-6.92037e-05
-2.3281e-05
-6.46439e-05
-2.41152e-05
-5.99564e-05
-2.47061e-05
-5.51862e-05
-2.50426e-05
-5.03799e-05
-2.51174e-05
-4.55848e-05
-2.49269e-05
-4.08483e-05
-2.44718e-05
-3.62171e-05
-2.3757e-05
-3.17367e-05
-2.27923e-05
-2.745e-05
-2.15919e-05
-2.33971e-05
-2.01749e-05
-1.96141e-05
-1.85653e-05
-1.61322e-05
-1.67918e-05
-1.29772e-05
-1.4888e-05
-1.01688e-05
-1.28924e-05
-7.7197e-06
-1.08484e-05
-5.63514e-06
-8.80423e-06
-3.91254e-06
-6.81367e-06
-2.54111e-06
-4.93592e-06
-1.50172e-06
-3.2362e-06
-7.66946e-07
-1.78648e-06
-3.01334e-07
-6.65837e-07
-6.20487e-08
3.86988e-08
2.25888e-07
-2.77429e-07
8.35996e-07
-1.07372e-06
2.90903e-06
-2.3566e-06
5.21883e-06
-4.09525e-06
7.64047e-06
-6.25895e-06
1.00796e-05
-8.81643e-06
1.24623e-05
-1.17357e-05
1.47325e-05
-1.49839e-05
1.68498e-05
-1.85276e-05
1.87859e-05
-2.23332e-05
2.05231e-05
-2.63668e-05
2.20513e-05
-3.05946e-05
2.33663e-05
-3.49833e-05
2.44682e-05
-3.95002e-05
2.53601e-05
-4.41129e-05
2.60468e-05
-4.87899e-05
2.6534e-05
-5.35004e-05
2.68277e-05
-5.82139e-05
2.69336e-05
-6.29008e-05
2.68569e-05
-6.75318e-05
2.66022e-05
-7.20782e-05
2.61732e-05
-7.65115e-05
2.5573e-05
-8.08038e-05
2.4804e-05
-8.49274e-05
2.38686e-05
-8.8855e-05
2.27686e-05
-9.25598e-05
2.15064e-05
-9.60156e-05
2.00846e-05
-9.91969e-05
1.85066e-05
-0.000102079
1.67767e-05
-0.000104638
1.49006e-05
-0.000106852
1.28855e-05
-0.0001087
1.07401e-05
-0.000110164
8.47534e-06
-0.000111225
6.10382e-06
-0.000111871
3.64037e-06
-0.000112088
1.10189e-06
-0.000111869
-1.49262e-06
-0.000111208
-4.12218e-06
-0.000110104
-6.76394e-06
-0.000108557
-9.39337e-06
-0.000106573
-1.19845e-05
-0.000104164
-1.45103e-05
-0.000101343
-1.69428e-05
-9.81287e-05
-1.92539e-05
-9.45443e-05
-2.14153e-05
-9.06173e-05
-2.33994e-05
-8.63792e-05
-2.51797e-05
-8.18656e-05
-2.67311e-05
-7.71156e-05
-2.80309e-05
-7.2172e-05
-2.90589e-05
-6.70802e-05
-2.97979e-05
-6.1888e-05
-3.02348e-05
-5.6645e-05
-3.03603e-05
-5.1402e-05
-3.017e-05
-4.62098e-05
-2.9664e-05
-4.11189e-05
-2.88479e-05
-3.61786e-05
-2.77326e-05
-3.14357e-05
-2.63348e-05
-2.69341e-05
-2.46765e-05
-2.27137e-05
-2.27857e-05
-1.88096e-05
-2.06959e-05
-1.52512e-05
-1.84464e-05
-1.20616e-05
-1.6082e-05
-9.2568e-06
-1.36531e-05
-6.84536e-06
-1.12157e-05
-4.82774e-06
-8.8313e-06
-3.1962e-06
-6.56745e-06
-1.93475e-06
-4.49765e-06
-1.0193e-06
-2.70193e-06
-4.18173e-07
-1.26697e-06
-9.29472e-08
-2.86528e-07
1.32942e-07
-3.21319e-07
1.15731e-06
-1.2355e-06
3.8232e-06
-2.69752e-06
6.68086e-06
-4.66529e-06
9.60824e-06
-7.09837e-06
1.25126e-05
-9.95729e-06
1.53212e-05
-1.32032e-05
1.79785e-05
-1.67979e-05
2.04444e-05
-2.07033e-05
2.26913e-05
-2.48819e-05
2.47018e-05
-2.9297e-05
2.64663e-05
-3.39121e-05
2.79814e-05
-3.86919e-05
2.92479e-05
-4.36015e-05
3.02697e-05
-4.8607e-05
3.10523e-05
-5.36752e-05
3.16022e-05
-5.87738e-05
3.19262e-05
-6.38708e-05
3.20306e-05
-6.89351e-05
3.19213e-05
-7.39361e-05
3.16032e-05
-7.88434e-05
3.10805e-05
-8.36272e-05
3.03568e-05
-8.8258e-05
2.94349e-05
-9.27068e-05
2.83173e-05
-9.69447e-05
2.70065e-05
-0.000100944
2.55053e-05
-0.000104676
2.38167e-05
-0.000108114
2.1945e-05
-0.000111233
1.98954e-05
-0.000114007
1.76746e-05
-0.000116412
1.52911e-05
-0.000118428
1.27555e-05
-0.000120033
1.00802e-05
-0.000121209
7.28018e-06
-0.000121941
4.37275e-06
-0.000122217
1.37756e-06
-0.000122026
-1.68332e-06
-0.000121363
-4.78553e-06
-0.000120224
-7.90256e-06
-0.000118612
-1.1006e-05
-0.000116531
-1.40656e-05
-0.000113991
-1.70501e-05
-0.000111006
-1.99271e-05
-0.000107597
-2.26638e-05
-0.000103784
-2.52273e-05
-9.95983e-05
-2.75855e-05
-9.50707e-05
-2.97073e-05
-9.02384e-05
-3.15634e-05
-8.51425e-05
-3.31269e-05
-7.98274e-05
-3.43739e-05
-7.43411e-05
-3.52843e-05
-6.8734e-05
-3.58419e-05
-6.30587e-05
-3.60356e-05
-5.73692e-05
-3.58594e-05
-5.17202e-05
-3.53131e-05
-4.61657e-05
-3.44023e-05
-4.07591e-05
-3.31393e-05
-3.55513e-05
-3.15425e-05
-3.05905e-05
-2.96373e-05
-2.59206e-05
-2.74555e-05
-2.1581e-05
-2.50355e-05
-1.76052e-05
-2.24222e-05
-1.40202e-05
-1.9667e-05
-1.08459e-05
-1.68274e-05
-8.09452e-06
-1.39671e-05
-5.7701e-06
-1.11557e-05
-3.86845e-06
-8.46911e-06
-2.37706e-06
-5.98904e-06
-1.27545e-06
-3.80354e-06
-5.3571e-07
-2.00671e-06
-1.23576e-07
-6.98663e-07
9.36536e-09
-3.6371e-07
1.52102e-06
-1.39241e-06
4.85191e-06
-3.02921e-06
8.31765e-06
-5.22123e-06
1.18003e-05
-7.9186e-06
1.521e-05
-1.10737e-05
1.84763e-05
-1.4641e-05
2.15458e-05
-1.85764e-05
2.43798e-05
-2.28373e-05
2.69522e-05
-2.73824e-05
2.92469e-05
-3.21717e-05
3.12556e-05
-3.71662e-05
3.2976e-05
-4.23284e-05
3.44101e-05
-4.76215e-05
3.55628e-05
-5.30101e-05
3.64408e-05
-5.84594e-05
3.70515e-05
-6.39356e-05
3.74025e-05
-6.94057e-05
3.75007e-05
-7.48372e-05
3.73528e-05
-8.01982e-05
3.69641e-05
-8.54571e-05
3.63395e-05
-9.05829e-05
3.54826e-05
-9.55449e-05
3.43968e-05
-0.000100313
3.3085e-05
-0.000104856
3.15501e-05
-0.000109146
2.97951e-05
-0.000113153
2.78239e-05
-0.000116849
2.56413e-05
-0.000120208
2.32535e-05
-0.000123201
2.06682e-05
-0.000125806
1.78955e-05
-0.000127997
1.49473e-05
-0.000129755
1.1838e-05
-0.00013106
8.58488e-06
-0.000131895
5.20758e-06
-0.000132246
1.72863e-06
-0.000132102
-1.8268e-06
-0.000131457
-5.4309e-06
-0.000130306
-9.05343e-06
-0.00012865
-1.26619e-05
-0.000126494
-1.6222e-05
-0.000123846
-1.96978e-05
-0.000120721
-2.30523e-05
-0.000117137
-2.62477e-05
-0.000113118
-2.92466e-05
-0.000108692
-3.20117e-05
-0.000103892
-3.45072e-05
-9.8756e-05
-3.66991e-05
-9.33267e-05
-3.85562e-05
-8.76502e-05
-4.00504e-05
-8.17765e-05
-4.1158e-05
-7.57586e-05
-4.18598e-05
-6.96522e-05
-4.2142e-05
-6.35146e-05
-4.19971e-05
-5.74039e-05
-4.14237e-05
-5.13785e-05
-4.04277e-05
-4.54958e-05
-3.9022e-05
-3.98113e-05
-3.72271e-05
-3.43775e-05
-3.50711e-05
-2.92432e-05
-3.25898e-05
-2.44523e-05
-2.98264e-05
-2.0043e-05
-2.68316e-05
-1.60467e-05
-2.36633e-05
-1.24877e-05
-2.03864e-05
-9.38245e-06
-1.70723e-05
-6.73901e-06
-1.37992e-05
-4.5571e-06
-1.0651e-05
-2.82803e-06
-7.71811e-06
-1.53501e-06
-5.09657e-06
-6.5384e-07
-2.88788e-06
-1.53961e-07
-1.19854e-06
-1.44597e-07
-4.04586e-07
1.92561e-06
-1.54417e-06
5.99149e-06
-3.35071e-06
1.01242e-05
-5.76113e-06
1.42107e-05
-8.71642e-06
1.81653e-05
-1.21611e-05
2.1921e-05
-1.60428e-05
2.54275e-05
-2.03118e-05
2.86488e-05
-2.49208e-05
3.15612e-05
-2.98246e-05
3.41507e-05
-3.49799e-05
3.64109e-05
-4.03454e-05
3.83414e-05
-4.5881e-05
3.99457e-05
-5.15485e-05
4.12303e-05
-5.73106e-05
4.2203e-05
-6.31314e-05
4.28723e-05
-6.89758e-05
4.32469e-05
-7.48097e-05
4.33346e-05
-8.05994e-05
4.31425e-05
-8.6312e-05
4.26767e-05
-9.19149e-05
4.19424e-05
-9.73761e-05
4.09438e-05
-0.000102664
3.96845e-05
-0.000107747
3.81678e-05
-0.000112593
3.63968e-05
-0.000117173
3.43752e-05
-0.000121457
3.21073e-05
-0.000125414
2.95986e-05
-0.000129017
2.68563e-05
-0.000132238
2.38891e-05
-0.000135051
2.07083e-05
-0.000137431
1.73274e-05
-0.000139356
1.37629e-05
-0.000140805
1.0034e-05
-0.00014176
6.1628e-06
-0.000142206
2.17473e-06
-0.000142131
-1.90194e-06
-0.000141526
-6.03597e-06
-0.000140386
-1.01933e-05
-0.00013871
-1.43375e-05
-0.000136503
-1.84298e-05
-0.000133771
-2.24296e-05
-0.000130528
-2.6295e-05
-0.000126792
-2.99835e-05
-0.000122587
-3.34522e-05
-0.000117939
-3.66589e-05
-0.000112884
-3.95625e-05
-0.000107459
-4.2124e-05
-0.000101708
-4.43072e-05
-9.56788e-05
-4.60798e-05
-8.9423e-05
-4.74137e-05
-8.29966e-05
-4.82862e-05
-7.64579e-05
-4.86807e-05
-6.98678e-05
-4.85872e-05
-6.32882e-05
-4.80033e-05
-5.67817e-05
-4.69342e-05
-5.04102e-05
-4.53934e-05
-4.42341e-05
-4.34032e-05
-3.8311e-05
-4.09942e-05
-3.26947e-05
-3.82061e-05
-2.74343e-05
-3.50868e-05
-2.25731e-05
-3.16928e-05
-1.81477e-05
-2.80887e-05
-1.41872e-05
-2.43469e-05
-1.07128e-05
-2.05468e-05
-7.73706e-06
-1.67749e-05
-5.26399e-06
-1.31241e-05
-3.2889e-06
-9.6932e-06
-1.7988e-06
-6.58667e-06
-7.73033e-07
-3.91365e-06
-1.8428e-07
-1.7873e-06
-3.28878e-07
-4.43937e-07
2.36955e-06
-1.69056e-06
7.23812e-06
-3.66134e-06
1.2095e-05
-6.28349e-06
1.68328e-05
-9.48931e-06
2.13711e-05
-1.32157e-05
2.56474e-05
-1.74036e-05
2.96154e-05
-2.19978e-05
3.3243e-05
-2.69462e-05
3.65096e-05
-3.21998e-05
3.94043e-05
-3.77121e-05
4.19233e-05
-4.34392e-05
4.40685e-05
-4.9339e-05
4.58455e-05
-5.53713e-05
4.72626e-05
-6.14976e-05
4.83292e-05
-6.76806e-05
4.90553e-05
-7.38841e-05
4.94504e-05
-8.0073e-05
4.95235e-05
-8.62129e-05
4.92823e-05
-9.22698e-05
4.87336e-05
-9.82104e-05
4.78831e-05
-0.000104002
4.67352e-05
-0.000109611
4.52941e-05
-0.000115007
4.35631e-05
-0.000120156
4.1546e-05
-0.000125027
3.92467e-05
-0.00012959
3.66701e-05
-0.000133814
3.38223e-05
-0.000137669
3.07112e-05
-0.000141127
2.73467e-05
-0.00014416
2.37413e-05
-0.000146742
1.991e-05
-0.00014885
1.5871e-05
-0.000150462
1.16456e-05
-0.000151557
7.25842e-06
-0.00015212
2.73755e-06
-0.000152136
-1.88564e-06
-0.000151596
-6.5765e-06
-0.000150492
-1.12972e-05
-0.000148822
-1.60072e-05
-0.000146589
-2.06633e-05
-0.000143798
-2.52202e-05
-0.000140462
-2.9631e-05
-0.000136598
-3.38479e-05
-0.000132227
-3.78227e-05
-0.000127379
-4.15077e-05
-0.000122085
-4.48561e-05
-0.000116385
-4.78237e-05
-0.000110324
-5.03688e-05
-0.000103949
-5.24541e-05
-9.73161e-05
-5.40469e-05
-9.0482e-05
-5.51203e-05
-8.35085e-05
-5.56542e-05
-7.64598e-05
-5.56359e-05
-6.9402e-05
-5.50611e-05
-6.24021e-05
-5.39341e-05
-5.55269e-05
-5.22686e-05
-4.88421e-05
-5.0088e-05
-4.24107e-05
-4.74256e-05
-3.62923e-05
-4.43244e-05
-3.05418e-05
-4.08373e-05
-2.52081e-05
-3.70265e-05
-2.03336e-05
-3.29633e-05
-1.59528e-05
-2.87276e-05
-1.20922e-05
-2.44074e-05
-8.76939e-06
-2.00977e-05
-5.99289e-06
-1.59006e-05
-3.76232e-06
-1.19238e-05
-2.0685e-06
-8.28048e-06
-8.9416e-07
-5.08799e-06
-2.14811e-07
-2.46665e-06
-5.43691e-07
-4.81741e-07
2.85129e-06
-1.83138e-06
8.58776e-06
-3.96046e-06
1.4224e-05
-6.78705e-06
1.96594e-05
-1.02351e-05
2.48192e-05
-1.42342e-05
2.96465e-05
-1.8719e-05
3.41002e-05
-2.36287e-05
3.81527e-05
-2.89067e-05
4.17876e-05
-3.45001e-05
4.49977e-05
-4.03595e-05
4.77827e-05
-4.64382e-05
5.01472e-05
-5.26921e-05
5.20995e-05
-5.90794e-05
5.36499e-05
-6.55602e-05
5.481e-05
-7.2096e-05
5.55911e-05
-7.86497e-05
5.60041e-05
-8.51854e-05
5.60591e-05
-9.16678e-05
5.57647e-05
-9.80624e-05
5.51283e-05
-0.000104335
5.41559e-05
-0.000110453
5.28526e-05
-0.000116381
5.12227e-05
-0.000122088
4.927e-05
-0.00012754
4.69984e-05
-0.000132706
4.44123e-05
-0.000137553
4.15169e-05
-0.000142049
3.8319e-05
-0.000146166
3.48273e-05
-0.000149871
3.10524e-05
-0.000153138
2.70081e-05
-0.000155939
2.27107e-05
-0.000158248
1.81802e-05
-0.000160042
1.34397e-05
-0.0001613
8.51632e-06
-0.000162003
3.44064e-06
-0.000162136
-1.75296e-06
-0.000161686
-7.02644e-06
-0.000160645
-1.23383e-05
-0.000159008
-1.76438e-05
-0.000156776
-2.28953e-05
-0.000153953
-2.80428e-05
-0.00015055
-3.30342e-05
-0.000146582
-3.78163e-05
-0.000142069
-4.23352e-05
-0.00013704
-4.65373e-05
-0.000131526
-5.03701e-05
-0.000125566
-5.37831e-05
-0.000119206
-5.67292e-05
-0.000112495
-5.91652e-05
-0.000105489
-6.10531e-05
-9.82475e-05
-6.23614e-05
-9.08359e-05
-6.30658e-05
-8.33217e-05
-6.31502e-05
-7.57751e-05
-6.26077e-05
-6.82679e-05
-6.14412e-05
-6.08723e-05
-5.96642e-05
-5.36596e-05
-5.73007e-05
-4.6699e-05
-5.43863e-05
-4.00562e-05
-5.09672e-05
-3.37926e-05
-4.71009e-05
-2.79635e-05
-4.28555e-05
-2.26176e-05
-3.83092e-05
-1.77956e-05
-3.35496e-05
-1.35297e-05
-2.86732e-05
-9.84299e-06
-2.37844e-05
-6.74904e-06
-1.89945e-05
-4.25193e-06
-1.44209e-05
-2.34638e-06
-1.0186e-05
-1.01837e-06
-6.416e-06
-2.45901e-07
-3.23912e-06
-7.89592e-07
-5.17962e-07
3.36925e-06
-1.9664e-06
1.00362e-05
-4.24749e-06
1.65051e-05
-7.27062e-06
2.26825e-05
-1.09519e-05
2.85005e-05
-1.52139e-05
3.39085e-05
-1.99851e-05
3.88714e-05
-2.51995e-05
4.33671e-05
-3.07961e-05
4.73842e-05
-3.67184e-05
5.092e-05
-4.29137e-05
5.3978e-05
-4.93331e-05
5.65665e-05
-5.59304e-05
5.86968e-05
-6.26622e-05
6.03818e-05
-6.94873e-05
6.16351e-05
-7.63662e-05
6.247e-05
-8.32611e-05
6.2899e-05
-9.01353e-05
6.29332e-05
-9.69528e-05
6.25823e-05
-0.000103679
6.18542e-05
-0.000110279
6.07557e-05
-0.000116718
5.92922e-05
-0.000122964
5.74682e-05
-0.000128982
5.52879e-05
-0.000134739
5.27553e-05
-0.000140202
4.98753e-05
-0.000145338
4.66533e-05
-0.000150116
4.30967e-05
-0.000154503
3.92146e-05
-0.000158469
3.50187e-05
-0.000161985
3.05234e-05
-0.000165021
2.57467e-05
-0.00016755
2.07098e-05
-0.000169549
1.54379e-05
-0.000170992
9.9599e-06
-0.000171861
4.30911e-06
-0.000172136
-1.47728e-06
-0.000171805
-7.358e-06
-0.000170855
-1.32879e-05
-0.000169281
-1.92182e-05
-0.000167079
-2.50968e-05
-0.000164253
-3.08688e-05
-0.000160811
-3.64769e-05
-0.000156765
-4.18622e-05
-0.000152135
-4.6965e-05
-0.000146947
-5.17254e-05
-0.000141232
-5.60846e-05
-0.000135029
-5.99859e-05
-0.000128383
-6.33753e-05
-0.000121345
-6.62037e-05
-0.000113971
-6.84272e-05
-0.000106324
-7.00085e-05
-9.84707e-05
-7.09186e-05
-9.04837e-05
-7.11372e-05
-8.24372e-05
-7.06542e-05
-7.44081e-05
-6.94704e-05
-6.64741e-05
-6.75981e-05
-5.87128e-05
-6.5062e-05
-5.12001e-05
-6.1899e-05
-4.40086e-05
-5.81587e-05
-3.72067e-05
-5.39028e-05
-3.0857e-05
-4.92053e-05
-2.50151e-05
-4.41511e-05
-1.97285e-05
-3.88362e-05
-1.50359e-05
-3.33658e-05
-1.09663e-05
-2.7854e-05
-7.53877e-06
-2.2422e-05
-4.76214e-06
-1.71975e-05
-2.63517e-06
-1.2313e-05
-1.14703e-06
-7.90415e-06
-2.77942e-07
-4.10821e-06
-1.06753e-06
-5.52546e-07
3.92179e-06
-2.09536e-06
1.1579e-05
-4.52179e-06
1.89316e-05
-7.73301e-06
2.58938e-05
-1.16377e-05
3.24052e-05
-1.61518e-05
3.84226e-05
-2.1198e-05
4.39176e-05
-2.67053e-05
4.88744e-05
-3.26085e-05
5.32874e-05
-3.88475e-05
5.71589e-05
-4.53667e-05
6.04973e-05
-5.21148e-05
6.33146e-05
-5.90439e-05
6.56258e-05
-6.6109e-05
6.74468e-05
-7.32676e-05
6.87937e-05
-8.04795e-05
6.96819e-05
-8.77061e-05
7.01256e-05
-9.49101e-05
7.01372e-05
-0.000102055
6.97274e-05
-0.000109106
6.89051e-05
-0.000116028