/*--------------------------------*- C++ -*----------------------------------*\
  =========                 |
  \\      /  F ield         | OpenFOAM: The Open Source CFD Toolbox
   \\    /   O peration     | Website:  https://openfoam.org
    \\  /    A nd           | Version:  dev
     \\/     M anipulation  |
\*---------------------------------------------------------------------------*/
FoamFile
{
    format      ascii;
    class       volVectorField;
    location    "27";
    object      U;
}
// * * * * * * * * * * * * * * * * * * * * * * * * * * * * * * * * * * * * * //

dimensions      [0 1 -1 0 0 0 0];

internalField   nonuniform List<vector> 
5184
(
(1.22617e-05 -1.27661e-05 0)
(4.50594e-05 -2.09165e-05 0)
(8.02519e-05 -1.72543e-05 0)
(9.59196e-05 -8.19586e-06 0)
(8.20921e-05 2.67029e-06 0)
(3.64007e-05 1.36172e-05 0)
(-4.06024e-05 2.38432e-05 0)
(-0.000146898 3.30426e-05 0)
(-0.000279694 4.10972e-05 0)
(-0.000435935 4.8013e-05 0)
(-0.000612499 5.38517e-05 0)
(-0.000806355 5.8698e-05 0)
(-0.00101463 6.26443e-05 0)
(-0.00123467 6.57818e-05 0)
(-0.00146401 6.81952e-05 0)
(-0.00170039 6.99599e-05 0)
(-0.00194175 7.11403e-05 0)
(-0.00218616 7.17888e-05 0)
(-0.00243185 7.19462e-05 0)
(-0.00267712 7.1642e-05 0)
(-0.00292038 7.08956e-05 0)
(-0.00316007 6.97173e-05 0)
(-0.00339465 6.81103e-05 0)
(-0.0036226 6.60716e-05 0)
(-0.0038424 6.3594e-05 0)
(-0.00405251 6.06676e-05 0)
(-0.00425137 5.7282e-05 0)
(-0.0044374 5.34275e-05 0)
(-0.00460904 4.90972e-05 0)
(-0.0047647 4.42879e-05 0)
(-0.00490282 3.90023e-05 0)
(-0.00502188 3.32495e-05 0)
(-0.00512042 2.70467e-05 0)
(-0.00519706 2.04199e-05 0)
(-0.00525054 1.34047e-05 0)
(-0.00527975 6.04679e-06 0)
(-0.00528375 -1.59766e-06 0)
(-0.0052618 -9.46223e-06 0)
(-0.00521341 -1.74704e-05 0)
(-0.00513835 -2.55364e-05 0)
(-0.00503667 -3.35658e-05 0)
(-0.00490876 -4.14572e-05 0)
(-0.00475532 -4.91034e-05 0)
(-0.0045774 -5.63935e-05 0)
(-0.0043764 -6.32149e-05 0)
(-0.00415409 -6.94558e-05 0)
(-0.00391255 -7.50074e-05 0)
(-0.0036542 -7.97667e-05 0)
(-0.00338178 -8.36391e-05 0)
(-0.00309829 -8.65407e-05 0)
(-0.00280696 -8.84013e-05 0)
(-0.00251122 -8.91654e-05 0)
(-0.00221464 -8.87952e-05 0)
(-0.00192087 -8.72707e-05 0)
(-0.00163359 -8.45916e-05 0)
(-0.00135642 -8.07771e-05 0)
(-0.00109292 -7.58665e-05 0)
(-0.00084645 -6.99184e-05 0)
(-0.000620154 -6.30106e-05 0)
(-0.000416885 -5.52388e-05 0)
(-0.00023914 -4.67172e-05 0)
(-8.89961e-05 -3.75787e-05 0)
(3.1958e-05 -2.79783e-05 0)
(0.000122708 -1.80986e-05 0)
(0.00018292 -8.16431e-06 0)
(0.000213097 1.52973e-06 0)
(0.000214824 1.05603e-05 0)
(0.00019115 1.829e-05 0)
(0.000147104 2.37061e-05 0)
(9.07767e-05 2.51173e-05 0)
(3.6627e-05 1.98399e-05 0)
(6.22904e-06 6.24162e-06 0)
(2.08031e-05 -4.59616e-05 0)
(6.55304e-05 -6.57463e-05 0)
(9.46164e-05 -4.05635e-05 0)
(7.27126e-05 7.63513e-06 0)
(-1.90159e-05 6.56734e-05 0)
(-0.000187377 0.000125973 0)
(-0.000432952 0.000184261 0)
(-0.000752521 0.00023829 0)
(-0.00114054 0.000286922 0)
(-0.00159023 0.000329717 0)
(-0.00209426 0.000366634 0)
(-0.00264515 0.000397863 0)
(-0.00323563 0.000423716 0)
(-0.00385868 0.00044456 0)
(-0.00450772 0.00046077 0)
(-0.00517654 0.000472707 0)
(-0.00585934 0.000480693 0)
(-0.00655069 0.000485002 0)
(-0.00724546 0.000485859 0)
(-0.00793874 0.000483435 0)
(-0.00862586 0.000477851 0)
(-0.00930226 0.000469183 0)
(-0.00996346 0.000457471 0)
(-0.010605 0.000442723 0)
(-0.0112226 0.000424927 0)
(-0.0118118 0.000404061 0)
(-0.0123681 0.0003801 0)
(-0.0128871 0.000353026 0)
(-0.0133646 0.000322841 0)
(-0.013796 0.000289571 0)
(-0.0141773 0.000253277 0)
(-0.0145042 0.000214061 0)
(-0.014773 0.000172073 0)
(-0.0149799 0.000127517 0)
(-0.0151217 8.06503e-05 0)
(-0.0151956 3.17932e-05 0)
(-0.0151991 -1.86761e-05 0)
(-0.0151306 -7.03194e-05 0)
(-0.0149889 -0.000122642 0)
(-0.0147736 -0.000175096 0)
(-0.0144851 -0.000227089 0)
(-0.0141247 -0.000277988 0)
(-0.0136944 -0.000327132 0)
(-0.0131972 -0.000373843 0)
(-0.0126372 -0.000417437 0)
(-0.0120192 -0.000457238 0)
(-0.011349 -0.000492595 0)
(-0.0106331 -0.000522892 0)
(-0.00987892 -0.000547569 0)
(-0.0090946 -0.00056613 0)
(-0.00828881 -0.000578165 0)
(-0.00747072 -0.000583352 0)
(-0.00664988 -0.000581477 0)
(-0.00583601 -0.000572436 0)
(-0.0050389 -0.000556246 0)
(-0.00426821 -0.000533044 0)
(-0.00353331 -0.000503094 0)
(-0.00284313 -0.000466785 0)
(-0.00220594 -0.000424631 0)
(-0.00162923 -0.000377273 0)
(-0.00111946 -0.000325478 0)
(-0.000681935 -0.000270152 0)
(-0.00032057 -0.000212354 0)
(-3.76489e-05 -0.000153337 0)
(0.000166461 -9.46107e-05 0)
(0.000293678 -3.80529e-05 0)
(0.000348747 1.38798e-05 0)
(0.000339935 5.7882e-05 0)
(0.000279729 8.9361e-05 0)
(0.000185978 0.00010182 0)
(8.63477e-05 8.64898e-05 0)
(1.96793e-05 3.6478e-05 0)
(1.76132e-05 -8.1322e-05 0)
(4.12693e-05 -9.50279e-05 0)
(1.95189e-05 -1.91228e-05 0)
(-8.4077e-05 0.000105926 0)
(-0.0002903 0.000254616 0)
(-0.000607894 0.00041051 0)
(-0.00103812 0.000563301 0)
(-0.00157716 0.000706854 0)
(-0.00221786 0.000837724 0)
(-0.00295102 0.000954204 0)
(-0.00376638 0.0010557 0)
(-0.00465322 0.00114231 0)
(-0.00560083 0.00121454 0)
(-0.00659875 0.00127312 0)
(-0.00763692 0.00131887 0)
(-0.00870579 0.00135262 0)
(-0.00979628 0.00137514 0)
(-0.0108998 0.00138709 0)
(-0.0120081 0.00138904 0)
(-0.0131134 0.00138143 0)
(-0.0142081 0.0013646 0)
(-0.0152848 0.00133876 0)
(-0.0163363 0.00130405 0)
(-0.0173555 0.00126052 0)
(-0.0183353 0.00120819 0)
(-0.0192685 0.00114705 0)
(-0.0201484 0.00107709 0)
(-0.0209677 0.000998318 0)
(-0.0217198 0.000910803 0)
(-0.0223978 0.000814682 0)
(-0.0229951 0.000710189 0)
(-0.0235055 0.000597666 0)
(-0.023923 0.000477588 0)
(-0.0242422 0.000350568 0)
(-0.0244582 0.000217374 0)
(-0.0245667 7.89271e-05 0)
(-0.0245644 -6.36931e-05 0)
(-0.0244487 -0.000209251 0)
(-0.0242182 -0.000356365 0)
(-0.0238725 -0.000503518 0)
(-0.0234124 -0.000649073 0)
(-0.0228401 -0.000791301 0)
(-0.0221591 -0.000928399 0)
(-0.0213741 -0.00105852 0)
(-0.0204915 -0.00117983 0)
(-0.0195189 -0.00129049 0)
(-0.0184651 -0.00138876 0)
(-0.0173404 -0.00147298 0)
(-0.0161562 -0.00154167 0)
(-0.0149249 -0.0015935 0)
(-0.0136598 -0.00162738 0)
(-0.012375 -0.00164247 0)
(-0.0110849 -0.0016382 0)
(-0.00980442 -0.00161432 0)
(-0.00854846 -0.00157089 0)
(-0.00733169 -0.00150832 0)
(-0.00616836 -0.00142736 0)
(-0.00507199 -0.00132911 0)
(-0.00405513 -0.001215 0)
(-0.00312905 -0.00108685 0)
(-0.00230348 -0.000946826 0)
(-0.00158631 -0.000797499 0)
(-0.000983291 -0.000641873 0)
(-0.000497645 -0.00048348 0)
(-0.00012969 -0.000326516 0)
(0.000123644 -0.00017607 0)
(0.000269447 -3.84533e-05 0)
(0.000319557 7.83195e-05 0)
(0.0002911 0.000163955 0)
(0.000207296 0.000205289 0)
(0.00010241 0.000186211 0)
(2.49703e-05 9.03673e-05 0)
(8.82661e-06 -9.77173e-05 0)
(-7.04604e-06 -7.3108e-05 0)
(-0.000107622 8.48007e-05 0)
(-0.000322376 0.000318329 0)
(-0.000669547 0.000589988 0)
(-0.00115754 0.000874163 0)
(-0.00178709 0.00115383 0)
(-0.00255344 0.0014182 0)
(-0.00344805 0.00166082 0)
(-0.00445988 0.00187814 0)
(-0.00557647 0.00206862 0)
(-0.00678461 0.00223199 0)
(-0.00807091 0.00236883 0)
(-0.00942209 0.00248017 0)
(-0.0108253 0.00256728 0)
(-0.012268 0.00263148 0)
(-0.0137384 0.00267408 0)
(-0.0152251 0.0026962 0)
(-0.0167172 0.00269883 0)
(-0.018204 0.00268277 0)
(-0.0196754 0.00264861 0)
(-0.0211214 0.00259678 0)
(-0.0225322 0.00252754 0)
(-0.0238983 0.00244106 0)
(-0.02521 0.00233741 0)
(-0.026458 0.00221664 0)
(-0.0276328 0.00207881 0)
(-0.0287252 0.00192402 0)
(-0.029726 0.00175248 0)
(-0.0306265 0.00156454 0)
(-0.031418 0.00136073 0)
(-0.0320924 0.00114178 0)
(-0.0326419 0.000908657 0)
(-0.0330597 0.000662611 0)
(-0.0333394 0.00040515 0)
(-0.0334759 0.000138075 0)
(-0.0334648 -0.000136526 0)
(-0.0333032 -0.000416284 0)
(-0.0329894 -0.000698565 0)
(-0.0325232 -0.000980493 0)
(-0.0319059 -0.00125898 0)
(-0.0311406 -0.00153078 0)
(-0.030232 -0.0017925 0)
(-0.0291865 -0.00204072 0)
(-0.0280124 -0.00227197 0)
(-0.0267199 -0.00248289 0)
(-0.0253205 -0.00267022 0)
(-0.0238275 -0.0028309 0)
(-0.0222559 -0.00296218 0)
(-0.0206216 -0.00306162 0)
(-0.0189419 -0.0031272 0)
(-0.017235 -0.00315738 0)
(-0.0155196 -0.00315114 0)
(-0.0138149 -0.00310802 0)
(-0.01214 -0.00302819 0)
(-0.010514 -0.00291241 0)
(-0.00895516 -0.00276212 0)
(-0.00748089 -0.00257943 0)
(-0.00610736 -0.00236708 0)
(-0.00484906 -0.00212852 0)
(-0.00371847 -0.00186792 0)
(-0.00272571 -0.00159015 0)
(-0.0018781 -0.00130094 0)
(-0.00117979 -0.00100694 0)
(-0.000631237 -0.000715986 0)
(-0.000228743 -0.000437335 0)
(3.61631e-05 -0.000182132 0)
(0.000177369 3.60175e-05 0)
(0.00021459 0.000200402 0)
(0.000173981 0.000290637 0)
(9.29791e-05 0.000282428 0)
(2.40179e-05 0.000147233 0)
(-2.13152e-06 -8.43641e-05 0)
(-6.73019e-05 2.09441e-05 0)
(-0.000264095 0.000295445 0)
(-0.000609686 0.000667928 0)
(-0.00111656 0.0010906 0)
(-0.00179094 0.00152956 0)
(-0.00263181 0.00196137 0)
(-0.00363281 0.00237057 0)
(-0.00478381 0.00274744 0)
(-0.0060721 0.00308634 0)
(-0.00748334 0.00338451 0)
(-0.00900229 0.00364113 0)
(-0.0106133 0.00385665 0)
(-0.012301 0.00403232 0)
(-0.0140498 0.0041698 0)
(-0.0158452 0.0042709 0)
(-0.0176726 0.00433743 0)
(-0.0195183 0.00437101 0)
(-0.0213689 0.00437309 0)
(-0.0232114 0.00434482 0)
(-0.0250333 0.00428713 0)
(-0.0268222 0.00420066 0)
(-0.0285661 0.00408589 0)
(-0.030253 0.00394309 0)
(-0.0318712 0.00377247 0)
(-0.033409 0.00357419 0)
(-0.034855 0.00334842 0)
(-0.0361978 0.00309544 0)
(-0.0374264 0.0028157 0)
(-0.03853 0.00250986 0)
(-0.0394982 0.00217887 0)
(-0.0403213 0.00182399 0)
(-0.0409902 0.00144689 0)
(-0.0414966 0.00104959 0)
(-0.0418331 0.000634595 0)
(-0.0419936 0.000204813 0)
(-0.0419733 -0.000236395 0)
(-0.0417688 -0.000685243 0)
(-0.0413783 -0.00113754 0)
(-0.0408018 -0.00158875 0)
(-0.0400412 -0.00203398 0)
(-0.0391002 -0.00246814 0)
(-0.0379848 -0.00288592 0)
(-0.0367029 -0.00328194 0)
(-0.0352645 -0.00365083 0)
(-0.0336818 -0.00398732 0)
(-0.0319687 -0.00428634 0)
(-0.0301414 -0.00454316 0)
(-0.0282175 -0.00475348 0)
(-0.0262162 -0.00491353 0)
(-0.0241582 -0.00502019 0)
(-0.0220651 -0.00507106 0)
(-0.0199593 -0.00506459 0)
(-0.0178635 -0.00500007 0)
(-0.0158008 -0.00487779 0)
(-0.0137937 -0.00469898 0)
(-0.0118642 -0.00446593 0)
(-0.0100329 -0.00418195 0)
(-0.00831913 -0.00385142 0)
(-0.00674028 -0.00347981 0)
(-0.00531127 -0.00307367 0)
(-0.00404422 -0.00264074 0)
(-0.00294799 -0.00219002 0)
(-0.00202774 -0.00173192 0)
(-0.0012844 -0.00127847 0)
(-0.000714218 -0.000843717 0)
(-0.000308207 -0.000444155 0)
(-5.16044e-05 -9.93355e-05 0)
(7.64599e-05 0.000167411 0)
(0.000103477 0.000328362 0)
(6.74559e-05 0.000350788 0)
(1.96552e-05 0.00019406 0)
(-1.36965e-05 -3.74775e-05 0)
(-0.000132819 0.000197397 0)
(-0.000435749 0.000626839 0)
(-0.000924447 0.00117013 0)
(-0.00160354 0.00177134 0)
(-0.00247557 0.00238962 0)
(-0.00353672 0.00299591 0)
(-0.00477828 0.00357045 0)
(-0.00618816 0.00410038 0)
(-0.00775186 0.00457794 0)
(-0.00945323 0.00499905 0)
(-0.0112752 0.00536223 0)
(-0.0132004 0.00566772 0)
(-0.0152111 0.00591688 0)
(-0.0172902 0.0061117 0)
(-0.0194208 0.00625443 0)
(-0.0215863 0.00634737 0)
(-0.0237709 0.00639263 0)
(-0.025959 0.0063921 0)
(-0.0281355 0.00634734 0)
(-0.0302858 0.00625957 0)
(-0.0323955 0.00612974 0)
(-0.0344503 0.00595851 0)
(-0.0364363 0.00574635 0)
(-0.0383397 0.00549362 0)
(-0.0401469 0.00520063 0)
(-0.0418446 0.00486778 0)
(-0.0434196 0.00449558 0)
(-0.044859 0.0040848 0)
(-0.0461505 0.00363654 0)
(-0.0472822 0.00315227 0)
(-0.0482428 0.00263395 0)
(-0.0490221 0.00208407 0)
(-0.0496105 0.00150567 0)
(-0.0499999 0.000902386 0)
(-0.0501834 0.00027848 0)
(-0.0501557 -0.00036119 0)
(-0.0499129 -0.00101117 0)
(-0.0494534 -0.00166546 0)
(-0.0487772 -0.00231756 0)
(-0.0478868 -0.00296054 0)
(-0.0467865 -0.00358713 0)
(-0.0454834 -0.00418984 0)
(-0.0439864 -0.00476105 0)
(-0.0423074 -0.00529318 0)
(-0.04046 -0.00577877 0)
(-0.0384604 -0.00621071 0)
(-0.0363268 -0.00658232 0)
(-0.0340796 -0.00688754 0)
(-0.0317406 -0.00712108 0)
(-0.0293333 -0.00727853 0)
(-0.0268823 -0.00735655 0)
(-0.0244132 -0.00735292 0)
(-0.021952 -0.00726668 0)
(-0.0195248 -0.00709822 0)
(-0.0171575 -0.00684933 0)
(-0.0148751 -0.00652323 0)
(-0.0127013 -0.00612465 0)
(-0.0106583 -0.00565983 0)
(-0.00876599 -0.00513653 0)
(-0.00704161 -0.0045641 0)
(-0.00549928 -0.00395351 0)
(-0.00414945 -0.00331745 0)
(-0.00299849 -0.00267053 0)
(-0.00204819 -0.00202946 0)
(-0.00129527 -0.00141342 0)
(-0.000730965 -0.000844553 0)
(-0.000340556 -0.000348529 0)
(-0.000103093 4.4683e-05 0)
(9.04815e-06 0.00030015 0)
(3.24507e-05 0.000377071 0)
(1.36113e-05 0.00022441 0)
(-2.51828e-05 4.41385e-05 0)
(-0.000199971 0.000461255 0)
(-0.000613934 0.00108689 0)
(-0.00125259 0.00183433 0)
(-0.00211146 0.00264172 0)
(-0.00318839 0.00346285 0)
(-0.00447583 0.00426409 0)
(-0.00596205 0.005022 0)
(-0.00763256 0.00572098 0)
(-0.00947082 0.00635135 0)
(-0.0114588 0.00690778 0)
(-0.0135778 0.00738812 0)
(-0.0158086 0.00779238 0)
(-0.0181318 0.00812199 0)
(-0.0205285 0.00837922 0)
(-0.02298 0.00856673 0)
(-0.025468 0.00868726 0)
(-0.0279747 0.0087434 0)
(-0.0304828 0.00873747 0)
(-0.0329753 0.00867141 0)
(-0.0354356 0.0085468 0)
(-0.0378474 0.00836484 0)
(-0.0401948 0.00812645 0)
(-0.0424619 0.0078323 0)
(-0.0446332 0.00748295 0)
(-0.0466934 0.00707894 0)
(-0.0486272 0.00662091 0)
(-0.05042 0.00610971 0)
(-0.0520574 0.00554651 0)
(-0.0535255 0.00493293 0)
(-0.054811 0.00427112 0)
(-0.0559015 0.00356386 0)
(-0.0567856 0.00281458 0)
(-0.0574528 0.00202751 0)
(-0.0578941 0.00120761 0)
(-0.058102 0.000360659 0)
(-0.0580706 -0.000506767 0)
(-0.057796 -0.00138734 0)
(-0.0572762 -0.00227303 0)
(-0.0565116 -0.00315514 0)
(-0.0555048 -0.00402445 0)
(-0.0542609 -0.00487129 0)
(-0.0527876 -0.00568573 0)
(-0.0510951 -0.00645766 0)
(-0.0491962 -0.00717703 0)
(-0.0471062 -0.007834 0)
(-0.044843 -0.00841914 0)
(-0.0424269 -0.00892363 0)
(-0.03988 -0.00933944 0)
(-0.0372267 -0.00965957 0)
(-0.034493 -0.0098782 0)
(-0.0317061 -0.00999085 0)
(-0.0288944 -0.0099946 0)
(-0.0260867 -0.00988816 0)
(-0.023312 -0.00967201 0)
(-0.020599 -0.0093485 0)
(-0.0179757 -0.00892191 0)
(-0.0154687 -0.0083985 0)
(-0.0131026 -0.00778652 0)
(-0.0109 -0.0070963 0)
(-0.00888031 -0.0063402 0)
(-0.00705968 -0.00553275 0)
(-0.00545037 -0.00469066 0)
(-0.00406021 -0.00383304 0)
(-0.00289221 -0.00298157 0)
(-0.00194409 -0.00216083 0)
(-0.00120791 -0.00139875 0)
(-0.000669729 -0.000727171 0)
(-0.000309351 -0.000182573 0)
(-9.99497e-05 0.000193246 0)
(-7.75472e-06 0.000352178 0)
(6.85192e-06 0.000234856 0)
(-3.6332e-05 0.00016048 0)
(-0.000266871 0.000814385 0)
(-0.000793527 0.00167939 0)
(-0.00158517 0.00266553 0)
(-0.00262764 0.00370714 0)
(-0.00391339 0.00475419 0)
(-0.00543044 0.00576967 0)
(-0.00716352 0.0067273 0)
(-0.0090953 0.00760928 0)
(-0.0112069 0.00840436 0)
(-0.0134784 0.0091062 0)
(-0.0158893 0.00971208 0)
(-0.0184185 0.0102218 0)
(-0.0210454 0.0106369 0)
(-0.0237493 0.01096 0)
(-0.0265098 0.011194 0)
(-0.0293073 0.0113422 0)
(-0.0321222 0.0114075 0)
(-0.0349356 0.0113927 0)
(-0.037729 0.0113002 0)
(-0.040484 0.0111318 0)
(-0.0431828 0.0108891 0)
(-0.0458078 0.0105731 0)
(-0.0483415 0.0101849 0)
(-0.0507667 0.00972513 0)
(-0.0530667 0.00919471 0)
(-0.0552247 0.00859454 0)
(-0.0572245 0.00792587 0)
(-0.0590504 0.00719036 0)
(-0.0606872 0.00639026 0)
(-0.0621205 0.00552848 0)
(-0.0633366 0.0046087 0)
(-0.0643231 0.00363549 0)
(-0.0650687 0.00261435 0)
(-0.0655636 0.00155173 0)
(-0.0657997 0.000455111 0)
(-0.0657705 -0.000667079 0)
(-0.065472 -0.00180545 0)
(-0.064902 -0.00294974 0)
(-0.0640608 -0.00408888 0)
(-0.0629513 -0.00521115 0)
(-0.061579 -0.00630428 0)
(-0.0599522 -0.00735565 0)
(-0.0580818 -0.0083525 0)
(-0.0559818 -0.00928207 0)
(-0.0536686 -0.0101319 0)
(-0.0511615 -0.0108901 0)
(-0.0484824 -0.0115454 0)
(-0.0456553 -0.0120878 0)
(-0.0427066 -0.0125082 0)
(-0.0396644 -0.0127993 0)
(-0.0365583 -0.0129553 0)
(-0.0334191 -0.0129725 0)
(-0.0302783 -0.0128492 0)
(-0.0271676 -0.012586 0)
(-0.0241183 -0.0121857 0)
(-0.0211612 -0.0116537 0)
(-0.0183255 -0.0109979 0)
(-0.0156386 -0.0102286 0)
(-0.0131254 -0.00935894 0)
(-0.0108077 -0.00840447 0)
(-0.00870399 -0.00738346 0)
(-0.00682838 -0.00631692 0)
(-0.00519052 -0.00522865 0)
(-0.00379501 -0.00414552 0)
(-0.00264102 -0.00309764 0)
(-0.00172196 -0.00211881 0)
(-0.00102529 -0.001247 0)
(-0.000532174 -0.000524975 0)
(-0.000217277 -9.5109e-07 0)
(-5.04927e-05 0.000270543 0)
(-9.18296e-08 0.000223693 0)
(-4.70475e-05 0.000310911 0)
(-0.000332537 0.0012567 0)
(-0.000971532 0.00240528 0)
(-0.00191659 0.00366559 0)
(-0.0031437 0.0049699 0)
(-0.00463951 0.00626588 0)
(-0.0063872 0.00751429 0)
(-0.0083675 0.00868694 0)
(-0.0105599 0.0097645 0)
(-0.012943 0.0107346 0)
(-0.0154947 0.0115903 0)
(-0.0181926 0.0123283 0)
(-0.0210142 0.0129486 0)
(-0.023937 0.0134528 0)
(-0.0269391 0.0138438 0)
(-0.0299987 0.0141249 0)
(-0.0330946 0.0142997 0)
(-0.036206 0.0143718 0)
(-0.0393126 0.0143443 0)
(-0.0423943 0.0142199 0)
(-0.0454315 0.0140007 0)
(-0.0484048 0.0136887 0)
(-0.0512952 0.0132852 0)
(-0.0540839 0.0127914 0)
(-0.0567523 0.0122083 0)
(-0.0592821 0.011537 0)
(-0.0616553 0.0107789 0)
(-0.0638546 0.00993559 0)
(-0.0658628 0.00900936 0)
(-0.0676637 0.00800313 0)
(-0.0692416 0.00692064 0)
(-0.0705819 0.00576662 0)
(-0.0716713 0.00454683 0)
(-0.0724976 0.00326817 0)
(-0.0730503 0.00193871 0)
(-0.0733205 0.000567742 0)
(-0.0733015 -0.000834298 0)
(-0.0729886 -0.00225582 0)
(-0.0723795 -0.00368416 0)
(-0.0714744 -0.00510574 0)
(-0.0702762 -0.00650615 0)
(-0.0687907 -0.00787035 0)
(-0.0670264 -0.00918287 0)
(-0.0649949 -0.010428 0)
(-0.0627109 -0.0115903 0)
(-0.0601917 -0.0126543 0)
(-0.0574579 -0.0136054 0)
(-0.0545324 -0.01443 0)
(-0.0514411 -0.0151154 0)
(-0.048212 -0.0156506 0)
(-0.044875 -0.0160267 0)
(-0.0414621 -0.0162363 0)
(-0.0380061 -0.0162747 0)
(-0.0345411 -0.0161399 0)
(-0.0311013 -0.0158321 0)
(-0.0277206 -0.015355 0)
(-0.0244325 -0.0147149 0)
(-0.0212689 -0.0139213 0)
(-0.0182598 -0.0129868 0)
(-0.0154328 -0.0119272 0)
(-0.0128122 -0.0107616 0)
(-0.0104189 -0.00951211 0)
(-0.00826912 -0.00820413 0)
(-0.00637477 -0.00686637 0)
(-0.00474237 -0.005531 0)
(-0.00337296 -0.00423379 0)
(-0.00226177 -0.0030144 0)
(-0.0013981 -0.00191685 0)
(-0.000764993 -0.000989982 0)
(-0.000339031 -0.000287963 0)
(-9.42038e-05 0.00012906 0)
(-6.94962e-06 0.000190271 0)
(-5.73175e-05 0.000494528 0)
(-0.000396487 0.00178695 0)
(-0.00114621 0.0032637 0)
(-0.00224332 0.00483414 0)
(-0.00365405 0.00642998 0)
(-0.00535909 0.00799795 0)
(-0.00733653 0.0094977 0)
(-0.00956279 0.0109001 0)
(-0.012014 0.0121849 0)
(-0.0146658 0.0133393 0)
(-0.017494 0.0143559 0)
(-0.0204741 0.0152316 0)
(-0.023582 0.0159663 0)
(-0.0267939 0.0165619 0)
(-0.0300863 0.0170217 0)
(-0.0334363 0.0173496 0)
(-0.0368213 0.0175496 0)
(-0.0402193 0.0176255 0)
(-0.0436087 0.017581 0)
(-0.0469684 0.0174191 0)
(-0.0502774 0.0171424 0)
(-0.0535152 0.0167529 0)
(-0.0566614 0.0162522 0)
(-0.0596961 0.015642 0)
(-0.0625994 0.0149234 0)
(-0.0653518 0.0140979 0)
(-0.0679343 0.0131672 0)
(-0.0703282 0.0121335 0)
(-0.0725153 0.0109996 0)
(-0.0744783 0.00976913 0)
(-0.0762006 0.00844687 0)
(-0.0776666 0.00703858 0)
(-0.0788619 0.0055513 0)
(-0.0797736 0.00399345 0)
(-0.0803905 0.00237478 0)
(-0.0807031 0.000706489 0)
(-0.0807038 -0.000998859 0)
(-0.0803877 -0.00272735 0)
(-0.079752 -0.00446384 0)
(-0.0787966 -0.00619206 0)
(-0.0775243 -0.00789477 0)
(-0.0759408 -0.00955402 0)
(-0.0740548 -0.0111513 0)
(-0.0718783 -0.012668 0)
(-0.0694263 -0.0140853 0)
(-0.0667169 -0.0153849 0)
(-0.0637715 -0.0165494 0)
(-0.0606141 -0.0175623 0)
(-0.0572719 -0.0184083 0)
(-0.0537743 -0.0190744 0)
(-0.0501532 -0.0195493 0)
(-0.0464422 -0.0198243 0)
(-0.0426765 -0.0198936 0)
(-0.0388925 -0.0197542 0)
(-0.0351267 -0.0194066 0)
(-0.0314158 -0.0188546 0)
(-0.0277959 -0.0181056 0)
(-0.0243018 -0.0171707 0)
(-0.0209662 -0.0160648 0)
(-0.0178196 -0.0148066 0)
(-0.0148889 -0.0134184 0)
(-0.0121977 -0.0119266 0)
(-0.00976482 -0.010361 0)
(-0.00760461 -0.00875535 0)
(-0.00572593 -0.00714725 0)
(-0.00413208 -0.00557814 0)
(-0.0028205 -0.00409362 0)
(-0.0017827 -0.00274365 0)
(-0.00100394 -0.00158297 0)
(-0.000462998 -0.00067133 0)
(-0.000138071 -7.38861e-05 0)
(-1.36056e-05 0.000134508 0)
(-6.71597e-05 0.000710298 0)
(-0.000458495 0.00240325 0)
(-0.00131657 0.00425255 0)
(-0.00256314 0.0061692 0)
(-0.00415499 0.00808559 0)
(-0.00606682 0.00994864 0)
(-0.0082715 0.011718 0)
(-0.010741 0.0133644 0)
(-0.0134478 0.0148676 0)
(-0.0163648 0.0162147 0)
(-0.0194651 0.0173986 0)
(-0.0227224 0.0184164 0)
(-0.0261109 0.0192685 0)
(-0.0296053 0.0199571 0)
(-0.0331808 0.0204861 0)
(-0.0368133 0.0208598 0)
(-0.0404791 0.0210828 0)
(-0.0441552 0.0211594 0)
(-0.0478188 0.0210935 0)
(-0.0514478 0.0208886 0)
(-0.0550202 0.0205476 0)
(-0.0585144 0.0200728 0)
(-0.0619089 0.0194661 0)
(-0.0651828 0.0187294 0)
(-0.0683151 0.0178641 0)
(-0.0712854 0.016872 0)
(-0.0740734 0.0157553 0)
(-0.0766596 0.0145167 0)
(-0.0790247 0.0131596 0)
(-0.0811504 0.0116885 0)
(-0.0830192 0.010109 0)
(-0.0846146 0.00842804 0)
(-0.0859212 0.00665405 0)
(-0.0869255 0.00479695 0)
(-0.0876151 0.00286828 0)
(-0.08798 0.000881201 0)
(-0.088012 -0.00114952 0)
(-0.0877054 -0.00320756 0)
(-0.0870567 -0.00527518 0)
(-0.0860657 -0.00733332 0)
(-0.0847346 -0.00936184 0)
(-0.0830689 -0.0113397 0)
(-0.0810772 -0.0132452 0)
(-0.0787714 -0.0150565 0)
(-0.0761669 -0.0167516 0)
(-0.0732821 -0.0183091 0)
(-0.0701389 -0.0197083 0)
(-0.0667624 -0.0209296 0)
(-0.0631806 -0.0219552 0)
(-0.0594243 -0.0227695 0)
(-0.055527 -0.0233589 0)
(-0.0515241 -0.023713 0)
(-0.0474528 -0.0238246 0)
(-0.0433518 -0.0236899 0)
(-0.0392602 -0.0233089 0)
(-0.0352172 -0.0226858 0)
(-0.0312619 -0.021829 0)
(-0.0274318 -0.020751 0)
(-0.0237628 -0.0194691 0)
(-0.0202882 -0.0180046 0)
(-0.0170382 -0.0163835 0)
(-0.0140392 -0.0146362 0)
(-0.0113131 -0.0127971 0)
(-0.0088768 -0.0109052 0)
(-0.00674206 -0.00900344 0)
(-0.00491474 -0.00713912 0)
(-0.00339483 -0.00536376 0)
(-0.00217641 -0.00373327 0)
(-0.00124716 -0.00230814 0)
(-0.000588168 -0.00115349 0)
(-0.000181768 -0.000339131 0)
(-2.00333e-05 5.65733e-05 0)
(-7.65983e-05 0.000957144 0)
(-0.000518457 0.00310328 0)
(-0.001482 0.00536895 0)
(-0.00287462 0.00766768 0)
(-0.00464397 0.00993357 0)
(-0.00675889 0.0121148 0)
(-0.009187 0.0141719 0)
(-0.0118958 0.0160764 0)
(-0.014854 0.0178087 0)
(-0.0180315 0.0193566 0)
(-0.021399 0.0207135 0)
(-0.0249281 0.0218774 0)
(-0.0285912 0.0228492 0)
(-0.0323616 0.0236318 0)
(-0.0362133 0.0242297 0)
(-0.0401211 0.0246479 0)
(-0.0440603 0.0248915 0)
(-0.0480069 0.0249653 0)
(-0.0519373 0.0248737 0)
(-0.0558283 0.0246205 0)
(-0.0596571 0.024209 0)
(-0.0634012 0.0236416 0)
(-0.0670383 0.0229207 0)
(-0.0705465 0.0220482 0)
(-0.0739039 0.021026 0)
(-0.0770891 0.0198563 0)
(-0.0800812 0.0185415 0)
(-0.0828594 0.0170849 0)
(-0.0854038 0.0154905 0)
(-0.087695 0.0137637 0)
(-0.0897146 0.0119111 0)
(-0.0914453 0.00994073 0)
(-0.0928708 0.00786235 0)
(-0.0939765 0.0056875 0)
(-0.0947495 0.0034295 0)
(-0.0951786 0.00110353 0)
(-0.095255 -0.00127339 0)
(-0.094972 -0.00368249 0)
(-0.0943256 -0.00610337 0)
(-0.0933147 -0.00851409 0)
(-0.0919409 -0.0108915 0)
(-0.0902094 -0.0132113 0)
(-0.0881282 -0.0154487 0)
(-0.0857092 -0.0175782 0)
(-0.0829674 -0.0195746 0)
(-0.0799215 -0.0214129 0)
(-0.0765938 -0.0230692 0)
(-0.0730097 -0.0245206 0)
(-0.0691984 -0.0257464 0)
(-0.0651917 -0.026728 0)
(-0.0610243 -0.0274496 0)
(-0.0567336 -0.0278985 0)
(-0.0523587 -0.0280659 0)
(-0.0479405 -0.027947 0)
(-0.0435207 -0.0275413 0)
(-0.0391413 -0.0268529 0)
(-0.0348442 -0.0258911 0)
(-0.0306703 -0.0246698 0)
(-0.0266586 -0.0232084 0)
(-0.0228457 -0.0215311 0)
(-0.0192653 -0.0196674 0)
(-0.0159469 -0.0176518 0)
(-0.0129158 -0.0155234 0)
(-0.0101922 -0.0133263 0)
(-0.00779084 -0.0111092 0)
(-0.00572056 -0.00892526 0)
(-0.00398423 -0.00683195 0)
(-0.00257871 -0.00489118 0)
(-0.00149429 -0.00316922 0)
(-0.000714383 -0.00173646 0)
(-0.000225296 -0.000667239 0)
(-2.62594e-05 -4.33172e-05 0)
(-8.56547e-05 0.00123398 0)
(-0.000576322 0.0038845 0)
(-0.00164212 0.00660947 0)
(-0.00317677 0.00932567 0)
(-0.00511918 0.0119698 0)
(-0.00743247 0.014492 0)
(-0.0100791 0.0168549 0)
(-0.0130222 0.0190313 0)
(-0.0162266 0.0210033 0)
(-0.0196591 0.0227597 0)
(-0.023288 0.0242952 0)
(-0.0270828 0.0256086 0)
(-0.0310143 0.026702 0)
(-0.0350542 0.0275793 0)
(-0.0391755 0.0282457 0)
(-0.0433517 0.0287069 0)
(-0.0475575 0.0289686 0)
(-0.0517677 0.0290363 0)
(-0.0559582 0.0289149 0)
(-0.0601049 0.0286084 0)
(-0.0641844 0.0281205 0)
(-0.0681732 0.027454 0)
(-0.0720485 0.0266114 0)
(-0.0757875 0.025595 0)
(-0.0793677 0.0244068 0)
(-0.0827668 0.0230494 0)
(-0.085963 0.0215257 0)
(-0.0889348 0.0198394 0)
(-0.0916615 0.0179953 0)
(-0.0941229 0.0159994 0)
(-0.0962995 0.0138594 0)
(-0.0981732 0.0115843 0)
(-0.0997269 0.00918545 0)
(-0.100945 0.00667581 0)
(-0.101813 0.00407053 0)
(-0.10232 0.00138683 0)
(-0.102456 -0.00135603 0)
(-0.102212 -0.00413679 0)
(-0.101584 -0.00693234 0)
(-0.100571 -0.00971783 0)
(-0.0991715 -0.012467 0)
(-0.0973914 -0.0151523 0)
(-0.0952378 -0.0177453 0)
(-0.0927218 -0.0202173 0)
(-0.0898583 -0.0225393 0)
(-0.0866657 -0.0246827 0)
(-0.0831663 -0.02662 0)
(-0.0793861 -0.0283249 0)
(-0.0753546 -0.0297734 0)
(-0.0711047 -0.0309436 0)
(-0.0666724 -0.031817 0)
(-0.0620966 -0.0323787 0)
(-0.0574184 -0.0326178 0)
(-0.052681 -0.032528 0)
(-0.0479287 -0.0321082 0)
(-0.0432066 -0.0313624 0)
(-0.0385595 -0.0303001 0)
(-0.0340318 -0.0289368 0)
(-0.029666 -0.0272937 0)
(-0.0255025 -0.0253979 0)
(-0.0215786 -0.0232824 0)
(-0.0179276 -0.0209857 0)
(-0.0145785 -0.0185518 0)
(-0.011555 -0.0160301 0)
(-0.00887536 -0.013475 0)
(-0.00655177 -0.0109456 0)
(-0.00459025 -0.00850566 0)
(-0.00299067 -0.00622308 0)
(-0.00174604 -0.00417003 0)
(-0.000842093 -0.00242229 0)
(-0.000268878 -0.00105885 0)
(-3.23425e-05 -0.000165029 0)
(-9.4344e-05 0.0015397 0)
(-0.000632054 0.00474422 0)
(-0.00179667 0.00797031 0)
(-0.00346887 0.0111386 0)
(-0.00557921 0.0141892 0)
(-0.00808533 0.0170751 0)
(-0.0109447 0.0197615 0)
(-0.014116 0.0222237 0)
(-0.0175604 0.0244456 0)
(-0.0212417 0.026418 0)
(-0.0251256 0.0281373 0)
(-0.0291796 0.0296037 0)
(-0.0333727 0.0308205 0)
(-0.0376753 0.031793 0)
(-0.0420593 0.0325272 0)
(-0.0464972 0.0330299 0)
(-0.0509628 0.0333075 0)
(-0.0554303 0.0333661 0)
(-0.0598748 0.0332109 0)
(-0.0642717 0.0328467 0)
(-0.0685968 0.0322773 0)
(-0.0728263 0.0315058 0)
(-0.0769365 0.030535 0)
(-0.0809041 0.0293674 0)
(-0.0847058 0.0280054 0)
(-0.0883189 0.0264517 0)
(-0.0917208 0.0247096 0)
(-0.0948893 0.0227835 0)
(-0.0978029 0.0206786 0)
(-0.10044 0.0184018 0)
(-0.102782 0.0159616 0)
(-0.104808 0.0133682 0)
(-0.106501 0.0106343 0)
(-0.107843 0.00777424 0)
(-0.108821 0.00480509 0)
(-0.109421 0.00174601 0)
(-0.109632 -0.00138149 0)
(-0.109444 -0.00455369 0)
(-0.108853 -0.00774473 0)
(-0.107855 -0.0109268 0)
(-0.106449 -0.0140705 0)
(-0.104638 -0.0171449 0)
(-0.10243 -0.0201181 0)
(-0.0998346 -0.0229576 0)
(-0.0968655 -0.0256306 0)
(-0.0935411 -0.0281048 0)
(-0.0898833 -0.0303487 0)
(-0.0859183 -0.0323323 0)
(-0.0816758 -0.0340279 0)
(-0.0771897 -0.0354103 0)
(-0.0724969 -0.0364577 0)
(-0.067638 -0.0371525 0)
(-0.062656 -0.0374816 0)
(-0.0575963 -0.0374368 0)
(-0.052506 -0.0370158 0)
(-0.0474332 -0.0362222 0)
(-0.0424262 -0.035066 0)
(-0.037533 -0.0335634 0)
(-0.0328002 -0.0317377 0)
(-0.0282719 -0.0296186 0)
(-0.0239898 -0.0272424 0)
(-0.0199912 -0.0246519 0)
(-0.0163093 -0.021896 0)
(-0.0129719 -0.0190294 0)
(-0.010001 -0.0161124 0)
(-0.00741255 -0.0132103 0)
(-0.00521605 -0.0103931 0)
(-0.00341456 -0.00773526 0)
(-0.00200393 -0.00531491 0)
(-0.000972175 -0.0032135 0)
(-0.000312883 -0.00151496 0)
(-3.83606e-05 -0.0003086 0)
(-0.000102674 0.0018732 0)
(-0.000685609 0.0056796 0)
(-0.00194538 0.00944734 0)
(-0.00375026 0.0131015 0)
(-0.00602286 0.0165861 0)
(-0.00871559 0.019858 0)
(-0.0117811 0.0228855 0)
(-0.0151737 0.0256469 0)
(-0.0188511 0.028129 0)
(-0.022774 0.0303249 0)
(-0.0269057 0.032233 0)
(-0.0312116 0.0338556 0)
(-0.0356591 0.0351977 0)
(-0.0402173 0.0362659 0)
(-0.0448569 0.0370675 0)
(-0.0495497 0.0376104 0)
(-0.0542685 0.0379017 0)
(-0.0589871 0.0379484 0)
(-0.0636799 0.0377563 0)
(-0.0683218 0.0373304 0)
(-0.0728882 0.0366751 0)
(-0.0773547 0.0357937 0)
(-0.0816972 0.0346892 0)
(-0.0858919 0.0333643 0)
(-0.089915 0.0318217 0)
(-0.0937433 0.0300645 0)
(-0.0973534 0.0280962 0)
(-0.100723 0.0259215 0)
(-0.103829 0.0235465 0)
(-0.10665 0.0209785 0)
(-0.109165 0.018227 0)
(-0.111354 0.0153033 0)
(-0.113198 0.0122211 0)
(-0.114679 0.00899661 0)
(-0.115781 0.00564832 0)
(-0.11649 0.0021974 0)
(-0.116794 -0.00133246 0)
(-0.116681 -0.00491506 0)
(-0.116146 -0.00852185 0)
(-0.115182 -0.0121221 0)
(-0.113789 -0.0156831 0)
(-0.111968 -0.0191706 0)
(-0.109724 -0.022549 0)
(-0.107067 -0.0257819 0)
(-0.10401 -0.0288327 0)
(-0.100569 -0.0316648 0)
(-0.0967671 -0.0342427 0)
(-0.0926292 -0.0365324 0)
(-0.0881856 -0.038502 0)
(-0.0834704 -0.0401225 0)
(-0.0785218 -0.0413687 0)
(-0.0733815 -0.0422197 0)
(-0.0680947 -0.0426596 0)
(-0.062709 -0.0426781 0)
(-0.0572743 -0.0422714 0)
(-0.051842 -0.0414422 0)
(-0.0464641 -0.0402003 0)
(-0.0411925 -0.0385629 0)
(-0.0360779 -0.0365548 0)
(-0.0311693 -0.0342084 0)
(-0.0265124 -0.0315631 0)
(-0.0221497 -0.0286661 0)
(-0.0181186 -0.0255711 0)
(-0.0144516 -0.0223384 0)
(-0.0111749 -0.0190343 0)
(-0.00830863 -0.0157305 0)
(-0.005866 -0.0125038 0)
(-0.00385355 -0.00943507 0)
(-0.00227006 -0.00660907 0)
(-0.00110581 -0.00411329 0)
(-0.000357784 -0.00203705 0)
(-4.4404e-05 -0.000474295 0)
(-0.000110645 0.00223336 0)
(-0.000736925 0.00668765 0)
(-0.002088 0.0110361 0)
(-0.00402035 0.0152089 0)
(-0.00644905 0.0191544 0)
(-0.0093215 0.0228338 0)
(-0.0125858 0.0262196 0)
(-0.016192 0.0292936 0)
(-0.0200946 0.0320459 0)
(-0.0242512 0.0344726 0)
(-0.0286227 0.0365748 0)
(-0.0331726 0.038357 0)
(-0.0378667 0.0398262 0)
(-0.0426728 0.0409907 0)
(-0.0475606 0.0418595 0)
(-0.052501 0.0424415 0)
(-0.0574663 0.0427449 0)
(-0.0624297 0.0427774 0)
(-0.0673651 0.0425456 0)
(-0.0722471 0.042055 0)
(-0.0770505 0.0413101 0)
(-0.0817509 0.0403148 0)
(-0.0863236 0.0390723 0)
(-0.0907444 0.0375853 0)
(-0.0949893 0.0358568 0)
(-0.0990344 0.0338901 0)
(-0.102856 0.0316891 0)