/*--------------------------------*- C++ -*----------------------------------*\
  =========                 |
  \\      /  F ield         | OpenFOAM: The Open Source CFD Toolbox
   \\    /   O peration     | Website:  https://openfoam.org
    \\  /    A nd           | Version:  dev
     \\/     M anipulation  |
\*---------------------------------------------------------------------------*/
FoamFile
{
    format      ascii;
    class       volScalarField;
    location    "27";
    object      Ux;
}
// * * * * * * * * * * * * * * * * * * * * * * * * * * * * * * * * * * * * * //

dimensions      [0 1 -1 0 0 0 0];

internalField   nonuniform List<scalar> 
5184
(
1.22617e-05
4.50594e-05
8.02519e-05
9.59196e-05
8.20921e-05
3.64007e-05
-4.06024e-05
-0.000146898
-0.000279694
-0.000435935
-0.000612499
-0.000806355
-0.00101463
-0.00123467
-0.00146401
-0.00170039
-0.00194175
-0.00218616
-0.00243185
-0.00267712
-0.00292038
-0.00316007
-0.00339465
-0.0036226
-0.0038424
-0.00405251
-0.00425137
-0.0044374
-0.00460904
-0.0047647
-0.00490282
-0.00502188
-0.00512042
-0.00519706
-0.00525054
-0.00527975
-0.00528375
-0.0052618
-0.00521341
-0.00513835
-0.00503667
-0.00490876
-0.00475532
-0.0045774
-0.0043764
-0.00415409
-0.00391255
-0.0036542
-0.00338178
-0.00309829
-0.00280696
-0.00251122
-0.00221464
-0.00192087
-0.00163359
-0.00135642
-0.00109292
-0.00084645
-0.000620154
-0.000416885
-0.00023914
-8.89961e-05
3.1958e-05
0.000122708
0.00018292
0.000213097
0.000214824
0.00019115
0.000147104
9.07767e-05
3.6627e-05
6.22904e-06
2.08031e-05
6.55304e-05
9.46164e-05
7.27126e-05
-1.90159e-05
-0.000187377
-0.000432952
-0.000752521
-0.00114054
-0.00159023
-0.00209426
-0.00264515
-0.00323563
-0.00385868
-0.00450772
-0.00517654
-0.00585934
-0.00655069
-0.00724546
-0.00793874
-0.00862586
-0.00930226
-0.00996346
-0.010605
-0.0112226
-0.0118118
-0.0123681
-0.0128871
-0.0133646
-0.013796
-0.0141773
-0.0145042
-0.014773
-0.0149799
-0.0151217
-0.0151956
-0.0151991
-0.0151306
-0.0149889
-0.0147736
-0.0144851
-0.0141247
-0.0136944
-0.0131972
-0.0126372
-0.0120192
-0.011349
-0.0106331
-0.00987892
-0.0090946
-0.00828881
-0.00747072
-0.00664988
-0.00583601
-0.0050389
-0.00426821
-0.00353331
-0.00284313
-0.00220594
-0.00162923
-0.00111946
-0.000681935
-0.00032057
-3.76489e-05
0.000166461
0.000293678
0.000348747
0.000339935
0.000279729
0.000185978
8.63477e-05
1.96793e-05
1.76132e-05
4.12693e-05
1.95189e-05
-8.4077e-05
-0.0002903
-0.000607894
-0.00103812
-0.00157716
-0.00221786
-0.00295102
-0.00376638
-0.00465322
-0.00560083
-0.00659875
-0.00763692
-0.00870579
-0.00979628
-0.0108998
-0.0120081
-0.0131134
-0.0142081
-0.0152848
-0.0163363
-0.0173555
-0.0183353
-0.0192685
-0.0201484
-0.0209677
-0.0217198
-0.0223978
-0.0229951
-0.0235055
-0.023923
-0.0242422
-0.0244582
-0.0245667
-0.0245644
-0.0244487
-0.0242182
-0.0238725
-0.0234124
-0.0228401
-0.0221591
-0.0213741
-0.0204915
-0.0195189
-0.0184651
-0.0173404
-0.0161562
-0.0149249
-0.0136598
-0.012375
-0.0110849
-0.00980442
-0.00854846
-0.00733169
-0.00616836
-0.00507199
-0.00405513
-0.00312905
-0.00230348
-0.00158631
-0.000983291
-0.000497645
-0.00012969
0.000123644
0.000269447
0.000319557
0.0002911
0.000207296
0.00010241
2.49703e-05
8.82661e-06
-7.04604e-06
-0.000107622
-0.000322376
-0.000669547
-0.00115754
-0.00178709
-0.00255344
-0.00344805
-0.00445988
-0.00557647
-0.00678461
-0.00807091
-0.00942209
-0.0108253
-0.012268
-0.0137384
-0.0152251
-0.0167172
-0.018204
-0.0196754
-0.0211214
-0.0225322
-0.0238983
-0.02521
-0.026458
-0.0276328
-0.0287252
-0.029726
-0.0306265
-0.031418
-0.0320924
-0.0326419
-0.0330597
-0.0333394
-0.0334759
-0.0334648
-0.0333032
-0.0329894
-0.0325232
-0.0319059
-0.0311406
-0.030232
-0.0291865
-0.0280124
-0.0267199
-0.0253205
-0.0238275
-0.0222559
-0.0206216
-0.0189419
-0.017235
-0.0155196
-0.0138149
-0.01214
-0.010514
-0.00895516
-0.00748089
-0.00610736
-0.00484906
-0.00371847
-0.00272571
-0.0018781
-0.00117979
-0.000631237
-0.000228743
3.61631e-05
0.000177369
0.00021459
0.000173981
9.29791e-05
2.40179e-05
-2.13152e-06
-6.73019e-05
-0.000264095
-0.000609686
-0.00111656
-0.00179094
-0.00263181
-0.00363281
-0.00478381
-0.0060721
-0.00748334
-0.00900229
-0.0106133
-0.012301
-0.0140498
-0.0158452
-0.0176726
-0.0195183
-0.0213689
-0.0232114
-0.0250333
-0.0268222
-0.0285661
-0.030253
-0.0318712
-0.033409
-0.034855
-0.0361978
-0.0374264
-0.03853
-0.0394982
-0.0403213
-0.0409902
-0.0414966
-0.0418331
-0.0419936
-0.0419733
-0.0417688
-0.0413783
-0.0408018
-0.0400412
-0.0391002
-0.0379848
-0.0367029
-0.0352645
-0.0336818
-0.0319687
-0.0301414
-0.0282175
-0.0262162
-0.0241582
-0.0220651
-0.0199593
-0.0178635
-0.0158008
-0.0137937
-0.0118642
-0.0100329
-0.00831913
-0.00674028
-0.00531127
-0.00404422
-0.00294799
-0.00202774
-0.0012844
-0.000714218
-0.000308207
-5.16044e-05
7.64599e-05
0.000103477
6.74559e-05
1.96552e-05
-1.36965e-05
-0.000132819
-0.000435749
-0.000924447
-0.00160354
-0.00247557
-0.00353672
-0.00477828
-0.00618816
-0.00775186
-0.00945323
-0.0112752
-0.0132004
-0.0152111
-0.0172902
-0.0194208
-0.0215863
-0.0237709
-0.025959
-0.0281355
-0.0302858
-0.0323955
-0.0344503
-0.0364363
-0.0383397
-0.0401469
-0.0418446
-0.0434196
-0.044859
-0.0461505
-0.0472822
-0.0482428
-0.0490221
-0.0496105
-0.0499999
-0.0501834
-0.0501557
-0.0499129
-0.0494534
-0.0487772
-0.0478868
-0.0467865
-0.0454834
-0.0439864
-0.0423074
-0.04046
-0.0384604
-0.0363268
-0.0340796
-0.0317406
-0.0293333
-0.0268823
-0.0244132
-0.021952
-0.0195248
-0.0171575
-0.0148751
-0.0127013
-0.0106583
-0.00876599
-0.00704161
-0.00549928
-0.00414945
-0.00299849
-0.00204819
-0.00129527
-0.000730965
-0.000340556
-0.000103093
9.04815e-06
3.24507e-05
1.36113e-05
-2.51828e-05
-0.000199971
-0.000613934
-0.00125259
-0.00211146
-0.00318839
-0.00447583
-0.00596205
-0.00763256
-0.00947082
-0.0114588
-0.0135778
-0.0158086
-0.0181318
-0.0205285
-0.02298
-0.025468
-0.0279747
-0.0304828
-0.0329753
-0.0354356
-0.0378474
-0.0401948
-0.0424619
-0.0446332
-0.0466934
-0.0486272
-0.05042
-0.0520574
-0.0535255
-0.054811
-0.0559015
-0.0567856
-0.0574528
-0.0578941
-0.058102
-0.0580706
-0.057796
-0.0572762
-0.0565116
-0.0555048
-0.0542609
-0.0527876
-0.0510951
-0.0491962
-0.0471062
-0.044843
-0.0424269
-0.03988
-0.0372267
-0.034493
-0.0317061
-0.0288944
-0.0260867
-0.023312
-0.020599
-0.0179757
-0.0154687
-0.0131026
-0.0109
-0.00888031
-0.00705968
-0.00545037
-0.00406021
-0.00289221
-0.00194409
-0.00120791
-0.000669729
-0.000309351
-9.99497e-05
-7.75472e-06
6.85192e-06
-3.6332e-05
-0.000266871
-0.000793527
-0.00158517
-0.00262764
-0.00391339
-0.00543044
-0.00716352
-0.0090953
-0.0112069
-0.0134784
-0.0158893
-0.0184185
-0.0210454
-0.0237493
-0.0265098
-0.0293073
-0.0321222
-0.0349356
-0.037729
-0.040484
-0.0431828
-0.0458078
-0.0483415
-0.0507667
-0.0530667
-0.0552247
-0.0572245
-0.0590504
-0.0606872
-0.0621205
-0.0633366
-0.0643231
-0.0650687
-0.0655636
-0.0657997
-0.0657705
-0.065472
-0.064902
-0.0640608
-0.0629513
-0.061579
-0.0599522
-0.0580818
-0.0559818
-0.0536686
-0.0511615
-0.0484824
-0.0456553
-0.0427066
-0.0396644
-0.0365583
-0.0334191
-0.0302783
-0.0271676
-0.0241183
-0.0211612
-0.0183255
-0.0156386
-0.0131254
-0.0108077
-0.00870399
-0.00682838
-0.00519052
-0.00379501
-0.00264102
-0.00172196
-0.00102529
-0.000532174
-0.000217277
-5.04927e-05
-9.18296e-08
-4.70475e-05
-0.000332537
-0.000971532
-0.00191659
-0.0031437
-0.00463951
-0.0063872
-0.0083675
-0.0105599
-0.012943
-0.0154947
-0.0181926
-0.0210142
-0.023937
-0.0269391
-0.0299987
-0.0330946
-0.036206
-0.0393126
-0.0423943
-0.0454315
-0.0484048
-0.0512952
-0.0540839
-0.0567523
-0.0592821
-0.0616553
-0.0638546
-0.0658628
-0.0676637
-0.0692416
-0.0705819
-0.0716713
-0.0724976
-0.0730503
-0.0733205
-0.0733015
-0.0729886
-0.0723795
-0.0714744
-0.0702762
-0.0687907
-0.0670264
-0.0649949
-0.0627109
-0.0601917
-0.0574579
-0.0545324
-0.0514411
-0.048212
-0.044875
-0.0414621
-0.0380061
-0.0345411
-0.0311013
-0.0277206
-0.0244325
-0.0212689
-0.0182598
-0.0154328
-0.0128122
-0.0104189
-0.00826912
-0.00637477
-0.00474237
-0.00337296
-0.00226177
-0.0013981
-0.000764993
-0.000339031
-9.42038e-05
-6.94962e-06
-5.73175e-05
-0.000396487
-0.00114621
-0.00224332
-0.00365405
-0.00535909
-0.00733653
-0.00956279
-0.012014
-0.0146658
-0.017494
-0.0204741
-0.023582
-0.0267939
-0.0300863
-0.0334363
-0.0368213
-0.0402193
-0.0436087
-0.0469684
-0.0502774
-0.0535152
-0.0566614
-0.0596961
-0.0625994
-0.0653518
-0.0679343
-0.0703282
-0.0725153
-0.0744783
-0.0762006
-0.0776666
-0.0788619
-0.0797736
-0.0803905
-0.0807031
-0.0807038
-0.0803877
-0.079752
-0.0787966
-0.0775243
-0.0759408
-0.0740548
-0.0718783
-0.0694263
-0.0667169
-0.0637715
-0.0606141
-0.0572719
-0.0537743
-0.0501532
-0.0464422
-0.0426765
-0.0388925
-0.0351267
-0.0314158
-0.0277959
-0.0243018
-0.0209662
-0.0178196
-0.0148889
-0.0121977
-0.00976482
-0.00760461
-0.00572593
-0.00413208
-0.0028205
-0.0017827
-0.00100394
-0.000462998
-0.000138071
-1.36056e-05
-6.71597e-05
-0.000458495
-0.00131657
-0.00256314
-0.00415499
-0.00606682
-0.0082715
-0.010741
-0.0134478
-0.0163648
-0.0194651
-0.0227224
-0.0261109
-0.0296053
-0.0331808
-0.0368133
-0.0404791
-0.0441552
-0.0478188
-0.0514478
-0.0550202
-0.0585144
-0.0619089
-0.0651828
-0.0683151
-0.0712854
-0.0740734
-0.0766596
-0.0790247
-0.0811504
-0.0830192
-0.0846146
-0.0859212
-0.0869255
-0.0876151
-0.08798
-0.088012
-0.0877054
-0.0870567
-0.0860657
-0.0847346
-0.0830689
-0.0810772
-0.0787714
-0.0761669
-0.0732821
-0.0701389
-0.0667624
-0.0631806
-0.0594243
-0.055527
-0.0515241
-0.0474528
-0.0433518
-0.0392602
-0.0352172
-0.0312619
-0.0274318
-0.0237628
-0.0202882
-0.0170382
-0.0140392
-0.0113131
-0.0088768
-0.00674206
-0.00491474
-0.00339483
-0.00217641
-0.00124716
-0.000588168
-0.000181768
-2.00333e-05
-7.65983e-05
-0.000518457
-0.001482
-0.00287462
-0.00464397
-0.00675889
-0.009187
-0.0118958
-0.014854
-0.0180315
-0.021399
-0.0249281
-0.0285912
-0.0323616
-0.0362133
-0.0401211
-0.0440603
-0.0480069
-0.0519373
-0.0558283
-0.0596571
-0.0634012
-0.0670383
-0.0705465
-0.0739039
-0.0770891
-0.0800812
-0.0828594
-0.0854038
-0.087695
-0.0897146
-0.0914453
-0.0928708
-0.0939765
-0.0947495
-0.0951786
-0.095255
-0.094972
-0.0943256
-0.0933147
-0.0919409
-0.0902094
-0.0881282
-0.0857092
-0.0829674
-0.0799215
-0.0765938
-0.0730097
-0.0691984
-0.0651917
-0.0610243
-0.0567336
-0.0523587
-0.0479405
-0.0435207
-0.0391413
-0.0348442
-0.0306703
-0.0266586
-0.0228457
-0.0192653
-0.0159469
-0.0129158
-0.0101922
-0.00779084
-0.00572056
-0.00398423
-0.00257871
-0.00149429
-0.000714383
-0.000225296
-2.62594e-05
-8.56547e-05
-0.000576322
-0.00164212
-0.00317677
-0.00511918
-0.00743247
-0.0100791
-0.0130222
-0.0162266
-0.0196591
-0.023288
-0.0270828
-0.0310143
-0.0350542
-0.0391755
-0.0433517
-0.0475575
-0.0517677
-0.0559582
-0.0601049
-0.0641844
-0.0681732
-0.0720485
-0.0757875
-0.0793677
-0.0827668
-0.085963
-0.0889348
-0.0916615
-0.0941229
-0.0962995
-0.0981732
-0.0997269
-0.100945
-0.101813
-0.10232
-0.102456
-0.102212
-0.101584
-0.100571
-0.0991715
-0.0973914
-0.0952378
-0.0927218
-0.0898583
-0.0866657
-0.0831663
-0.0793861
-0.0753546
-0.0711047
-0.0666724
-0.0620966
-0.0574184
-0.052681
-0.0479287
-0.0432066
-0.0385595
-0.0340318
-0.029666
-0.0255025
-0.0215786
-0.0179276
-0.0145785
-0.011555
-0.00887536
-0.00655177
-0.00459025
-0.00299067
-0.00174604
-0.000842093
-0.000268878
-3.23425e-05
-9.4344e-05
-0.000632054
-0.00179667
-0.00346887
-0.00557921
-0.00808533
-0.0109447
-0.014116
-0.0175604
-0.0212417
-0.0251256
-0.0291796
-0.0333727
-0.0376753
-0.0420593
-0.0464972
-0.0509628
-0.0554303
-0.0598748
-0.0642717
-0.0685968
-0.0728263
-0.0769365
-0.0809041
-0.0847058
-0.0883189
-0.0917208
-0.0948893
-0.0978029
-0.10044
-0.102782
-0.104808
-0.106501
-0.107843
-0.108821
-0.109421
-0.109632
-0.109444
-0.108853
-0.107855
-0.106449
-0.104638
-0.10243
-0.0998346
-0.0968655
-0.0935411
-0.0898833
-0.0859183
-0.0816758
-0.0771897
-0.0724969
-0.067638
-0.062656
-0.0575963
-0.052506
-0.0474332
-0.0424262
-0.037533
-0.0328002
-0.0282719
-0.0239898
-0.0199912
-0.0163093
-0.0129719
-0.010001
-0.00741255
-0.00521605
-0.00341456
-0.00200393
-0.000972175
-0.000312883
-3.83606e-05
-0.000102674
-0.000685609
-0.00194538
-0.00375026
-0.00602286
-0.00871559
-0.0117811
-0.0151737
-0.0188511
-0.022774
-0.0269057
-0.0312116
-0.0356591
-0.0402173
-0.0448569
-0.0495497
-0.0542685
-0.0589871
-0.0636799
-0.0683218
-0.0728882
-0.0773547
-0.0816972
-0.0858919
-0.089915
-0.0937433
-0.0973534
-0.100723
-0.103829
-0.10665
-0.109165
-0.111354
-0.113198
-0.114679
-0.115781
-0.11649
-0.116794
-0.116681
-0.116146
-0.115182
-0.113789
-0.111968
-0.109724
-0.107067
-0.10401
-0.100569
-0.0967671
-0.0926292
-0.0881856
-0.0834704
-0.0785218
-0.0733815
-0.0680947
-0.062709
-0.0572743
-0.051842
-0.0464641
-0.0411925
-0.0360779
-0.0311693
-0.0265124
-0.0221497
-0.0181186
-0.0144516
-0.0111749
-0.00830863
-0.005866
-0.00385355
-0.00227006
-0.00110581
-0.000357784
-4.4404e-05
-0.000110645
-0.000736925
-0.002088
-0.00402035
-0.00644905
-0.0093215
-0.0125858
-0.016192
-0.0200946
-0.0242512
-0.0286227
-0.0331726
-0.0378667
-0.0426728
-0.0475606
-0.052501
-0.0574663
-0.0624297
-0.0673651
-0.0722471
-0.0770505
-0.0817509
-0.0863236
-0.0907444
-0.0949893
-0.0990344
-0.102856
-0.106431
-0.109736
-0.112749
-0.115447
-0.117811
-0.119819
-0.121453
-0.122696
-0.123532
-0.123947
-0.123929
-0.123469
-0.122561
-0.121202
-0.119391
-0.117133
-0.114434
-0.111306
-0.107767
-0.103836
-0.0995379
-0.0949037
-0.0899675
-0.0847683
-0.079349
-0.0737566
-0.0680411
-0.0622555
-0.0564543
-0.0506936
-0.0450296
-0.0395175
-0.0342113
-0.0291619
-0.0244166
-0.0200183
-0.0160043
-0.0124056
-0.00924687
-0.0065454
-0.00431147
-0.00254695
-0.00124439
-0.000404123
-5.05703e-05
-0.00011825
-0.000785922
-0.00222425
-0.00427851
-0.00685666
-0.00990139
-0.0133564
-0.017168
-0.021287
-0.0256686
-0.0302712
-0.0350564
-0.0399886
-0.0450343
-0.0501623
-0.0553429
-0.0605476
-0.0657492
-0.0709214
-0.0760383
-0.0810747
-0.0860056
-0.0908065
-0.0954527
-0.0999199
-0.104184
-0.108221
-0.112006
-0.115517
-0.11873
-0.121623
-0.124173
-0.126359
-0.128162
-0.129562
-0.130543
-0.131089
-0.131186
-0.130824
-0.129994
-0.128691
-0.126913
-0.124661
-0.121942
-0.118764
-0.115144
-0.111101
-0.106658
-0.101846
-0.0966978
-0.0912544
-0.0855594
-0.0796615
-0.0736131
-0.06747
-0.0612907
-0.055135
-0.0490639
-0.0431377
-0.0374157
-0.0319544
-0.0268069
-0.0220216
-0.0176413
-0.0137027
-0.010235
-0.00726018
-0.00479261
-0.00283741
-0.00138947
-0.00045249
-5.69618e-05
-0.000125478
-0.000832494
-0.00235379
-0.00452407
-0.00724457
-0.0104536
-0.0140906
-0.0180983
-0.0224245
-0.0270215
-0.0318457
-0.0368569
-0.0420179
-0.0472943
-0.052654
-0.0580665
-0.063503
-0.0689359
-0.0743385
-0.079685
-0.0849498
-0.090108
-0.0951347
-0.100005
-0.104695
-0.10918
-0.113435
-0.117437
-0.12116
-0.124582
-0.127679
-0.130428
-0.132807
-0.134794
-0.13637
-0.137515
-0.138212
-0.138446
-0.138204
-0.137475
-0.136251
-0.134529
-0.132308
-0.129591
-0.126386
-0.122706
-0.118569
-0.113998
-0.109021
-0.103673
-0.097994
-0.0920282
-0.0858263
-0.0794429
-0.072937
-0.0663705
-0.0598079
-0.0533149
-0.0469575
-0.0408005
-0.0349069
-0.0293359
-0.0241422
-0.0193748
-0.0150762
-0.0112812
-0.00801677
-0.00530162
-0.00314446
-0.0015427
-0.000503504
-6.36833e-05
-0.00013231
-0.000876516
-0.00247626
-0.00475631
-0.00761158
-0.0109763
-0.014786
-0.0189801
-0.0235032
-0.0283054
-0.0333408
-0.0385677
-0.0439476
-0.049445
-0.055027
-0.0606626
-0.0663226
-0.0719791
-0.0776054
-0.0831754
-0.0886636
-0.0940451
-0.0992949
-0.104388
-0.109301
-0.114008
-0.118485
-0.122707
-0.12665
-0.13029
-0.133601
-0.136561
-0.139146
-0.141333
-0.143102
-0.14443
-0.145299
-0.145692
-0.145593
-0.14499
-0.143871
-0.14223
-0.140065
-0.137375
-0.134167
-0.13045
-0.12624
-0.121559
-0.116435
-0.110901
-0.104996
-0.0987667
-0.0922642
-0.0855456
-0.0786727
-0.0717113
-0.0647305
-0.0578011
-0.0509951
-0.0443836
-0.0380363
-0.0320193
-0.0263943
-0.0212172
-0.0165368
-0.0123942
-0.00882187
-0.00584334
-0.00347127
-0.00170578
-0.000557807
-7.08416e-05
-0.000138725
-0.000917844
-0.00259125
-0.00497443
-0.00795645
-0.0114677
-0.0154402
-0.01981
-0.0245192
-0.0295154
-0.034751
-0.0401826
-0.0457705
-0.0514784
-0.0572725
-0.0631215
-0.0689959
-0.0748677
-0.0807099
-0.0864966
-0.0922024
-0.0978023
-0.103272
-0.108586
-0.11372
-0.11865
-0.123351
-0.127798
-0.131966
-0.135831
-0.139366
-0.142549
-0.145353
-0.147757
-0.149735
-0.151266
-0.152328
-0.152902
-0.152971
-0.152517
-0.151529
-0.149997
-0.147914
-0.145278
-0.142092
-0.138363
-0.134105
-0.129337
-0.124085
-0.118381
-0.112264
-0.105781
-0.098984
-0.0919322
-0.0846904
-0.077328
-0.0699189
-0.0625394
-0.0552678
-0.0481821
-0.0413592
-0.0348728
-0.0287923
-0.0231811
-0.0180954
-0.0135829
-0.00968242
-0.0064228
-0.00382109
-0.0018805
-0.000616055
-7.85443e-05
-0.000144695
-0.00095632
-0.00269833
-0.00517762
-0.00827786
-0.0119259
-0.0160506
-0.0205849
-0.0254685
-0.0306469
-0.0360706
-0.041695
-0.0474792
-0.053386
-0.0593813
-0.0654331
-0.0715118
-0.0775893
-0.0836388
-0.0896344
-0.0955508
-0.101363
-0.107048
-0.112579
-0.117934
-0.123086
-0.128012
-0.132687
-0.137084
-0.14118
-0.144949
-0.148364
-0.151401
-0.154034
-0.156239
-0.157991
-0.159267
-0.160046
-0.160305
-0.160028
-0.159197
-0.157801
-0.155829
-0.153275
-0.15014
-0.146427
-0.142147
-0.137317
-0.131959
-0.126106
-0.119794
-0.113071
-0.105989
-0.0986091
-0.090999
-0.0832319
-0.0753863
-0.0675446
-0.0597913
-0.0522119
-0.0448913
-0.0379115
-0.0313501
-0.0252791
-0.0197627
-0.0148563
-0.0106054
-0.00704506
-0.00419724
-0.00206864
-0.000678912
-8.68998e-05
-0.000150195
-0.000991774
-0.00279705
-0.00536503
-0.00857447
-0.012349
-0.0166146
-0.0213015
-0.0263471
-0.0316949
-0.037294
-0.0430983
-0.0490662
-0.0551596
-0.0613438
-0.0675867
-0.0738586
-0.0801313
-0.0863782
-0.0925735
-0.0986925
-0.104711
-0.110604
-0.116348
-0.121918
-0.127291
-0.132442
-0.137345
-0.141976
-0.146308
-0.150316
-0.153974
-0.157254
-0.160131
-0.162578
-0.164569
-0.166079
-0.167083
-0.167558
-0.167482
-0.166837
-0.165605
-0.163773
-0.161333
-0.158279
-0.154613
-0.150341
-0.145476
-0.14004
-0.134061
-0.127575
-0.120629
-0.113276
-0.105577
-0.0976025
-0.0894301
-0.0811426
-0.0728283
-0.0645787
-0.0564873
-0.0486472
-0.0411495
-0.0340813
-0.0275235
-0.0215496
-0.0162232
-0.0115978
-0.00771524
-0.00460305
-0.00227201
-0.000747045
-9.6017e-05
-0.000155193
-0.00102403
-0.00288692
-0.00553577
-0.00884492
-0.0127352
-0.0171298
-0.0219567
-0.027151
-0.0326548
-0.0384155
-0.0443861
-0.0505239
-0.0567903
-0.0631503
-0.0695716
-0.0760242
-0.0824803
-0.0889133
-0.095298
-0.10161
-0.107825
-0.113919
-0.119869
-0.12565
-0.13124
-0.136613
-0.141744
-0.146609
-0.151181
-0.155433
-0.15934
-0.162873
-0.166005
-0.168708
-0.170955
-0.172717
-0.173968
-0.174681
-0.174833
-0.1744
-0.173362
-0.171703
-0.169407
-0.166468
-0.162881
-0.15865
-0.153783
-0.148298
-0.142222
-0.135588
-0.128441
-0.120834
-0.112829
-0.104499
-0.0959246
-0.0871931
-0.0783988
-0.0696406
-0.06102
-0.0526395
-0.0445998
-0.0369982
-0.0299259
-0.0234662
-0.0176924
-0.0126666
-0.0084384
-0.00504185
-0.00249241
-0.000821126
-0.000106006
-0.000159661
-0.00105292
-0.0029675
-0.00568901
-0.0090879
-0.0130825
-0.0175936
-0.0225471
-0.0278764
-0.0335217
-0.0394296
-0.0455517
-0.0518448
-0.0582698
-0.0647912
-0.0713766
-0.0779963
-0.0846225
-0.0912289
-0.0977908
-0.104284
-0.110685
-0.116971
-0.123118
-0.129103
-0.134903
-0.140494
-0.14585
-0.150947
-0.155759
-0.160259
-0.164419
-0.168212
-0.171609
-0.17458
-0.177096
-0.179128
-0.180645
-0.18162
-0.182024
-0.181831
-0.181017
-0.179561
-0.177444
-0.174654
-0.171182
-0.167027
-0.162194
-0.156696
-0.150555
-0.143803
-0.136482
-0.128644
-0.120352
-0.11168
-0.102711
-0.0935379
-0.0842599
-0.0749836
-0.0658192
-0.0568788
-0.0482738
-0.0401124
-0.0324972
-0.0255225
-0.0192722
-0.0138184
-0.00921953
-0.00551692
-0.00273166
-0.000901829
-0.000116976
-0.000163569
-0.00107826
-0.00303833
-0.00582392
-0.00930212
-0.0133891
-0.0180037
-0.0230698
-0.0285194
-0.0342913
-0.0403308
-0.0465888
-0.0530215
-0.0595893
-0.0662566
-0.0729909
-0.0797625
-0.0865439
-0.0933095
-0.100035
-0.106696
-0.113271
-0.119736
-0.12607
-0.132249
-0.138251
-0.144052
-0.149627
-0.154953
-0.160003
-0.164749
-0.169165
-0.173222
-0.17689
-0.180138
-0.182936
-0.185252
-0.187053
-0.18831
-0.18899
-0.189064
-0.188503
-0.187282
-0.185378
-0.182774
-0.179455
-0.175416
-0.170656
-0.165183
-0.159015
-0.152181
-0.144719
-0.136679
-0.128125
-0.119129
-0.10978
-0.100171
-0.0904102
-0.0806102
-0.0708904
-0.0613729
-0.0521806
-0.0434337
-0.0352471
-0.0277274
-0.0209707
-0.0150598
-0.0100635
-0.00603153
-0.00299153
-0.000989824
-0.000129041
-0.00016689
-0.00109992
-0.003099
-0.00593974
-0.00948643
-0.0136534
-0.0183578
-0.0235221
-0.0290765
-0.0349591
-0.041114
-0.0474915
-0.054047
-0.0607409
-0.0675372
-0.0744035
-0.0813104
-0.0882307
-0.0951391
-0.102012
-0.108826
-0.115559
-0.12219
-0.128697
-0.135058
-0.14125
-0.147251
-0.153038
-0.158584
-0.163866
-0.168856
-0.173526
-0.177847
-0.18179
-0.185321
-0.188409
-0.191021
-0.193123
-0.194679
-0.195657
-0.196023
-0.195744
-0.194791
-0.193135
-0.190754
-0.187629
-0.183747
-0.179102
-0.173698
-0.167546
-0.160671
-0.153106
-0.1449
-0.136114
-0.126822
-0.11711
-0.10708
-0.0968425
-0.086518
-0.0762349
-0.0661263
-0.056327
-0.0469701
-0.0381841
-0.0300894
-0.0227951
-0.016397
-0.010975
-0.00658884
-0.00327381
-0.00108578
-0.000142312
-0.0001696
-0.00111773
-0.00314916
-0.00603583
-0.0096398
-0.013874
-0.0186541
-0.0239013
-0.0295448
-0.0355214
-0.0417746
-0.048254
-0.0549147
-0.0617166
-0.0686239
-0.0756041
-0.0826281
-0.0896692
-0.0967025
-0.103705
-0.110654
-0.11753
-0.12431
-0.130973
-0.1375
-0.143869
-0.150057
-0.156041
-0.161798
-0.167303
-0.172529
-0.177448
-0.182031
-0.186247
-0.190064
-0.193448
-0.196365
-0.198778
-0.200651
-0.201946
-0.202627
-0.202658
-0.202003
-0.20063
-0.198511
-0.195621
-0.19194
-0.187457
-0.182168
-0.17608
-0.16921
-0.161589
-0.153259
-0.144279
-0.134722
-0.124676
-0.114245
-0.103543
-0.0926987
-0.0818496
-0.0711398
-0.0607166
-0.0507273
-0.0413151
-0.0326154
-0.0247523
-0.0178356
-0.0119585
-0.00719193
-0.00358023
-0.00119038
-0.000156906
-0.000171677
-0.0011316
-0.00318851
-0.00611164
-0.0097614
-0.0140496
-0.018891
-0.0242055
-0.0299214
-0.0359748
-0.0423085
-0.0488716
-0.0556187
-0.0625096
-0.0695084
-0.0765829
-0.0837043
-0.0908462
-0.0979845
-0.105097
-0.112162
-0.119159
-0.126069
-0.132871
-0.139546
-0.146073
-0.152431
-0.158598
-0.164551
-0.170265
-0.175716
-0.180874
-0.185711
-0.190197
-0.194298
-0.197979
-0.201205
-0.203938
-0.206139
-0.207768
-0.208785
-0.20915
-0.208824
-0.207769
-0.20595
-0.203337
-0.199904
-0.195631
-0.19051
-0.184537
-0.177726
-0.170098
-0.161693
-0.152566
-0.142786
-0.132441
-0.121635
-0.110489
-0.0991373
-0.0877256
-0.0764095
-0.0653497
-0.0547084
-0.0446449
-0.0353113
-0.0268481
-0.019381
-0.0130183
-0.00784377
-0.00391248
-0.00130426
-0.000172939
-0.000173108
-0.00114145
-0.00321686
-0.00616681
-0.00985067
-0.0141795
-0.0190673
-0.024433
-0.0302045
-0.0363169
-0.0427125
-0.04934
-0.0561538
-0.0631135
-0.0701833
-0.0773311
-0.0845285
-0.0917496
-0.0989711
-0.106171
-0.113329
-0.120427
-0.127444
-0.134362
-0.141164
-0.147828
-0.154336
-0.160666
-0.166796
-0.172704
-0.178363
-0.183747
-0.188827
-0.193573
-0.197951
-0.201926
-0.205461
-0.208518
-0.211056
-0.213031
-0.214402
-0.215124
-0.215154
-0.214448
-0.212968
-0.210674
-0.207536
-0.203525
-0.198625
-0.192825
-0.18613
-0.178555
-0.170132
-0.16091
-0.150956
-0.140356
-0.129213
-0.117652
-0.105812
-0.0938478
-0.0819265
-0.0702224
-0.0589135
-0.0481764
-0.0381813
-0.0290872
-0.0210378
-0.0141582
-0.00854716
-0.00427222
-0.00142811
-0.00019053
-0.000173884
-0.00114723
-0.0032341
-0.00620117
-0.00990732
-0.0142632
-0.0191823
-0.0245831
-0.0303926
-0.0365457
-0.0429842
-0.0496563
-0.0565162
-0.0635235
-0.0706423
-0.0778411
-0.0850915
-0.0923685
-0.0996492
-0.106913
-0.11414
-0.121313
-0.128412
-0.135423
-0.142325
-0.149103
-0.155736
-0.162206
-0.168491
-0.17457
-0.180418
-0.186009
-0.191316
-0.196307
-0.20095
-0.205211
-0.209051
-0.212431
-0.215308
-0.217639
-0.219376
-0.220474
-0.220884
-0.220559
-0.219452
-0.217521
-0.214724
-0.211028
-0.206406
-0.20084
-0.194324
-0.186866
-0.178489
-0.169235
-0.159166
-0.148363
-0.13693
-0.124991
-0.112692
-0.100194
-0.0876764
-0.0753264
-0.0633391
-0.0519095
-0.0412278
-0.0314733
-0.0228099
-0.0153816
-0.00930471
-0.00466103
-0.00156256
-0.000209803
-0.000174004
-0.00114896
-0.00324026
-0.00621478
-0.00993143
-0.0143008
-0.0192361
-0.0246555
-0.0304855
-0.0366606
-0.0431223
-0.0498184
-0.0567031
-0.0637358
-0.0708808
-0.0781067
-0.0853858
-0.0926934
-0.100008
-0.107309
-0.114578
-0.121798
-0.128953
-0.136027
-0.143003
-0.149865
-0.156596
-0.163179
-0.169592
-0.175816
-0.181828
-0.187603
-0.193115
-0.198332
-0.203225
-0.207757
-0.211892
-0.215588
-0.218803
-0.221491
-0.223604
-0.225091
-0.225902
-0.225984
-0.225286
-0.223756
-0.221349
-0.218021
-0.213736
-0.208467
-0.202198
-0.194927
-0.186667
-0.177452
-0.167335
-0.156393
-0.144726
-0.132459
-0.119739
-0.106736
-0.093638
-0.080648
-0.0679775
-0.0558413
-0.044451
-0.0340086
-0.0247002
-0.0166916
-0.0101188
-0.00508042
-0.00170824
-0.000230879
-0.000173478
-0.00114669
-0.00323554
-0.00620797
-0.00992349
-0.0142929
-0.0192294
-0.0246509
-0.0304837
-0.036662
-0.0431269
-0.0498261
-0.0567134
-0.0637484
-0.0708955
-0.0781235
-0.0854053
-0.0927169
-0.100037
-0.107347
-0.114629
-0.121867
-0.129047
-0.136153
-0.143171
-0.150087
-0.156885
-0.163548
-0.170058
-0.176398
-0.182544
-0.188475
-0.194164
-0.199584
-0.204703
-0.209488
-0.213901
-0.217902
-0.221447
-0.22449
-0.226981
-0.228867
-0.230094
-0.230606
-0.230345
-0.229256
-0.227283
-0.224375
-0.220487
-0.215581
-0.209631
-0.202622
-0.194557
-0.185459
-0.175372
-0.164364
-0.15253
-0.139994
-0.126903
-0.113434
-0.0997833
-0.0861678
-0.0728166
-0.0599653
-0.0478488
-0.0366935
-0.0267107
-0.0180906
-0.0109916
-0.00553178
-0.00186579
-0.000253887
-0.000172325
-0.00114056
-0.00322028
-0.00618138
-0.00988446
-0.0142408
-0.0191637
-0.0245711
-0.0303891
-0.0365517
-0.0429996
-0.0496803
-0.0565477
-0.0635612
-0.0706853
-0.0778894
-0.0851466
-0.0924336
-0.0997301
-0.107018
-0.114281
-0.121505
-0.128676
-0.135782
-0.142808
-0.149742
-0.156571
-0.16328
-0.169853
-0.176272
-0.18252
-0.188573
-0.194409
-0.200001
-0.205319
-0.21033
-0.215
-0.219287
-0.223149
-0.226538
-0.229404
-0.231692
-0.233345
-0.234304
-0.234507
-0.233891
-0.232394
-0.229957
-0.226525
-0.222049
-0.216491
-0.209824
-0.202038
-0.193143
-0.183171
-0.172181
-0.16026
-0.147526
-0.134127
-0.120242
-0.106076
-0.0918599
-0.0778391
-0.0642713
-0.0514161
-0.0395268
-0.0288423
-0.0195803
-0.0119248
-0.00601639
-0.00203578
-0.000278954
-0.000170576
-0.00113076
-0.00319502
-0.00613601
-0.00981584
-0.0141465
-0.0190414
-0.0244189
-0.0302048
-0.0363328
-0.0427435
-0.0493842
-0.0562085
-0.063176
-0.0702515
-0.0774043
-0.0846084
-0.091841
-0.0990827
-0.106317
-0.113528
-0.120703
-0.12783
-0.134897
-0.141894
-0.148809
-0.155631
-0.162346
-0.168942
-0.175403
-0.181713
-0.187851
-0.193797
-0.199525
-0.205009
-0.210217
-0.215115
-0.219664
-0.223822
-0.227542
-0.230773
-0.233459
-0.235543
-0.23696
-0.237645
-0.237531
-0.236549
-0.234631
-0.231711
-0.227732
-0.22264
-0.216397
-0.208978
-0.200379
-0.190617
-0.179738
-0.16782
-0.154973
-0.141341
-0.127103
-0.112473
-0.0976916
-0.0830222
-0.0687447
-0.0551448
-0.0425048
-0.0310943
-0.0211617
-0.0129199
-0.00653538
-0.00221879
-0.00030621
-0.000168273
-0.00111757
-0.00316051
-0.00607323
-0.00971971
-0.0140127
-0.0188662
-0.0241985
-0.0299354
-0.0360103
-0.0423637
-0.0489427
-0.0557007
-0.0625973
-0.0695975
-0.076671
-0.0837923
-0.0909393
-0.0980936
-0.105239
-0.112363
-0.119452
-0.126497
-0.133488
-0.140415
-0.14727
-0.154042
-0.160722
-0.167299
-0.173759
-0.180087
-0.186268
-0.192282
-0.198107
-0.203718
-0.209086
-0.214178
-0.218959
-0.223386
-0.227415
-0.230994
-0.234068
-0.236578
-0.238458
-0.239639
-0.24005
-0.239614
-0.238257
-0.235905
-0.232485
-0.227935
-0.2222
-0.21524
-0.207033
-0.197583
-0.18692
-0.175106
-0.162241
-0.148464
-0.133952
-0.118921
-0.103622
-0.0883369
-0.0733661
-0.0590231
-0.0456216
-0.0334646
-0.0228347
-0.0139777
-0.0070897
-0.00241534
-0.000335785
-0.000165476
-0.00110135
-0.00311774
-0.00599486
-0.00959883
-0.0138433
-0.0186427
-0.0239153
-0.0295871
-0.0355911
-0.0418675
-0.0483631
-0.0550314
-0.0618319
-0.0687297
-0.0756951
-0.0827029
-0.089732
-0.0967647
-0.103786
-0.110785
-0.11775
-0.124673
-0.131545
-0.13836
-0.145111
-0.15179
-0.158389
-0.1649
-0.171313
-0.177614
-0.183792
-0.189828
-0.195705
-0.201399
-0.206884
-0.212132
-0.217107
-0.22177
-0.226079
-0.229982
-0.233427
-0.236352
-0.238691
-0.240374
-0.241323
-0.24146
-0.240701
-0.238963
-0.236165
-0.232228
-0.227084
-0.220676
-0.212964
-0.203934
-0.193597
-0.182
-0.169227
-0.155407
-0.140711
-0.125357
-0.109604
-0.0937475
-0.0781108
-0.0630356
-0.0488685
-0.0359492
-0.0245984
-0.0150987
-0.0076801
-0.00262591
-0.000367811
-0.000162259
-0.00108258
-0.00306796
-0.00590319
-0.00945668
-0.0136429
-0.0183767
-0.0235766
-0.029168
-0.035084
-0.0412642
-0.0476553
-0.0542106
-0.0608895
-0.0676575
-0.0744852
-0.081348
-0.0882257
-0.0951017
-0.101962
-0.108797
-0.115597
-0.122356
-0.129067
-0.135725
-0.142326
-0.148864
-0.155335
-0.161731
-0.168047
-0.174272
-0.180396
-0.186405
-0.192284
-0.198013
-0.20357
-0.208927
-0.214054
-0.218914
-0.223466
-0.227664
-0.231452
-0.234774
-0.237561
-0.239742
-0.241238
-0.241964
-0.241832
-0.240751
-0.238628
-0.235372
-0.2309
-0.225136
-0.218024
-0.209527
-0.199635
-0.188375
-0.175815
-0.162067
-0.147294
-0.131711
-0.11558
-0.0992114
-0.0829487
-0.0671622
-0.0522337
-0.0385423
-0.0264507
-0.0162828
-0.00830707
-0.00285091
-0.000402416
-0.000158713
-0.0010618
-0.00301273
-0.00580107
-0.00929757
-0.0134174
-0.0180758
-0.0231909
-0.0286882
-0.0345
-0.0405657
-0.0468316
-0.0532508
-0.0597829
-0.0663934
-0.0730534
-0.0797392
-0.0864312
-0.093114
-0.0997755
-0.106406
-0.113
-0.11955
-0.126055
-0.132509
-0.138912
-0.14526
-0.151552
-0.157783
-0.16395
-0.170046
-0.176063
-0.181993
-0.187821
-0.193533
-0.199109
-0.204527
-0.209757
-0.214769
-0.219523
-0.223976