/*--------------------------------*- C++ -*----------------------------------*\
  =========                 |
  \\      /  F ield         | OpenFOAM: The Open Source CFD Toolbox
   \\    /   O peration     | Website:  https://openfoam.org
    \\  /    A nd           | Version:  dev
     \\/     M anipulation  |
\*---------------------------------------------------------------------------*/
FoamFile
{
    format      ascii;
    class       volScalarField;
    location    "27";
    object      Uy;
}
// * * * * * * * * * * * * * * * * * * * * * * * * * * * * * * * * * * * * * //

dimensions      [0 1 -1 0 0 0 0];

internalField   nonuniform List<scalar> 
5184
(
-1.27661e-05
-2.09165e-05
-1.72543e-05
-8.19586e-06
2.67029e-06
1.36172e-05
2.38432e-05
3.30426e-05
4.10972e-05
4.8013e-05
5.38517e-05
5.8698e-05
6.26443e-05
6.57818e-05
6.81952e-05
6.99599e-05
7.11403e-05
7.17888e-05
7.19462e-05
7.1642e-05
7.08956e-05
6.97173e-05
6.81103e-05
6.60716e-05
6.3594e-05
6.06676e-05
5.7282e-05
5.34275e-05
4.90972e-05
4.42879e-05
3.90023e-05
3.32495e-05
2.70467e-05
2.04199e-05
1.34047e-05
6.04679e-06
-1.59766e-06
-9.46223e-06
-1.74704e-05
-2.55364e-05
-3.35658e-05
-4.14572e-05
-4.91034e-05
-5.63935e-05
-6.32149e-05
-6.94558e-05
-7.50074e-05
-7.97667e-05
-8.36391e-05
-8.65407e-05
-8.84013e-05
-8.91654e-05
-8.87952e-05
-8.72707e-05
-8.45916e-05
-8.07771e-05
-7.58665e-05
-6.99184e-05
-6.30106e-05
-5.52388e-05
-4.67172e-05
-3.75787e-05
-2.79783e-05
-1.80986e-05
-8.16431e-06
1.52973e-06
1.05603e-05
1.829e-05
2.37061e-05
2.51173e-05
1.98399e-05
6.24162e-06
-4.59616e-05
-6.57463e-05
-4.05635e-05
7.63513e-06
6.56734e-05
0.000125973
0.000184261
0.00023829
0.000286922
0.000329717
0.000366634
0.000397863
0.000423716
0.00044456
0.00046077
0.000472707
0.000480693
0.000485002
0.000485859
0.000483435
0.000477851
0.000469183
0.000457471
0.000442723
0.000424927
0.000404061
0.0003801
0.000353026
0.000322841
0.000289571
0.000253277
0.000214061
0.000172073
0.000127517
8.06503e-05
3.17932e-05
-1.86761e-05
-7.03194e-05
-0.000122642
-0.000175096
-0.000227089
-0.000277988
-0.000327132
-0.000373843
-0.000417437
-0.000457238
-0.000492595
-0.000522892
-0.000547569
-0.00056613
-0.000578165
-0.000583352
-0.000581477
-0.000572436
-0.000556246
-0.000533044
-0.000503094
-0.000466785
-0.000424631
-0.000377273
-0.000325478
-0.000270152
-0.000212354
-0.000153337
-9.46107e-05
-3.80529e-05
1.38798e-05
5.7882e-05
8.9361e-05
0.00010182
8.64898e-05
3.6478e-05
-8.1322e-05
-9.50279e-05
-1.91228e-05
0.000105926
0.000254616
0.00041051
0.000563301
0.000706854
0.000837724
0.000954204
0.0010557
0.00114231
0.00121454
0.00127312
0.00131887
0.00135262
0.00137514
0.00138709
0.00138904
0.00138143
0.0013646
0.00133876
0.00130405
0.00126052
0.00120819
0.00114705
0.00107709
0.000998318
0.000910803
0.000814682
0.000710189
0.000597666
0.000477588
0.000350568
0.000217374
7.89271e-05
-6.36931e-05
-0.000209251
-0.000356365
-0.000503518
-0.000649073
-0.000791301
-0.000928399
-0.00105852
-0.00117983
-0.00129049
-0.00138876
-0.00147298
-0.00154167
-0.0015935
-0.00162738
-0.00164247
-0.0016382
-0.00161432
-0.00157089
-0.00150832
-0.00142736
-0.00132911
-0.001215
-0.00108685
-0.000946826
-0.000797499
-0.000641873
-0.00048348
-0.000326516
-0.00017607
-3.84533e-05
7.83195e-05
0.000163955
0.000205289
0.000186211
9.03673e-05
-9.77173e-05
-7.3108e-05
8.48007e-05
0.000318329
0.000589988
0.000874163
0.00115383
0.0014182
0.00166082
0.00187814
0.00206862
0.00223199
0.00236883
0.00248017
0.00256728
0.00263148
0.00267408
0.0026962
0.00269883
0.00268277
0.00264861
0.00259678
0.00252754
0.00244106
0.00233741
0.00221664
0.00207881
0.00192402
0.00175248
0.00156454
0.00136073
0.00114178
0.000908657
0.000662611
0.00040515
0.000138075
-0.000136526
-0.000416284
-0.000698565
-0.000980493
-0.00125898
-0.00153078
-0.0017925
-0.00204072
-0.00227197
-0.00248289
-0.00267022
-0.0028309
-0.00296218
-0.00306162
-0.0031272
-0.00315738
-0.00315114
-0.00310802
-0.00302819
-0.00291241
-0.00276212
-0.00257943
-0.00236708
-0.00212852
-0.00186792
-0.00159015
-0.00130094
-0.00100694
-0.000715986
-0.000437335
-0.000182132
3.60175e-05
0.000200402
0.000290637
0.000282428
0.000147233
-8.43641e-05
2.09441e-05
0.000295445
0.000667928
0.0010906
0.00152956
0.00196137
0.00237057
0.00274744
0.00308634
0.00338451
0.00364113
0.00385665
0.00403232
0.0041698
0.0042709
0.00433743
0.00437101
0.00437309
0.00434482
0.00428713
0.00420066
0.00408589
0.00394309
0.00377247
0.00357419
0.00334842
0.00309544
0.0028157
0.00250986
0.00217887
0.00182399
0.00144689
0.00104959
0.000634595
0.000204813
-0.000236395
-0.000685243
-0.00113754
-0.00158875
-0.00203398
-0.00246814
-0.00288592
-0.00328194
-0.00365083
-0.00398732
-0.00428634
-0.00454316
-0.00475348
-0.00491353
-0.00502019
-0.00507106
-0.00506459
-0.00500007
-0.00487779
-0.00469898
-0.00446593
-0.00418195
-0.00385142
-0.00347981
-0.00307367
-0.00264074
-0.00219002
-0.00173192
-0.00127847
-0.000843717
-0.000444155
-9.93355e-05
0.000167411
0.000328362
0.000350788
0.00019406
-3.74775e-05
0.000197397
0.000626839
0.00117013
0.00177134
0.00238962
0.00299591
0.00357045
0.00410038
0.00457794
0.00499905
0.00536223
0.00566772
0.00591688
0.0061117
0.00625443
0.00634737
0.00639263
0.0063921
0.00634734
0.00625957
0.00612974
0.00595851
0.00574635
0.00549362
0.00520063
0.00486778
0.00449558
0.0040848
0.00363654
0.00315227
0.00263395
0.00208407
0.00150567
0.000902386
0.00027848
-0.00036119
-0.00101117
-0.00166546
-0.00231756
-0.00296054
-0.00358713
-0.00418984
-0.00476105
-0.00529318
-0.00577877
-0.00621071
-0.00658232
-0.00688754
-0.00712108
-0.00727853
-0.00735655
-0.00735292
-0.00726668
-0.00709822
-0.00684933
-0.00652323
-0.00612465
-0.00565983
-0.00513653
-0.0045641
-0.00395351
-0.00331745
-0.00267053
-0.00202946
-0.00141342
-0.000844553
-0.000348529
4.4683e-05
0.00030015
0.000377071
0.00022441
4.41385e-05
0.000461255
0.00108689
0.00183433
0.00264172
0.00346285
0.00426409
0.005022
0.00572098
0.00635135
0.00690778
0.00738812
0.00779238
0.00812199
0.00837922
0.00856673
0.00868726
0.0087434
0.00873747
0.00867141
0.0085468
0.00836484
0.00812645
0.0078323
0.00748295
0.00707894
0.00662091
0.00610971
0.00554651
0.00493293
0.00427112
0.00356386
0.00281458
0.00202751
0.00120761
0.000360659
-0.000506767
-0.00138734
-0.00227303
-0.00315514
-0.00402445
-0.00487129
-0.00568573
-0.00645766
-0.00717703
-0.007834
-0.00841914
-0.00892363
-0.00933944
-0.00965957
-0.0098782
-0.00999085
-0.0099946
-0.00988816
-0.00967201
-0.0093485
-0.00892191
-0.0083985
-0.00778652
-0.0070963
-0.0063402
-0.00553275
-0.00469066
-0.00383304
-0.00298157
-0.00216083
-0.00139875
-0.000727171
-0.000182573
0.000193246
0.000352178
0.000234856
0.00016048
0.000814385
0.00167939
0.00266553
0.00370714
0.00475419
0.00576967
0.0067273
0.00760928
0.00840436
0.0091062
0.00971208
0.0102218
0.0106369
0.01096
0.011194
0.0113422
0.0114075
0.0113927
0.0113002
0.0111318
0.0108891
0.0105731
0.0101849
0.00972513
0.00919471
0.00859454
0.00792587
0.00719036
0.00639026
0.00552848
0.0046087
0.00363549
0.00261435
0.00155173
0.000455111
-0.000667079
-0.00180545
-0.00294974
-0.00408888
-0.00521115
-0.00630428
-0.00735565
-0.0083525
-0.00928207
-0.0101319
-0.0108901
-0.0115454
-0.0120878
-0.0125082
-0.0127993
-0.0129553
-0.0129725
-0.0128492
-0.012586
-0.0121857
-0.0116537
-0.0109979
-0.0102286
-0.00935894
-0.00840447
-0.00738346
-0.00631692
-0.00522865
-0.00414552
-0.00309764
-0.00211881
-0.001247
-0.000524975
-9.5109e-07
0.000270543
0.000223693
0.000310911
0.0012567
0.00240528
0.00366559
0.0049699
0.00626588
0.00751429
0.00868694
0.0097645
0.0107346
0.0115903
0.0123283
0.0129486
0.0134528
0.0138438
0.0141249
0.0142997
0.0143718
0.0143443
0.0142199
0.0140007
0.0136887
0.0132852
0.0127914
0.0122083
0.011537
0.0107789
0.00993559
0.00900936
0.00800313
0.00692064
0.00576662
0.00454683
0.00326817
0.00193871
0.000567742
-0.000834298
-0.00225582
-0.00368416
-0.00510574
-0.00650615
-0.00787035
-0.00918287
-0.010428
-0.0115903
-0.0126543
-0.0136054
-0.01443
-0.0151154
-0.0156506
-0.0160267
-0.0162363
-0.0162747
-0.0161399
-0.0158321
-0.015355
-0.0147149
-0.0139213
-0.0129868
-0.0119272
-0.0107616
-0.00951211
-0.00820413
-0.00686637
-0.005531
-0.00423379
-0.0030144
-0.00191685
-0.000989982
-0.000287963
0.00012906
0.000190271
0.000494528
0.00178695
0.0032637
0.00483414
0.00642998
0.00799795
0.0094977
0.0109001
0.0121849
0.0133393
0.0143559
0.0152316
0.0159663
0.0165619
0.0170217
0.0173496
0.0175496
0.0176255
0.017581
0.0174191
0.0171424
0.0167529
0.0162522
0.015642
0.0149234
0.0140979
0.0131672
0.0121335
0.0109996
0.00976913
0.00844687
0.00703858
0.0055513
0.00399345
0.00237478
0.000706489
-0.000998859
-0.00272735
-0.00446384
-0.00619206
-0.00789477
-0.00955402
-0.0111513
-0.012668
-0.0140853
-0.0153849
-0.0165494
-0.0175623
-0.0184083
-0.0190744
-0.0195493
-0.0198243
-0.0198936
-0.0197542
-0.0194066
-0.0188546
-0.0181056
-0.0171707
-0.0160648
-0.0148066
-0.0134184
-0.0119266
-0.010361
-0.00875535
-0.00714725
-0.00557814
-0.00409362
-0.00274365
-0.00158297
-0.00067133
-7.38861e-05
0.000134508
0.000710298
0.00240325
0.00425255
0.0061692
0.00808559
0.00994864
0.011718
0.0133644
0.0148676
0.0162147
0.0173986
0.0184164
0.0192685
0.0199571
0.0204861
0.0208598
0.0210828
0.0211594
0.0210935
0.0208886
0.0205476
0.0200728
0.0194661
0.0187294
0.0178641
0.016872
0.0157553
0.0145167
0.0131596
0.0116885
0.010109
0.00842804
0.00665405
0.00479695
0.00286828
0.000881201
-0.00114952
-0.00320756
-0.00527518
-0.00733332
-0.00936184
-0.0113397
-0.0132452
-0.0150565
-0.0167516
-0.0183091
-0.0197083
-0.0209296
-0.0219552
-0.0227695
-0.0233589
-0.023713
-0.0238246
-0.0236899
-0.0233089
-0.0226858
-0.021829
-0.020751
-0.0194691
-0.0180046
-0.0163835
-0.0146362
-0.0127971
-0.0109052
-0.00900344
-0.00713912
-0.00536376
-0.00373327
-0.00230814
-0.00115349
-0.000339131
5.65733e-05
0.000957144
0.00310328
0.00536895
0.00766768
0.00993357
0.0121148
0.0141719
0.0160764
0.0178087
0.0193566
0.0207135
0.0218774
0.0228492
0.0236318
0.0242297
0.0246479
0.0248915
0.0249653
0.0248737
0.0246205
0.024209
0.0236416
0.0229207
0.0220482
0.021026
0.0198563
0.0185415
0.0170849
0.0154905
0.0137637
0.0119111
0.00994073
0.00786235
0.0056875
0.0034295
0.00110353
-0.00127339
-0.00368249
-0.00610337
-0.00851409
-0.0108915
-0.0132113
-0.0154487
-0.0175782
-0.0195746
-0.0214129
-0.0230692
-0.0245206
-0.0257464
-0.026728
-0.0274496
-0.0278985
-0.0280659
-0.027947
-0.0275413
-0.0268529
-0.0258911
-0.0246698
-0.0232084
-0.0215311
-0.0196674
-0.0176518
-0.0155234
-0.0133263
-0.0111092
-0.00892526
-0.00683195
-0.00489118
-0.00316922
-0.00173646
-0.000667239
-4.33172e-05
0.00123398
0.0038845
0.00660947
0.00932567
0.0119698
0.014492
0.0168549
0.0190313
0.0210033
0.0227597
0.0242952
0.0256086
0.026702
0.0275793
0.0282457
0.0287069
0.0289686
0.0290363
0.0289149
0.0286084
0.0281205
0.027454
0.0266114
0.025595
0.0244068
0.0230494
0.0215257
0.0198394
0.0179953
0.0159994
0.0138594
0.0115843
0.00918545
0.00667581
0.00407053
0.00138683
-0.00135603
-0.00413679
-0.00693234
-0.00971783
-0.012467
-0.0151523
-0.0177453
-0.0202173
-0.0225393
-0.0246827
-0.02662
-0.0283249
-0.0297734
-0.0309436
-0.031817
-0.0323787
-0.0326178
-0.032528
-0.0321082
-0.0313624
-0.0303001
-0.0289368
-0.0272937
-0.0253979
-0.0232824
-0.0209857
-0.0185518
-0.0160301
-0.013475
-0.0109456
-0.00850566
-0.00622308
-0.00417003
-0.00242229
-0.00105885
-0.000165029
0.0015397
0.00474422
0.00797031
0.0111386
0.0141892
0.0170751
0.0197615
0.0222237
0.0244456
0.026418
0.0281373
0.0296037
0.0308205
0.031793
0.0325272
0.0330299
0.0333075
0.0333661
0.0332109
0.0328467
0.0322773
0.0315058
0.030535
0.0293674
0.0280054
0.0264517
0.0247096
0.0227835
0.0206786
0.0184018
0.0159616
0.0133682
0.0106343
0.00777424
0.00480509
0.00174601
-0.00138149
-0.00455369
-0.00774473
-0.0109268
-0.0140705
-0.0171449
-0.0201181
-0.0229576
-0.0256306
-0.0281048
-0.0303487
-0.0323323
-0.0340279
-0.0354103
-0.0364577
-0.0371525
-0.0374816
-0.0374368
-0.0370158
-0.0362222
-0.035066
-0.0335634
-0.0317377
-0.0296186
-0.0272424
-0.0246519
-0.021896
-0.0190294
-0.0161124
-0.0132103
-0.0103931
-0.00773526
-0.00531491
-0.0032135
-0.00151496
-0.0003086
0.0018732
0.0056796
0.00944734
0.0131015
0.0165861
0.019858
0.0228855
0.0256469
0.028129
0.0303249
0.032233
0.0338556
0.0351977
0.0362659
0.0370675
0.0376104
0.0379017
0.0379484
0.0377563
0.0373304
0.0366751
0.0357937
0.0346892
0.0333643
0.0318217
0.0300645
0.0280962
0.0259215
0.0235465
0.0209785
0.018227
0.0153033
0.0122211
0.00899661
0.00564832
0.0021974
-0.00133246
-0.00491506
-0.00852185
-0.0121221
-0.0156831
-0.0191706
-0.022549
-0.0257819
-0.0288327
-0.0316648
-0.0342427
-0.0365324
-0.038502
-0.0401225
-0.0413687
-0.0422197
-0.0426596
-0.0426781
-0.0422714
-0.0414422
-0.0402003
-0.0385629
-0.0365548
-0.0342084
-0.0315631
-0.0286661
-0.0255711
-0.0223384
-0.0190343
-0.0157305
-0.0125038
-0.00943507
-0.00660907
-0.00411329
-0.00203705
-0.000474295
0.00223336
0.00668765
0.0110361
0.0152089
0.0191544
0.0228338
0.0262196
0.0292936
0.0320459
0.0344726
0.0365748
0.038357
0.0398262
0.0409907
0.0418595
0.0424415
0.0427449
0.0427774
0.0425456
0.042055
0.0413101
0.0403148
0.0390723
0.0375853
0.0358568
0.0338901
0.0316891
0.0292589
0.0266058
0.0237381
0.0206658
0.0174014
0.0139596
0.0103579
0.00661657
0.00275855
-0.00119032
-0.00520149
-0.00924375
-0.0132834
-0.0172846
-0.0212094
-0.0250187
-0.028672
-0.0321284
-0.0353473
-0.0382886
-0.0409138
-0.0431867
-0.0450741
-0.0465466
-0.0475797
-0.0481542
-0.0482572
-0.0478829
-0.0470325
-0.0457155
-0.0439497
-0.041761
-0.0391841
-0.036262
-0.0330457
-0.0295941
-0.025973
-0.0222552
-0.0185191
-0.0148484
-0.0113311
-0.00805885
-0.00512579
-0.00262727
-0.00066265
0.00261903
0.0077653
0.0127321
0.0174548
0.0218871
0.0259952
0.029756
0.0331557
0.0361881
0.0388529
0.0411543
0.0430995
0.0446979
0.0459597
0.0468957
0.0475161
0.0478304
0.0478471
0.0475736
0.0470158
0.0461789
0.0450667
0.0436828
0.0420301
0.0401118
0.0379313
0.0354927
0.0328014
0.0298643
0.0266899
0.0232892
0.0196752
0.0158639
0.011874
0.00772716
0.00344809
-0.000935382
-0.0053924
-0.00988918
-0.0143891
-0.0188531
-0.0232399
-0.0275063
-0.0316079
-0.0354994
-0.0391356
-0.0424716
-0.0454642
-0.0480722
-0.0502579
-0.0519872
-0.0532314
-0.0539675
-0.0541793
-0.0538583
-0.0530041
-0.0516251
-0.0497391
-0.0473732
-0.0445641
-0.0413578
-0.0378097
-0.0339835
-0.0299511
-0.0257916
-0.0215907
-0.0174394
-0.0134334
-0.00967188
-0.00625619
-0.0032885
-0.000874499
0.003029
0.00890926
0.0145302
0.019833
0.0247771
0.0293341
0.0334861
0.0372241
0.0405465
0.0434567
0.0459625
0.0480743
0.049804
0.0511644
0.052168
0.0528266
0.0531512
0.0531512
0.0528346
0.0522083
0.0512775
0.0500466
0.0485193
0.0466987
0.044588
0.0421908
0.0395114
0.0365554
0.0333298
0.0298437
0.0261084
0.022138
0.0179491
0.0135614
0.00899812
0.00428541
-0.000547022
-0.00546618
-0.0104358
-0.0154164
-0.0203659
-0.0252393
-0.0299896
-0.0345682
-0.0389254
-0.0430109
-0.0467749
-0.0501691
-0.0531469
-0.0556652
-0.057685
-0.0591726
-0.0601005
-0.0604487
-0.0602053
-0.0593676
-0.0579424
-0.055947
-0.0534093
-0.0503675
-0.0468709
-0.0429786
-0.0387596
-0.0342919
-0.0296615
-0.0249615
-0.020291
-0.0157538
-0.0114572
-0.00751083
-0.00402441
-0.00111099
0.00346201
0.0101161
0.0164252
0.0223368
0.0278165
0.0328418
0.0374007
0.0414894
0.0451112
0.048274
0.0509895
0.0532716
0.0551352
0.0565957
0.0576677
0.058365
0.0586997
0.0586826
0.0583226
0.0576271
0.0566018
0.0552516
0.0535801
0.0515906
0.0492865
0.0466714
0.0437495
0.0405266
0.0370099
0.0332088
0.029135
0.0248029
0.02023
0.0154369
0.0104479
0.00529045
-3.95756e-06
-0.00540036
-0.0108602
-0.0163413
-0.0217983
-0.027183
-0.0324444
-0.0375295
-0.0423839
-0.0469524
-0.0511798
-0.055012
-0.0583968
-0.0612851
-0.0636324
-0.0653991
-0.0665528
-0.0670686
-0.0669308
-0.0661332
-0.0646808
-0.0625896
-0.0598876
-0.0566147
-0.0528226
-0.0485745
-0.0439446
-0.039017
-0.0338852
-0.02865
-0.0234193
-0.0183056
-0.0134255
-0.00889732
-0.00483951
-0.00137358
0.00391673
0.0113823
0.0184116
0.0249591
0.0309969
0.0365091
0.0414898
0.0459412
0.0498716
0.0532941
0.0562247
0.0586809
0.0606812
0.0622437
0.0633854
0.0641221
0.0644676
0.0644339
0.0640308
0.0632664
0.0621471
0.0606778
0.0588626
0.0567048
0.0542077
0.0513748
0.0482106
0.0447205
0.040912
0.0367945
0.0323799
0.0276829
0.0227215
0.0175172
0.0120948
0.00648331
0.000715477
-0.00517192
-0.0111381
-0.0171385
-0.0231248
-0.0290451
-0.0348448
-0.0404664
-0.0458507
-0.0509371
-0.0556649
-0.0599738
-0.0638054
-0.0671042
-0.0698191
-0.0719045
-0.0733216
-0.0740403
-0.0740397
-0.0733099
-0.0718527
-0.0696826
-0.0668269
-0.0633264
-0.0592353
-0.0546207
-0.0495618
-0.0441495
-0.0384845
-0.0326765
-0.0268422
-0.0211043
-0.0155889
-0.0104245
-0.0057392
-0.00166409
0.00439175
0.0127038
0.0204835
0.0276923
0.0343095
0.0403261
0.0457429
0.0505683
0.0548164
0.0585056
0.0616565
0.0642909
0.0664309
0.0680976
0.0693108
0.0700883
0.0704457
0.0703964
0.0699514
0.0691195
0.0679075
0.0663208
0.0643636
0.0620393
0.059351
0.0563023
0.0528973
0.0491416
0.0450424
0.0406089
0.0358531
0.0307901
0.0254378
0.0198183
0.013957
0.00788396
0.00163299
-0.00475756
-0.011245
-0.0177823
-0.0243185
-0.0307983
-0.0371632
-0.0433514
-0.0492987
-0.0549391
-0.0602058
-0.0650322
-0.069353
-0.0731057
-0.076232
-0.0786791
-0.0804015
-0.0813623
-0.0815351
-0.0809048
-0.0794695
-0.0772408
-0.0742451
-0.0705234
-0.066132
-0.0611415
-0.0556363
-0.049714
-0.0434833
-0.037063
-0.0305798
-0.0241669
-0.0179614
-0.0121027
-0.00672973
-0.00198465
0.00488559
0.0140768
0.0226347
0.0305285
0.037745
0.0442824
0.0501487
0.0553589
0.0599334
0.0638961
0.0672726
0.0700893
0.0723722
0.0741456
0.0754324
0.0762525
0.0766237
0.0765607
0.0760757
0.0751783
0.0738761
0.0721746
0.0700783
0.0675905
0.0647144
0.0614533
0.057811
0.0537929
0.0494057
0.0446588
0.0395637
0.0341353
0.0283919
0.0223554
0.0160519
0.00951174
0.00276992
-0.00413401
-0.0111557
-0.0182462
-0.0253515
-0.0324137
-0.0393701
-0.0461548
-0.0526986
-0.0589297
-0.0647752
-0.0701616
-0.0750163
-0.0792692
-0.082854
-0.0857098
-0.0877833
-0.0890302
-0.089417
-0.0889226
-0.0875402
-0.0852778
-0.0821596
-0.0782265
-0.0735359
-0.068162
-0.0621942
-0.0557369
-0.0489073
-0.0418338
-0.034654
-0.0275123
-0.0205583
-0.0139432
-0.00781828
-0.00233775
0.00539667
0.0154968
0.0248586
0.0334593
0.0412933
0.0483669
0.0546953
0.0603006
0.0652096
0.0694523
0.0730597
0.0760629
0.078492
0.080375
0.0817378
0.0826029
0.0829901
0.0829159
0.0823935
0.0814337
0.0800445
0.0782319
0.0760005
0.0733537
0.0702945
0.0668257
0.0629512
0.0586756
0.0540054
0.0489493
0.0435187
0.037728
0.0315952
0.0251423
0.0183953
0.011385
0.00414685
-0.00327856
-0.0108456
-0.0185033
-0.0261957
-0.0338615
-0.0414348
-0.0488452
-0.0560186
-0.0628775
-0.0693424
-0.0753328
-0.0807682
-0.0855702
-0.0896637
-0.0929791
-0.0954539
-0.0970354
-0.0976818
-0.0973649
-0.0960714
-0.0938049
-0.0905863
-0.0864552
-0.08147
-0.0757075
-0.0692624
-0.0622458
-0.0547837
-0.0470148
-0.0390884
-0.0311615
-0.0233968
-0.0159591
-0.00901291
-0.00272621
0.00592331
0.0169595
0.0271484
0.0364757
0.0449442
0.0525679
0.05937
0.0653799
0.0706314
0.0751604
0.0790037
0.0821975
0.0847762
0.0867719
0.0882134
0.0891262
0.0895322
0.0894496
0.0888932
0.0878746
0.0864026
0.0844836
0.0821222
0.079322
0.0760855
0.0724155
0.0683152
0.0637888
0.0588421
0.0534832
0.047723
0.0415751
0.0350572
0.0281907
0.0210015
0.0135204
0.00578303
-0.00216943
-0.0102903
-0.0185273
-0.0268222
-0.0351112
-0.043325
-0.0513892
-0.0592245
-0.066748
-0.0738733
-0.0805126
-0.0865771
-0.0919794
-0.0966351
-0.100464
-0.103395
-0.105365
-0.106321
-0.106229
-0.105066
-0.10283
-0.0995386
-0.0952278
-0.0899563
-0.0838034
-0.0768683
-0.0692691
-0.0611409
-0.0526335
-0.0439086
-0.035137
-0.0264957
-0.0181644
-0.0103226
-0.00315321
0.00646376
0.0184599
0.0294967
0.0395686
0.0486866
0.0568733
0.0641597
0.0705831
0.0761841
0.0810053
0.0850894
0.0884779
0.0912098
0.0933212
0.0948444
0.0958079
0.0962358
0.0961483
0.0955616
0.0944885
0.0929385
0.0909185
0.0884332
0.0854861
0.0820797
0.0782161
0.073898
0.069129
0.0639142
0.0582609
0.0521789
0.0456812
0.0387847
0.03151
0.0238826
0.0159327
0.00769593
-0.000786352
-0.00946688
-0.0182922
-0.0272026
-0.0361319
-0.0450077
-0.0537518
-0.0622801
-0.070504
-0.0783305
-0.0856639
-0.092407
-0.0984629
-0.103737
-0.108138
-0.111584
-0.113999
-0.115323
-0.115508
-0.114523
-0.112359
-0.109027
-0.10456
-0.0990157
-0.0924741
-0.0850392
-0.0768359
-0.0680087
-0.0587189
-0.0491418
-0.0394629
-0.0298752
-0.0205748
-0.0117572
-0.00362224
0.00701617
0.0199932
0.0318961
0.0427281
0.0525091
0.0612702
0.0690506
0.0758954
0.0818526
0.0869715
0.091301
0.094888
0.0977765
0.100007
0.101615
0.102632
0.103085
0.102996
0.102384
0.101261
0.0996383
0.0975234
0.0949211
0.0918347
0.0882665
0.0842181
0.0796917
0.0746899
0.069217
0.0632793
0.0568855
0.0500478
0.0427816
0.0351067
0.0270476
0.0186339
0.00990061
0.000888873
-0.00835388
-0.0177736
-0.0273092
-0.0368928
-0.0464493
-0.0558969
-0.0651472
-0.0741057
-0.0826731
-0.0907457
-0.0982174
-0.104981
-0.110932
-0.115966
-0.119989
-0.122914
-0.124667
-0.125187
-0.124436
-0.122392
-0.119059
-0.114465
-0.108666
-0.101743
-0.0938021
-0.0849755
-0.0754174
-0.0653012
-0.0548165
-0.0441652
-0.0335573
-0.0232068
-0.0133274
-0.00413717
0.00757862
0.0215542
0.0343387
0.0459444
0.0564
0.0657454
0.0740282
0.0813015
0.0876208
0.0930425
0.0976216
0.101411
0.104459
0.106811
0.108507
0.109581
0.110063
0.109977
0.109343
0.108175
0.106486
0.104283
0.101571
0.0983534
0.0946326
0.0904094
0.0856851
0.0804617
0.0747424
0.0685322
0.0618387
0.0546725
0.047048
0.0389836
0.0305024
0.0216329
0.0124092
0.00287177
-0.00693224
-0.0169486
-0.0271157
-0.037364
-0.0476165
-0.0577881
-0.0677862
-0.0775113
-0.0868573
-0.095713
-0.103963
-0.11149
-0.118177
-0.123909
-0.128576
-0.132078
-0.134327
-0.135249
-0.134791
-0.132922
-0.129635
-0.124952
-0.118924
-0.111631
-0.103182
-0.0937168
-0.0833978
-0.0724114
-0.0609628
-0.049271
-0.0375651
-0.0260786
-0.0150449
-0.00470219
0.00814911
0.0231376
0.0368163
0.049207
0.060347
0.0702852
0.0790777
0.0867857
0.0934724
0.0992011
0.104033
0.108028
0.111239
0.113716
0.115502
0.116636
0.11715
0.117071
0.116419
0.115213
0.113463
0.111178
0.108365
0.105025
0.101162
0.0967743
0.0918639
0.0864313
0.0804786
0.0740094
0.06703
0.0595494
0.0515804
0.0431396
0.0342487
0.0249346
0.0152302
0.00517456
-0.00518584
-0.0157972
-0.0265976
-0.037517
-0.0484764
-0.0593884
-0.0701567
-0.0806769
-0.0908368
-0.100517
-0.109594
-0.117939
-0.125423
-0.131918
-0.137299
-0.141451
-0.144269
-0.145665
-0.14557
-0.143938
-0.140752
-0.136025
-0.1298
-0.122156
-0.113204
-0.103088
-0.0919803
-0.0800811
-0.0676113
-0.0548088
-0.0419231
-0.0292092
-0.0169221
-0.00532186
0.00872561
0.0247379
0.0393209
0.0525053
0.0643378
0.0748756
0.0841838
0.0923316
0.0993899
0.105429
0.110518
0.114721
0.118097
0.1207
0.12258
0.123777
0.124326
0.124257
0.123593
0.122352
0.120548
0.118189
0.115282
0.11183
0.107834
0.103294
0.09821
0.0925817
0.0864098
0.0796968
0.0724471
0.0646681
0.0563705
0.0475693
0.0382842
0.0285401
0.0183679
0.00780554
-0.00310217
-0.0143023
-0.0257335
-0.0373253
-0.0489979
-0.060662
-0.0722182
-0.0835578
-0.0945629
-0.105107
-0.115057
-0.124274
-0.132616
-0.139941
-0.146108
-0.150986
-0.154452
-0.1564
-0.156743
-0.15542
-0.152399
-0.147681
-0.141301
-0.133332
-0.123888
-0.113114
-0.101195
-0.0883419
-0.0747936
-0.0608082
-0.0466572
-0.0326191
-0.0189724
-0.00600105
0.00930606
0.0263497
0.0418439
0.0558288
0.0683595
0.0795025
0.089331
0.0979226
0.105356
0.111709
0.117056
0.121469
0.125012
0.127745
0.129719
0.130981
0.131568
0.131513
0.13084
0.129571
0.127718
0.125292
0.1223
0.118745
0.114627
0.109946
0.104702
0.0988918
0.0925162
0.0855757
0.0780729
0.0700133
0.0614056
0.0522625
0.0426014
0.0324451
0.0218222
0.0107685
-0.000672998
-0.0124509
-0.024505
-0.0367654
-0.0491521
-0.0615744
-0.0739308
-0.086109
-0.0979859
-0.109428
-0.120294
-0.130434
-0.139694
-0.147916
-0.154944
-0.160627
-0.164824
-0.167409
-0.168274
-0.16734
-0.164557
-0.159911
-0.153426
-0.14517
-0.135251
-0.123821
-0.11107
-0.0972249
-0.0825416
-0.0672994
-0.0517941
-0.0363294
-0.0212098
-0.00674499
0.00988835
0.0279673
0.044377
0.0591665
0.0723996
0.0841513
0.0945035
0.103542
0.111352
0.118021
0.123628
0.128252
0.131964
0.134826
0.136897
0.138225
0.138853
0.138814
0.138137
0.136843
0.134947
0.132461
0.129392
0.125742
0.121514
0.116704
0.111313
0.105337
0.0987736
0.0916231
0.0838859
0.0755653
0.0666679
0.0572038
0.047188
0.0366405
0.0255875
0.0140621
0.00210499
-0.0102347
-0.0228985
-0.0358178
-0.0489132
-0.0620936
-0.0752562
-0.0882859
-0.101055
-0.113425
-0.125246
-0.136356
-0.146591
-0.155776
-0.163739
-0.170309
-0.175325
-0.178636
-0.180116
-0.179659
-0.177197
-0.172697
-0.166169
-0.157671
-0.147305
-0.135226
-0.121632
-0.10676
-0.0908867
-0.0743132
-0.0573614
-0.0403625
-0.0236491
-0.00755923
0.0104704
0.0295854
0.046912
0.0625078
0.0764454
0.0888078
0.0996854
0.109172
0.117361
0.124345
0.130214
0.135049
0.138929
0.141922
0.14409
0.145485
0.146155
0.146134
0.145455
0.14414
0.142207
0.139667
0.136528
0.132794
0.128465
0.123539
0.118014
0.111887
0.105154
0.0978114
0.0898596
0.0812992
0.0721343
0.0623725
0.0520258
0.0411115
0.0296528
0.0176796
0.00522965
-0.00765059
-0.0209052
-0.0344675
-0.0482596
-0.0621911
-0.0761588
-0.0900458
-0.103722
-0.117041
-0.129848
-0.141972
-0.153234
-0.163447
-0.172419
-0.179959
-0.185884
-0.190018
-0.192209
-0.192329
-0.190281
-0.186012
-0.179515
-0.170831
-0.160058
-0.147348
-0.132903
-0.116976
-0.0998601
-0.0818807
-0.0633873
-0.0447415
-0.026306
-0.00844966
0.0110503
0.0311985
0.0494406
0.0658423
0.0804843
0.0934579
0.104861
0.114796
0.123363
0.130663
0.136792
0.141839
0.145886
0.149008
0.151272
0.152735
0.153446
0.153445
0.152766
0.151434
0.149467
0.146879
0.143678
0.139867
0.135447
0.130417
0.124773
0.11851
0.111623
0.104108
0.0959628
0.087185
0.0777766
0.0677423
0.0570913
0.0458376
0.0340009
0.0216079
0.00869282
-0.00470133
-0.0185217
-0.0327047
-0.0471747
-0.0618429
-0.0766067
-0.0913488
-0.105936
-0.120221
-0.134039
-0.147213
-0.15955
-0.17085
-0.180902
-0.189495
-0.196421
-0.201478
-0.204486
-0.205287
-0.203758
-0.199818
-0.193437
-0.184638
-0.173509
-0.160195
-0.144904
-0.127899
-0.109491
-0.0900323
-0.0699006
-0.04949
-0.0291967
-0.00942249
0.011626
0.0328015
0.051955
0.06916
0.0845046
0.0980877
0.110015
0.120397
0.129341
0.136955
0.143342
0.148597
0.15281
0.156059
0.158418
0.159946
0.160698
0.160718
0.160039
0.158691
0.156694
0.154062
0.150804
0.146925
0.142425
0.137302
0.131552
0.125168
0.118145
0.110478
0.10216
0.0931879
0.0835613
0.0732818
0.0623552
0.0507922
0.0386089
0.0258281
0.01248
-0.00139614
-0.0157515
-0.0305262
-0.0456477
-0.0610301
-0.0765728
-0.092159
-0.107655
-0.122911
-0.137756
-0.152007
-0.16546
-0.1779
-0.1891
-0.198827
-0.206846
-0.21293
-0.216865
-0.218463
-0.217566
-0.214064
-0.207898
-0.19907
-0.187648
-0.173772
-0.157649
-0.139551
-0.119809
-0.0987981
-0.0769299
-0.0546324
-0.032338
-0.0104842
0.0121957
0.0343897
0.054448
0.0724513
0.0884946
0.102684
0.115133
0.125959
0.135277
0.143202
0.149843
0.155303
0.159677
0.163051
0.1655
0.167091
0.167882
0.167919
0.167241
0.165878
0.163853
0.161181
0.157872
0.153931
0.149359
0.144153
0.13831
0.131821
0.12468
0.116878
0.10841
0.0992683
0.08945
0.078954
0.0677826
0.055943
0.0434475
0.0303145
0.0165702
0.00224901
-0.0126046
-0.0279351
-0.0436745
-0.0597406
-0.0760358
-0.0924456
-0.108837
-0.125059
-0.140938
-0.156284
-0.170885
-0.184512
-0.196921
-0.207858
-0.217062
-0.224276
-0.229253
-0.231768
-0.231629
-0.228687
-0.22285
-0.214091
-0.202457
-0.188074
-0.171145
-0.15195
-0.130837
-0.108207
-0.0845036
-0.0601933
-0.0357472
-0.0116417
0.0127577
0.0359586
0.0569129
0.0757075
0.0924439
0.107235
0.120201
0.131466
0.141153
0.149383
0.156274
0.161934
0.166464
0.169956
0.172491
0.174141
0.174966
0.175018
0.174339
0.17296
0.170907
0.168196
0.16484
0.160843
0.156207
0.150929
0.145004
0.138424
0.131181
0.123266
0.114669
0.105382
0.0953996
0.0847168
0.0733332
0.061252
0.0484813
0.0350353
0.0209354
0.00621123
-0.00909813
-0.0249423
-0.0412584
-0.0579693
-0.0749817
-0.0921846
-0.109448
-0.12662
-0.143528
-0.159977
-0.175746
-0.190596
-0.204267
-0.216484
-0.226961
-0.235408
-0.241545
-0.245106
-0.245857
-0.243609
-0.23823
-0.229656
-0.217907
-0.203088
-0.185395
-0.165111
-0.142598
-0.118285
-0.0926495
-0.0661973
-0.039442
-0.012902
0.0133107
0.0375044
0.0593437
0.0789209
0.0963429
0.111729
0.125205
0.136903
0.146952
0.155482
0.162615
0.168467
0.173146
0.176749
0.179363
0.181064
0.181919
0.181981
0.181296
0.179898
0.177816
0.175068
0.171666
0.167618
0.162924
0.157583
0.151588
0.144931
0.137602
0.129592
0.120888
0.111482
0.101362
0.0905239
0.0789617
0.0666755
0.0536692
0.0399524
0.0255415
0.0104606
-0.00525674
-0.0215661
-0.0384106
-0.0557191
-0.073404
-0.0913596
-0.10946
-0.127556
-0.145475
-0.16302
-0.179966
-0.196065
-0.211041
-0.224599
-0.23643
-0.246211
-0.253624
-0.258363
-0.260147
-0.258739
-0.253959
-0.245703
-0.233953
-0.218788
-0.200389
-0.179038
-0.15511
-0.129058
-0.101394
-0.072669
-0.0434404
-0.0142724
0.0138533
0.0390239
0.0617357
0.0820849
0.100183
0.116156
0.130135
0.142257
0.15266
0.161479
0.168845
0.17488
0.179698
0.183402
0.186086
0.187831
0.188707
0.188772
0.188075
0.186655
0.184541
0.181754
0.178308
0.174211
0.169465
0.164067
0.158012
0.151291
0.143893
0.135806
0.127017
0.117515
0.107287
0.0963242
0.0846183
0.0721653
0.0589648
0.0450219
0.0303475
0.0149603
-0.00111236
-0.0178326
-0.0351504
-0.0530015
-0.0713053
-0.0899626
-0.108853
-0.127833
-0.146733
-0.165356
-0.183474
-0.200832
-0.217143
-0.232094
-0.245351
-0.256561
-0.265366
-0.271416
-0.27438
-0.273968
-0.269946
-0.262158
-0.250541
-0.235139
-0.216112
-0.193733
-0.168385
-0.140545
-0.110763
-0.0796324
-0.0477606
-0.0157605
0.0143848
0.0405149
0.0640851
0.0851947
0.103959
0.120508
0.134979
0.147515
0.158261
0.167359
0.174946
0.181152
0.186097
0.189891
0.192633
0.19441
0.195296
0.195355
0.19464
0.19319
0.19104
0.188212
0.184721
0.180576
0.175781
0.170333
0.164227
0.157453
0.15
0.141854
0.133002
0.123428
0.11312
0.102064
0.0902493
0.0776685
0.0643168
0.0501943
0.0353069
0.0196671
0.00329595
-0.0137757
-0.0315054
-0.0498367
-0.068697
-0.0879954