/*--------------------------------*- C++ -*----------------------------------*\
  =========                 |
  \\      /  F ield         | OpenFOAM: The Open Source CFD Toolbox
   \\    /   O peration     | Website:  https://openfoam.org
    \\  /    A nd           | Version:  dev
     \\/     M anipulation  |
\*---------------------------------------------------------------------------*/
FoamFile
{
    format      ascii;
    class       volTensorField;
    location    "0.1";
    object      grad(U);
}
// * * * * * * * * * * * * * * * * * * * * * * * * * * * * * * * * * * * * * //

dimensions      [0 0 -1 0 0 0 0];

internalField   nonuniform List<tensor> 
400
(
(0.0386433 -0.0133974 0 0.0173122 -0.0410835 0 0 0 0)
(-0.141157 0.0803684 0 -0.144844 0.173328 0 0 0 0)
(-0.356901 0.0761092 0 -0.676428 0.412088 0 0 0 0)
(-0.511974 0.0472067 0 -1.49617 0.582811 0 0 0 0)
(-0.589182 0.0172481 0 -2.48668 0.667969 0 0 0 0)
(-0.592583 -0.0087507 0 -3.52899 0.67094 0 0 0 0)
(-0.532467 -0.0297038 0 -4.5122 0.602692 0 0 0 0)
(-0.42145 -0.0455882 0 -5.34178 0.477145 0 0 0 0)
(-0.27276 -0.056641 0 -5.94361 0.309039 0 0 0 0)
(-0.0998 -0.0629259 0 -6.2656 0.113465 0 0 0 0)
(0.08351 -0.0642154 0 -6.27867 -0.0938266 0 0 0 0)
(0.26226 -0.0600411 0 -5.97826 -0.295992 0 0 0 0)
(0.42042 -0.0498371 0 -5.38595 -0.474885 0 0 0 0)
(0.540992 -0.0331571 0 -4.55072 -0.611372 0 0 0 0)
(0.606918 -0.0099787 0 -3.54934 -0.686391 0 0 0 0)
(0.603023 0.0188288 0 -2.48407 -0.683097 0 0 0 0)
(0.519123 0.0508291 0 -1.47585 -0.590519 0 0 0 0)
(0.354847 0.0795361 0 -0.651426 -0.409026 0 0 0 0)
(0.133943 0.0808071 0 -0.128416 -0.163164 0 0 0 0)
(-0.0454055 -0.0166971 0 0.0220267 0.0479581 0 0 0 0)
(-0.166175 0.145642 0 -0.076846 0.131973 0 0 0 0)
(-0.552584 0.372803 0 -0.378717 0.55343 0 0 0 0)
(-0.994426 0.333374 0 -0.925377 0.950376 0 0 0 0)
(-1.29828 0.208674 0 -1.62346 1.23165 0 0 0 0)
(-1.44364 0.070881 0 -2.39802 1.36676 0 0 0 0)
(-1.43294 -0.056526 0 -3.18124 1.35429 0 0 0 0)
(-1.28032 -0.164091 0 -3.90528 1.20872 0 0 0 0)
(-1.00996 -0.248065 0 -4.50923 0.95303 0 0 0 0)
(-0.65106 -0.307039 0 -4.94408 0.614373 0 0 0 0)
(-0.23526 -0.33994 0 -5.17502 0.222314 0 0 0 0)
(0.20383 -0.345242 0 -5.183 -0.191648 0 0 0 0)
(0.63046 -0.321017 0 -4.96567 -0.59404 0 0 0 0)
(1.00712 -0.265543 0 -4.53814 -0.949675 0 0 0 0)
(1.29562 -0.178349 0 -3.93324 -1.22279 0 0 0 0)
(1.45973 -0.061746 0 -3.20071 -1.3795 0 0 0 0)
(1.47047 0.077043 0 -2.40484 -1.39222 0 0 0 0)
(1.31352 0.223242 0 -1.61841 -1.24621 0 0 0 0)
(0.992582 0.347819 0 -0.914171 -0.948137 0 0 0 0)
(0.53951 0.376177 0 -0.369101 -0.538525 0 0 0 0)
(0.151795 0.131903 0 -0.0734339 -0.119669 0 0 0 0)
(-0.416919 0.672006 0 -0.0836997 0.358765 0 0 0 0)
(-0.989688 0.898771 0 -0.401588 1.04041 0 0 0 0)
(-1.60164 0.754333 0 -0.946215 1.60406 0 0 0 0)
(-1.98462 0.46359 0 -1.59546 1.98338 0 0 0 0)
(-2.14696 0.13988 0 -2.27499 2.14924 0 0 0 0)
(-2.09984 -0.16679 0 -2.93389 2.10202 0 0 0 0)
(-1.86046 -0.43096 0 -3.52576 1.86197 0 0 0 0)
(-1.46025 -0.639935 0 -4.0104 1.4614 0 0 0 0)
(-0.93855 -0.787357 0 -4.35617 0.939463 0 0 0 0)
(-0.33872 -0.868947 0 -4.54068 0.3394 0 0 0 0)
(0.29286 -0.880569 0 -4.55138 -0.292509 0 0 0 0)
(0.90712 -0.818068 0 -4.386 -0.907234 0 0 0 0)
(1.45285 -0.678584 0 -4.05301 -1.45359 0 0 0 0)
(1.87842 -0.46298 0 -3.57215 -1.87996 0 0 0 0)
(2.13532 -0.17941 0 -2.97456 -2.13791 0 0 0 0)
(2.18532 0.15212 0 -2.30256 -2.18816 0 0 0 0)
(2.00979 0.49491 0 -1.60712 -2.00906 0 0 0 0)
(1.60416 0.787218 0 -0.945123 -1.60633 0 0 0 0)
(0.97468 0.909275 0 -0.395678 -1.02224 0 0 0 0)
(0.397129 0.641497 0 -0.0807415 -0.340525 0 0 0 0)
(-0.651463 1.54482 0 -0.0740786 0.569363 0 0 0 0)
(-1.4151 1.61809 0 -0.377894 1.49819 0 0 0 0)
(-2.1883 1.27634 0 -0.91111 2.1943 0 0 0 0)
(-2.62705 0.75386 0 -1.53727 2.62824 0 0 0 0)
(-2.78207 0.18953 0 -2.17441 2.7901 0 0 0 0)
(-2.68371 -0.3438 0 -2.77433 2.69229 0 0 0 0)
(-2.35683 -0.80472 0 -3.30004 2.36422 0 0 0 0)
(-1.84037 -1.17057 0 -3.7234 1.84633 0 0 0 0)
(-1.18134 -1.42903 0 -4.02417 1.18547 0 0 0 0)
(-0.43047 -1.57191 0 -4.1884 0.432402 0 0 0 0)
(0.35851 -1.59188 0 -4.20775 -0.359001 0 0 0 0)
(1.12883 -1.4821 0 -4.07866 -1.13181 0 0 0 0)
(1.82097 -1.23827 0 -3.80367 -1.82633 0 0 0 0)
(2.37407 -0.86267 0 -3.3919 -2.38148 0 0 0 0)
(2.72932 -0.36995 0 -2.86183 -2.73845 0 0 0 0)
(2.83791 0.20589 0 -2.24344 -2.84679 0 0 0 0)
(2.67096 0.80508 0 -1.57962 -2.67307 0 0 0 0)
(2.20402 1.33464 0 -0.9275 -2.21017 0 0 0 0)
(1.40389 1.64198 0 -0.378046 -1.48363 0 0 0 0)
(0.628215 1.49467 0 -0.071819 -0.5475 0 0 0 0)
(-0.868892 2.73956 0 -0.0674559 0.762414 0 0 0 0)
(-1.82672 2.52371 0 -0.360416 1.93798 0 0 0 0)
(-2.76102 1.88438 0 -0.88578 2.76413 0 0 0 0)
(-3.24792 1.05939 0 -1.50087 3.24155 0 0 0 0)
(-3.38402 0.20393 0 -2.11709 3.38562 0 0 0 0)
(-3.22547 -0.59267 0 -2.68542 3.22778 0 0 0 0)
(-2.80953 -1.27692 0 -3.17381 2.8112 0 0 0 0)
(-2.18438 -1.81868 0 -3.56224 2.18586 0 0 0 0)
(-1.40355 -2.20129 0 -3.83887 1.40492 0 0 0 0)
(-0.5223 -2.41342 0 -3.9963 0.523336 0 0 0 0)
(0.4026 -2.44478 0 -4.0289 -0.401996 0 0 0 0)
(1.3112 -2.2854 0 -3.93161 -1.31118 0 0 0 0)
(2.13961 -1.92825 0 -3.70093 -2.14034 0 0 0 0)
(2.82026 -1.3751 0 -3.33678 -2.82181 0 0 0 0)
(3.28378 -0.64472 0 -2.84707 -3.28662 0 0 0 0)
(3.46753 0.2175 0 -2.25318 -3.47013 0 0 0 0)
(3.32573 1.13153 0 -1.59459 -3.32067 0 0 0 0)
(2.80573 1.97666 0 -0.93314 -2.80956 0 0 0 0)
(1.83036 2.57194 0 -0.372606 -1.93893 0 0 0 0)
(0.846994 2.67263 0 -0.0671343 -0.741149 0 0 0 0)
(-1.07933 4.24521 0 -0.066129 0.948198 0 0 0 0)
(-2.23342 3.61981 0 -0.358789 2.37365 0 0 0 0)
(-3.32875 2.57991 0 -0.88565 3.33254 0 0 0 0)
(-3.85836 1.37535 0 -1.49701 3.84928 0 0 0 0)
(-3.96662 0.17576 0 -2.09859 3.96714 0 0 0 0)
(-3.74043 -0.91822 0 -2.64112 3.74177 0 0 0 0)
(-3.23365 -1.84664 0 -3.09758 3.2343 0 0 0 0)
(-2.50543 -2.57685 0 -3.45585 2.50613 0 0 0 0)
(-1.6154 -3.09156 0 -3.7126 1.61629 0 0 0 0)
(-0.6205 -3.37883 0 -3.8671 0.621445 0 0 0 0)
(0.4232 -3.42639 0 -3.9164 -0.422266 0 0 0 0)
(1.4568 -3.22044 0 -3.854 -1.45613 0 0 0 0)
(2.4158 -2.7489 0 -3.6697 -2.41565 0 0 0 0)
(3.22793 -2.00895 0 -3.35381 -3.22851 0 0 0 0)
(3.81292 -1.01827 0 -2.90283 -3.81498 0 0 0 0)
(4.09039 0.17184 0 -2.32832 -4.0923 0 0 0 0)
(3.991 1.46565 0 -1.66551 -3.98372 0 0 0 0)
(3.42601 2.71638 0 -0.98044 -3.43128 0 0 0 0)
(2.2699 3.71039 0 -0.390895 -2.4094 0 0 0 0)
(1.06795 4.17475 0 -0.069527 -0.935385 0 0 0 0)
(-1.29381 6.06141 0 -0.069735 1.13699 0 0 0 0)
(-2.64624 4.90805 0 -0.373442 2.81629 0 0 0 0)
(-3.89924 3.36001 0 -0.91128 3.90452 0 0 0 0)
(-4.46086 1.69399 0 -1.52042 4.44994 0 0 0 0)
(-4.52813 0.09642 0 -2.10061 4.52848 0 0 0 0)
(-4.22446 -1.32551 0 -2.60505 4.22568 0 0 0 0)
(-3.62426 -2.51256 0 -3.01473 3.62466 0 0 0 0)
(-2.7994 -3.43669 0 -3.329 2.79996 0 0 0 0)
(-1.8148 -4.08597 0 -3.5553 1.8156 0 0 0 0)
(-0.7261 -4.45198 0 -3.7015 0.726968 0 0 0 0)
(0.4157 -4.52236 0 -3.7688 -0.414842 0 0 0 0)
(1.5579 -4.27878 0 -3.7496 -1.55714 0 0 0 0)
(2.6398 -3.70063 0 -3.6267 -2.63935 0 0 0 0)
(3.58713 -2.77443 0 -3.3785 -3.58754 0 0 0 0)
(4.30927 -1.50851 0 -2.98633 -4.31153 0 0 0 0)
(4.70485 0.04876 0 -2.44719 -4.70716 0 0 0 0)
(4.67361 1.79255 0 -1.78658 -4.66497 0 0 0 0)
(4.08035 3.55098 0 -1.07112 -4.08811 0 0 0 0)
(2.74127 5.06784 0 -0.434548 -2.9146 0 0 0 0)
(1.30742 6.01741 0 -0.079063 -1.14521 0 0 0 0)
(-1.52251 8.19849 0 -0.07806 1.3381 0 0 0 0)
(-3.07497 6.38734 0 -0.40366 3.27686 0 0 0 0)
(-4.47573 4.21356 0 -0.959 4.48248 0 0 0 0)
(-5.04769 1.99931 0 -1.55879 5.03435 0 0 0 0)
(-5.05125 -0.0485 0 -2.09607 5.05089 0 0 0 0)
(-4.65455 -1.82204 0 -2.53106 4.65513 0 0 0 0)
(-3.9576 -3.27236 0 -2.8591 3.9572 0 0 0 0)
(-3.046 -4.38591 0 -3.0965 3.04575 0 0 0 0)
(-1.9879 -5.16455 0 -3.2666 1.98813 0 0 0 0)
(-0.834 -5.60927 0 -3.3891 0.83456 0 0 0 0)
(0.3751 -5.7105 0 -3.4721 -0.374271 0 0 0 0)
(1.5989 -5.44495 0 -3.5079 -1.59792 0 0 0 0)
(2.7869 -4.7793 0 -3.4722 -2.78601 0 0 0 0)
(3.8683 -3.68113 0 -3.3285 -3.86815 0 0 0 0)
(4.74423 -2.13789 0 -3.03723 -4.74632 0 0 0 0)
(5.29014 -0.1816 0 -2.57257 -5.29244 0 0 0 0)
(5.36707 2.0847 0 -1.94034 -5.35668 0 0 0 0)
(4.77804 4.46675 0 -1.20037 -4.78869 0 0 0 0)
(3.26195 6.65329 0 -0.5034 -3.4741 0 0 0 0)
(1.58157 8.23456 0 -0.095922 -1.38526 0 0 0 0)
(-1.77553 10.6764 0 -0.092002 1.56071 0 0 0 0)
(-3.52718 8.05243 0 -0.45088 3.7649 0 0 0 0)
(-5.05437 5.1175 0 -1.0259 5.06281 0 0 0 0)
(-5.59793 2.2624 0 -1.59693 5.5816 0 0 0 0)
(-5.5004 -0.2828 0 -2.05075 5.4988 0 0 0 0)
(-4.98749 -2.4192 0 -2.3624 4.9869 0 0 0 0)
(-4.1897 -4.12194 0 -2.5514 4.18804 0 0 0 0)
(-3.2069 -5.40576 0 -2.6585 3.20546 0 0 0 0)
(-2.1074 -6.29716 0 -2.73 2.10666 0 0 0 0)
(-0.9316 -6.81438 0 -2.802 0.93156 0 0 0 0)
(0.2969 -6.95484 0 -2.893 -0.29633 0 0 0 0)
(1.5578 -6.69052 0 -2.997 -1.5567 0 0 0 0)
(2.8192 -5.97086 0 -3.0831 -2.81783 0 0 0 0)
(4.0221 -4.73474 0 -3.0971 -4.02119 0 0 0 0)
(5.0652 -2.9328 0 -2.9729 -5.0668 0 0 0 0)
(5.80174 -0.5616 0 -2.64953 -5.8036 0 0 0 0)
(6.04581 2.2963 0 -2.09909 -6.0329 0 0 0 0)
(5.51729 5.43356 0 -1.36035 -5.5315 0 0 0 0)
(3.84572 8.47127 0 -0.5985 -4.10455 0 0 0 0)
(1.90674 10.8768 0 -0.121381 -1.6703 0 0 0 0)
(-2.06539 13.5241 0 -0.114688 1.81637 0 0 0 0)
(-4.00887 9.88944 0 -0.52168 4.289 0 0 0 0)
(-5.62178 6.03026 0 -1.11273 5.6323 0 0 0 0)
(-6.07254 2.4353 0 -1.61753 6.0523 0 0 0 0)
(-5.81672 -0.6432 0 -1.92119 5.8132 0 0 0 0)
(-5.1552 -3.1328 0 -2.0275 5.1528 0 0 0 0)
(-4.2537 -5.0538 0 -1.9932 4.25 0 0 0 0)
(-3.2246 -6.46729 0 -1.8949 3.22144 0 0 0 0)
(-2.1314 -7.43845 0 -1.8079 2.12923 0 0 0 0)
(-0.997 -8.01226 0 -1.7903 0.99592 0 0 0 0)
(0.1801 -8.19876 0 -1.8737 -0.1801 0 0 0 0)
(1.4088 -7.96645 0 -2.0573 -1.40776 0 0 0 0)
(2.6868 -7.24379 0 -2.3052 -2.68484 0 0 0 0)
(3.9785 -5.9301 0 -2.5457 -3.9766 0 0 0 0)
(5.1918 -3.9203 0 -2.6797 -5.1924 0 0 0 0)
(6.16395 -1.1477 0 -2.5993 -6.1646 0 0 0 0)
(6.65625 2.3568 0 -2.22164 -6.6397 0 0 0 0)
(6.27863 6.3951 0 -1.54072 -6.2973 0 0 0 0)
(4.50092 10.5145 0 -0.72434 -4.81776 0 0 0 0)
(2.30145 14.0094 0 -0.158891 -2.01726 0 0 0 0)
(-2.4119 16.7817 0 -0.153277 2.1237 0 0 0 0)
(-4.52522 11.8684 0 -0.63095 4.85806 0 0 0 0)
(-6.15022 6.8808 0 -1.22426 6.1629 0 0 0 0)
(-6.40639 2.4433 0 -1.59658 6.3802 0 0 0 0)
(-5.91037 -1.1823 0 -1.6461 5.9035 0 0 0 0)
(-5.0595 -3.9824 0 -1.4291 5.0542 0 0 0 0)
(-4.0571 -6.0533 0 -1.0583 4.0507 0 0 0 0)
(-3.0216 -7.52653 0 -0.6578 3.0161 0 0 0 0)
(-2.0028 -8.52268 0 -0.3372 1.99882 0 0 0 0)
(-0.9974 -9.12371 0 -0.1789 0.99496 0 0 0 0)
(0.0299 -9.35852 0 -0.2303 -0.03059 0 0 0 0)
(1.1263 -9.19526 0 -0.4991 -1.12522 0 0 0 0)
(2.3308 -8.5397 0 -0.9488 -2.3281 0 0 0 0)
(3.6476 -7.2423 0 -1.4941 -3.644 0 0 0 0)
(5.0116 -5.1208 0 -2.002 -5.0102 0 0 0 0)
(6.2598 -2.0089 0 -2.3066 -6.2582 0 0 0 0)
(7.10439 2.1636 0 -2.24385 -7.082 0 0 0 0)
(7.01459 7.2555 0 -1.72538 -7.0382 0 0 0 0)
(5.22755 12.7513 0 -0.89066 -5.6184 0 0 0 0)
(2.78997 17.7118 0 -0.215758 -2.4491 0 0 0 0)
(-2.84962 20.5059 0 -0.222116 2.51671 0 0 0 0)
(-5.07985 13.9286 0 -0.80528 5.4819 0 0 0 0)
(-6.58741 7.5524 0 -1.36438 6.6011 0 0 0 0)
(-6.49438 2.1759 0 -1.48853 6.4584 0 0 0 0)
(-5.64924 -1.9692 0 -1.126 5.6366 0 0 0 0)
(-4.5674 -4.9856 0 -0.4247 4.5577 0 0 0 0)
(-3.4824 -7.0919 0 0.4228 3.4724 0 0 0 0)
(-2.5035 -8.51917 0 1.2373 2.4952 0 0 0 0)
(-1.6525 -9.45959 0 1.874 1.64668 0 0 0 0)
(-0.8901 -10.0417 0 2.2296 0.88647 0 0 0 0)
(-0.1401 -10.3189 0 2.2425 0.13882 0 0 0 0)
(0.6903 -10.264 0 1.8934 -0.68901 0 0 0 0)
(1.6918 -9.76257 0 1.2121 -1.6876 0 0 0 0)
(2.9253 -8.6122 0 0.2864 -2.9189 0 0 0 0)
(4.3793 -6.5345 0 -0.726 -4.3743 0 0 0 0)
(5.9221 -3.2195 0 -1.5978 -5.9153 0 0 0 0)
(7.23747 1.5768 0 -2.0586 -7.2045 0 0 0 0)
(7.63182 7.8587 0 -1.88205 -7.6593 0 0 0 0)
(6.01055 15.1036 0 -1.11361 -6.4974 0 0 0 0)
(3.40786 22.0769 0 -0.306032 -3.00164 0 0 0 0)
(-3.43929 24.7804 0 -0.347658 3.05777 0 0 0 0)
(-5.66749 15.9528 0 -1.08428 6.1634 0 0 0 0)
(-6.83347 7.8573 0 -1.51675 6.843 0 0 0 0)
(-6.16801 1.4788 0 -1.18904 6.1146 0 0 0 0)
(-4.84654 -3.083 0 -0.1811 4.8244 0 0 0 0)
(-3.5107 -6.1466 0 1.2091 3.4945 0 0 0 0)
(-2.3951 -8.1158 0 2.6878 2.3805 0 0 0 0)
(-1.5704 -9.35225 0 4.0223 1.5595 0 0 0 0)
(-1.0105 -10.1314 0 5.0455 1.00317 0 0 0 0)
(-0.6289 -10.6316 0 5.6464 0.62476 0 0 0 0)
(-0.3063 -10.934 0 5.7577 0.30524 0 0 0 0)
(0.0959 -11.0217 0 5.3488 -0.09344 0 0 0 0)
(0.7238 -10.7696 0 4.4315 -0.717 0 0 0 0)
(1.7095 -9.929 0 3.0759 -1.6986 0 0 0 0)
(3.1274 -8.1172 0 1.4392 -3.1156 0 0 0 0)
(4.9272 -4.8391 0 -0.2082 -4.91 0 0 0 0)
(6.82014 0.4196 0 -1.4772 -6.7678 0 0 0 0)
(7.95958 7.9626 0 -1.93541 -7.9849 0 0 0 0)
(6.80357 17.409 0 -1.41201 -7.4145 0 0 0 0)
(4.20961 27.2108 0 -0.454355 -3.73319 0 0 0 0)
(-4.28156 29.727 0 -0.572016 3.85325 0 0 0 0)
(-6.24894 17.7139 0 -1.50609 6.8683 0 0 0 0)
(-6.69217 7.5036 0 -1.58622 6.6843 0 0 0 0)
(-5.15873 0.1573 0 -0.45094 5.0769 0 0 0 0)
(-3.2511 -4.5893 0 1.5289 3.2156 0 0 0 0)
(-1.6985 -7.4295 0 3.8365 1.6753 0 0 0 0)
(-0.6692 -9.0269 0 6.07528 0.651 0 0 0 0)
(-0.1458 -9.8965 0 7.98683 0.1341 0 0 0 0)
(-0.0284 -10.3943 0 9.41672 0.02177 0 0 0 0)
(-0.1779 -10.7396 0 10.2756 0.17512 0 0 0 0)
(-0.4377 -11.0371 0 10.5084 0.438455 0 0 0 0)
(-0.6359 -11.2862 0 10.0785 0.64085 0 0 0 0)
(-0.5811 -11.3677 0 8.96751 0.5916 0 0 0 0)
(-0.067 -11.0108 0 7.1983 0.0841 0 0 0 0)
(1.0952 -9.7459 0 4.8788 -1.0739 0 0 0 0)
(3.0057 -6.8717 0 2.2685 -2.9727 0 0 0 0)
(5.51026 -1.4981 0 -0.1551 -5.4261 0 0 0 0)
(7.69701 7.212 0 -1.70012 -7.7044 0 0 0 0)
(7.4916 19.3553 0 -1.78092 -8.2521 0 0 0 0)
(5.27423 33.2246 0 -0.695289 -4.73187 0 0 0 0)
(-5.5174 35.5019 0 -0.935431 5.07427 0 0 0 0)
(-6.68169 18.7838 0 -2.02749 7.4428 0 0 0 0)
(-5.77832 6.0659 0 -1.237 5.7248 0 0 0 0)
(-3.05289 -1.9899 0 1.29305 2.934 0 0 0 0)
(-0.5591 -6.4846 0 4.64207 0.5133 0 0 0 0)
(1.03568 -8.7112 0 8.04258 -1.0604 0 0 0 0)
(1.75523 -9.657 0 11.056 -1.7708 0 0 0 0)
(1.77104 -9.98148 0 13.4749 -1.778 0 0 0 0)
(1.27827 -10.0904 0 15.2217 -1.27944 0 0 0 0)
(0.46283 -10.2149 0 16.2748 -0.46041 0 0 0 0)
(-0.5034 -10.4683 0 16.6198 0.508669 0 0 0 0)
(-1.44504 -10.8685 0 16.2245 1.45376 0 0 0 0)
(-2.1564 -11.3263 0 15.0338 2.1708 0 0 0 0)
(-2.37921 -11.5945 0 12.9885 2.4017 0 0 0 0)
(-1.8024 -11.174 0 10.0783 1.8328 0 0 0 0)
(-0.1067 -9.1913 0 6.4456 0.1576 0 0 0 0)
(2.85152 -4.3121 0 2.54017 -2.7242 0 0 0 0)
(6.33376 5.1366 0 -0.72147 -6.2916 0 0 0 0)
(7.8084 20.3815 0 -2.08758 -8.718 0 0 0 0)
(6.68582 40.1948 0 -1.04246 -6.1236 0 0 0 0)
(-7.24448 42.2441 0 -1.36719 7.0191 0 0 0 0)
(-6.55051 18.3644 0 -2.24736 7.4092 0 0 0 0)
(-3.37163 2.9948 0 0.50461 3.1727 0 0 0 0)
(0.72034 -5.0542 0 5.26649 -0.9218 0 0 0 0)
(3.49843 -8.5837 0 10.2902 -3.5742 0 0 0 0)
(4.71542 -9.7136 0 14.7076 -4.7505 0 0 0 0)
(4.76308 -9.7445 0 18.2294 -4.7787 0 0 0 0)
(4.01995 -9.40514 0 20.8398 -4.022 0 0 0 0)
(2.77157 -9.07674 0 22.6269 -2.76596 0 0 0 0)
(1.22014 -8.95149 0 23.6875 -1.2106 0 0 0 0)
(-0.48805 -9.12297 0 24.0767 0.500412 0 0 0 0)
(-2.22188 -9.62407 0 23.783 2.23816 0 0 0 0)
(-3.81712 -10.4198 0 22.7184 3.84098 0 0 0 0)
(-5.02253 -11.3488 0 20.7204 5.0598 0 0 0 0)
(-5.44766 -11.99 0 17.5915 5.5046 0 0 0 0)
(-4.5324 -11.4287 0 13.2072 4.6325 0 0 0 0)
(-1.65681 -7.9473 0 7.73963 1.8807 0 0 0 0)
(3.06926 1.2182 0 2.05599 -2.8777 0 0 0 0)
(7.17061 19.5233 0 -1.77535 -8.1498 0 0 0 0)
(8.40427 48.0662 0 -1.34854 -8.1142 0 0 0 0)
(-9.13195 49.9302 0 -1.20837 9.8601 0 0 0 0)
(-4.80989 14.9374 0 -0.60088 5.3848 0 0 0 0)
(1.73553 -2.2651 0 6.09867 -2.3873 0 0 0 0)
(6.73268 -8.7368 0 13.8838 -7.1916 0 0 0 0)
(8.88196 -10.3133 0 20.2955 -9.1027 0 0 0 0)
(8.97492 -9.9157 0 24.9917 -9.0895 0 0 0 0)
(7.88745 -8.9285 0 28.2144 -7.94427 0 0 0 0)
(6.1685 -7.96874 0 30.3134 -6.19177 0 0 0 0)
(4.126 -7.27899 0 31.6105 -4.13062 0 0 0 0)
(1.9126 -6.94851 0 32.3407 -1.90546 0 0 0 0)
(-0.4079 -7.01951 0 32.6347 0.424565 0 0 0 0)
(-2.8033 -7.52797 0 32.5144 2.83156 0 0 0 0)
(-5.219 -8.5047 0 31.8804 5.26573 0 0 0 0)
(-7.50614 -9.93088 0 30.4909 7.5862 0 0 0 0)
(-9.3156 -11.6013 0 27.9473 9.4577 0 0 0 0)
(-9.95853 -12.8152 0 23.7321 10.2184 0 0 0 0)
(-8.29969 -11.8223 0 17.3545 8.7873 0 0 0 0)
(-3.18122 -4.8939 0 8.89242 3.8132 0 0 0 0)
(4.40387 15.145 0 0.86287 -4.9608 0 0 0 0)
(9.80971 56.4588 0 -0.7823 -10.5759 0 0 0 0)
(-9.05373 57.489 0 3.355 10.0192 0 0 0 0)
(0.75653 6.117 0 8.56346 -2.2652 0 0 0 0)
(11.113 -9.5816 0 21.2568 -12.0134 0 0 0 0)
(14.9172 -11.7696 0 31.2807 -15.1576 0 0 0 0)
(14.6064 -10.4816 0 37.0314 -14.6619 0 0 0 0)
(12.6343 -8.55517 0 39.9606 -12.6179 0 0 0 0)
(10.0848 -6.84677 0 41.2634 -10.0413 0 0 0 0)
(7.416 -5.59149 0 41.6951 -7.37563 0 0 0 0)
(4.7988 -4.79043 0 41.7412 -4.77103 0 0 0 0)
(2.2444 -4.39631 0 41.6957 -2.22989 0 0 0 0)
(-0.3143 -4.38595 0 41.7143 0.315654 0 0 0 0)
(-2.9762 -4.7829 0 41.8444 2.96382 0 0 0 0)
(-5.8406 -5.66515 0 42.0211 5.81456 0 0 0 0)
(-8.9556 -7.15683 0 42.0254 8.92432 0 0 0 0)
(-12.2065 -9.3578 0 41.3978 12.2072 0 0 0 0)
(-15.1252 -12.0991 0 39.3085 15.2219 0 0 0 0)
(-16.4965 -14.3525 0 34.3247 16.7736 0 0 0 0)
(-13.4224 -12.5299 0 24.5232 14.3414 0 0 0 0)
(-2.50411 5.1342 0 11.1283 4.4713 0 0 0 0)
(8.3237 63.6029 0 4.6354 -9.1715 0 0 0 0)
(2.78651 57.6842 0 32.9263 -9.3084 0 0 0 0)
(13.0919 -7.0952 0 45.7171 -20.8201 0 0 0 0)
(24.4528 -15.1575 0 57.9509 -22.4267 0 0 0 0)
(22.5073 -11.3853 0 62.4209 -19.6182 0 0 0 0)
(17.5618 -7.77359 0 61.6716 -15.7104 0 0 0 0)
(13.2069 -5.29508 0 59.0691 -11.9856 0 0 0 0)
(9.622 -3.68624 0 56.1839 -8.79121 0 0 0 0)
(6.6463 -2.69852 0 53.6523 -6.11146 0 0 0 0)
(4.1266 -2.13325 0 51.7481 -3.81717 0 0 0 0)
(1.8857 -1.86183 0 50.5887 -1.75571 0 0 0 0)
(-0.2592 -1.8258 0 50.2293 0.227858 0 0 0 0)
(-2.4965 -2.02906 0 50.7056 2.29506 0 0 0 0)
(-5.038 -2.5442 0 52.0438 4.62786 0 0 0 0)
(-8.1294 -3.53822 0 54.2298 7.44001 0 0 0 0)
(-12.0325 -5.30372 0 57.117 10.9657 0 0 0 0)
(-17.0317 -8.24882 0 60.195 15.363 0 0 0 0)
(-23.085 -12.7028 0 61.9559 20.3895 0 0 0 0)
(-26.3776 -17.1962 0 58.7346 24.6262 0 0 0 0)
(-15.4839 -8.3679 0 47.0581 24.0599 0 0 0 0)
(-5.95399 61.159 0 33.7297 11.8098 0 0 0 0)
(69.5897 27.3605 0 169.23 -42.7975 0 0 0 0)
(25.7811 -7.0013 0 158.394 -42.2472 0 0 0 0)
(27.8168 -8.37973 0 130.357 -28.701 0 0 0 0)
(18.6379 -5.05325 0 106.124 -18.71 0 0 0 0)
(11.2546 -2.84893 0 89.2119 -12.2625 0 0 0 0)
(7.1466 -1.63603 0 77.3077 -8.08745 0 0 0 0)
(4.668 -0.97267 0 68.8584 -5.33137 0 0 0 0)
(2.9802 -0.617444 0 63.0177 -3.42854 0 0 0 0)
(1.7352 -0.434682 0 59.2319 -2.0154 0 0 0 0)
(0.7256 -0.35128 0 57.1559 -0.860612 0 0 0 0)
(-0.1974 -0.335183 0 56.6206 0.197707 0 0 0 0)
(-1.1617 -0.382899 0 57.6125 1.30037 0 0 0 0)
(-2.3164 -0.520191 0 60.2788 2.60967 0 0 0 0)
(-3.8824 -0.818993 0 64.9669 4.36477 0 0 0 0)
(-6.2413 -1.43481 0 72.2906 6.96688 0 0 0 0)
(-10.2863 -2.6753 0 83.2407 11.1033 0 0 0 0)
(-17.9569 -5.08928 0 99.6086 17.891 0 0 0 0)
(-28.3202 -8.8595 0 124.283 28.8954 0 0 0 0)
(-27.509 -7.68222 0 154.306 43.9467 0 0 0 0)
(-72.4641 27.7332 0 167.276 44.9455 0 0 0 0)
)
;

boundaryField
{
    movingWall
    {
        type            extrapolatedCalculated;
        value           nonuniform List<tensor> 
20
(
(69.5897 27.3605 0 280.156 -58.4392 0 0 0 0)
(25.7811 -7.0013 0 241.486 -51.0028 0 0 0 0)
(27.8168 -8.37973 0 177.031 -30.434 0 0 0 0)
(18.6379 -5.05325 0 130.218 -17.4839 0 0 0 0)
(11.2546 -2.84893 0 102.48 -10.221 0 0 0 0)
(7.1466 -1.63603 0 85.2 -6.08816 0 0 0 0)
(4.668 -0.97267 0 73.8932 -3.67686 0 0 0 0)
(2.9802 -0.617444 0 66.528 -2.19748 0 0 0 0)
(1.7352 -0.434682 0 61.9724 -1.20709 0 0 0 0)
(0.7256 -0.35128 0 59.5872 -0.458752 0 0 0 0)
(-0.1974 -0.335183 0 59.07 0.198033 0 0 0 0)
(-1.1617 -0.382899 0 60.3768 0.88198 0 0 0 0)
(-2.3164 -0.520191 0 63.7168 1.72963 0 0 0 0)
(-3.8824 -0.818993 0 69.6424 2.96274 0 0 0 0)
(-6.2413 -1.43481 0 79.2464 5.0056 0 0 0 0)
(-10.2863 -2.6753 0 94.6076 8.702 0 0 0 0)
(-17.9569 -5.08928 0 120.392 15.7068 0 0 0 0)
(-28.3202 -8.8595 0 166.435 29.0591 0 0 0 0)
(-27.509 -7.68222 0 233.672 51.1448 0 0 0 0)
(-72.4641 27.7332 0 276.471 59.788 0 0 0 0)
)
;
    }
    fixedWalls
    {
        type            extrapolatedCalculated;
        value           nonuniform List<tensor> 
60
(
(0.0996544 -0.0982564 0 0.0173122 -0.0410835 0 0 0 0)
(-0.0304055 -0.0660776 0 -0.076846 0.131973 0 0 0 0)
(-0.20773 0.429636 0 -0.0836997 0.358765 0 0 0 0)
(-0.365204 1.36898 0 -0.0740786 0.569363 0 0 0 0)
(-0.504044 2.70709 0 -0.0674559 0.762414 0 0 0 0)
(-0.635028 4.41864 0 -0.066129 0.948198 0 0 0 0)
(-0.76856 6.49988 0 -0.069735 1.13699 0 0 0 0)
(-0.913968 8.9666 0 -0.07806 1.3381 0 0 0 0)
(-1.0808 11.8523 0 -0.092002 1.56071 0 0 0 0)
(-1.28198 15.2094 0 -0.114688 1.81637 0 0 0 0)
(-1.53955 19.1178 0 -0.153277 2.1237 0 0 0 0)
(-1.89508 23.7042 0 -0.222116 2.51671 0 0 0 0)
(-2.42802 29.1846 0 -0.347658 3.05777 0 0 0 0)
(-3.28572 35.9353 0 -0.572016 3.85325 0 0 0 0)
(-4.71608 44.5976 0 -0.935431 5.07427 0 0 0 0)
(-7.02744 56.2324 0 -1.36719 7.0191 0 0 0 0)
(-10.1848 72.674 0 -1.20837 9.8601 0 0 0 0)
(-11.8609 95.6728 0 3.355 10.0192 0 0 0 0)
(3.23516 112.751 0 32.9263 -9.3084 0 0 0 0)
(119.844 58.4392 0 169.23 -42.7975 0 0 0 0)
(-0.105336 -0.103137 0 0.0220267 0.0479581 0 0 0 0)
(0.0172287 -0.0886956 0 -0.0734339 -0.119669 0 0 0 0)
(0.1884 0.37554 0 -0.0807415 -0.340525 0 0 0 0)
(0.340195 1.2734 0 -0.071819 -0.5475 0 0 0 0)
(0.475676 2.56554 0 -0.0671343 -0.741149 0 0 0 0)
(0.608732 4.238 0 -0.069527 -0.935385 0 0 0 0)
(0.753784 6.30708 0 -0.079063 -1.14521 0 0 0 0)
(0.924984 8.81884 0 -0.095922 -1.38526 0 0 0 0)
(1.13747 11.8481 0 -0.121381 -1.6703 0 0 0 0)
(1.41051 15.5 0 -0.158891 -2.01726 0 0 0 0)
(1.77304 19.9172 0 -0.215758 -2.4491 0 0 0 0)
(2.27354 25.2964 0 -0.306032 -3.00164 0 0 0 0)
(2.99716 31.9237 0 -0.454355 -3.73319 0 0 0 0)
(4.09096 40.2292 0 -0.695289 -4.73187 0 0 0 0)
(5.77832 50.8512 0 -1.04246 -6.1236 0 0 0 0)
(8.2608 64.7236 0 -1.34854 -8.1142 0 0 0 0)
(11.1725 83.308 0 -0.7823 -10.5759 0 0 0 0)
(11.39 107.027 0 4.6354 -9.1715 0 0 0 0)
(-7.36912 119.994 0 33.7297 11.8098 0 0 0 0)
(-123.529 59.788 0 167.276 44.9455 0 0 0 0)
(0.0386433 -0.0133974 0 0.0996544 -0.0982564 0 0 0 0)
(-0.141157 0.0803684 0 0.0549188 0.0446668 0 0 0 0)
(-0.356901 0.0761092 0 -0.464972 0.223217 0 0 0 0)
(-0.511974 0.0472067 0 -1.37268 0.349104 0 0 0 0)
(-0.589182 0.0172481 0 -2.51287 0.412044 0 0 0 0)
(-0.592583 -0.0087507 0 -3.72941 0.418096 0 0 0 0)
(-0.532467 -0.0297038 0 -4.8832 0.377041 0 0 0 0)
(-0.42145 -0.0455882 0 -5.85928 0.299281 0 0 0 0)
(-0.27276 -0.056641 0 -6.569 0.194688 0 0 0 0)
(-0.0998 -0.0629259 0 -6.95032 0.0727168 0 0 0 0)
(0.08351 -0.0642154 0 -6.9682 -0.0570152 0 0 0 0)
(0.26226 -0.0600411 0 -6.61628 -0.184145 0 0 0 0)
(0.42042 -0.0498371 0 -5.91916 -0.29718 0 0 0 0)
(0.540992 -0.0331571 0 -4.9346 -0.383493 0 0 0 0)
(0.606918 -0.0099787 0 -3.75519 -0.429808 0 0 0 0)
(0.603023 0.0188288 0 -2.50693 -0.423408 0 0 0 0)
(0.519123 0.0508291 0 -1.3431 -0.354493 0 0 0 0)
(0.354847 0.0795361 0 -0.430436 -0.220092 0 0 0 0)
(0.133943 0.0808071 0 0.0762864 -0.0363484 0 0 0 0)
(-0.0454055 -0.0166971 0 0.105336 0.103137 0 0 0 0)
)
;
    }
    frontAndBack
    {
        type            empty;
    }
}


// ************************************************************************* //
