/*--------------------------------*- C++ -*----------------------------------*\
  =========                 |
  \\      /  F ield         | OpenFOAM: The Open Source CFD Toolbox
   \\    /   O peration     | Website:  https://openfoam.org
    \\  /    A nd           | Version:  dev
     \\/     M anipulation  |
\*---------------------------------------------------------------------------*/
FoamFile
{
    format      ascii;
    class       volVectorField;
    location    "41.85";
    object      U;
}
// * * * * * * * * * * * * * * * * * * * * * * * * * * * * * * * * * * * * * //

dimensions      [0 1 -1 0 0 0 0];

internalField   nonuniform List<vector> 
5184
(
(1.23448e-05 -1.26969e-05 0)
(4.52046e-05 -2.08863e-05 0)
(8.03749e-05 -1.72498e-05 0)
(9.60459e-05 -8.19888e-06 0)
(8.22236e-05 2.66728e-06 0)
(3.65244e-05 1.3618e-05 0)
(-4.05035e-05 2.38485e-05 0)
(-0.00014684 3.30537e-05 0)
(-0.000279693 4.11137e-05 0)
(-0.000436005 4.80342e-05 0)
(-0.000612655 5.38769e-05 0)
(-0.000806609 5.87268e-05 0)
(-0.001015 6.26761e-05 0)
(-0.00123515 6.5816e-05 0)
(-0.00146462 6.82313e-05 0)
(-0.00170113 6.99976e-05 0)
(-0.00194262 7.11792e-05 0)
(-0.00218717 7.18287e-05 0)
(-0.002433 7.19866e-05 0)
(-0.00267842 7.16826e-05 0)
(-0.00292182 7.09362e-05 0)
(-0.00316165 6.97577e-05 0)
(-0.00339637 6.81502e-05 0)
(-0.00362446 6.61106e-05 0)
(-0.00384439 6.36318e-05 0)
(-0.00405462 6.07039e-05 0)
(-0.0042536 5.73165e-05 0)
(-0.00443974 5.34598e-05 0)
(-0.00461148 4.91267e-05 0)
(-0.00476723 4.43143e-05 0)
(-0.00490543 3.90251e-05 0)
(-0.00502455 3.32685e-05 0)
(-0.00512315 2.70615e-05 0)
(-0.00519983 2.04302e-05 0)
(-0.00525333 1.34103e-05 0)
(-0.00528255 6.04743e-06 0)
(-0.00528653 -1.60217e-06 0)
(-0.00526456 -9.47203e-06 0)
(-0.00521612 -1.74856e-05 0)
(-0.00514099 -2.55569e-05 0)
(-0.00503923 -3.35915e-05 0)
(-0.00491122 -4.14879e-05 0)
(-0.00475766 -4.91388e-05 0)
(-0.00457961 -5.64331e-05 0)
(-0.00437848 -6.32583e-05 0)
(-0.00415601 -6.95023e-05 0)
(-0.00391431 -7.50563e-05 0)
(-0.00365579 -7.98174e-05 0)
(-0.0033832 -8.3691e-05 0)
(-0.00309953 -8.65933e-05 0)
(-0.00280802 -8.84537e-05 0)
(-0.00251211 -8.92171e-05 0)
(-0.00221536 -8.8845e-05 0)
(-0.00192143 -8.73179e-05 0)
(-0.00163399 -8.46353e-05 0)
(-0.00135668 -8.08167e-05 0)
(-0.00109305 -7.59014e-05 0)
(-0.000846465 -6.99481e-05 0)
(-0.000620072 -6.30347e-05 0)
(-0.000416724 -5.52572e-05 0)
(-0.000238918 -4.67297e-05 0)
(-8.87324e-05 -3.75853e-05 0)
(3.2244e-05 -2.79789e-05 0)
(0.000122997 -1.8093e-05 0)
(0.000183197 -8.15319e-06 0)
(0.000213347 1.54578e-06 0)
(0.000215034 1.05793e-05 0)
(0.000191311 1.83104e-05 0)
(0.00014721 2.37266e-05 0)
(9.08295e-05 2.51357e-05 0)
(3.66396e-05 1.98524e-05 0)
(6.22842e-06 6.24326e-06 0)
(2.08652e-05 -4.58799e-05 0)
(6.56776e-05 -6.57221e-05 0)
(9.48033e-05 -4.05732e-05 0)
(7.29163e-05 7.62508e-06 0)
(-1.88248e-05 6.56806e-05 0)
(-0.000187239 0.000126008 0)
(-0.00043291 0.000184327 0)
(-0.00075262 0.00023839 0)
(-0.00114082 0.000287054 0)
(-0.00159074 0.000329877 0)
(-0.00209502 0.00036682 0)
(-0.00264621 0.000398071 0)
(-0.003237 0.000423943 0)
(-0.00386041 0.000444802 0)
(-0.00450981 0.000461025 0)
(-0.00517901 0.000472972 0)
(-0.00586221 0.000480965 0)
(-0.00655396 0.00048528 0)
(-0.00724913 0.000486141 0)
(-0.00794282 0.000483717 0)
(-0.00863035 0.000478132 0)
(-0.00930715 0.000469461 0)
(-0.00996875 0.000457743 0)
(-0.0106107 0.000442987 0)
(-0.0112287 0.000425182 0)
(-0.0118181 0.000404304 0)
(-0.0123748 0.000380328 0)
(-0.0128942 0.000353237 0)
(-0.0133719 0.000323032 0)
(-0.0138036 0.00028974 0)
(-0.0141851 0.000253421 0)
(-0.0145122 0.000214178 0)
(-0.0147811 0.000172162 0)
(-0.0149881 0.000127574 0)
(-0.01513 8.06758e-05 0)
(-0.0152038 3.17853e-05 0)
(-0.0152073 -1.87181e-05 0)
(-0.0151387 -7.0396e-05 0)
(-0.0149969 -0.000122753 0)
(-0.0147814 -0.000175242 0)
(-0.0144927 -0.000227267 0)
(-0.0141319 -0.000278198 0)
(-0.0137013 -0.000327372 0)
(-0.0132038 -0.00037411 0)
(-0.0126434 -0.000417727 0)
(-0.012025 -0.000457549 0)
(-0.0113543 -0.000492921 0)
(-0.0106379 -0.00052323 0)
(-0.00988325 -0.000547914 0)
(-0.00909843 -0.000566479 0)
(-0.00829214 -0.000578512 0)
(-0.00747357 -0.000583694 0)
(-0.00665226 -0.000581807 0)
(-0.00583793 -0.000572751 0)
(-0.00504038 -0.000556539 0)
(-0.00426929 -0.000533312 0)
(-0.00353402 -0.000503334 0)
(-0.00284352 -0.000466993 0)
(-0.00220605 -0.000424806 0)
(-0.0016291 -0.000377412 0)
(-0.00111914 -0.000325581 0)
(-0.000681479 -0.000270218 0)
(-0.000320026 -0.000212385 0)
(-3.70635e-05 -0.000153333 0)
(0.000167043 -9.45751e-05 0)
(0.000294218 -3.79884e-05 0)
(0.000349213 1.39639e-05 0)
(0.000340303 5.79767e-05 0)
(0.000279987 8.94562e-05 0)
(0.000186128 0.000101904 0)
(8.64028e-05 8.65504e-05 0)
(1.96877e-05 3.64972e-05 0)
(1.76519e-05 -8.13353e-05 0)
(4.13806e-05 -9.50753e-05 0)
(1.96774e-05 -1.91682e-05 0)
(-8.39193e-05 0.000105921 0)
(-0.0002902 0.000254677 0)
(-0.000607916 0.000410654 0)
(-0.00103833 0.000563534 0)
(-0.00157763 0.000707177 0)
(-0.00221865 0.000838132 0)
(-0.00295219 0.000954691 0)
(-0.00376799 0.00105626 0)
(-0.00465532 0.00114293 0)
(-0.00560346 0.00121521 0)
(-0.00660195 0.00127383 0)
(-0.00764072 0.00131962 0)
(-0.00871021 0.0013534 0)
(-0.00980134 0.00137593 0)
(-0.0109055 0.00138789 0)
(-0.0120145 0.00138985 0)
(-0.0131204 0.00138225 0)
(-0.0142158 0.00136541 0)
(-0.0152932 0.00133956 0)
(-0.0163453 0.00130483 0)
(-0.0173651 0.00126128 0)
(-0.0183454 0.00120892 0)
(-0.0192793 0.00114774 0)
(-0.0201596 0.00107773 0)
(-0.0209795 0.000998911 0)
(-0.021732 0.000911337 0)
(-0.0224103 0.000815151 0)
(-0.023008 0.000710585 0)
(-0.0235187 0.000597984 0)
(-0.0239364 0.000477823 0)
(-0.0242558 0.000350716 0)
(-0.0244718 0.00021743 0)
(-0.0245803 7.88876e-05 0)
(-0.0245779 -6.38293e-05 0)
(-0.0244621 -0.000209485 0)
(-0.0242313 -0.000356695 0)
(-0.0238853 -0.000503943 0)
(-0.0234248 -0.000649591 0)
(-0.0228521 -0.000791906 0)
(-0.0221705 -0.000929085 0)
(-0.021385 -0.00105928 0)
(-0.0205017 -0.00118065 0)
(-0.0195284 -0.00129137 0)
(-0.0184739 -0.00138968 0)
(-0.0173485 -0.00147394 0)
(-0.0161635 -0.00154265 0)
(-0.0149314 -0.00159449 0)
(-0.0136655 -0.00162836 0)
(-0.0123799 -0.00164343 0)
(-0.0110891 -0.00163913 0)
(-0.00980791 -0.00161521 0)
(-0.00855126 -0.00157173 0)
(-0.00733385 -0.00150909 0)
(-0.00616993 -0.00142806 0)
(-0.00507303 -0.00132971 0)
(-0.00405571 -0.00121552 0)
(-0.00312923 -0.00108727 0)
(-0.00230334 -0.000947147 0)
(-0.00158593 -0.000797722 0)
(-0.000982738 -0.000642 0)
(-0.000496991 -0.000483515 0)
(-0.000128999 -0.000326467 0)
(0.000124309 -0.000175947 0)
(0.000270034 -3.8273e-05 0)
(0.000320032 7.85351e-05 0)
(0.000291443 0.000164179 0)
(0.000207505 0.000205491 0)
(0.000102499 0.000186356 0)
(2.49871e-05 9.04233e-05 0)
(8.85056e-06 -9.77898e-05 0)
(-6.97756e-06 -7.32115e-05 0)
(-0.00010754 8.47439e-05 0)
(-0.000322346 0.000318375 0)
(-0.000669646 0.000590174 0)
(-0.00115785 0.00087451 0)
(-0.0017877 0.00115434 0)
(-0.00255445 0.00141889 0)
(-0.00344952 0.00166166 0)
(-0.00446191 0.00187913 0)
(-0.00557912 0.00206973 0)
(-0.00678795 0.00223322 0)
(-0.00807498 0.00237016 0)
(-0.00942695 0.00248158 0)
(-0.010831 0.00256875 0)
(-0.0122746 0.00263301 0)
(-0.0137459 0.00267564 0)
(-0.0152335 0.00269779 0)
(-0.0167264 0.00270044 0)
(-0.0182141 0.00268437 0)
(-0.0196864 0.0026502 0)
(-0.0211333 0.00259834 0)
(-0.022545 0.00252906 0)
(-0.0239119 0.00244253 0)
(-0.0252244 0.00233882 0)
(-0.0264731 0.00221797 0)
(-0.0276486 0.00208005 0)
(-0.0287416 0.00192515 0)
(-0.029743 0.0017535 0)
(-0.030644 0.00156543 0)
(-0.031436 0.00136148 0)
(-0.0321107 0.00114237 0)
(-0.0326605 0.000909089 0)
(-0.0330784 0.000662872 0)
(-0.0333582 0.000405233 0)
(-0.0334946 0.000137975 0)
(-0.0334834 -0.000136812 0)
(-0.0333216 -0.000416757 0)
(-0.0330075 -0.000699224 0)
(-0.0325409 -0.000981333 0)
(-0.031923 -0.00126 0)
(-0.0311571 -0.00153196 0)
(-0.0302478 -0.00179384 0)
(-0.0292015 -0.00204219 0)
(-0.0280266 -0.00227357 0)
(-0.0267332 -0.00248459 0)
(-0.0253328 -0.00267201 0)
(-0.0238389 -0.00283276 0)
(-0.0222662 -0.00296407 0)
(-0.0206309 -0.00306352 0)
(-0.0189502 -0.0031291 0)
(-0.0172422 -0.00315924 0)
(-0.0155258 -0.00315295 0)
(-0.0138201 -0.00310975 0)
(-0.0121444 -0.00302981 0)
(-0.0105175 -0.00291391 0)
(-0.0089578 -0.00276348 0)
(-0.00748281 -0.00258063 0)
(-0.00610864 -0.00236811 0)
(-0.00484978 -0.00212938 0)
(-0.00371874 -0.00186859 0)
(-0.00272561 -0.00159063 0)
(-0.00187774 -0.00130124 0)
(-0.00117925 -0.00100708 0)
(-0.0006306 -0.000715962 0)
(-0.000228089 -0.000437176 0)
(3.6766e-05 -0.000181863 0)
(0.000177871 3.63611e-05 0)
(0.000214962 0.000200774 0)
(0.000174211 0.000290982 0)
(9.30796e-05 0.000282683 0)
(2.40385e-05 0.000147338 0)
(-2.11923e-06 -8.44646e-05 0)
(-6.72814e-05 2.08289e-05 0)
(-0.000264119 0.000295435 0)
(-0.000609836 0.0006681 0)
(-0.00111694 0.001091 0)
(-0.00179164 0.00153022 0)
(-0.00263294 0.0019623 0)
(-0.00363448 0.00237176 0)
(-0.00478612 0.00274888 0)
(-0.00607514 0.00308801 0)
(-0.00748719 0.00338638 0)
(-0.00900702 0.00364318 0)
(-0.010619 0.00385885 0)
(-0.0123076 0.00403465 0)
(-0.0140576 0.00417223 0)
(-0.015854 0.00427341 0)
(-0.0176825 0.00433999 0)
(-0.0195293 0.00437361 0)
(-0.021381 0.00437571 0)
(-0.0232247 0.00434743 0)
(-0.0250477 0.00428971 0)
(-0.0268377 0.0042032 0)
(-0.0285826 0.00408835 0)
(-0.0302706 0.00394547 0)
(-0.0318898 0.00377474 0)
(-0.0334285 0.00357633 0)
(-0.0348753 0.0033504 0)
(-0.0362189 0.00309726 0)
(-0.0374482 0.00281732 0)
(-0.0385524 0.00251127 0)
(-0.0395211 0.00218005 0)
(-0.0403446 0.00182492 0)
(-0.0410138 0.00144755 0)
(-0.0415204 0.00104998 0)
(-0.041857 0.000634694 0)
(-0.0420174 0.000204618 0)
(-0.041997 -0.000236889 0)
(-0.0417922 -0.000686037 0)
(-0.0414013 -0.00113863 0)
(-0.0408242 -0.00159012 0)
(-0.0400629 -0.00203564 0)
(-0.0391212 -0.00247006 0)
(-0.0380049 -0.00288808 0)
(-0.036722 -0.00328433 0)
(-0.0352826 -0.00365342 0)
(-0.0336987 -0.00399007 0)
(-0.0319845 -0.00428922 0)
(-0.030156 -0.00454615 0)
(-0.0282308 -0.00475653 0)
(-0.0262283 -0.0049166 0)
(-0.024169 -0.00502324 0)
(-0.0220746 -0.00507407 0)
(-0.0199676 -0.0050675 0)
(-0.0178706 -0.00500286 0)
(-0.0158068 -0.00488042 0)
(-0.0137986 -0.00470142 0)
(-0.011868 -0.00446815 0)
(-0.0100358 -0.00418392 0)
(-0.00832129 -0.00385313 0)
(-0.00674174 -0.00348124 0)
(-0.00531212 -0.00307481 0)
(-0.00404458 -0.0026416 0)
(-0.00294798 -0.0021906 0)
(-0.00202745 -0.00173222 0)
(-0.00128394 -0.00127853 0)
(-0.000713684 -0.000843564 0)
(-0.000307676 -0.000443828 0)
(-5.11395e-05 -9.88862e-05 0)
(7.68152e-05 0.000167918 0)
(0.000103701 0.000328846 0)
(6.75542e-05 0.000351159 0)
(1.96758e-05 0.000194219 0)
(-1.36942e-05 -3.75817e-05 0)
(-0.000132849 0.000197325 0)
(-0.000435895 0.000626952 0)
(-0.000924811 0.00117053 0)
(-0.00160424 0.00177208 0)
(-0.00247673 0.00239073 0)
(-0.00353846 0.00299741 0)
(-0.00478072 0.00357231 0)
(-0.00619141 0.00410259 0)
(-0.00775601 0.00458047 0)
(-0.00945839 0.00500187 0)
(-0.0112815 0.0053653 0)
(-0.0132078 0.005671 0)
(-0.0152197 0.00592034 0)
(-0.0173001 0.0061153 0)
(-0.019432 0.00625815 0)
(-0.0215988 0.00635116 0)
(-0.0237847 0.00639647 0)
(-0.0259741 0.00639595 0)
(-0.028152 0.00635117 0)
(-0.0303037 0.00626336 0)
(-0.0324146 0.00613345 0)
(-0.0344706 0.00596211 0)
(-0.0364578 0.00574981 0)
(-0.0383624 0.00549692 0)
(-0.0401707 0.00520374 0)
(-0.0418694 0.00487065 0)
(-0.0434453 0.0044982 0)
(-0.0448855 0.00408713 0)
(-0.0461777 0.00363855 0)
(-0.04731 0.00315394 0)
(-0.0482711 0.00263526 0)
(-0.0490506 0.00208499 0)
(-0.0496393 0.00150618 0)
(-0.0500287 0.000902483 0)
(-0.0502122 0.00027815 0)
(-0.0501842 -0.000361951 0)
(-0.0499411 -0.00101236 0)
(-0.049481 -0.00166708 0)
(-0.0488042 -0.00231959 0)
(-0.047913 -0.00296297 0)
(-0.0468118 -0.00358994 0)
(-0.0455077 -0.004193 0)
(-0.0440096 -0.00476453 0)
(-0.0423293 -0.00529693 0)
(-0.0404806 -0.00578276 0)
(-0.0384796 -0.00621489 0)
(-0.0363447 -0.00658664 0)
(-0.034096 -0.00689196 0)
(-0.0317555 -0.00712553 0)
(-0.0293467 -0.00728297 0)
(-0.0268942 -0.00736092 0)
(-0.0244237 -0.00735716 0)
(-0.0219611 -0.00727075 0)
(-0.0195326 -0.00710206 0)
(-0.017164 -0.0068529 0)
(-0.0148803 -0.00652649 0)
(-0.0127055 -0.00612757 0)
(-0.0106615 -0.00566238 0)
(-0.00876832 -0.00513869 0)
(-0.0070432 -0.00456586 0)
(-0.00550024 -0.00395486 0)
(-0.00414992 -0.00331841 0)
(-0.00299858 -0.0026711 0)
(-0.00204802 -0.00202968 0)
(-0.00129494 -0.00141334 0)
(-0.000730577 -0.000844218 0)
(-0.000340183 -0.000348013 0)
(-0.00010279 4.52958e-05 0)
(9.24495e-06 0.000300754 0)
(3.25384e-05 0.000377547 0)
(1.363e-05 0.000224621 0)
(-2.51893e-05 4.4058e-05 0)
(-0.00020005 0.000461288 0)
(-0.000614209 0.00108722 0)
(-0.00125319 0.00183506 0)
(-0.00211252 0.00264293 0)
(-0.00319006 0.00346456 0)
(-0.00447823 0.0042663 0)
(-0.00596532 0.00502471 0)
(-0.00763682 0.00572415 0)
(-0.00947618 0.00635493 0)
(-0.0114654 0.00691175 0)
(-0.0135857 0.00739242 0)
(-0.0158178 0.00779696 0)
(-0.0181425 0.0081268 0)
(-0.0205407 0.00838422 0)
(-0.0229937 0.00857187 0)
(-0.0254832 0.00869249 0)
(-0.0279914 0.00874868 0)
(-0.0305011 0.00874276 0)
(-0.0329951 0.00867667 0)
(-0.0354569 0.00855199 0)
(-0.0378702 0.00836991 0)
(-0.040219 0.00813136 0)
(-0.0424875 0.00783702 0)
(-0.0446601 0.00748743 0)
(-0.0467214 0.00708315 0)
(-0.0486564 0.00662479 0)
(-0.0504502 0.00611323 0)
(-0.0520885 0.00554963 0)
(-0.0535573 0.00493562 0)
(-0.0548435 0.00427334 0)
(-0.0559345 0.00356557 0)
(-0.056819 0.00281577 0)
(-0.0574864 0.00202815 0)
(-0.0579277 0.00120768 0)
(-0.0581355 0.000360155 0)
(-0.0581039 -0.000507853 0)
(-0.0578288 -0.00138901 0)
(-0.0573084 -0.00227527 0)
(-0.0565431 -0.00315794 0)
(-0.0555354 -0.00402778 0)
(-0.0542905 -0.00487513 0)
(-0.052816 -0.00569003 0)
(-0.0511222 -0.00646238 0)
(-0.0492219 -0.00718213 0)
(-0.0471305 -0.00783942 0)
(-0.0448658 -0.00842482 0)
(-0.042448 -0.00892949 0)
(-0.0398994 -0.00934543 0)
(-0.0372445 -0.00966562 0)
(-0.0345091 -0.00988422 0)
(-0.0317205 -0.00999679 0)
(-0.0289071 -0.0100004 0)
(-0.0260978 -0.0098937 0)
(-0.0233216 -0.00967725 0)
(-0.0206072 -0.0093534 0)
(-0.0179825 -0.0089264 0)
(-0.0154742 -0.00840254 0)
(-0.013107 -0.00779008 0)
(-0.0109033 -0.00709934 0)
(-0.00888274 -0.00634271 0)
(-0.00706136 -0.00553472 0)
(-0.00545142 -0.00469211 0)
(-0.00406077 -0.00383398 0)
(-0.00289241 -0.00298204 0)
(-0.00194404 -0.00216089 0)
(-0.00120772 -0.00139847 0)
(-0.000669489 -0.000726639 0)
(-0.00030913 -0.000181893 0)
(-9.97955e-05 0.000193943 0)
(-7.68263e-06 0.00035274 0)
(6.86805e-06 0.000235113 0)
(-3.63473e-05 0.000160452 0)
(-0.000267002 0.000814592 0)
(-0.000793938 0.00168002 0)
(-0.00158602 0.00266672 0)
(-0.00262909 0.00370894 0)
(-0.00391559 0.00475665 0)
(-0.00543355 0.00577277 0)
(-0.00716767 0.00673102 0)
(-0.00910063 0.00761359 0)
(-0.0112135 0.0084092 0)
(-0.0134865 0.00911151 0)
(-0.0158988 0.0097178 0)
(-0.0184296 0.0102279 0)
(-0.0210581 0.0106433 0)
(-0.0237637 0.0109666 0)
(-0.026526 0.0112008 0)
(-0.0293252 0.011349 0)
(-0.0321418 0.0114144 0)
(-0.034957 0.0113997 0)
(-0.037752 0.0113071 0)
(-0.0405088 0.0111386 0)
(-0.0432092 0.0108957 0)
(-0.0458358 0.0105795 0)
(-0.048371 0.010191 0)
(-0.0507977 0.00973094 0)
(-0.0530989 0.00920014 0)
(-0.0552581 0.00859954 0)
(-0.0572591 0.00793039 0)
(-0.059086 0.00719436 0)
(-0.0607236 0.00639369 0)
(-0.0621576 0.00553129 0)
(-0.0633742 0.00461086 0)
(-0.0643611 0.00363696 0)
(-0.0651069 0.0026151 0)
(-0.0656018 0.00155176 0)
(-0.0658377 0.000454393 0)
(-0.0658083 -0.000668547 0)
(-0.0655093 -0.00180767 0)
(-0.0649386 -0.00295269 0)
(-0.0640965 -0.00409254 0)
(-0.0629861 -0.00521549 0)
(-0.0616126 -0.00630927 0)
(-0.0599845 -0.00736124 0)
(-0.0581128 -0.00835862 0)
(-0.0560112 -0.00928868 0)
(-0.0536964 -0.0101389 0)
(-0.0511876 -0.0108975 0)
(-0.0485067 -0.011553 0)
(-0.0456778 -0.0120955 0)
(-0.0427272 -0.012516 0)
(-0.0396831 -0.0128071 0)
(-0.0365752 -0.012963 0)
(-0.0334342 -0.01298 0)
(-0.0302916 -0.0128564 0)
(-0.0271791 -0.0125928 0)
(-0.0241282 -0.0121921 0)
(-0.0211696 -0.0116596 0)
(-0.0183324 -0.0110032 0)
(-0.0156442 -0.0102333 0)
(-0.0131298 -0.00936301 0)
(-0.0108111 -0.00840788 0)
(-0.00870646 -0.0073862 0)
(-0.00683009 -0.00631898 0)
(-0.00519162 -0.00523008 0)
(-0.00379563 -0.00414635 0)
(-0.0026413 -0.00309794 0)
(-0.00172201 -0.00211867 0)
(-0.00102521 -0.00124651 0)
(-0.000532055 -0.000524278 0)
(-0.000217177 -2.00078e-07 0)
(-5.04396e-05 0.000271169 0)
(-7.86652e-08 0.000223985 0)
(-4.70716e-05 0.000310963 0)
(-0.00033272 0.00125715 0)
(-0.000972083 0.00240633 0)
(-0.00191769 0.00366736 0)
(-0.00314554 0.00497246 0)
(-0.00464226 0.00626925 0)
(-0.00639103 0.00751846 0)
(-0.00837256 0.00869187 0)
(-0.0105664 0.00977015 0)
(-0.012951 0.0107409 0)
(-0.0155043 0.0115971 0)
(-0.0182038 0.0123357 0)
(-0.0210272 0.0129564 0)
(-0.0239518 0.013461 0)
(-0.0269558 0.0138522 0)
(-0.0300173 0.0141334 0)
(-0.0331152 0.0143084 0)
(-0.0362285 0.0143806 0)
(-0.039337 0.0143531 0)
(-0.0424206 0.0142285 0)
(-0.0454596 0.0140093 0)
(-0.0484348 0.013697 0)
(-0.0513269 0.0132932 0)
(-0.0541172 0.012799 0)
(-0.0567872 0.0122155 0)
(-0.0593184 0.0115438 0)
(-0.061693 0.0107851 0)
(-0.0638935 0.0099412 0)
(-0.0659027 0.0090143 0)
(-0.0677045 0.00800735 0)
(-0.0692831 0.00692408 0)
(-0.070624 0.00576924 0)
(-0.0717138 0.00454859 0)
(-0.0725403 0.00326904 0)
(-0.073093 0.00193867 0)
(-0.073363 0.000566773 0)
(-0.0733437 -0.000836199 0)
(-0.0730302 -0.00225864 0)
(-0.0724204 -0.0036879 0)
(-0.0715143 -0.00511036 0)
(-0.0703151 -0.00651161 0)
(-0.0688283 -0.00787661 0)
(-0.0670626 -0.00918986 0)
(-0.0650297 -0.0104357 0)
(-0.0627439 -0.0115985 0)
(-0.060223 -0.012663 0)
(-0.0574873 -0.0136146 0)
(-0.0545599 -0.0144394 0)
(-0.0514666 -0.015125 0)
(-0.0482355 -0.0156604 0)
(-0.0448965 -0.0160364 0)
(-0.0414815 -0.0162459 0)
(-0.0380236 -0.0162841 0)
(-0.0345566 -0.0161489 0)
(-0.0311148 -0.0158408 0)
(-0.0277324 -0.0153631 0)
(-0.0244425 -0.0147224 0)
(-0.0212773 -0.013928 0)
(-0.0182667 -0.0129928 0)
(-0.0154384 -0.0119325 0)
(-0.0128166 -0.0107661 0)
(-0.0104222 -0.00951575 0)
(-0.00827155 -0.00820694 0)
(-0.00637646 -0.0068684 0)
(-0.00474347 -0.0055323 0)
(-0.0033736 -0.00423442 0)
(-0.00226209 -0.00301447 0)
(-0.00139821 -0.00191648 0)
(-0.000764992 -0.000989328 0)
(-0.000338992 -0.000287201 0)
(-9.41725e-05 0.00012972 0)
(-6.93984e-06 0.000190587 0)
(-5.73504e-05 0.000494686 0)
(-0.000396722 0.00178772 0)
(-0.0011469 0.00326527 0)
(-0.00224468 0.00483662 0)
(-0.0036563 0.00643344 0)
(-0.00536241 0.00800239 0)
(-0.0073411 0.00950311 0)
(-0.00956877 0.0109064 0)
(-0.0120215 0.0121921 0)
(-0.014675 0.0133472 0)
(-0.017505 0.0143645 0)
(-0.020487 0.0152408 0)
(-0.0235969 0.015976 0)
(-0.0268108 0.016572 0)
(-0.0301053 0.0170321 0)
(-0.0334574 0.0173602 0)
(-0.0368445 0.0175603 0)
(-0.0402446 0.0176363 0)
(-0.0436362 0.0175918 0)
(-0.0469979 0.0174298 0)
(-0.0503089 0.0171528 0)
(-0.0535486 0.016763 0)
(-0.0566967 0.016262 0)
(-0.0597332 0.0156513 0)
(-0.0626381 0.0149322 0)
(-0.0653921 0.0141061 0)
(-0.067976 0.0131747 0)
(-0.0703712 0.0121402 0)
(-0.0725594 0.0110055 0)
(-0.0745234 0.00977418 0)
(-0.0762464 0.00845097 0)
(-0.0777129 0.00704168 0)
(-0.0789086 0.00555336 0)
(-0.0798206 0.00399442 0)
(-0.0804375 0.00237465 0)
(-0.0807498 0.000705232 0)
(-0.0807502 -0.00100124 0)
(-0.0804334 -0.00273085 0)
(-0.0797969 -0.00446844 0)
(-0.0788405 -0.00619771 0)
(-0.0775671 -0.00790144 0)
(-0.0759822 -0.00956165 0)
(-0.0740948 -0.0111598 0)
(-0.0719167 -0.0126773 0)
(-0.0694629 -0.0140953 0)
(-0.0667516 -0.0153956 0)
(-0.0638042 -0.0165606 0)
(-0.0606448 -0.0175738 0)
(-0.0573004 -0.0184201 0)
(-0.0538006 -0.0190862 0)
(-0.0501773 -0.0195611 0)
(-0.0464641 -0.019836 0)
(-0.0426963 -0.019905 0)
(-0.0389101 -0.0197653 0)
(-0.0351422 -0.0194172 0)
(-0.0314294 -0.0188645 0)
(-0.0278077 -0.0181148 0)
(-0.0243117 -0.0171791 0)
(-0.0209745 -0.0160723 0)
(-0.0178263 -0.0148132 0)
(-0.0148943 -0.0134241 0)
(-0.0122019 -0.0119313 0)
(-0.00976802 -0.0103647 0)
(-0.00760693 -0.00875812 0)
(-0.00572754 -0.00714912 0)
(-0.00413312 -0.00557921 0)
(-0.00282111 -0.004094 0)
(-0.00178301 -0.00274348 0)
(-0.00100407 -0.00158243 0)
(-0.000463026 -0.000670606 0)
(-0.000138064 -7.32234e-05 0)
(-1.35995e-05 0.000134836 0)
(-6.72011e-05 0.000710589 0)
(-0.000458782 0.00240439 0)
(-0.0013174 0.00425474 0)
(-0.00256476 0.00617253 0)
(-0.00415764 0.0080901 0)
(-0.0060707 0.00995433 0)
(-0.0082768 0.0117248 0)
(-0.0107479 0.0133723 0)
(-0.0134565 0.0148765 0)
(-0.0163753 0.0162245 0)
(-0.0194776 0.0174092 0)
(-0.022737 0.0184277 0)
(-0.0261277 0.0192803 0)
(-0.0296243 0.0199694 0)
(-0.033202 0.0204987 0)
(-0.0368368 0.0208727 0)
(-0.0405049 0.0210957 0)
(-0.0441833 0.0211723 0)
(-0.0478492 0.0211064 0)
(-0.0514804 0.0209013 0)
(-0.0550549 0.0205601 0)
(-0.0585511 0.0200849 0)
(-0.0619477 0.0194778 0)
(-0.0652234 0.0187405 0)
(-0.0683575 0.0178745 0)
(-0.0713294 0.0168817 0)
(-0.074119 0.0157642 0)
(-0.0767065 0.0145247 0)
(-0.0790728 0.0131666 0)
(-0.0811995 0.0116944 0)
(-0.083069 0.0101138 0)
(-0.084665 0.00843164 0)
(-0.0859721 0.0066564 0)
(-0.0869765 0.00479801 0)
(-0.0876661 0.00286803 0)
(-0.0880308 0.000879625 0)
(-0.0880624 -0.00115242 0)
(-0.0877551 -0.00321178 0)
(-0.0871056 -0.00528069 0)
(-0.0861135 -0.00734009 0)
(-0.0847812 -0.0093698 0)
(-0.083114 -0.0113488 0)
(-0.0811208 -0.0132554 0)
(-0.0788133 -0.0150676 0)
(-0.0762069 -0.0167635 0)
(-0.0733201 -0.0183217 0)
(-0.0701748 -0.0197215 0)
(-0.0667961 -0.0209432 0)
(-0.063212 -0.0219692 0)
(-0.0594534 -0.0227836 0)
(-0.0555538 -0.023373 0)
(-0.0515485 -0.023727 0)
(-0.047475 -0.0238383 0)
(-0.0433717 -0.0237031 0)
(-0.0392778 -0.0233216 0)
(-0.0352327 -0.0226978 0)
(-0.0312753 -0.0218401 0)
(-0.0274433 -0.0207612 0)
(-0.0237725 -0.0194783 0)
(-0.0202963 -0.0180127 0)
(-0.0170448 -0.0163906 0)
(-0.0140444 -0.0146421 0)
(-0.0113171 -0.0128019 0)
(-0.00887978 -0.0109088 0)
(-0.00674419 -0.00900603 0)
(-0.00491619 -0.00714075 0)
(-0.00339575 -0.00536455 0)
(-0.00217694 -0.00373338 0)
(-0.00124742 -0.00230777 0)
(-0.000588265 -0.00115286 0)
(-0.000181786 -0.0003385 0)
(-2.00312e-05 5.6901e-05 0)
(-7.66477e-05 0.000957593 0)
(-0.000518794 0.00310488 0)
(-0.00148296 0.00537186 0)
(-0.0028765 0.00767198 0)
(-0.00464701 0.00993929 0)
(-0.00676332 0.0121219 0)
(-0.00919303 0.0141803 0)
(-0.0119036 0.016086 0)
(-0.0148637 0.0178195 0)
(-0.0180433 0.0193684 0)
(-0.0214129 0.0207262 0)
(-0.0249443 0.0218909 0)
(-0.0286097 0.0228632 0)
(-0.0323825 0.0236464 0)
(-0.0362367 0.0242447 0)
(-0.040147 0.0246631 0)
(-0.0440887 0.0249068 0)
(-0.0480377 0.0249806 0)
(-0.0519705 0.0248889 0)
(-0.0558638 0.0246355 0)
(-0.0596949 0.0242236 0)
(-0.0634412 0.0236558 0)
(-0.0670804 0.0229344 0)
(-0.0705905 0.0220612 0)
(-0.0739498 0.0210383 0)
(-0.0771368 0.0198676 0)
(-0.0801304 0.0185518 0)
(-0.08291 0.0170941 0)
(-0.0854556 0.0154986 0)
(-0.0877478 0.0137706 0)
(-0.0897683 0.0119166 0)
(-0.0914995 0.00994483 0)
(-0.0929255 0.007865 0)
(-0.0940314 0.00568865 0)
(-0.0948043 0.00342912 0)
(-0.0952332 0.00110161 0)
(-0.0953091 -0.00127685 0)
(-0.0950254 -0.00368748 0)
(-0.0943781 -0.00610985 0)
(-0.0933661 -0.00852202 0)
(-0.0919911 -0.0109008 0)
(-0.0902581 -0.0132219 0)
(-0.0881753 -0.0154605 0)
(-0.0857544 -0.0175911 0)
(-0.0830107 -0.0195885 0)
(-0.0799627 -0.0214276 0)
(-0.0766328 -0.0230846 0)
(-0.0730465 -0.0245366 0)
(-0.0692327 -0.0257628 0)
(-0.0652236 -0.0267445 0)
(-0.0610538 -0.0274661 0)
(-0.0567606 -0.0279149 0)
(-0.0523833 -0.028082 0)
(-0.0479626 -0.0279626 0)
(-0.0435404 -0.0275562 0)
(-0.0391587 -0.0268671 0)
(-0.0348594 -0.0259043 0)
(-0.0306834 -0.024682 0)
(-0.0266697 -0.0232194 0)
(-0.022855 -0.0215409 0)
(-0.0192729 -0.019676 0)
(-0.015953 -0.017659 0)
(-0.0129206 -0.0155293 0)
(-0.0101959 -0.0133309 0)
(-0.00779353 -0.0111126 0)
(-0.00572244 -0.00892756 0)
(-0.00398547 -0.00683326 0)
(-0.00257946 -0.00489167 0)
(-0.00149468 -0.0031691 0)
(-0.000714552 -0.00173597 0)
(-0.00022534 -0.000666675 0)
(-2.62612e-05 -4.30025e-05 0)
(-8.57117e-05 0.00123461 0)
(-0.000576708 0.00388662 0)
(-0.00164322 0.00661321 0)
(-0.0031789 0.00933107 0)
(-0.0051226 0.0119768 0)
(-0.00743743 0.0145007 0)
(-0.0100858 0.0168651 0)
(-0.0130308 0.019043 0)
(-0.0162373 0.0210162 0)
(-0.0196721 0.0227737 0)
(-0.0233034 0.0243102 0)
(-0.0271007 0.0256245 0)
(-0.0310346 0.0267185 0)
(-0.0350771 0.0275964 0)
(-0.039201 0.0282632 0)
(-0.0433798 0.0287246 0)
(-0.0475881 0.0289865 0)
(-0.051801 0.0290542 0)
(-0.055994 0.0289325 0)
(-0.0601432 0.0286258 0)
(-0.064225 0.0281375 0)
(-0.0682162 0.0274704 0)
(-0.0720937 0.0266272 0)
(-0.0758348 0.0256099 0)
(-0.0794168 0.0244209 0)
(-0.0828177 0.0230624 0)
(-0.0860156 0.0215376 0)
(-0.0889889 0.01985 0)
(-0.0917168 0.0180045 0)
(-0.0941792 0.0160072 0)
(-0.0963567 0.0138656 0)
(-0.098231 0.0115889 0)
(-0.0997851 0.0091884 0)
(-0.101003 0.00667704 0)
(-0.101872 0.00407002 0)
(-0.102379 0.00138455 0)
(-0.102513 -0.00136007 0)
(-0.102269 -0.00414258 0)
(-0.10164 -0.00693983 0)
(-0.100625 -0.00972697 0)
(-0.0992251 -0.0124777 0)
(-0.0974435 -0.0151645 0)
(-0.0952882 -0.0177589 0)
(-0.0927703 -0.0202321 0)
(-0.0899048 -0.0225552 0)
(-0.08671 -0.0246996 0)
(-0.0832084 -0.0266377 0)
(-0.0794258 -0.0283433 0)
(-0.0753918 -0.0297921 0)
(-0.0711393 -0.0309626 0)
(-0.0667045 -0.031836 0)
(-0.0621261 -0.0323976 0)
(-0.0574453 -0.0326364 0)
(-0.0527053 -0.0325461 0)
(-0.0479505 -0.0321256 0)
(-0.0432259 -0.0313788 0)
(-0.0385765 -0.0303155 0)
(-0.0340465 -0.0289511 0)
(-0.0296786 -0.0273067 0)
(-0.0255132 -0.0254096 0)
(-0.0215874 -0.0232926 0)
(-0.0179348 -0.0209944 0)
(-0.0145841 -0.018559 0)
(-0.0115594 -0.0160359 0)
(-0.00887861 -0.0134794 0)
(-0.00655408 -0.0109487 0)
(-0.00459181 -0.00850758 0)
(-0.00299164 -0.00622403 0)
(-0.00174657 -0.00417023 0)
(-0.000842333 -0.00242201 0)
(-0.000268946 -0.00105839 0)
(-3.23482e-05 -0.00016474 0)
(-9.44085e-05 0.00154054 0)
(-0.000632486 0.00474693 0)
(-0.00179789 0.00797497 0)
(-0.00347123 0.0111453 0)
(-0.00558299 0.0141977 0)
(-0.0080908 0.0170855 0)
(-0.0109521 0.0197737 0)
(-0.0141254 0.0222374 0)
(-0.0175721 0.0244607 0)
(-0.0212559 0.0264344 0)
(-0.0251423 0.0281547 0)
(-0.0291989 0.0296221 0)
(-0.0333946 0.0308397 0)
(-0.0377 0.0318127 0)
(-0.0420867 0.0325474 0)
(-0.0465274 0.0330503 0)
(-0.0509957 0.033328 0)
(-0.055466 0.0333865 0)
(-0.0599131 0.0332312 0)
(-0.0643126 0.0328666 0)
(-0.0686402 0.0322966 0)
(-0.0728721 0.0315245 0)
(-0.0769845 0.030553 0)
(-0.0809542 0.0293844 0)
(-0.084758 0.0280213 0)
(-0.088373 0.0264664 0)
(-0.0917765 0.0247231 0)
(-0.0949465 0.0227955 0)
(-0.0978613 0.020689 0)
(-0.1005 0.0184106 0)
(-0.102842 0.0159686 0)
(-0.104869 0.0133734 0)
(-0.106562 0.0106375 0)
(-0.107905 0.00777556 0)
(-0.108883 0.00480443 0)
(-0.109482 0.00174336 0)
(-0.109693 -0.00138613 0)
(-0.109505 -0.00456029 0)
(-0.108912 -0.00775325 0)
(-0.107913 -0.0109372 0)
(-0.106506 -0.0140827 0)
(-0.104694 -0.0171588 0)
(-0.102484 -0.0201335 0)
(-0.0998861 -0.0229744 0)
(-0.096915 -0.0256487 0)
(-0.0935883 -0.028124 0)
(-0.0899282 -0.0303688 0)
(-0.0859607 -0.0323531 0)
(-0.0817157 -0.0340492 0)
(-0.0772269 -0.0354319 0)
(-0.0725315 -0.0364794 0)
(-0.0676699 -0.0371741 0)
(-0.0626852 -0.0375028 0)
(-0.0576228 -0.0374575 0)
(-0.0525298 -0.0370357 0)
(-0.0474544 -0.0362412 0)
(-0.042445 -0.0350838 0)
(-0.0375494 -0.03358 0)
(-0.0328142 -0.0317528 0)
(-0.0282839 -0.0296322 0)
(-0.0239997 -0.0272544 0)
(-0.0199994 -0.0246622 0)
(-0.0163158 -0.0219046 0)
(-0.0129769 -0.0190364 0)
(-0.0100048 -0.0161178 0)
(-0.0074153 -0.0132143 0)
(-0.00521793 -0.0103958 0)
(-0.00341575 -0.00773678 0)
(-0.0020046 -0.00531551 0)
(-0.000972487 -0.00321348 0)
(-0.000312977 -0.00151464 0)
(-3.83702e-05 -0.00030835 0)
(-0.000102746 0.00187427 0)
(-0.000686084 0.00568294 0)
(-0.00194672 0.009453 0)
(-0.00375284 0.0131095 0)
(-0.00602699 0.0165963 0)
(-0.00872153 0.0198703 0)
(-0.0117891 0.0228997 0)
(-0.0151839 0.0256629 0)
(-0.0188638 0.0281465 0)
(-0.0227893 0.0303438 0)
(-0.0269236 0.0322531 0)
(-0.0312323 0.0338768 0)
(-0.0356826 0.0352197 0)
(-0.0402437 0.0362884 0)
(-0.0448861 0.0370905 0)
(-0.0495818 0.0376336 0)
(-0.0543035 0.037925 0)
(-0.0590249 0.0379716 0)
(-0.0637204 0.0377792 0)
(-0.068365 0.0373529 0)
(-0.072934 0.0366969 0)
(-0.077403 0.0358148 0)
(-0.0817479 0.0347094 0)
(-0.0859447 0.0333834 0)
(-0.08997 0.0318396 0)
(-0.0938001 0.030081 0)
(-0.097412 0.0281112 0)
(-0.100783 0.0259349 0)
(-0.10389 0.0235581 0)
(-0.106712 0.0209882 0)
(-0.109228 0.0182347 0)
(-0.111418 0.015309 0)
(-0.113262 0.0122247 0)
(-0.114744 0.00899801 0)
(-0.115846 0.00564751 0)
(-0.116555 0.00219437 0)
(-0.116858 -0.0013377 0)
(-0.116745 -0.00492249 0)
(-0.116208 -0.00853143 0)
(-0.115243 -0.0121338 0)
(-0.113849 -0.0156968 0)
(-0.112026 -0.0191861 0)
(-0.109781 -0.0225662 0)
(-0.107122 -0.0258008 0)
(-0.104062 -0.0288529 0)
(-0.100619 -0.0316863 0)
(-0.0968148 -0.0342652 0)
(-0.0926744 -0.0365557 0)
(-0.0882281 -0.0385259 0)
(-0.0835102 -0.0401468 0)
(-0.0785589 -0.0413931 0)
(-0.0734158 -0.042244 0)
(-0.0681262 -0.0426835 0)
(-0.0627376 -0.0427015 0)
(-0.0573002 -0.042294 0)
(-0.0518652 -0.0414637 0)
(-0.0464847 -0.0402206 0)
(-0.0412105 -0.0385819 0)
(-0.0360935 -0.0365723 0)
(-0.0311825 -0.0342241 0)
(-0.0265235 -0.0315771 0)
(-0.0221588 -0.0286783 0)
(-0.018126 -0.0255814 0)
(-0.0144573 -0.0223468 0)
(-0.0111793 -0.0190409 0)
(-0.00831183 -0.0157355 0)
(-0.00586821 -0.0125073 0)
(-0.00385497 -0.00943723 0)
(-0.00227088 -0.00661015 0)
(-0.00110619 -0.00411358 0)
(-0.000357903 -0.0020369 0)
(-4.44173e-05 -0.000474097 0)
(-0.000110723 0.00223469 0)
(-0.000737441 0.0066917 0)
(-0.00208945 0.0110429 0)
(-0.00402313 0.0152183 0)
(-0.00645349 0.0191663 0)
(-0.00932789 0.0228481 0)
(-0.0125943 0.026236 0)
(-0.016203 0.029312 0)
(-0.0201081 0.032066 0)
(-0.0242675 0.0344942 0)
(-0.0286418 0.0365977 0)
(-0.0331946 0.038381 0)
(-0.0378916 0.039851 0)
(-0.0427007 0.0410162 0)
(-0.0475915 0.0418854 0)
(-0.0525349 0.0424676 0)
(-0.0575032 0.0427711 0)
(-0.0624695 0.0428034 0)
(-0.0674077 0.0425713 0)
(-0.0722924 0.0420801 0)
(-0.0770986 0.0413346 0)
(-0.0818014 0.0403384 0)
(-0.0863766 0.0390948 0)
(-0.0907997 0.0376066 0)
(-0.0950467 0.0358767 0)
(-0.0990937 0.0339084 0)