/*--------------------------------*- C++ -*----------------------------------*\
  =========                 |
  \\      /  F ield         | OpenFOAM: The Open Source CFD Toolbox
   \\    /   O peration     | Website:  https://openfoam.org
    \\  /    A nd           | Version:  dev
     \\/     M anipulation  |
\*---------------------------------------------------------------------------*/
FoamFile
{
    format      ascii;
    class       volScalarField;
    location    "41.85";
    object      Ux;
}
// * * * * * * * * * * * * * * * * * * * * * * * * * * * * * * * * * * * * * //

dimensions      [0 1 -1 0 0 0 0];

internalField   nonuniform List<scalar> 
5184
(
1.23448e-05
4.52046e-05
8.03749e-05
9.60459e-05
8.22236e-05
3.65244e-05
-4.05035e-05
-0.00014684
-0.000279693
-0.000436005
-0.000612655
-0.000806609
-0.001015
-0.00123515
-0.00146462
-0.00170113
-0.00194262
-0.00218717
-0.002433
-0.00267842
-0.00292182
-0.00316165
-0.00339637
-0.00362446
-0.00384439
-0.00405462
-0.0042536
-0.00443974
-0.00461148
-0.00476723
-0.00490543
-0.00502455
-0.00512315
-0.00519983
-0.00525333
-0.00528255
-0.00528653
-0.00526456
-0.00521612
-0.00514099
-0.00503923
-0.00491122
-0.00475766
-0.00457961
-0.00437848
-0.00415601
-0.00391431
-0.00365579
-0.0033832
-0.00309953
-0.00280802
-0.00251211
-0.00221536
-0.00192143
-0.00163399
-0.00135668
-0.00109305
-0.000846465
-0.000620072
-0.000416724
-0.000238918
-8.87324e-05
3.2244e-05
0.000122997
0.000183197
0.000213347
0.000215034
0.000191311
0.00014721
9.08295e-05
3.66396e-05
6.22842e-06
2.08652e-05
6.56776e-05
9.48033e-05
7.29163e-05
-1.88248e-05
-0.000187239
-0.00043291
-0.00075262
-0.00114082
-0.00159074
-0.00209502
-0.00264621
-0.003237
-0.00386041
-0.00450981
-0.00517901
-0.00586221
-0.00655396
-0.00724913
-0.00794282
-0.00863035
-0.00930715
-0.00996875
-0.0106107
-0.0112287
-0.0118181
-0.0123748
-0.0128942
-0.0133719
-0.0138036
-0.0141851
-0.0145122
-0.0147811
-0.0149881
-0.01513
-0.0152038
-0.0152073
-0.0151387
-0.0149969
-0.0147814
-0.0144927
-0.0141319
-0.0137013
-0.0132038
-0.0126434
-0.012025
-0.0113543
-0.0106379
-0.00988325
-0.00909843
-0.00829214
-0.00747357
-0.00665226
-0.00583793
-0.00504038
-0.00426929
-0.00353402
-0.00284352
-0.00220605
-0.0016291
-0.00111914
-0.000681479
-0.000320026
-3.70635e-05
0.000167043
0.000294218
0.000349213
0.000340303
0.000279987
0.000186128
8.64028e-05
1.96877e-05
1.76519e-05
4.13806e-05
1.96774e-05
-8.39193e-05
-0.0002902
-0.000607916
-0.00103833
-0.00157763
-0.00221865
-0.00295219
-0.00376799
-0.00465532
-0.00560346
-0.00660195
-0.00764072
-0.00871021
-0.00980134
-0.0109055
-0.0120145
-0.0131204
-0.0142158
-0.0152932
-0.0163453
-0.0173651
-0.0183454
-0.0192793
-0.0201596
-0.0209795
-0.021732
-0.0224103
-0.023008
-0.0235187
-0.0239364
-0.0242558
-0.0244718
-0.0245803
-0.0245779
-0.0244621
-0.0242313
-0.0238853
-0.0234248
-0.0228521
-0.0221705
-0.021385
-0.0205017
-0.0195284
-0.0184739
-0.0173485
-0.0161635
-0.0149314
-0.0136655
-0.0123799
-0.0110891
-0.00980791
-0.00855126
-0.00733385
-0.00616993
-0.00507303
-0.00405571
-0.00312923
-0.00230334
-0.00158593
-0.000982738
-0.000496991
-0.000128999
0.000124309
0.000270034
0.000320032
0.000291443
0.000207505
0.000102499
2.49871e-05
8.85056e-06
-6.97756e-06
-0.00010754
-0.000322346
-0.000669646
-0.00115785
-0.0017877
-0.00255445
-0.00344952
-0.00446191
-0.00557912
-0.00678795
-0.00807498
-0.00942695
-0.010831
-0.0122746
-0.0137459
-0.0152335
-0.0167264
-0.0182141
-0.0196864
-0.0211333
-0.022545
-0.0239119
-0.0252244
-0.0264731
-0.0276486
-0.0287416
-0.029743
-0.030644
-0.031436
-0.0321107
-0.0326605
-0.0330784
-0.0333582
-0.0334946
-0.0334834
-0.0333216
-0.0330075
-0.0325409
-0.031923
-0.0311571
-0.0302478
-0.0292015
-0.0280266
-0.0267332
-0.0253328
-0.0238389
-0.0222662
-0.0206309
-0.0189502
-0.0172422
-0.0155258
-0.0138201
-0.0121444
-0.0105175
-0.0089578
-0.00748281
-0.00610864
-0.00484978
-0.00371874
-0.00272561
-0.00187774
-0.00117925
-0.0006306
-0.000228089
3.6766e-05
0.000177871
0.000214962
0.000174211
9.30796e-05
2.40385e-05
-2.11923e-06
-6.72814e-05
-0.000264119
-0.000609836
-0.00111694
-0.00179164
-0.00263294
-0.00363448
-0.00478612
-0.00607514
-0.00748719
-0.00900702
-0.010619
-0.0123076
-0.0140576
-0.015854
-0.0176825
-0.0195293
-0.021381
-0.0232247
-0.0250477
-0.0268377
-0.0285826
-0.0302706
-0.0318898
-0.0334285
-0.0348753
-0.0362189
-0.0374482
-0.0385524
-0.0395211
-0.0403446
-0.0410138
-0.0415204
-0.041857
-0.0420174
-0.041997
-0.0417922
-0.0414013
-0.0408242
-0.0400629
-0.0391212
-0.0380049
-0.036722
-0.0352826
-0.0336987
-0.0319845
-0.030156
-0.0282308
-0.0262283
-0.024169
-0.0220746
-0.0199676
-0.0178706
-0.0158068
-0.0137986
-0.011868
-0.0100358
-0.00832129
-0.00674174
-0.00531212
-0.00404458
-0.00294798
-0.00202745
-0.00128394
-0.000713684
-0.000307676
-5.11395e-05
7.68152e-05
0.000103701
6.75542e-05
1.96758e-05
-1.36942e-05
-0.000132849
-0.000435895
-0.000924811
-0.00160424
-0.00247673
-0.00353846
-0.00478072
-0.00619141
-0.00775601
-0.00945839
-0.0112815
-0.0132078
-0.0152197
-0.0173001
-0.019432
-0.0215988
-0.0237847
-0.0259741
-0.028152
-0.0303037
-0.0324146
-0.0344706
-0.0364578
-0.0383624
-0.0401707
-0.0418694
-0.0434453
-0.0448855
-0.0461777
-0.04731
-0.0482711
-0.0490506
-0.0496393
-0.0500287
-0.0502122
-0.0501842
-0.0499411
-0.049481
-0.0488042
-0.047913
-0.0468118
-0.0455077
-0.0440096
-0.0423293
-0.0404806
-0.0384796
-0.0363447
-0.034096
-0.0317555
-0.0293467
-0.0268942
-0.0244237
-0.0219611
-0.0195326
-0.017164
-0.0148803
-0.0127055
-0.0106615
-0.00876832
-0.0070432
-0.00550024
-0.00414992
-0.00299858
-0.00204802
-0.00129494
-0.000730577
-0.000340183
-0.00010279
9.24495e-06
3.25384e-05
1.363e-05
-2.51893e-05
-0.00020005
-0.000614209
-0.00125319
-0.00211252
-0.00319006
-0.00447823
-0.00596532
-0.00763682
-0.00947618
-0.0114654
-0.0135857
-0.0158178
-0.0181425
-0.0205407
-0.0229937
-0.0254832
-0.0279914
-0.0305011
-0.0329951
-0.0354569
-0.0378702
-0.040219
-0.0424875
-0.0446601
-0.0467214
-0.0486564
-0.0504502
-0.0520885
-0.0535573
-0.0548435
-0.0559345
-0.056819
-0.0574864
-0.0579277
-0.0581355
-0.0581039
-0.0578288
-0.0573084
-0.0565431
-0.0555354
-0.0542905
-0.052816
-0.0511222
-0.0492219
-0.0471305
-0.0448658
-0.042448
-0.0398994
-0.0372445
-0.0345091
-0.0317205
-0.0289071
-0.0260978
-0.0233216
-0.0206072
-0.0179825
-0.0154742
-0.013107
-0.0109033
-0.00888274
-0.00706136
-0.00545142
-0.00406077
-0.00289241
-0.00194404
-0.00120772
-0.000669489
-0.00030913
-9.97955e-05
-7.68263e-06
6.86805e-06
-3.63473e-05
-0.000267002
-0.000793938
-0.00158602
-0.00262909
-0.00391559
-0.00543355
-0.00716767
-0.00910063
-0.0112135
-0.0134865
-0.0158988
-0.0184296
-0.0210581
-0.0237637
-0.026526
-0.0293252
-0.0321418
-0.034957
-0.037752
-0.0405088
-0.0432092
-0.0458358
-0.048371
-0.0507977
-0.0530989
-0.0552581
-0.0572591
-0.059086
-0.0607236
-0.0621576
-0.0633742
-0.0643611
-0.0651069
-0.0656018
-0.0658377
-0.0658083
-0.0655093
-0.0649386
-0.0640965
-0.0629861
-0.0616126
-0.0599845
-0.0581128
-0.0560112
-0.0536964
-0.0511876
-0.0485067
-0.0456778
-0.0427272
-0.0396831
-0.0365752
-0.0334342
-0.0302916
-0.0271791
-0.0241282
-0.0211696
-0.0183324
-0.0156442
-0.0131298
-0.0108111
-0.00870646
-0.00683009
-0.00519162
-0.00379563
-0.0026413
-0.00172201
-0.00102521
-0.000532055
-0.000217177
-5.04396e-05
-7.86652e-08
-4.70716e-05
-0.00033272
-0.000972083
-0.00191769
-0.00314554
-0.00464226
-0.00639103
-0.00837256
-0.0105664
-0.012951
-0.0155043
-0.0182038
-0.0210272
-0.0239518
-0.0269558
-0.0300173
-0.0331152
-0.0362285
-0.039337
-0.0424206
-0.0454596
-0.0484348
-0.0513269
-0.0541172
-0.0567872
-0.0593184
-0.061693
-0.0638935
-0.0659027
-0.0677045
-0.0692831
-0.070624
-0.0717138
-0.0725403
-0.073093
-0.073363
-0.0733437
-0.0730302
-0.0724204
-0.0715143
-0.0703151
-0.0688283
-0.0670626
-0.0650297
-0.0627439
-0.060223
-0.0574873
-0.0545599
-0.0514666
-0.0482355
-0.0448965
-0.0414815
-0.0380236
-0.0345566
-0.0311148
-0.0277324
-0.0244425
-0.0212773
-0.0182667
-0.0154384
-0.0128166
-0.0104222
-0.00827155
-0.00637646
-0.00474347
-0.0033736
-0.00226209
-0.00139821
-0.000764992
-0.000338992
-9.41725e-05
-6.93984e-06
-5.73504e-05
-0.000396722
-0.0011469
-0.00224468
-0.0036563
-0.00536241
-0.0073411
-0.00956877
-0.0120215
-0.014675
-0.017505
-0.020487
-0.0235969
-0.0268108
-0.0301053
-0.0334574
-0.0368445
-0.0402446
-0.0436362
-0.0469979
-0.0503089
-0.0535486
-0.0566967
-0.0597332
-0.0626381
-0.0653921
-0.067976
-0.0703712
-0.0725594
-0.0745234
-0.0762464
-0.0777129
-0.0789086
-0.0798206
-0.0804375
-0.0807498
-0.0807502
-0.0804334
-0.0797969
-0.0788405
-0.0775671
-0.0759822
-0.0740948
-0.0719167
-0.0694629
-0.0667516
-0.0638042
-0.0606448
-0.0573004
-0.0538006
-0.0501773
-0.0464641
-0.0426963
-0.0389101
-0.0351422
-0.0314294
-0.0278077
-0.0243117
-0.0209745
-0.0178263
-0.0148943
-0.0122019
-0.00976802
-0.00760693
-0.00572754
-0.00413312
-0.00282111
-0.00178301
-0.00100407
-0.000463026
-0.000138064
-1.35995e-05
-6.72011e-05
-0.000458782
-0.0013174
-0.00256476
-0.00415764
-0.0060707
-0.0082768
-0.0107479
-0.0134565
-0.0163753
-0.0194776
-0.022737
-0.0261277
-0.0296243
-0.033202
-0.0368368
-0.0405049
-0.0441833
-0.0478492
-0.0514804
-0.0550549
-0.0585511
-0.0619477
-0.0652234
-0.0683575
-0.0713294
-0.074119
-0.0767065
-0.0790728
-0.0811995
-0.083069
-0.084665
-0.0859721
-0.0869765
-0.0876661
-0.0880308
-0.0880624
-0.0877551
-0.0871056
-0.0861135
-0.0847812
-0.083114
-0.0811208
-0.0788133
-0.0762069
-0.0733201
-0.0701748
-0.0667961
-0.063212
-0.0594534
-0.0555538
-0.0515485
-0.047475
-0.0433717
-0.0392778
-0.0352327
-0.0312753
-0.0274433
-0.0237725
-0.0202963
-0.0170448
-0.0140444
-0.0113171
-0.00887978
-0.00674419
-0.00491619
-0.00339575
-0.00217694
-0.00124742
-0.000588265
-0.000181786
-2.00312e-05
-7.66477e-05
-0.000518794
-0.00148296
-0.0028765
-0.00464701
-0.00676332
-0.00919303
-0.0119036
-0.0148637
-0.0180433
-0.0214129
-0.0249443
-0.0286097
-0.0323825
-0.0362367
-0.040147
-0.0440887
-0.0480377
-0.0519705
-0.0558638
-0.0596949
-0.0634412
-0.0670804
-0.0705905
-0.0739498
-0.0771368
-0.0801304
-0.08291
-0.0854556
-0.0877478
-0.0897683
-0.0914995
-0.0929255
-0.0940314
-0.0948043
-0.0952332
-0.0953091
-0.0950254
-0.0943781
-0.0933661
-0.0919911
-0.0902581
-0.0881753
-0.0857544
-0.0830107
-0.0799627
-0.0766328
-0.0730465
-0.0692327
-0.0652236
-0.0610538
-0.0567606
-0.0523833
-0.0479626
-0.0435404
-0.0391587
-0.0348594
-0.0306834
-0.0266697
-0.022855
-0.0192729
-0.015953
-0.0129206
-0.0101959
-0.00779353
-0.00572244
-0.00398547
-0.00257946
-0.00149468
-0.000714552
-0.00022534
-2.62612e-05
-8.57117e-05
-0.000576708
-0.00164322
-0.0031789
-0.0051226
-0.00743743
-0.0100858
-0.0130308
-0.0162373
-0.0196721
-0.0233034
-0.0271007
-0.0310346
-0.0350771
-0.039201
-0.0433798
-0.0475881
-0.051801
-0.055994
-0.0601432
-0.064225
-0.0682162
-0.0720937
-0.0758348
-0.0794168
-0.0828177
-0.0860156
-0.0889889
-0.0917168
-0.0941792
-0.0963567
-0.098231
-0.0997851
-0.101003
-0.101872
-0.102379
-0.102513
-0.102269
-0.10164
-0.100625
-0.0992251
-0.0974435
-0.0952882
-0.0927703
-0.0899048
-0.08671
-0.0832084
-0.0794258
-0.0753918
-0.0711393
-0.0667045
-0.0621261
-0.0574453
-0.0527053
-0.0479505
-0.0432259
-0.0385765
-0.0340465
-0.0296786
-0.0255132
-0.0215874
-0.0179348
-0.0145841
-0.0115594
-0.00887861
-0.00655408
-0.00459181
-0.00299164
-0.00174657
-0.000842333
-0.000268946
-3.23482e-05
-9.44085e-05
-0.000632486
-0.00179789
-0.00347123
-0.00558299
-0.0080908
-0.0109521
-0.0141254
-0.0175721
-0.0212559
-0.0251423
-0.0291989
-0.0333946
-0.0377
-0.0420867
-0.0465274
-0.0509957
-0.055466
-0.0599131
-0.0643126
-0.0686402
-0.0728721
-0.0769845
-0.0809542
-0.084758
-0.088373
-0.0917765
-0.0949465
-0.0978613
-0.1005
-0.102842
-0.104869
-0.106562
-0.107905
-0.108883
-0.109482
-0.109693
-0.109505
-0.108912
-0.107913
-0.106506
-0.104694
-0.102484
-0.0998861
-0.096915
-0.0935883
-0.0899282
-0.0859607
-0.0817157
-0.0772269
-0.0725315
-0.0676699
-0.0626852
-0.0576228
-0.0525298
-0.0474544
-0.042445
-0.0375494
-0.0328142
-0.0282839
-0.0239997
-0.0199994
-0.0163158
-0.0129769
-0.0100048
-0.0074153
-0.00521793
-0.00341575
-0.0020046
-0.000972487
-0.000312977
-3.83702e-05
-0.000102746
-0.000686084
-0.00194672
-0.00375284
-0.00602699
-0.00872153
-0.0117891
-0.0151839
-0.0188638
-0.0227893
-0.0269236
-0.0312323
-0.0356826
-0.0402437
-0.0448861
-0.0495818
-0.0543035
-0.0590249
-0.0637204
-0.068365
-0.072934
-0.077403
-0.0817479
-0.0859447
-0.08997
-0.0938001
-0.097412
-0.100783
-0.10389
-0.106712
-0.109228
-0.111418
-0.113262
-0.114744
-0.115846
-0.116555
-0.116858
-0.116745
-0.116208
-0.115243
-0.113849
-0.112026
-0.109781
-0.107122
-0.104062
-0.100619
-0.0968148
-0.0926744
-0.0882281
-0.0835102
-0.0785589
-0.0734158
-0.0681262
-0.0627376
-0.0573002
-0.0518652
-0.0464847
-0.0412105
-0.0360935
-0.0311825
-0.0265235
-0.0221588
-0.018126
-0.0144573
-0.0111793
-0.00831183
-0.00586821
-0.00385497
-0.00227088
-0.00110619
-0.000357903
-4.44173e-05
-0.000110723
-0.000737441
-0.00208945
-0.00402313
-0.00645349
-0.00932789
-0.0125943
-0.016203
-0.0201081
-0.0242675
-0.0286418
-0.0331946
-0.0378916
-0.0427007
-0.0475915
-0.0525349
-0.0575032
-0.0624695
-0.0674077
-0.0722924
-0.0770986
-0.0818014
-0.0863766
-0.0907997
-0.0950467
-0.0990937
-0.102917
-0.106493
-0.1098
-0.112814
-0.115513
-0.117877
-0.119886
-0.121521
-0.122764
-0.123599
-0.124013
-0.123995
-0.123534
-0.122625
-0.121264
-0.119452
-0.117192
-0.114491
-0.111361
-0.10782
-0.103886
-0.0995856
-0.0949487
-0.0900098
-0.0848077
-0.0793856
-0.0737903
-0.0680719
-0.0622833
-0.0564793
-0.0507159
-0.0450491
-0.0395345
-0.0342258
-0.0291741
-0.0244268
-0.0200265
-0.0160107
-0.0124106
-0.00925051
-0.00654794
-0.00431312
-0.0025479
-0.00124485
-0.000404267
-5.05873e-05
-0.000118335
-0.000786474
-0.0022258
-0.00428148
-0.00686138
-0.00990817
-0.0133655
-0.0171796
-0.0213013
-0.0256857
-0.0302913
-0.0350795
-0.0400147
-0.0450636
-0.0501947
-0.0553783
-0.0605861
-0.0657907
-0.0709658
-0.0760855
-0.0811247
-0.0860582
-0.0908615
-0.09551
-0.0999794
-0.104245
-0.108284
-0.112071
-0.115583
-0.118797
-0.121691
-0.124241
-0.126428
-0.128232
-0.129632
-0.130613
-0.131158
-0.131255
-0.130892
-0.13006
-0.128756
-0.126976
-0.124722
-0.122001
-0.118822
-0.1152
-0.111154
-0.106708
-0.101893
-0.0967424
-0.0912961
-0.0855982
-0.0796972
-0.0736459
-0.0674998
-0.0613175
-0.055159
-0.049085
-0.0431562
-0.0374315
-0.0319678
-0.026818
-0.0220306
-0.0176485
-0.0137082
-0.010239
-0.00726305
-0.00479448
-0.0028385
-0.00139
-0.000452659
-5.69823e-05
-0.000125568
-0.000833079
-0.00235543
-0.0045272
-0.00724954
-0.0104607
-0.0141002
-0.0181105
-0.0224395
-0.0270394
-0.0318667
-0.0368809
-0.0420451
-0.0473248
-0.0526876
-0.0581033
-0.0635429
-0.0689788
-0.0743845
-0.0797338
-0.0850014
-0.0901622
-0.0951915
-0.100064
-0.104757
-0.109243
-0.1135
-0.117503
-0.121228
-0.124652
-0.127749
-0.130499
-0.132878
-0.134866
-0.136441
-0.137586
-0.138283
-0.138516
-0.138273
-0.137543
-0.136318
-0.134595
-0.132372
-0.129653
-0.126446
-0.122764
-0.118624
-0.11405
-0.109071
-0.10372
-0.0980378
-0.092069
-0.0858641
-0.0794776
-0.0729686
-0.0663991
-0.0598335
-0.0533376
-0.0469773
-0.0408176
-0.0349214
-0.029348
-0.0241521
-0.0193827
-0.0150823
-0.0112857
-0.00801996
-0.00530371
-0.00314569
-0.0015433
-0.000503698
-6.37074e-05
-0.000132404
-0.000877128
-0.00247797
-0.00475957
-0.00761677
-0.0109837
-0.014796
-0.0189927
-0.0235188
-0.0283239
-0.0333625
-0.0385926
-0.0439757
-0.0494764
-0.0550617
-0.0607005
-0.0663637
-0.0720233
-0.0776526
-0.0832255
-0.0887166
-0.0941007
-0.099353
-0.104449
-0.109364
-0.114073
-0.118552
-0.122775
-0.12672
-0.13036
-0.133673
-0.136633
-0.139219
-0.141406
-0.143175
-0.144503
-0.145372
-0.145764
-0.145664
-0.14506
-0.14394
-0.142298
-0.14013
-0.137439
-0.134228
-0.130509
-0.126297
-0.121614
-0.116487
-0.11095
-0.105042
-0.0988095
-0.0923039
-0.0855822
-0.0787061
-0.0717416
-0.0647577
-0.0578252
-0.0510162
-0.044402
-0.0380519
-0.0320324
-0.026405
-0.0212258
-0.0165435
-0.0123992
-0.00882539
-0.00584566
-0.00347264
-0.00170646
-0.000558026
-7.08693e-05
-0.000138822
-0.00091848
-0.00259303
-0.00497781
-0.00796181
-0.0114753
-0.0154504
-0.019823
-0.0245352
-0.0295345
-0.0347733
-0.0402081
-0.0457993
-0.0515105
-0.057308
-0.0631603
-0.0690379
-0.0749128
-0.080758
-0.0865476
-0.0922563
-0.0978589
-0.103331
-0.108647
-0.113784
-0.118716
-0.123419
-0.127867
-0.132037
-0.135902
-0.139439
-0.142622
-0.145427
-0.147831
-0.149809
-0.15134
-0.152402
-0.152975
-0.153043
-0.152588
-0.151599
-0.150065
-0.147981
-0.145343
-0.142155
-0.138424
-0.134163
-0.129393
-0.124138
-0.118431
-0.112312
-0.105825
-0.0990254
-0.0919705
-0.0847254
-0.0773599
-0.0699475
-0.062565
-0.0552903
-0.0482017
-0.0413759
-0.0348868
-0.0288039
-0.0231904
-0.0181026
-0.0135883
-0.00968626
-0.00642534
-0.0038226
-0.00188125
-0.000616299
-7.85756e-05
-0.000144796
-0.000956973
-0.00270016
-0.00518109
-0.00828335
-0.0119337
-0.016061
-0.0205982
-0.0254848
-0.0306663
-0.0360933
-0.041721
-0.0475085
-0.0534187
-0.0594173
-0.0654724
-0.0715544
-0.077635
-0.0836875
-0.089686
-0.0956053
-0.101421
-0.107107
-0.112641
-0.117998
-0.123152
-0.12808
-0.132756
-0.137155
-0.141252
-0.145022
-0.148438
-0.151475
-0.154109
-0.156314
-0.158066
-0.159342
-0.160119
-0.160378
-0.1601
-0.159268
-0.15787
-0.155897
-0.153341
-0.150204
-0.146489
-0.142207
-0.137374
-0.132014
-0.126158
-0.119843
-0.113117
-0.106032
-0.0986489
-0.0910355
-0.0832652
-0.0754164
-0.0675714
-0.059815
-0.0522326
-0.0449091
-0.0379264
-0.0313625
-0.0252891
-0.0197705
-0.0148621
-0.0106096
-0.00704783
-0.00419889
-0.00206946
-0.000679181
-8.69348e-05
-0.000150298
-0.000992438
-0.0027989
-0.00536855
-0.00858005
-0.012357
-0.0166252
-0.021315
-0.0263637
-0.0317146
-0.037317
-0.0431246
-0.0490958
-0.0551926
-0.0613801
-0.0676264
-0.0739014
-0.0801773
-0.0864272
-0.0926255
-0.0987472
-0.104768
-0.110664
-0.11641
-0.121983
-0.127358
-0.13251
-0.137415
-0.142047
-0.14638
-0.150389
-0.154048
-0.157329
-0.160206
-0.162653
-0.164644
-0.166153
-0.167157
-0.167631
-0.167555
-0.166908
-0.165675
-0.163842
-0.1614
-0.158344
-0.154676
-0.150401
-0.145534
-0.140096
-0.134114
-0.127626
-0.120676
-0.11332
-0.105618
-0.0976404
-0.0894647
-0.081174
-0.0728564
-0.0646036
-0.056509
-0.0486659
-0.0411653
-0.0340944
-0.0275341
-0.0215579
-0.0162295
-0.0116023
-0.00771823
-0.00460484
-0.00227289
-0.000747339
-9.60557e-05
-0.000155297
-0.0010247
-0.00288879
-0.00553932
-0.00885054
-0.0127432
-0.0171405
-0.0219702
-0.0271677
-0.0326746
-0.0384386
-0.0444125
-0.0505536
-0.0568234
-0.0631867
-0.0696112
-0.0760671
-0.0825262
-0.0889623
-0.0953498
-0.101664
-0.107882
-0.113978
-0.119931
-0.125714
-0.131306
-0.13668
-0.141813
-0.146679
-0.151252
-0.155506
-0.159413
-0.162947
-0.166079
-0.168783
-0.171029
-0.172791
-0.174041
-0.174754
-0.174905
-0.174471
-0.173432
-0.171771
-0.169474
-0.166533
-0.162944
-0.158711
-0.153842
-0.148355
-0.142276
-0.135639
-0.128489
-0.120879
-0.112871
-0.104538
-0.0959604
-0.0872255
-0.078428
-0.0696665
-0.0610428
-0.0526591
-0.0446165
-0.0370121
-0.0299371
-0.023475
-0.0176991
-0.0126714
-0.0084416
-0.00504377
-0.00249337
-0.000821446
-0.000106048
-0.000159765
-0.00105359
-0.00296936
-0.00569255
-0.0090935
-0.0130905
-0.0176043
-0.0225606
-0.0278929
-0.0335415
-0.0394525
-0.045578
-0.0518744
-0.0583026
-0.0648273
-0.071416
-0.0780388
-0.0846681
-0.0912775
-0.0978422
-0.104338
-0.110742
-0.11703
-0.123179
-0.129166
-0.134968
-0.140561
-0.145918
-0.151017
-0.15583
-0.160331
-0.164492
-0.168285
-0.171682
-0.174653
-0.17717
-0.179201
-0.180718
-0.181692
-0.182095
-0.181901
-0.181086
-0.179629
-0.177511
-0.174719
-0.171245
-0.167088
-0.162253
-0.156753
-0.150609
-0.143855
-0.136531
-0.12869
-0.120395
-0.11172
-0.102748
-0.0935713
-0.08429
-0.0750105
-0.0658428
-0.0568993
-0.0482912
-0.0401269
-0.032509
-0.0255318
-0.0192793
-0.0138235
-0.00922294
-0.00551898
-0.00273269
-0.000902174
-0.000117023
-0.000163672
-0.00107893
-0.00304017
-0.00582742
-0.00930766
-0.013397
-0.0180142
-0.0230832
-0.0285357
-0.0343107
-0.0403534
-0.0466148
-0.0530507
-0.0596218
-0.0662923
-0.0730297
-0.0798044
-0.0865888
-0.0933572
-0.100085
-0.106749
-0.113326
-0.119794
-0.12613
-0.132311
-0.138315
-0.144117
-0.149694
-0.155021
-0.160072
-0.164819
-0.169236
-0.173293
-0.176961
-0.18021
-0.183008
-0.185323
-0.187125
-0.188381
-0.18906
-0.189133
-0.188571
-0.187349
-0.185444
-0.182838
-0.179518
-0.175477
-0.170714
-0.165239
-0.15907
-0.152233
-0.144768
-0.136726
-0.128168
-0.11917
-0.109817
-0.100205
-0.0904412
-0.0806379
-0.0709148
-0.0613941
-0.0521987
-0.0434488
-0.0352594
-0.0277372
-0.0209781
-0.0150652
-0.0100671
-0.00603372
-0.00299263
-0.000990194
-0.000129091
-0.000166991
-0.00110056
-0.00310081
-0.00594317
-0.00949186
-0.0136612
-0.0183682
-0.0235352
-0.0290926
-0.0349782
-0.0411362
-0.0475168
-0.0540756
-0.0607726
-0.067572
-0.0744414
-0.0813513
-0.0882745
-0.0951857
-0.102061
-0.108878
-0.115614
-0.122247
-0.128756
-0.135118
-0.141312
-0.147315
-0.153103
-0.15865
-0.163933
-0.168924
-0.173595
-0.177916
-0.181859
-0.185391
-0.188479
-0.191091
-0.193192
-0.194748
-0.195725
-0.19609
-0.195811
-0.194856
-0.1932
-0.190817
-0.187691
-0.183807
-0.17916
-0.173754
-0.1676
-0.160722
-0.153155
-0.144947
-0.136158
-0.126862
-0.117148
-0.107115
-0.0968741
-0.0865463
-0.07626
-0.0661482
-0.0563457
-0.0469858
-0.0381969
-0.0300996
-0.0228029
-0.0164026
-0.0109788
-0.00659115
-0.00327498
-0.00108618
-0.000142366
-0.000169697
-0.00111836
-0.00315091
-0.00603916
-0.00964506
-0.0138815
-0.0186642
-0.023914
-0.0295603
-0.0355399
-0.0417961
-0.0482786
-0.0549424
-0.0617474
-0.0686577
-0.0756409
-0.0826678
-0.0897116
-0.0967476
-0.103753
-0.110704
-0.117582
-0.124364
-0.13103
-0.137558
-0.143929
-0.150118
-0.156104
-0.161862
-0.167368
-0.172594
-0.177514
-0.182097
-0.186313
-0.190131
-0.193515
-0.196431
-0.198844
-0.200717
-0.202011
-0.202692
-0.202722
-0.202066
-0.200693
-0.198572
-0.195681
-0.191998
-0.187514
-0.182223
-0.176133
-0.169261
-0.161637
-0.153305
-0.144322
-0.134763
-0.124714
-0.11428
-0.103575
-0.0927274
-0.0818751
-0.0711621
-0.0607358
-0.0507434
-0.0413283
-0.032626
-0.0247604
-0.0178415
-0.0119625
-0.00719437
-0.00358146
-0.00119079
-0.000156964
-0.000171771
-0.00113221
-0.00319019
-0.00611483
-0.00976646
-0.0140569
-0.0189006
-0.0242177
-0.0299364
-0.0359926
-0.0423292
-0.0488952
-0.0556453
-0.0625392
-0.0695408
-0.0766182
-0.0837423
-0.0908869
-0.0980278
-0.105142
-0.11221
-0.119209
-0.126121
-0.132925
-0.139601
-0.146129
-0.152489
-0.158657
-0.164611
-0.170327
-0.175778
-0.180937
-0.185774
-0.19026
-0.194361
-0.198042
-0.201268
-0.204001
-0.206202
-0.20783
-0.208847
-0.209211
-0.208884
-0.207828
-0.206009
-0.203394
-0.19996
-0.195686
-0.190563
-0.184589
-0.177775
-0.170146
-0.161739
-0.152609
-0.142826
-0.132478
-0.12167
-0.110521
-0.0991662
-0.0877514
-0.0764321
-0.0653693
-0.054725
-0.0446586
-0.0353222
-0.0268564
-0.0193872
-0.0130225
-0.00784632
-0.00391377
-0.00130471
-0.000173001
-0.000173196
-0.00114202
-0.00321845
-0.00616984
-0.00985546
-0.0141864
-0.0190764
-0.0244446
-0.0302187
-0.0363338
-0.0427322
-0.0493625
-0.0561792
-0.0631417
-0.0702141
-0.0773646
-0.0845646
-0.0917883
-0.0990121
-0.106214
-0.113375
-0.120474
-0.127493
-0.134413
-0.141216
-0.147882
-0.154391
-0.160722
-0.166853
-0.172761
-0.178421
-0.183806
-0.188886
-0.193632
-0.19801
-0.201985
-0.20552
-0.208577
-0.211114
-0.21309
-0.21446
-0.215181
-0.21521
-0.214504
-0.213023
-0.210729
-0.207589
-0.203577
-0.198675
-0.192875
-0.186177
-0.178601
-0.170176
-0.160952
-0.150996
-0.140393
-0.129248
-0.117684
-0.105841
-0.0938737
-0.0819494
-0.0702422
-0.0589303
-0.0481903
-0.0381925
-0.0290958
-0.0210442
-0.0141625
-0.00854981
-0.00427357
-0.00142857
-0.000190596
-0.000173966
-0.00114776
-0.00323558
-0.006204
-0.00991181
-0.0142697
-0.0191909
-0.024594
-0.030406
-0.0365616
-0.0430027
-0.0496774
-0.05654
-0.0635499
-0.0706713
-0.0778726
-0.0851255
-0.0924048
-0.0996877
-0.106953
-0.114183
-0.121357
-0.128458
-0.13547
-0.142374
-0.149153
-0.155787
-0.162258
-0.168544
-0.174623
-0.180472
-0.186063
-0.19137
-0.196362
-0.201005
-0.205266
-0.209106
-0.212485
-0.215362
-0.217692
-0.219429
-0.220527
-0.220936
-0.22061
-0.219503
-0.217571
-0.214774
-0.211077
-0.206454
-0.200887
-0.194369
-0.18691
-0.178531
-0.169276
-0.159205
-0.148399
-0.136964
-0.125023
-0.11272
-0.10022
-0.0876992
-0.0753463
-0.063356
-0.0519236
-0.0412392
-0.0314821
-0.0228164
-0.0153861
-0.00930746
-0.00466244
-0.00156304
-0.000209872
-0.000174079
-0.00114944
-0.00324163
-0.00621738
-0.00993556
-0.0143068
-0.019244
-0.0246655
-0.0304978
-0.0366754
-0.0431394
-0.049838
-0.0567252
-0.0637603
-0.0709077
-0.0781359
-0.0854172
-0.092727
-0.100043
-0.107346
-0.114617
-0.121839
-0.128995
-0.13607
-0.143048
-0.149911
-0.156643
-0.163226
-0.16964
-0.175865
-0.181877
-0.187653
-0.193164
-0.198382
-0.203274
-0.207807
-0.211941
-0.215637
-0.218852
-0.22154
-0.223652
-0.225139
-0.22595
-0.226031
-0.225332
-0.223802
-0.221394
-0.218066
-0.21378
-0.20851
-0.20224
-0.194968
-0.186707
-0.17749
-0.167372
-0.156428
-0.144759
-0.132489
-0.119767
-0.106761
-0.0936605
-0.0806678
-0.0679944
-0.0558554
-0.0444625
-0.0340175
-0.0247068
-0.0166962
-0.0101216
-0.00508187
-0.00170875
-0.000230953
-0.000173546
-0.00114713
-0.00323677
-0.00621032
-0.00992723
-0.0142983
-0.0192365
-0.02466
-0.030495
-0.0366754
-0.0431425
-0.0498439
-0.0567335
-0.0637707
-0.07092
-0.0781502
-0.085434
-0.0927474
-0.100069
-0.107381
-0.114664
-0.121904
-0.129085
-0.136192
-0.143212
-0.150128
-0.156927
-0.16359
-0.170102
-0.176441
-0.182588
-0.188519
-0.194208
-0.199628
-0.204747
-0.209532
-0.213945
-0.217945
-0.22149
-0.224533
-0.227024
-0.22891
-0.230136
-0.230648
-0.230387
-0.229297
-0.227323
-0.224415
-0.220527
-0.21562
-0.209669
-0.202659
-0.194594
-0.185495
-0.175406
-0.164396
-0.152561
-0.140023
-0.12693
-0.113458
-0.0998053
-0.0861872
-0.0728333
-0.0599794
-0.0478603
-0.0367025
-0.0267174
-0.0180953
-0.0109945
-0.00553327
-0.00186631
-0.000253964
-0.000172384
-0.00114094
-0.00322136
-0.00618345
-0.00988776
-0.0142455
-0.01917
-0.0245792
-0.0303991
-0.0365636
-0.0430135
-0.0496963
-0.0565657
-0.0635811
-0.0707073
-0.0779132
-0.0851722
-0.0924609
-0.099759
-0.107048
-0.114313
-0.121538
-0.128711
-0.135817
-0.142844
-0.149779
-0.156608
-0.163318
-0.169891
-0.17631
-0.182558
-0.188611
-0.194447
-0.200038
-0.205356
-0.210368
-0.215037
-0.219324
-0.223186
-0.226575
-0.22944
-0.231728
-0.233381
-0.23434
-0.234543
-0.233926
-0.232429
-0.229992
-0.22656
-0.222084
-0.216525
-0.209858
-0.202071
-0.193175
-0.183202
-0.172211
-0.160289
-0.147553
-0.134153
-0.120265
-0.106098
-0.0918788
-0.0778555
-0.0642852
-0.0514275
-0.0395358
-0.028849
-0.019585
-0.0119277
-0.00601791
-0.00203632
-0.000279034
-0.000170625
-0.00113108
-0.00319594
-0.00613778
-0.00981866
-0.0141505
-0.0190469
-0.0244259
-0.0302134
-0.0363431
-0.0427556
-0.049398
-0.0562242
-0.0631935
-0.0702706
-0.0774251
-0.0846307
-0.0918648
-0.0991079
-0.106343
-0.113555
-0.120731
-0.127859
-0.134928
-0.141925
-0.148841
-0.155662
-0.162378
-0.168974
-0.175435
-0.181745
-0.187883
-0.193828
-0.199556
-0.20504
-0.210248
-0.215145
-0.219694
-0.223852
-0.227572
-0.230802
-0.233489
-0.235572
-0.236989
-0.237675
-0.23756
-0.236578
-0.23466
-0.231741
-0.227761
-0.22267
-0.216427
-0.209008
-0.200408
-0.190645
-0.179766
-0.167847
-0.154998
-0.141365
-0.127126
-0.112494
-0.0977097
-0.0830381
-0.0687583
-0.055156
-0.0425137
-0.031101
-0.0211663
-0.0129228
-0.00653692
-0.00221934
-0.000306292
-0.000168312
-0.00111783
-0.00316125
-0.00607467
-0.00972203
-0.0140161
-0.0188707
-0.0242043
-0.0299426
-0.036019
-0.0423739
-0.0489543
-0.0557139
-0.062612
-0.0696136
-0.0766886
-0.0838111
-0.0909594
-0.0981148
-0.105261
-0.112386
-0.119476
-0.126522
-0.133513
-0.14044
-0.147295
-0.154068
-0.160748
-0.167325
-0.173785
-0.180113
-0.186294
-0.192307
-0.198132
-0.203742
-0.20911
-0.214202
-0.218982
-0.223409
-0.227437
-0.231016
-0.234091
-0.236601
-0.238481
-0.239662
-0.240072
-0.239637
-0.23828
-0.235928
-0.232509
-0.227959
-0.222224
-0.215264
-0.207058
-0.197608
-0.186944
-0.17513
-0.162264
-0.148486
-0.133972
-0.11894
-0.10364
-0.088352
-0.0733791
-0.059034
-0.0456303
-0.0334711
-0.0228393
-0.0139807
-0.00709124
-0.00241589
-0.00033587
-0.000165505
-0.00110155
-0.0031183
-0.00599595
-0.00960061
-0.0138459
-0.0186462
-0.0239199
-0.0295928
-0.035598
-0.0418756
-0.0483724
-0.055042
-0.0618437
-0.0687427
-0.0757092
-0.082718
-0.0897481
-0.0967817
-0.103804
-0.110803
-0.117769
-0.124692
-0.131565
-0.13838
-0.145131
-0.15181
-0.158409
-0.16492
-0.171332
-0.177633
-0.18381
-0.189846
-0.195722
-0.201416
-0.206901
-0.212148
-0.217123
-0.221786
-0.226094
-0.229997
-0.233442
-0.236367
-0.238706
-0.240389
-0.241339
-0.241476
-0.240718
-0.238981
-0.236183
-0.232246
-0.227103
-0.220695
-0.212984
-0.203955
-0.193618
-0.18202
-0.169247
-0.155426
-0.14073
-0.125375
-0.10962
-0.0937617
-0.0781231
-0.0630459
-0.0488768
-0.0359556
-0.024603
-0.0151016
-0.00768163
-0.00262646
-0.000367897
-0.000162277
-0.0010827
-0.00306833
-0.00590393
-0.0094579
-0.0136447
-0.0183792
-0.0235798
-0.0291721
-0.035089
-0.0412701
-0.0476622
-0.0542184
-0.0608983
-0.0676672
-0.0744957
-0.0813593
-0.0882377
-0.0951143
-0.101976
-0.108811
-0.115611
-0.12237
-0.129081
-0.135739
-0.14234
-0.148878
-0.155348
-0.161744
-0.168059
-0.174284
-0.180407
-0.186416
-0.192294
-0.198023
-0.203579
-0.208936
-0.214062
-0.218922
-0.223474
-0.227671
-0.23146
-0.234781
-0.237568
-0.23975
-0.241246
-0.241973
-0.241842
-0.240762
-0.238639
-0.235384
-0.230913
-0.225151
-0.218039
-0.209542
-0.199651
-0.188392
-0.175831
-0.162083
-0.14731
-0.131726
-0.115595
-0.0992244
-0.0829601
-0.0671719
-0.0522416
-0.0385485
-0.0264551
-0.0162856
-0.00830858
-0.00285146
-0.000402503
-0.000158719
-0.00106186
-0.0030129
-0.00580143
-0.0092982
-0.0134184
-0.0180772
-0.0231928
-0.0286906
-0.034503
-0.0405693
-0.0468359
-0.0532558
-0.0597885
-0.0663996
-0.0730602
-0.0797464
-0.0864389
-0.0931221
-0.0997839
-0.106415
-0.113008
-0.119559
-0.126063
-0.132517
-0.13892
-0.145268
-0.151559
-0.15779
-0.163956
-0.170051
-0.176068
-0.181997
-0.187824
-0.193536
-0.199111
-0.204528
-0.209758
-0.214769
-0.219523
-0.223976
-0.228076