/*--------------------------------*- C++ -*----------------------------------*\
  =========                 |
  \\      /  F ield         | OpenFOAM: The Open Source CFD Toolbox
   \\    /   O peration     | Website:  https://openfoam.org
    \\  /    A nd           | Version:  dev
     \\/     M anipulation  |
\*---------------------------------------------------------------------------*/
FoamFile
{
    format      ascii;
    class       volScalarField;
    location    "41.85";
    object      Uy;
}
// * * * * * * * * * * * * * * * * * * * * * * * * * * * * * * * * * * * * * //

dimensions      [0 1 -1 0 0 0 0];

internalField   nonuniform List<scalar> 
5184
(
-1.26969e-05
-2.08863e-05
-1.72498e-05
-8.19888e-06
2.66728e-06
1.3618e-05
2.38485e-05
3.30537e-05
4.11137e-05
4.80342e-05
5.38769e-05
5.87268e-05
6.26761e-05
6.5816e-05
6.82313e-05
6.99976e-05
7.11792e-05
7.18287e-05
7.19866e-05
7.16826e-05
7.09362e-05
6.97577e-05
6.81502e-05
6.61106e-05
6.36318e-05
6.07039e-05
5.73165e-05
5.34598e-05
4.91267e-05
4.43143e-05
3.90251e-05
3.32685e-05
2.70615e-05
2.04302e-05
1.34103e-05
6.04743e-06
-1.60217e-06
-9.47203e-06
-1.74856e-05
-2.55569e-05
-3.35915e-05
-4.14879e-05
-4.91388e-05
-5.64331e-05
-6.32583e-05
-6.95023e-05
-7.50563e-05
-7.98174e-05
-8.3691e-05
-8.65933e-05
-8.84537e-05
-8.92171e-05
-8.8845e-05
-8.73179e-05
-8.46353e-05
-8.08167e-05
-7.59014e-05
-6.99481e-05
-6.30347e-05
-5.52572e-05
-4.67297e-05
-3.75853e-05
-2.79789e-05
-1.8093e-05
-8.15319e-06
1.54578e-06
1.05793e-05
1.83104e-05
2.37266e-05
2.51357e-05
1.98524e-05
6.24326e-06
-4.58799e-05
-6.57221e-05
-4.05732e-05
7.62508e-06
6.56806e-05
0.000126008
0.000184327
0.00023839
0.000287054
0.000329877
0.00036682
0.000398071
0.000423943
0.000444802
0.000461025
0.000472972
0.000480965
0.00048528
0.000486141
0.000483717
0.000478132
0.000469461
0.000457743
0.000442987
0.000425182
0.000404304
0.000380328
0.000353237
0.000323032
0.00028974
0.000253421
0.000214178
0.000172162
0.000127574
8.06758e-05
3.17853e-05
-1.87181e-05
-7.0396e-05
-0.000122753
-0.000175242
-0.000227267
-0.000278198
-0.000327372
-0.00037411
-0.000417727
-0.000457549
-0.000492921
-0.00052323
-0.000547914
-0.000566479
-0.000578512
-0.000583694
-0.000581807
-0.000572751
-0.000556539
-0.000533312
-0.000503334
-0.000466993
-0.000424806
-0.000377412
-0.000325581
-0.000270218
-0.000212385
-0.000153333
-9.45751e-05
-3.79884e-05
1.39639e-05
5.79767e-05
8.94562e-05
0.000101904
8.65504e-05
3.64972e-05
-8.13353e-05
-9.50753e-05
-1.91682e-05
0.000105921
0.000254677
0.000410654
0.000563534
0.000707177
0.000838132
0.000954691
0.00105626
0.00114293
0.00121521
0.00127383
0.00131962
0.0013534
0.00137593
0.00138789
0.00138985
0.00138225
0.00136541
0.00133956
0.00130483
0.00126128
0.00120892
0.00114774
0.00107773
0.000998911
0.000911337
0.000815151
0.000710585
0.000597984
0.000477823
0.000350716
0.00021743
7.88876e-05
-6.38293e-05
-0.000209485
-0.000356695
-0.000503943
-0.000649591
-0.000791906
-0.000929085
-0.00105928
-0.00118065
-0.00129137
-0.00138968
-0.00147394
-0.00154265
-0.00159449
-0.00162836
-0.00164343
-0.00163913
-0.00161521
-0.00157173
-0.00150909
-0.00142806
-0.00132971
-0.00121552
-0.00108727
-0.000947147
-0.000797722
-0.000642
-0.000483515
-0.000326467
-0.000175947
-3.8273e-05
7.85351e-05
0.000164179
0.000205491
0.000186356
9.04233e-05
-9.77898e-05
-7.32115e-05
8.47439e-05
0.000318375
0.000590174
0.00087451
0.00115434
0.00141889
0.00166166
0.00187913
0.00206973
0.00223322
0.00237016
0.00248158
0.00256875
0.00263301
0.00267564
0.00269779
0.00270044
0.00268437
0.0026502
0.00259834
0.00252906
0.00244253
0.00233882
0.00221797
0.00208005
0.00192515
0.0017535
0.00156543
0.00136148
0.00114237
0.000909089
0.000662872
0.000405233
0.000137975
-0.000136812
-0.000416757
-0.000699224
-0.000981333
-0.00126
-0.00153196
-0.00179384
-0.00204219
-0.00227357
-0.00248459
-0.00267201
-0.00283276
-0.00296407
-0.00306352
-0.0031291
-0.00315924
-0.00315295
-0.00310975
-0.00302981
-0.00291391
-0.00276348
-0.00258063
-0.00236811
-0.00212938
-0.00186859
-0.00159063
-0.00130124
-0.00100708
-0.000715962
-0.000437176
-0.000181863
3.63611e-05
0.000200774
0.000290982
0.000282683
0.000147338
-8.44646e-05
2.08289e-05
0.000295435
0.0006681
0.001091
0.00153022
0.0019623
0.00237176
0.00274888
0.00308801
0.00338638
0.00364318
0.00385885
0.00403465
0.00417223
0.00427341
0.00433999
0.00437361
0.00437571
0.00434743
0.00428971
0.0042032
0.00408835
0.00394547
0.00377474
0.00357633
0.0033504
0.00309726
0.00281732
0.00251127
0.00218005
0.00182492
0.00144755
0.00104998
0.000634694
0.000204618
-0.000236889
-0.000686037
-0.00113863
-0.00159012
-0.00203564
-0.00247006
-0.00288808
-0.00328433
-0.00365342
-0.00399007
-0.00428922
-0.00454615
-0.00475653
-0.0049166
-0.00502324
-0.00507407
-0.0050675
-0.00500286
-0.00488042
-0.00470142
-0.00446815
-0.00418392
-0.00385313
-0.00348124
-0.00307481
-0.0026416
-0.0021906
-0.00173222
-0.00127853
-0.000843564
-0.000443828
-9.88862e-05
0.000167918
0.000328846
0.000351159
0.000194219
-3.75817e-05
0.000197325
0.000626952
0.00117053
0.00177208
0.00239073
0.00299741
0.00357231
0.00410259
0.00458047
0.00500187
0.0053653
0.005671
0.00592034
0.0061153
0.00625815
0.00635116
0.00639647
0.00639595
0.00635117
0.00626336
0.00613345
0.00596211
0.00574981
0.00549692
0.00520374
0.00487065
0.0044982
0.00408713
0.00363855
0.00315394
0.00263526
0.00208499
0.00150618
0.000902483
0.00027815
-0.000361951
-0.00101236
-0.00166708
-0.00231959
-0.00296297
-0.00358994
-0.004193
-0.00476453
-0.00529693
-0.00578276
-0.00621489
-0.00658664
-0.00689196
-0.00712553
-0.00728297
-0.00736092
-0.00735716
-0.00727075
-0.00710206
-0.0068529
-0.00652649
-0.00612757
-0.00566238
-0.00513869
-0.00456586
-0.00395486
-0.00331841
-0.0026711
-0.00202968
-0.00141334
-0.000844218
-0.000348013
4.52958e-05
0.000300754
0.000377547
0.000224621
4.4058e-05
0.000461288
0.00108722
0.00183506
0.00264293
0.00346456
0.0042663
0.00502471
0.00572415
0.00635493
0.00691175
0.00739242
0.00779696
0.0081268
0.00838422
0.00857187
0.00869249
0.00874868
0.00874276
0.00867667
0.00855199
0.00836991
0.00813136
0.00783702
0.00748743
0.00708315
0.00662479
0.00611323
0.00554963
0.00493562
0.00427334
0.00356557
0.00281577
0.00202815
0.00120768
0.000360155
-0.000507853
-0.00138901
-0.00227527
-0.00315794
-0.00402778
-0.00487513
-0.00569003
-0.00646238
-0.00718213
-0.00783942
-0.00842482
-0.00892949
-0.00934543
-0.00966562
-0.00988422
-0.00999679
-0.0100004
-0.0098937
-0.00967725
-0.0093534
-0.0089264
-0.00840254
-0.00779008
-0.00709934
-0.00634271
-0.00553472
-0.00469211
-0.00383398
-0.00298204
-0.00216089
-0.00139847
-0.000726639
-0.000181893
0.000193943
0.00035274
0.000235113
0.000160452
0.000814592
0.00168002
0.00266672
0.00370894
0.00475665
0.00577277
0.00673102
0.00761359
0.0084092
0.00911151
0.0097178
0.0102279
0.0106433
0.0109666
0.0112008
0.011349
0.0114144
0.0113997
0.0113071
0.0111386
0.0108957
0.0105795
0.010191
0.00973094
0.00920014
0.00859954
0.00793039
0.00719436
0.00639369
0.00553129
0.00461086
0.00363696
0.0026151
0.00155176
0.000454393
-0.000668547
-0.00180767
-0.00295269
-0.00409254
-0.00521549
-0.00630927
-0.00736124
-0.00835862
-0.00928868
-0.0101389
-0.0108975
-0.011553
-0.0120955
-0.012516
-0.0128071
-0.012963
-0.01298
-0.0128564
-0.0125928
-0.0121921
-0.0116596
-0.0110032
-0.0102333
-0.00936301
-0.00840788
-0.0073862
-0.00631898
-0.00523008
-0.00414635
-0.00309794
-0.00211867
-0.00124651
-0.000524278
-2.00078e-07
0.000271169
0.000223985
0.000310963
0.00125715
0.00240633
0.00366736
0.00497246
0.00626925
0.00751846
0.00869187
0.00977015
0.0107409
0.0115971
0.0123357
0.0129564
0.013461
0.0138522
0.0141334
0.0143084
0.0143806
0.0143531
0.0142285
0.0140093
0.013697
0.0132932
0.012799
0.0122155
0.0115438
0.0107851
0.0099412
0.0090143
0.00800735
0.00692408
0.00576924
0.00454859
0.00326904
0.00193867
0.000566773
-0.000836199
-0.00225864
-0.0036879
-0.00511036
-0.00651161
-0.00787661
-0.00918986
-0.0104357
-0.0115985
-0.012663
-0.0136146
-0.0144394
-0.015125
-0.0156604
-0.0160364
-0.0162459
-0.0162841
-0.0161489
-0.0158408
-0.0153631
-0.0147224
-0.013928
-0.0129928
-0.0119325
-0.0107661
-0.00951575
-0.00820694
-0.0068684
-0.0055323
-0.00423442
-0.00301447
-0.00191648
-0.000989328
-0.000287201
0.00012972
0.000190587
0.000494686
0.00178772
0.00326527
0.00483662
0.00643344
0.00800239
0.00950311
0.0109064
0.0121921
0.0133472
0.0143645
0.0152408
0.015976
0.016572
0.0170321
0.0173602
0.0175603
0.0176363
0.0175918
0.0174298
0.0171528
0.016763
0.016262
0.0156513
0.0149322
0.0141061
0.0131747
0.0121402
0.0110055
0.00977418
0.00845097
0.00704168
0.00555336
0.00399442
0.00237465
0.000705232
-0.00100124
-0.00273085
-0.00446844
-0.00619771
-0.00790144
-0.00956165
-0.0111598
-0.0126773
-0.0140953
-0.0153956
-0.0165606
-0.0175738
-0.0184201
-0.0190862
-0.0195611
-0.019836
-0.019905
-0.0197653
-0.0194172
-0.0188645
-0.0181148
-0.0171791
-0.0160723
-0.0148132
-0.0134241
-0.0119313
-0.0103647
-0.00875812
-0.00714912
-0.00557921
-0.004094
-0.00274348
-0.00158243
-0.000670606
-7.32234e-05
0.000134836
0.000710589
0.00240439
0.00425474
0.00617253
0.0080901
0.00995433
0.0117248
0.0133723
0.0148765
0.0162245
0.0174092
0.0184277
0.0192803
0.0199694
0.0204987
0.0208727
0.0210957
0.0211723
0.0211064
0.0209013
0.0205601
0.0200849
0.0194778
0.0187405
0.0178745
0.0168817
0.0157642
0.0145247
0.0131666
0.0116944
0.0101138
0.00843164
0.0066564
0.00479801
0.00286803
0.000879625
-0.00115242
-0.00321178
-0.00528069
-0.00734009
-0.0093698
-0.0113488
-0.0132554
-0.0150676
-0.0167635
-0.0183217
-0.0197215
-0.0209432
-0.0219692
-0.0227836
-0.023373
-0.023727
-0.0238383
-0.0237031
-0.0233216
-0.0226978
-0.0218401
-0.0207612
-0.0194783
-0.0180127
-0.0163906
-0.0146421
-0.0128019
-0.0109088
-0.00900603
-0.00714075
-0.00536455
-0.00373338
-0.00230777
-0.00115286
-0.0003385
5.6901e-05
0.000957593
0.00310488
0.00537186
0.00767198
0.00993929
0.0121219
0.0141803
0.016086
0.0178195
0.0193684
0.0207262
0.0218909
0.0228632
0.0236464
0.0242447
0.0246631
0.0249068
0.0249806
0.0248889
0.0246355
0.0242236
0.0236558
0.0229344
0.0220612
0.0210383
0.0198676
0.0185518
0.0170941
0.0154986
0.0137706
0.0119166
0.00994483
0.007865
0.00568865
0.00342912
0.00110161
-0.00127685
-0.00368748
-0.00610985
-0.00852202
-0.0109008
-0.0132219
-0.0154605
-0.0175911
-0.0195885
-0.0214276
-0.0230846
-0.0245366
-0.0257628
-0.0267445
-0.0274661
-0.0279149
-0.028082
-0.0279626
-0.0275562
-0.0268671
-0.0259043
-0.024682
-0.0232194
-0.0215409
-0.019676
-0.017659
-0.0155293
-0.0133309
-0.0111126
-0.00892756
-0.00683326
-0.00489167
-0.0031691
-0.00173597
-0.000666675
-4.30025e-05
0.00123461
0.00388662
0.00661321
0.00933107
0.0119768
0.0145007
0.0168651
0.019043
0.0210162
0.0227737
0.0243102
0.0256245
0.0267185
0.0275964
0.0282632
0.0287246
0.0289865
0.0290542
0.0289325
0.0286258
0.0281375
0.0274704
0.0266272
0.0256099
0.0244209
0.0230624
0.0215376
0.01985
0.0180045
0.0160072
0.0138656
0.0115889
0.0091884
0.00667704
0.00407002
0.00138455
-0.00136007
-0.00414258
-0.00693983
-0.00972697
-0.0124777
-0.0151645
-0.0177589
-0.0202321
-0.0225552
-0.0246996
-0.0266377
-0.0283433
-0.0297921
-0.0309626
-0.031836
-0.0323976
-0.0326364
-0.0325461
-0.0321256
-0.0313788
-0.0303155
-0.0289511
-0.0273067
-0.0254096
-0.0232926
-0.0209944
-0.018559
-0.0160359
-0.0134794
-0.0109487
-0.00850758
-0.00622403
-0.00417023
-0.00242201
-0.00105839
-0.00016474
0.00154054
0.00474693
0.00797497
0.0111453
0.0141977
0.0170855
0.0197737
0.0222374
0.0244607
0.0264344
0.0281547
0.0296221
0.0308397
0.0318127
0.0325474
0.0330503
0.033328
0.0333865
0.0332312
0.0328666
0.0322966
0.0315245
0.030553
0.0293844
0.0280213
0.0264664
0.0247231
0.0227955
0.020689
0.0184106
0.0159686
0.0133734
0.0106375
0.00777556
0.00480443
0.00174336
-0.00138613
-0.00456029
-0.00775325
-0.0109372
-0.0140827
-0.0171588
-0.0201335
-0.0229744
-0.0256487
-0.028124
-0.0303688
-0.0323531
-0.0340492
-0.0354319
-0.0364794
-0.0371741
-0.0375028
-0.0374575
-0.0370357
-0.0362412
-0.0350838
-0.03358
-0.0317528
-0.0296322
-0.0272544
-0.0246622
-0.0219046
-0.0190364
-0.0161178
-0.0132143
-0.0103958
-0.00773678
-0.00531551
-0.00321348
-0.00151464
-0.00030835
0.00187427
0.00568294
0.009453
0.0131095
0.0165963
0.0198703
0.0228997
0.0256629
0.0281465
0.0303438
0.0322531
0.0338768
0.0352197
0.0362884
0.0370905
0.0376336
0.037925
0.0379716
0.0377792
0.0373529
0.0366969
0.0358148
0.0347094
0.0333834
0.0318396
0.030081
0.0281112
0.0259349
0.0235581
0.0209882
0.0182347
0.015309
0.0122247
0.00899801
0.00564751
0.00219437
-0.0013377
-0.00492249
-0.00853143
-0.0121338
-0.0156968
-0.0191861
-0.0225662
-0.0258008
-0.0288529
-0.0316863
-0.0342652
-0.0365557
-0.0385259
-0.0401468
-0.0413931
-0.042244
-0.0426835
-0.0427015
-0.042294
-0.0414637
-0.0402206
-0.0385819
-0.0365723
-0.0342241
-0.0315771
-0.0286783
-0.0255814
-0.0223468
-0.0190409
-0.0157355
-0.0125073
-0.00943723
-0.00661015
-0.00411358
-0.0020369
-0.000474097
0.00223469
0.0066917
0.0110429
0.0152183
0.0191663
0.0228481
0.026236
0.029312
0.032066
0.0344942
0.0365977
0.038381
0.039851
0.0410162
0.0418854
0.0424676
0.0427711
0.0428034
0.0425713
0.0420801
0.0413346
0.0403384
0.0390948
0.0376066
0.0358767
0.0339084
0.0317058
0.0292737
0.0266187
0.0237488
0.0206744
0.0174076
0.0139635
0.0103594
0.00661562
0.00275515
-0.00119617
-0.00520976
-0.00925437
-0.0132963
-0.0172997
-0.0212266
-0.0250378
-0.0286928
-0.0321509
-0.0353712
-0.0383136
-0.0409398
-0.0432134
-0.0451011
-0.0465738
-0.0476068
-0.048181
-0.0482835
-0.0479083
-0.0470568
-0.0457386
-0.0439712
-0.0417809
-0.0392022
-0.0362781
-0.0330598
-0.0296061
-0.0259831
-0.0222633
-0.0185253
-0.0148528
-0.011334
-0.00806049
-0.00512646
-0.00262734
-0.000662517
0.00262063
0.00777009
0.01274
0.0174657
0.0219009
0.0260116
0.0297748
0.0331766
0.0362109
0.0388774
0.0411801
0.0431265
0.0447257
0.0459882
0.0469246
0.0475452
0.0478596
0.0478761
0.0476021
0.0470437
0.0462059
0.0450928
0.0437076
0.0420536
0.0401337
0.0379515
0.035511
0.0328177
0.0298784
0.0267017
0.0232985
0.019682
0.0158682
0.0118756
0.00772608
0.00344433
-0.000941823
-0.00540149
-0.00990085
-0.0144033
-0.0188697
-0.0232588
-0.0275273
-0.0316308
-0.0355241
-0.0391618
-0.0424991
-0.0454928
-0.0481016
-0.0502878
-0.0520174
-0.0532615
-0.0539973
-0.0542085
-0.0538866
-0.0530313
-0.0516509
-0.0497633
-0.0473956
-0.0445845
-0.0413762
-0.0378259
-0.0339974
-0.0299628
-0.0258011
-0.0215981
-0.0174449
-0.0134372
-0.00967415
-0.00625729
-0.00328881
-0.000874443
0.00303088
0.00891486
0.0145393
0.0198456
0.0247928
0.0293527
0.0335073
0.0372477
0.0405721
0.0434841
0.0459914
0.0481043
0.049835
0.0511961
0.0522001
0.0528589
0.0531834
0.0531831
0.0528661
0.052239
0.0513072
0.0500752
0.0485466
0.0467244
0.044612
0.0422129
0.0395314
0.0365731
0.0333451
0.0298565
0.0261186
0.0221454
0.0179537
0.0135632
0.00899694
0.00428131
-0.000554035
-0.00547606
-0.0104485
-0.0154318
-0.0203839
-0.0252598
-0.0300124
-0.0345932
-0.0389522
-0.0430394
-0.046805
-0.0502003
-0.053179
-0.055698
-0.0577181
-0.0592057
-0.0601333
-0.060481
-0.0602367
-0.0593978
-0.0579712
-0.0559741
-0.0534344
-0.0503906
-0.0468917
-0.042997
-0.0387756
-0.0343055
-0.0296727
-0.0249704
-0.0202977
-0.0157584
-0.0114602
-0.00751243
-0.00402501
-0.00111102
0.0034642
0.0101226
0.0164357
0.0223511
0.0278343
0.0328628
0.0374245
0.0415158
0.0451397
0.0483044
0.0510215
0.0533048
0.0551695
0.0566306
0.057703
0.0584004
0.058735
0.0587176
0.058357
0.0576606
0.0566343
0.0552828
0.0536098
0.0516186
0.0493126
0.0466953
0.0437712
0.0405458
0.0370266
0.0332227
0.029146
0.024811
0.020235
0.0154388
0.0104466
0.00528603
-1.1514e-05
-0.00541101
-0.0108738
-0.0163579
-0.0218178
-0.0272051
-0.032469
-0.0375565
-0.042413
-0.0469834
-0.0512124
-0.0550459
-0.0584317
-0.0613208
-0.0636684
-0.0654353
-0.0665887
-0.067104
-0.0669652
-0.0661665
-0.0647126
-0.0626196
-0.0599156
-0.0566405
-0.0528459
-0.0485953
-0.0439627
-0.0390326
-0.0338981
-0.0286604
-0.0234272
-0.0183113
-0.0134293
-0.00889947
-0.00484043
-0.00137372
0.00391923
0.0113896
0.0184234
0.0249751
0.0310168
0.0365325
0.0415163
0.0459704
0.0499032
0.0533277
0.0562599
0.0587175
0.0607188
0.0622819
0.063424
0.0641608
0.0645061
0.0644719
0.0640682
0.0633028
0.0621823
0.0607116
0.0588948
0.0567351
0.0542359
0.0514007
0.048234
0.0447413
0.04093
0.0368094
0.0323917
0.0276915
0.0227269
0.0175192
0.0120935
0.00647861
0.000707412
-0.00518331
-0.0111528
-0.0171563
-0.0231456
-0.0290688
-0.0348712
-0.0404953
-0.0458819
-0.0509703
-0.0556999
-0.0600103
-0.063843
-0.0671428
-0.0698582
-0.0719437
-0.0733607
-0.0740788
-0.0740773
-0.0733463
-0.0718876
-0.0697156
-0.0668578
-0.063355
-0.0592613
-0.054644
-0.0495823
-0.0441671
-0.0384992
-0.0326884
-0.0268515
-0.0211111
-0.0155936
-0.0104273
-0.00574047
-0.00166434
0.00439459
0.012712
0.0204967
0.0277102
0.0343316
0.040352
0.0457721
0.0506004
0.0548511
0.0585424
0.061695
0.0643308
0.0664717
0.0681391
0.0693526
0.0701302
0.0704874
0.0704376
0.0699918
0.0691588
0.0679455
0.0663572
0.0643982
0.0620718
0.0593812
0.05633
0.0529224
0.0491638
0.0450615
0.0406249
0.0358658
0.0307993
0.0254436
0.0198205
0.0139557
0.007879
0.00162445
-0.00476962
-0.0112605
-0.0178012
-0.0243406
-0.0308235
-0.0371913
-0.0433822
-0.0493319
-0.0549746
-0.0602432
-0.0650712
-0.0693934
-0.0731471
-0.076274
-0.0787214
-0.0804437
-0.081404
-0.0815759
-0.0809445
-0.0795076
-0.077277
-0.0742791
-0.070555
-0.0661609
-0.0611674
-0.0556593
-0.0497339
-0.0435001
-0.0370767
-0.0305906
-0.0241749
-0.0179669
-0.0121061
-0.0067314
-0.00198503
0.00488876
0.0140859
0.0226493
0.0305482
0.0377693
0.0443108
0.0501807
0.055394
0.0599712
0.063936
0.0673144
0.0701325
0.0724164
0.0741905
0.0754775
0.0762977
0.0766686
0.076605
0.0761191
0.0752205
0.0739168
0.0722136
0.0701153
0.0676253
0.0647468
0.0614829
0.0578378
0.0538166
0.0494262
0.0446758
0.0395772
0.0341452
0.0283981
0.0223578
0.0160505
0.00950657
0.00276097
-0.0041467
-0.0111721
-0.0182661
-0.0253749
-0.0324403
-0.0393998
-0.0461874
-0.0527338
-0.0589674
-0.064815
-0.0702031
-0.0750594
-0.0793134
-0.0828989
-0.0857551
-0.0878286
-0.0890751
-0.0894611
-0.0889655
-0.0875815
-0.0853172
-0.0821968
-0.0782611
-0.0735677
-0.0681907
-0.0622197
-0.0557591
-0.0489262
-0.0418494
-0.0346663
-0.0275217
-0.0205649
-0.0139474
-0.00782037
-0.00233827
0.00540018
0.0155069
0.0248747
0.0334809
0.0413198
0.0483978
0.05473
0.0603386
0.0652505
0.0694955
0.0731048
0.0761094
0.0785395
0.0804232
0.0817863
0.0826514
0.0830382
0.0829632
0.0824398
0.0814787
0.0800879
0.0782734
0.0760399
0.0733907
0.0703288
0.0668572
0.0629796
0.0587007
0.0540271
0.0489674
0.043533
0.0377385
0.0316018
0.0251449
0.0183939
0.0113796
0.00413752
-0.00329182
-0.0108627
-0.0185242
-0.0262201
-0.0338894
-0.041466
-0.0488795
-0.0560557
-0.0629172
-0.0693844
-0.0753767
-0.0808138
-0.0856171
-0.0897115
-0.0930273
-0.0955023
-0.0970834
-0.0977291
-0.097411
-0.0961161
-0.0938475
-0.0906266
-0.0864929
-0.0815047
-0.0757391
-0.0692906
-0.0622704
-0.0548047
-0.0470323
-0.0391024
-0.0311723
-0.0234045
-0.015964
-0.00901546
-0.00272689
0.00592717
0.0169704
0.0271659
0.0364992
0.0449729
0.0526014
0.0594075
0.065421
0.0706753
0.0752068
0.079052
0.0822473
0.0848271
0.0868234
0.0882652
0.0891779
0.0895834
0.0895
0.0889425
0.0879224
0.0864486
0.0845276
0.0821639
0.0793611
0.0761219
0.0724488
0.0683452
0.0638153
0.058865
0.0535024
0.0477382
0.0415863
0.0350643
0.0281936
0.0210002
0.0135149
0.00577338
-0.0021832
-0.0103081
-0.018549
-0.0268477
-0.0351404
-0.0433577
-0.0514251
-0.0592634
-0.0667896
-0.0739174
-0.0805588
-0.0866251
-0.0920289
-0.0966856
-0.100516
-0.103447
-0.105416
-0.106372
-0.106278
-0.105114
-0.102876
-0.0995822
-0.0952687
-0.0899942
-0.0838379
-0.0768992
-0.0692963
-0.0611643
-0.0526531
-0.0439244
-0.0351492
-0.0265045
-0.0181702
-0.0103256
-0.00315404
0.00646796
0.0184718
0.0295157
0.0395939
0.0487175
0.0569092
0.0642
0.070627
0.0762311
0.0810549
0.0851411
0.088531
0.091264
0.093376
0.0948994
0.0958627
0.09629
0.0962016
0.0956137
0.0945391
0.0929871
0.0909649
0.0884772
0.0855274
0.0821179
0.0782511
0.0739296
0.0691569
0.0639383
0.058281
0.0521949
0.045693
0.0387922
0.0315132
0.0238814
0.0159271
0.007686
-0.00080057
-0.00948531
-0.0183147
-0.0272291
-0.0361622
-0.0450416
-0.0537891
-0.0623207
-0.0705474
-0.0783766
-0.0857123
-0.0924574
-0.0985148
-0.10379
-0.108192
-0.111638
-0.114053
-0.115377
-0.11556
-0.114574
-0.112409
-0.109074
-0.104604
-0.0990566
-0.0925117
-0.085073
-0.0768658
-0.0680345
-0.0587407
-0.0491595
-0.0394767
-0.0298853
-0.0205814
-0.0117608
-0.00362326
0.0070207
0.020006
0.0319165
0.0427553
0.0525423
0.0613086
0.0690936
0.0759422
0.0819027
0.0870242
0.0913558
0.0949444
0.0978339
0.100065
0.101673
0.10269
0.103142
0.103053
0.102439
0.101314
0.0996895
0.0975722
0.0949672
0.0918779
0.0883065
0.0842548
0.0797247
0.0747191
0.0692422
0.0633003
0.0569023
0.0500601
0.0427895
0.0351101
0.0270465
0.0186282
0.00989044
0.000874261
-0.00837286
-0.0177968
-0.0273366
-0.0369241
-0.0464844
-0.0559356
-0.0651892
-0.0741508
-0.082721
-0.090796
-0.0982699
-0.105036
-0.110987
-0.116023
-0.120046
-0.122971
-0.124723
-0.125243
-0.12449
-0.122444
-0.119109
-0.114513
-0.108711
-0.101783
-0.0938388
-0.0850081
-0.0754457
-0.0653252
-0.0548362
-0.0441806
-0.0335686
-0.0232144
-0.0133316
-0.00413838
0.00758347
0.0215679
0.0343604
0.0459733
0.0564353
0.0657862
0.0740738
0.0813512
0.0876739
0.0930983
0.0976795
0.10147
0.10452
0.106872
0.108568
0.109642
0.110123
0.110036
0.1094
0.108231
0.106539
0.104334
0.101619
0.0983986
0.0946744
0.0904476
0.0857196
0.0804922
0.0747687
0.0685541
0.0618562
0.0546855
0.0470563
0.0389872
0.0305013
0.0216271
0.0123988
0.00285682
-0.0069517
-0.0169725
-0.0271438
-0.0373962
-0.0476526
-0.0578279
-0.0678295
-0.0775579
-0.0869068
-0.0957651
-0.104017
-0.111546
-0.118235
-0.123968
-0.128635
-0.132138
-0.134386
-0.135308
-0.134849
-0.132978
-0.129689
-0.125003
-0.118971
-0.111674
-0.103222
-0.0937522
-0.0834287
-0.0724377
-0.0609844
-0.0492881
-0.0375778
-0.0260871
-0.0150496
-0.00470361
0.00815428
0.0231521
0.0368394
0.0492376
0.0603844
0.0703284
0.0791259
0.0868381
0.0935283
0.0992598
0.104094
0.10809
0.111302
0.11378
0.115566
0.1167
0.117213
0.117132
0.116479
0.115271
0.113518
0.111231
0.108415
0.105072
0.101205
0.096814
0.0918997
0.0864629
0.0805058
0.0740322
0.0670481
0.0595629
0.051589
0.0431435
0.0342478
0.0249289
0.0152196
0.00515931
-0.00520571
-0.0158216
-0.0266264
-0.0375499
-0.0485134
-0.0594292
-0.0702012
-0.0807247
-0.0908877
-0.100571
-0.10965
-0.117998
-0.125483
-0.131979
-0.137361
-0.141514
-0.144332
-0.145727
-0.14563
-0.143997
-0.140809
-0.136078
-0.12985
-0.122203
-0.113247
-0.103126
-0.0920138
-0.0801098
-0.0676351
-0.0548277
-0.0419372
-0.0292188
-0.0169275
-0.00532349
0.00873109
0.0247533
0.0393452
0.0525376
0.0643771
0.074921
0.0842345
0.0923866
0.0994486
0.105491
0.110582
0.114786
0.118163
0.120767
0.122647
0.123843
0.124391
0.124321
0.123655
0.122412
0.120606
0.118244
0.115334
0.111879
0.107879
0.103335
0.0982469
0.0926142
0.0864379
0.0797202
0.0724658
0.0646819
0.0563795
0.0475734
0.0382833
0.0285342
0.0183572
0.00779004
-0.00312239
-0.0143271
-0.0257628
-0.0373589
-0.0490357
-0.0607037
-0.0722636
-0.0836067
-0.094615
-0.105162
-0.115115
-0.124334
-0.132678
-0.140004
-0.146173
-0.151051
-0.154517
-0.156464
-0.156806
-0.155482
-0.152459
-0.147738
-0.141354
-0.133382
-0.123933
-0.113155
-0.101231
-0.088373
-0.0748195
-0.0608289
-0.0466728
-0.0326297
-0.0189784
-0.00600291
0.00931181
0.0263658
0.0418694
0.0558626
0.0684007
0.07955
0.0893839
0.09798
0.105417
0.111773
0.117123
0.121537
0.125081
0.127814
0.129789
0.13105
0.131636
0.131579
0.130905
0.129633
0.127778
0.125349
0.122354
0.118795
0.114673
0.109988
0.104739
0.0989252
0.0925451
0.0855998
0.0780921
0.0700276
0.0614148
0.0522667
0.0426006
0.0324392
0.0218114
0.0107528
-0.000693527
-0.0124762
-0.0245348
-0.0367996
-0.0491904
-0.0616167
-0.073977
-0.0861588
-0.098039
-0.109484
-0.120353
-0.130496
-0.139757
-0.147981
-0.15501
-0.160694
-0.164891
-0.167475
-0.16834
-0.167405
-0.16462
-0.159971
-0.153483
-0.145222
-0.135299
-0.123864
-0.111109
-0.0972584
-0.0825696
-0.0673219
-0.0518111
-0.0363412
-0.0212165
-0.00674709
0.00989437
0.0279842
0.0444037
0.0592018
0.0724425
0.0842008
0.0945585
0.103601
0.111416
0.118087
0.123697
0.128323
0.132035
0.134898
0.136969
0.138297
0.138923
0.138883
0.138204
0.136907
0.135009
0.13252
0.129447
0.125794
0.121561
0.116748
0.111352
0.105371
0.0988031
0.0916477
0.0839055
0.0755798
0.0666772
0.057208
0.0471871
0.0366345
0.0255765
0.0140462
0.00208419
-0.0102603
-0.0229287
-0.0358524
-0.048952
-0.0621365
-0.075303
-0.0883364
-0.101109
-0.113482
-0.125305
-0.136419
-0.146655
-0.155842
-0.163807
-0.170378
-0.175394
-0.178705
-0.180184
-0.179726
-0.177262
-0.17276
-0.166229
-0.157726
-0.147357
-0.135273
-0.121673
-0.106796
-0.090917
-0.0743377
-0.05738
-0.0403754
-0.0236566
-0.00756158
0.0104767
0.0296029
0.0469396
0.0625444
0.0764898
0.0888591
0.0997425
0.109234
0.117427
0.124414
0.130285
0.135123
0.139003
0.141997
0.144164
0.145559
0.146227
0.146205
0.145524
0.144207
0.14227
0.139727
0.136585
0.132847
0.128513
0.123583
0.118054
0.111922
0.105183
0.0978364
0.0898794
0.0813139
0.0721437
0.0623767
0.0520248
0.0411054
0.0296416
0.0176634
0.00520859
-0.0076764
-0.0209356
-0.0345024
-0.0482988
-0.0622344
-0.076206
-0.0900968
-0.103776
-0.117099
-0.129909
-0.142036
-0.1533
-0.163514
-0.172488
-0.180029
-0.185954
-0.190089
-0.19228
-0.192398
-0.190348
-0.186077
-0.179577
-0.170889
-0.160112
-0.147397
-0.132947
-0.117015
-0.0998925
-0.081907
-0.0634075
-0.0447556
-0.0263142
-0.00845227
0.0110567
0.0312166
0.0494691
0.0658801
0.0805302
0.0935108
0.10492
0.114859
0.123431
0.130735
0.136866
0.141914
0.145962
0.149085
0.151348
0.15281
0.15352
0.153518
0.152837
0.151502
0.149532
0.14694
0.143735
0.13992
0.135497
0.130462
0.124813
0.118545
0.111653
0.104134
0.0959828
0.0871997
0.077786
0.0677465
0.0570902
0.0458313
0.0339895
0.0215915
0.00867152
-0.00472739
-0.0185524
-0.0327398
-0.0472141
-0.0618864
-0.0766542
-0.0914
-0.105991
-0.120279
-0.1341
-0.147277
-0.159616
-0.170918
-0.180972
-0.189566
-0.196493
-0.201551
-0.204558
-0.205358
-0.203828
-0.199886
-0.193501
-0.184699
-0.173566
-0.160247
-0.144951
-0.12794
-0.109526
-0.0900606
-0.0699223
-0.0495053
-0.0292057
-0.00942536
0.0116326
0.0328201
0.0519844
0.0691988
0.0845517
0.0981421
0.110076
0.120462
0.129411
0.137028
0.143417
0.148674
0.152888
0.156138
0.158496
0.160024
0.160774
0.160792
0.160111
0.15876
0.15676
0.154125
0.150863
0.14698
0.142475
0.137347
0.131592
0.125204
0.118176
0.110503
0.10218
0.0932025
0.0835706
0.0732857
0.0623539
0.0507857
0.0385973
0.0258114
0.0124585
-0.00142242
-0.0157824
-0.0305614
-0.0456872
-0.0610737
-0.0766203
-0.0922102
-0.10771
-0.122969
-0.137817
-0.152071
-0.165526
-0.177969
-0.189171
-0.198899
-0.206919
-0.213003
-0.216939
-0.218535
-0.217638
-0.214134
-0.207965
-0.199133
-0.187707
-0.173826
-0.157698
-0.139594
-0.119845
-0.0988283
-0.0769532
-0.0546489
-0.0323477
-0.0104874
0.0122025
0.0344087
0.054478
0.072491
0.0885428
0.10274
0.115195
0.126026
0.135348
0.143276
0.14992
0.155382
0.159757
0.163131
0.16558
0.16717
0.167959
0.167995
0.167314
0.165948
0.16392
0.161244
0.157931
0.153986
0.149409
0.144199
0.13835
0.131857
0.12471
0.116903
0.10843
0.0992827
0.089459
0.0789576
0.067781
0.0559362
0.0434355
0.0302975
0.0165484
0.00222252
-0.0126356
-0.0279705
-0.0437141
-0.0597842
-0.0760832
-0.0924967
-0.108892
-0.125117
-0.140999
-0.156348
-0.170951
-0.18458
-0.196991
-0.20793
-0.217135
-0.22435
-0.229327
-0.231842
-0.231702
-0.228758
-0.222919
-0.214156
-0.202519
-0.188131
-0.171196
-0.151996
-0.130876
-0.108239
-0.0845284
-0.060211
-0.0357577
-0.0116451
0.0127646
0.0359779
0.0569434
0.0757479
0.0924929
0.107292
0.120264
0.131534
0.141225
0.149459
0.156353
0.162014
0.166545
0.170037
0.172572
0.174221
0.175045
0.175095
0.174413
0.173031
0.170974
0.16826
0.164899
0.160898
0.156257
0.150975
0.145045
0.13846
0.131211
0.123291
0.114688
0.105396
0.0954082
0.0847201
0.0733312
0.0612447
0.0484689
0.035018
0.0209134
0.00618451
-0.00912929
-0.0249778
-0.041298
-0.0580127
-0.0750289
-0.0922354
-0.109502
-0.126678
-0.143589
-0.16004
-0.175812
-0.190664
-0.204337
-0.216556
-0.227034
-0.235482
-0.241619
-0.24518
-0.245931
-0.243682
-0.2383
-0.229723
-0.21797
-0.203146
-0.185448
-0.165158
-0.142639
-0.118319
-0.0926759
-0.0662162
-0.0394532
-0.0129057
0.0133176
0.0375239
0.0593746
0.0789618
0.0963926
0.111786
0.125269
0.136972
0.147026
0.155559
0.162694
0.168548
0.173228
0.176831
0.179445
0.181145
0.181998
0.182058
0.18137
0.17997
0.177884
0.175132
0.171726
0.167673
0.162975
0.157628
0.151628
0.144966
0.137632
0.129616
0.120907
0.111495
0.101371
0.0905266
0.0789591
0.0666677
0.0536564
0.0399347
0.0255191
0.0104336
-0.00528804
-0.0216016
-0.0384501
-0.0557624
-0.0734509
-0.0914099
-0.109513
-0.127612
-0.145535
-0.163082
-0.180031
-0.196132
-0.21111
-0.224671
-0.236502
-0.246285
-0.253699
-0.258438
-0.260221
-0.258812
-0.25403
-0.245772
-0.234018
-0.218849
-0.200445
-0.179088
-0.155153
-0.129093
-0.101422
-0.072689
-0.0434524
-0.0142763
0.0138603
0.0390436
0.0617668
0.0821262
0.100234
0.116214
0.130199
0.142327
0.152734
0.161557
0.168925
0.174962
0.179781
0.183486
0.186169
0.187913
0.188786
0.188849
0.18815
0.186727
0.184609
0.181819
0.178368
0.174267
0.169516
0.164113
0.158052
0.151326
0.143922
0.13583
0.127036
0.117528
0.107295
0.0963263
0.0846151
0.0721569
0.0589515
0.0450037
0.0303247
0.0149331
-0.0011438
-0.0178681
-0.0351897
-0.0530444
-0.0713517
-0.0900123
-0.108906
-0.127889
-0.146792
-0.165417
-0.183538
-0.200898
-0.217211
-0.232165
-0.245423
-0.256634
-0.26544
-0.27149
-0.274454
-0.274041
-0.270017
-0.262227
-0.250607
-0.235201
-0.216169
-0.193784
-0.168429
-0.140582
-0.110792
-0.0796536
-0.0477733
-0.0157647
0.0143918
0.0405347
0.0641163
0.0852361
0.104009
0.120566
0.135043
0.147585
0.158336
0.167437
0.175027
0.181234
0.18618
0.189975
0.192716
0.194492
0.195376
0.195433
0.194715
0.193262
0.191108
0.188276
0.18478
0.180631
0.175831
0.170378
0.164267
0.157487
0.150029
0.141877
0.133019
0.12344
0.113126
0.102065
0.0902454
0.0776595
0.0643029
0.0501757
0.0352837
0.0196396
0.00326438
-0.0138112
-0.0315445
-0.0498793
-0.068743
-0.0880445