/*--------------------------------*- C++ -*----------------------------------*\
  =========                 |
  \\      /  F ield         | OpenFOAM: The Open Source CFD Toolbox
   \\    /   O peration     | Website:  https://openfoam.org
    \\  /    A nd           | Version:  dev
     \\/     M anipulation  |
\*---------------------------------------------------------------------------*/
FoamFile
{
    format      ascii;
    class       volScalarField;
    location    "3.6";
    object      p;
}
// * * * * * * * * * * * * * * * * * * * * * * * * * * * * * * * * * * * * * //

dimensions      [0 2 -2 0 0 0 0];

internalField   nonuniform List<scalar> 
400
(
-2.11033e-08
-0.000488069
-0.000978451
-0.00129221
-0.00133612
-0.00107382
-0.000498909
0.000379709
0.00153811
0.00292918
0.00447288
0.00605027
0.00750985
0.00868607
0.00943384
0.00967107
0.00941897
0.00882169
0.00809432
0.00761859
0.000475021
-2.97353e-05
-0.000401879
-0.00058749
-0.000560589
-0.000296982
0.000211604
0.000961492
0.0019363
0.00309962
0.004387
0.00570473
0.00692728
0.00792024
0.00856616
0.00879972
0.00863883
0.00819424
0.00763329
0.00714808
0.000986465
0.000302074
-9.23556e-05
-0.000246356
-0.000203767
4.14459e-05
0.000494209
0.00115474
0.00201609
0.00305479
0.00422086
0.00543242
0.00657471
0.00751679
0.00813775
0.00836292
0.00819768
0.00773574
0.00710086
0.00640738
0.00132459
0.000404989
-7.6818e-05
-0.000253842
-0.000232428
-2.38658e-05
0.000373255
0.000964119
0.00175351
0.00273268
0.00386503
0.00508098
0.00626133
0.00726189
0.00793628
0.00817878
0.00796994
0.00739231
0.00654914
0.00553499
0.00131965
0.000166706
-0.000418164
-0.000640925
-0.000662726
-0.000508582
-0.000177875
0.000342393
0.00107202
0.00202036
0.00316551
0.00446298
0.0057754
0.00693831
0.00776299
0.0080901
0.00785563
0.00712504
0.00599389
0.00456623
0.000830935
-0.000540001
-0.00123146
-0.00151537
-0.00160137
-0.00152488
-0.0012831
-0.000851932
-0.000192132
0.000733361
0.00193768
0.00335794
0.00489431
0.00634656
0.0074632
0.0080006
0.00781624
0.00693637
0.00544655
0.00348245
-0.000261922
-0.00183228
-0.00263075
-0.00299108
-0.00316742
-0.00320395
-0.00309395
-0.00279939
-0.00225636
-0.00139388
-0.00016128
0.00142884
0.00328108
0.00517667
0.0067894
0.00775116
0.00778439
0.0068253
0.00491902
0.00224495
-0.00206563
-0.00381538
-0.00472088
-0.00517569
-0.00547712
-0.00567906
-0.00577151
-0.00570147
-0.00537557
-0.00467708
-0.00349476
-0.00176962
0.000451911
0.00295625
0.0053396
0.00706323
0.0076285
0.0067828
0.00444726
0.000835172
-0.00467235
-0.00658096
-0.00759318
-0.00816218
-0.00863039
-0.00906605
-0.00946009
-0.00974715
-0.0098025
-0.00945243
-0.00849902
-0.00677137
-0.0042077
-0.00095887
0.00252195
0.00549048
0.00711429
0.00678497
0.00412111
-0.000695897
-0.00815434
-0.0102025
-0.0113163
-0.0120115
-0.0126835
-0.0134242
-0.0142345
-0.0150441
-0.0157003
-0.015966
-0.0155325
-0.0140678
-0.0113266
-0.00729946
-0.00240783
0.00240963
0.00587548
0.00678373
0.00412317
-0.00214938
-0.0125603
-0.0147332
-0.0159267
-0.0167314
-0.0176135
-0.0187048
-0.0200295
-0.0215247
-0.0230194
-0.0242148
-0.024677
-0.0238729
-0.0212862
-0.0166285
-0.0101415
-0.00285552
0.00346302
0.00672997
0.00479156
-0.00303894
-0.0179219
-0.020213
-0.0214242
-0.0222555
-0.0232822
-0.0246994
-0.0265707
-0.0288548
-0.0313754
-0.0337818
-0.035516
-0.0358221
-0.0338501
-0.0289164
-0.020892
-0.0106797
-0.00042303
0.00670083
0.00673632
-0.00234554
-0.0242859
-0.0266939
-0.0277759
-0.0284278
-0.0294085
-0.0310068
-0.0333386
-0.036393
-0.0399974
-0.0437607
-0.0470125
-0.0487796
-0.047861
-0.0431123
-0.0338561
-0.020572
-0.00546168
0.00721445
0.0110745
0.00188173
-0.0318
-0.0342946
-0.034929
-0.0349941
-0.0355613
-0.0370409
-0.0395997
-0.0432505
-0.0478184
-0.0528716
-0.057637
-0.0609471
-0.0612787
-0.0570365
-0.0469032
-0.0306744
-0.010148
0.00970481
0.0198377
0.0130556
-0.0409167
-0.0432998
-0.0428224
-0.0415941
-0.041175
-0.0420889
-0.0445179
-0.0484633
-0.0537163
-0.059781
-0.0657722
-0.0703511
-0.0717416
-0.0678609
-0.0568808
-0.0377852
-0.0115449
0.016909
0.0363847
0.0363832
-0.0528575
-0.0543255
-0.0513658
-0.0477388
-0.0455859
-0.0454131
-0.0473207
-0.0512238
-0.0568167
-0.0634917
-0.0702105
-0.0754485
-0.0771766
-0.0729944
-0.0605595
-0.0381345
-0.00570507
0.0329456
0.0654516
0.0785293
-0.0707205
-0.0685925
-0.0604514
-0.0528775
-0.0481638
-0.0464274
-0.0475097
-0.0511178
-0.0567572
-0.0636278
-0.0705039
-0.0756385
-0.0767465
-0.0710915
-0.0558501
-0.0287166
0.0112202
0.0628777
0.113068
0.148662
-0.102938
-0.0880207
-0.0698615
-0.0564306
-0.048352
-0.0447415
-0.0449134
-0.0481775
-0.0537273
-0.0605124
-0.067087
-0.071477
-0.0711354
-0.0629318
-0.0435169
-0.00960695
0.0412569
0.108978
0.186829
0.267262
-0.175623
-0.112367
-0.0742931
-0.053757
-0.0427532
-0.0380215
-0.0380543
-0.0415968
-0.0474579
-0.0543667
-0.06074
-0.0644894
-0.0629316
-0.0524682
-0.0293952
0.0110739
0.0743499
0.166158
0.293515
0.468431
-0.343356
-0.133718
-0.0551413
-0.032751
-0.0241181
-0.0215664
-0.0238075
-0.0293644
-0.0368194
-0.0448786
-0.0520244
-0.0562526
-0.0550091
-0.0452476
-0.0220994
0.0199622
0.0900715
0.206421
0.404105
0.73495
)
;

boundaryField
{
    movingWall
    {
        type            zeroGradient;
    }
    fixedWalls
    {
        type            zeroGradient;
    }
    frontAndBack
    {
        type            empty;
    }
}


// ************************************************************************* //
