/*--------------------------------*- C++ -*----------------------------------*\
  =========                 |
  \\      /  F ield         | OpenFOAM: The Open Source CFD Toolbox
   \\    /   O peration     | Website:  https://openfoam.org
    \\  /    A nd           | Version:  dev
     \\/     M anipulation  |
\*---------------------------------------------------------------------------*/
FoamFile
{
    format      ascii;
    class       surfaceScalarField;
    location    "3.6";
    object      phi;
}
// * * * * * * * * * * * * * * * * * * * * * * * * * * * * * * * * * * * * * //

dimensions      [0 3 -1 0 0 0 0];

internalField   nonuniform List<scalar> 
760
(
5.87517e-07
-5.87455e-07
-3.09906e-06
3.68657e-06
-1.08355e-05
7.7364e-06
-2.11181e-05
1.02826e-05
-3.25918e-05
1.14737e-05
-4.41818e-05
1.159e-05
-5.49976e-05
1.08158e-05
-6.4217e-05
9.21942e-06
-7.10155e-05
6.79851e-06
-7.45795e-05
3.56406e-06
-7.42042e-05
-3.75286e-07
-6.94811e-05
-4.72308e-06
-6.05019e-05
-8.97922e-06
-4.80433e-05
-1.24586e-05
-3.36196e-05
-1.44237e-05
-1.93425e-05
-1.42771e-05
-7.55119e-06
-1.17913e-05
-2.35963e-07
-7.31523e-06
1.8339e-06
-2.06987e-06
1.83387e-06
-3.76661e-06
3.17918e-06
-1.6795e-05
1.67149e-05
-3.75579e-05
2.84993e-05
-6.33949e-05
3.61197e-05
-9.16281e-05
3.97069e-05
-0.000119853
3.98154e-05
-0.000145916
3.68779e-05
-0.000167797
3.11011e-05
-0.000183562
2.25636e-05
-0.000191426
1.14281e-05
-0.000189994
-1.80736e-06
-0.000178541
-1.61767e-05
-0.000157473
-3.00472e-05
-0.000128571
-4.13596e-05
-9.50701e-05
-4.7925e-05
-6.13393e-05
-4.80079e-05
-3.21243e-05
-4.10063e-05
-1.14165e-05
-2.8023e-05
-1.29934e-06
-1.21871e-05
5.34522e-07
-8.67389e-06
1.18531e-05
-3.12503e-05
3.92912e-05
-6.40198e-05
6.12688e-05
-0.000103173
7.52729e-05
-0.000145128
8.16616e-05
-0.000186643
8.13301e-05
-0.000224747
7.49828e-05
-0.000256632
6.29856e-05
-0.000279608
4.55399e-05
-0.000291228
2.30475e-05
-0.000289565
-3.46956e-06
-0.000273622
-3.21201e-05
-0.000243846
-5.98232e-05
-0.000202511
-8.2695e-05
-0.000153853
-9.65827e-05
-0.000103747
-9.81138e-05
-5.87772e-05
-8.5976e-05
-2.47898e-05
-6.20105e-05
-5.25637e-06
-3.17205e-05
-4.72185e-06
-1.3064e-05
2.4917e-05
-4.46411e-05
7.08684e-05
-8.86293e-05
0.000105257
-0.000139904
0.000126548
-0.000194092
0.00013585
-0.00024738
0.000134618
-0.000296292
0.000123895
-0.000337509
0.000104202
-0.000367796
7.58276e-05
-0.000384123
3.93744e-05
-0.000383993
-3.5999e-06
-0.000365818
-5.02948e-05
-0.000329694
-9.59477e-05
-0.000277872
-0.000134517
-0.000215145
-0.000159309
-0.000148687
-0.000164572
-8.70956e-05
-0.000147567
-3.86267e-05
-0.000110479
-9.04713e-06
-6.13e-05
-1.3769e-05
-1.69518e-05
4.18688e-05
-5.68316e-05
0.000110748
-0.000111279
0.000159704
-0.000173866
0.000189135
-0.000239519
0.000201503
-0.000304036
0.000199135
-0.00036366
0.000183519
-0.000414759
0.0001553
-0.000453669
0.000114738
-0.000476736
6.24412e-05
-0.00048076
4.25003e-07
-0.000463079
-6.7976e-05
-0.000422959
-0.000136068
-0.000362021
-0.000195455
-0.00028516
-0.00023617
-0.000200769
-0.000248963
-0.000119934
-0.000228402
-5.43019e-05
-0.000176112
-1.30233e-05
-0.000102579
-2.67923e-05
-2.04387e-05
6.23074e-05
-6.79262e-05
0.000158236
-0.000132085
0.000223863
-0.000205304
0.000262354
-0.000281939
0.000278138
-0.000357571
0.000274767
-0.000428352
0.000254301
-0.000490511
0.000217459
-0.000540054
0.00016428
-0.000572724
9.51108e-05
-0.00058407
1.17713e-05
-0.00057046
-8.15862e-05
-0.000529372
-0.000177156
-0.000461113
-0.000263714
-0.000370019
-0.000327263
-0.000265425
-0.000353557
-0.000161359
-0.000332468
-7.41452e-05
-0.000263326
-1.79655e-05
-0.000158758
-4.47578e-05
-2.35683e-05
8.58758e-05
-7.795e-05
0.000212617
-0.000150991
0.000296903
-0.000234057
0.00034542
-0.000321087
0.000365168
-0.000407621
0.000361302
-0.000489922
0.000336602
-0.000564269
0.000291805
-0.000626472
0.000226484
-0.000671656
0.000140294
-0.000694319
3.44349e-05
-0.000688994
-8.69118e-05
-0.000651078
-0.000215072
-0.000578611
-0.000336181
-0.000474335
-0.000431539
-0.000347729
-0.000480163
-0.000215802
-0.000464396
-0.000100946
-0.000378182
-2.48221e-05
-0.000234882
-6.95799e-05
-2.63196e-05
0.000112195
-8.67834e-05
0.000273081
-0.000167655
0.000377775
-0.00025942
0.000437184
-0.000355746
0.000461495
-0.00045232
0.000457875
-0.000545729
0.000430011
-0.000632542
0.000378618
-0.000708618
0.00030256
-0.000768683
0.000200359
-0.000806229
7.19816e-05
-0.000813936
-7.92056e-05
-0.000784617
-0.000244391
-0.00071314
-0.000407657
-0.000599235
-0.000545444
-0.000450922
-0.000628476
-0.000287265
-0.000628053
-0.000137711
-0.000527736
-3.46978e-05
-0.000337895
-0.000104278
-2.86387e-05
0.000140834
-9.4219e-05
0.000338661
-0.000181524
0.00046508
-0.000280224
0.000535884
-0.000383836
0.000565107
-0.000488359
0.000562398
-0.00059094
0.000532592
-0.000688736
0.000476414
-0.000778024
0.000391848
-0.000853567
0.000275902
-0.000908273
0.000126688
-0.000933313
-5.41655e-05
-0.000918891
-0.000258813
-0.000856025
-0.000470523
-0.000739816
-0.000661653
-0.000574318
-0.000793974
-0.000378147
-0.000824224
-0.000187376
-0.000718507
-4.89147e-05
-0.000476356
-0.000153192
-3.05169e-05
0.000171351
-0.000100141
0.000408285
-0.000192084
0.000557023
-0.000295153
0.000638953
-0.000402776
0.00067273
-0.000511425
0.000671047
-0.000619035
0.000640203
-0.000723694
0.000581072
-0.000822586
0.000490741
-0.000911181
0.000364496
-0.000982634
0.000198141
-0.00102747
-9.32686e-06
-0.00103397
-0.00025232
-0.000989243
-0.000515246
-0.000882456
-0.00076844
-0.00071059
-0.000965841
-0.000487355
-0.00104746
-0.000252209
-0.000953653
-6.90934e-05
-0.000659472
-0.000222286
-3.2125e-05
0.000203476
-0.000104833
0.000480993
-0.000199307
0.000651498
-0.000303291
0.000742937
-0.000410175
0.000779614
-0.000517063
0.000777935
-0.000622922
0.000746062
-0.000727124
0.000685274
-0.000828314
0.000591932
-0.000923498
0.00045968
-0.00100722
0.000281858
-0.00107081
5.4268e-05
-0.00110201
-0.000221115
-0.00108514
-0.000532115
-0.00100309
-0.000850495
-0.000842969
-0.00112596
-0.000607601
-0.00128283
-0.00033251
-0.00122874
-9.7151e-05
-0.000894831
-0.000319437
-3.40262e-05
0.000237502
-0.00010942
0.000556387
-0.000204232
0.00074631
-0.000304825
0.00084353
-0.000404696
0.000879486
-0.000501853
0.000875091
-0.00059657
0.00084078
-0.000689846
0.000778549
-0.000782306
0.000684391
-0.000873304
0.000550679
-0.000960003
0.000368556
-0.00103629
0.000130559
-0.0010915
-0.000165913
-0.00110942
-0.000514191
-0.00106814
-0.000891776
-0.00094381
-0.00125029
-0.000722442
-0.00150419
-0.000424305
-0.00152688
-0.000134998
-0.00118414
-0.000454434
-3.7522e-05
0.000275024
-0.000116467
0.000635331
-0.000209604
0.000839447
-0.000301665
0.00093559
-0.000386782
0.000964603
-0.000464409
0.000952718
-0.000536529
0.0009129
-0.000606079
0.000848099
-0.000676028
0.000754341
-0.000748654
0.000623305
-0.000824699
0.000444601
-0.000902172
0.000208031
-0.000974328
-9.37565e-05
-0.00102781
-0.000460706
-0.00103941
-0.000880181
-0.000976361
-0.00131334
-0.000804612
-0.00167594
-0.000516261
-0.00181523
-0.000183522
-0.00151688
-0.000637956
-4.52373e-05
0.000320262
-0.000130701
0.000720795
-0.000220272
0.000929018
-0.000297455
0.00101277
-0.000358423
0.00102557
-0.000405164
0.000999459
-0.000441978
0.000949713
-0.000474025
0.000880147
-0.000506739
0.000787054
-0.000545439
0.000662005
-0.000594769
0.00049393
-0.000657733
0.000270996
-0.000733346
-1.81436e-05
-0.000814622
-0.000379431
-0.000882227
-0.000812575
-0.000900441
-0.00129512
-0.000817276
-0.00175911
-0.000586842
-0.00204567
-0.000240298
-0.00186342
-0.000878254
-6.21143e-05
0.000382376
-0.000159643
0.000818324
-0.000242501
0.00101188
-0.000295582
0.00106585
-0.00032023
0.00105022
-0.000322821
0.00100205
-0.000310835
0.000937727
-0.000291876
0.000861188
-0.000273645
0.000768823
-0.000264112
0.000652473
-0.000271308
0.000501126
-0.000302845
0.000302533
-0.000364918
4.39292e-05
-0.000457957
-0.000286392
-0.000572891
-0.000697641
-0.000679896
-0.00118812
-0.000718298
-0.00172071
-0.000602857
-0.00216111
-0.000295633
-0.00217065
-0.00117389
-9.67446e-05
0.000479121
-0.000212657
0.000934237
-0.000279112
0.00107833
-0.000291148
0.00107789
-0.000261254
0.00102033
-0.000202811
0.000943607
-0.00012736
0.000862277
-4.48766e-05
0.000778704
3.52521e-05
0.000688694
0.00010355
0.000584174
0.00014964
0.000455037
0.000162431
0.000289741
0.00013047
7.58904e-05
4.4259e-05
-0.000200181
-9.94832e-05
-0.000553899
-0.000286848
-0.00100075
-0.000465373
-0.00154218
-0.000519381
-0.0021071
-0.000327873
-0.00236215
-0.00150176
-0.000161355
0.000640475
-0.00029085
0.00106373
-0.000309238
0.00109672
-0.0002447
0.00101335
-0.000130197
0.000905822
1.18145e-05
0.000801596
0.000166275
0.000707817
0.00032206
0.000622919
0.000469767
0.000540987
0.000599873
0.000454069
0.000701713
0.000353197
0.000762729
0.000228725
0.000768187
7.04329e-05
0.000702038
-0.000134032
0.000548753
-0.000400614
0.000302525
-0.000754526
-6.77506e-06
-0.00123288
-0.000279098
-0.00183478
-0.000301564
-0.00233969
-0.00180332
-0.000261569
0.000902044
-0.00033463
0.00113679
-0.000216064
0.000978153
-8.09154e-06
0.000805379
0.000231945
0.000665786
0.000478198
0.000555343
0.000717986
0.000468028
0.000943772
0.000397133
0.00114953
0.000335228
0.00132859
0.000275006
0.00147224
0.000209549
0.00156876
0.000132205
0.00160273
3.64644e-05
0.00155568
-8.69768e-05
0.00140342
-0.000248357
0.00111972
-0.000470831
0.000692262
-0.00080542
0.000194187
-0.0013367
-0.000134935
-0.00201057
-0.00193826
-0.00025889
0.00116093
-4.16665e-06
0.00088207
0.000419074
0.000554912
0.000826492
0.000397961
0.00119167
0.000300604
0.00151539
0.000231628
0.00180087
0.000182545
0.00205127
0.000146735
0.00226817
0.000118323
0.00245043
9.27516e-05
0.00259351
6.64645e-05
0.00268905
3.66695e-05
0.00272309
2.41719e-06
0.00268149
-4.53676e-05
0.00253654
-0.000103412
0.00225195
-0.000186244
0.00177597
-0.00032944
0.00107925
-0.000639979
0.000313886
-0.0012452
-0.00162437
0.00116093
0.002043
0.00259792
0.00299588
0.00329648
0.00352811
0.00371066
0.00385739
0.00397571
0.00406847
0.00413493
0.0041716
0.00417402
0.00412865
0.00402524
0.00383899
0.00350955
0.00286957
0.00162437
)
;

boundaryField
{
    movingWall
    {
        type            calculated;
        value           uniform 0;
    }
    fixedWalls
    {
        type            calculated;
        value           uniform 0;
    }
    frontAndBack
    {
        type            empty;
    }
}


// ************************************************************************* //
