/*--------------------------------*- C++ -*----------------------------------*\
  =========                 |
  \\      /  F ield         | OpenFOAM: The Open Source CFD Toolbox
   \\    /   O peration     | Website:  https://openfoam.org
    \\  /    A nd           | Version:  dev
     \\/     M anipulation  |
\*---------------------------------------------------------------------------*/
FoamFile
{
    format      ascii;
    class       volVectorField;
    location    "3.6";
    object      U;
}
// * * * * * * * * * * * * * * * * * * * * * * * * * * * * * * * * * * * * * //

dimensions      [0 1 -1 0 0 0 0];

internalField   nonuniform List<vector> 
400
(
(0.000164008 -0.000165205 0)
(-6.24067e-05 0.000148132 0)
(-0.00126006 0.000476725 0)
(-0.00311996 0.000680266 0)
(-0.00534524 0.000775517 0)
(-0.00769453 0.000792155 0)
(-0.00997358 0.000748227 0)
(-0.0120134 0.000649173 0)
(-0.0136499 0.000492449 0)
(-0.0147166 0.000275145 0)
(-0.0150563 1.99572e-06 0)
(-0.0145504 -0.000308955 0)
(-0.0131601 -0.000619116 0)
(-0.0109687 -0.000875086 0)
(-0.00820764 -0.00101712 0)
(-0.00525018 -0.000995204 0)
(-0.00255703 -0.000788227 0)
(-0.00056755 -0.000422885 0)
(0.000377238 -2.92478e-06 0)
(0.000276249 0.000260497 0)
(-0.000153119 5.32868e-05 0)
(-0.00163378 0.00158648 0)
(-0.00511738 0.0030155 0)
(-0.00992186 0.00394009 0)
(-0.0154511 0.00438122 0)
(-0.0212052 0.00442089 0)
(-0.0267337 0.00411896 0)
(-0.0316221 0.00350046 0)
(-0.035474 0.00256924 0)
(-0.0379108 0.00133599 0)
(-0.0386016 -0.000150565 0)
(-0.0373184 -0.00177907 0)
(-0.0340146 -0.0033615 0)
(-0.0289016 -0.00465044 0)
(-0.0224862 -0.00538151 0)
(-0.0155523 -0.00534399 0)
(-0.00905114 -0.00446375 0)
(-0.00390098 -0.00287565 0)
(-0.000780297 -0.000989054 0)
(0.000103922 0.000403109 0)
(-0.000542147 0.00131449 0)
(-0.00338404 0.00516183 0)
(-0.00908555 0.0084006 0)
(-0.0164953 0.0104982 0)
(-0.0247777 0.0114807 0)
(-0.0332764 0.0114835 0)
(-0.0413805 0.0106168 0)
(-0.0485138 0.00893668 0)
(-0.0541241 0.0064705 0)
(-0.057688 0.00327264 0)
(-0.0587522 -0.000512195 0)
(-0.0570029 -0.00459988 0)
(-0.0523648 -0.00854158 0)
(-0.0450986 -0.0117631 0)
(-0.035859 -0.0136587 0)
(-0.0256849 -0.0137477 0)
(-0.0158713 -0.0118616 0)
(-0.00771535 -0.00830062 0)
(-0.00227021 -0.00391739 0)
(-0.000168631 -0.000241968 0)
(-0.000880299 0.00350925 0)
(-0.0049884 0.0106235 0)
(-0.0127864 0.0161455 0)
(-0.0225998 0.0196297 0)
(-0.033355 0.0211936 0)
(-0.0442827 0.0210578 0)
(-0.0546722 0.0193923 0)
(-0.0638473 0.0162861 0)
(-0.0711504 0.011792 0)
(-0.0759452 0.00601465 0)
(-0.0776606 -0.000788901 0)
(-0.0758629 -0.0081346 0)
(-0.0703751 -0.0152587 0)
(-0.0614117 -0.0211822 0)
(-0.0496713 -0.0248527 0)
(-0.0363742 -0.0254014 0)
(-0.023151 -0.0224673 0)
(-0.0117505 -0.0164796 0)
(-0.00375803 -0.0087803 0)
(-0.000399195 -0.00166363 0)
(-0.0011702 0.00652663 0)
(-0.00642834 0.0178021 0)
(-0.016178 0.0260282 0)
(-0.0282343 0.0310558 0)
(-0.0412967 0.0332119 0)
(-0.0545112 0.0328582 0)
(-0.0671111 0.0302419 0)
(-0.0783649 0.0254814 0)
(-0.0875439 0.0186392 0)
(-0.0939098 0.00984762 0)
(-0.0967551 -0.000546733 0)
(-0.0954653 -0.011849 0)
(-0.0896643 -0.0229846 0)
(-0.0794023 -0.0325028 0)
(-0.0653072 -0.0387767 0)
(-0.0487169 -0.040369 0)
(-0.0316308 -0.0365363 0)
(-0.0164014 -0.027714 0)
(-0.00538319 -0.0157469 0)
(-0.000609159 -0.00383458 0)
(-0.00142496 0.0102801 0)
(-0.00772626 0.0265694 0)
(-0.0192777 0.0379239 0)
(-0.0334271 0.0446684 0)
(-0.0486726 0.0474626 0)
(-0.0641047 0.0468767 0)
(-0.0789383 0.0432591 0)
(-0.0924264 0.0367497 0)
(-0.1038 0.0273893 0)
(-0.112228 0.0152906 0)
(-0.116823 0.000835086 0)
(-0.116742 -0.0151366 0)
(-0.111318 -0.0312366 0)
(-0.100275 -0.0454893 0)
(-0.0840196 -0.0555397 0)
(-0.0638997 -0.0591191 0)
(-0.0422863 -0.0547837 0)
(-0.0223097 -0.0427307 0)
(-0.00743179 -0.025292 0)
(-0.000859473 -0.00686293 0)
(-0.00165099 0.0146956 0)
(-0.00889225 0.03679 0)
(-0.0220835 0.0516862 0)
(-0.0381562 0.0603398 0)
(-0.0554392 0.0638647 0)
(-0.0729994 0.0631127 0)
(-0.0900721 0.0585609 0)
(-0.105936 0.0503586 0)
(-0.119815 0.0384804 0)
(-0.130804 0.0229483 0)
(-0.13785 0.00408716 0)
(-0.139818 -0.0172251 0)
(-0.135644 -0.0393283 0)
(-0.124586 -0.0597056 0)
(-0.106631 -0.0751183 0)
(-0.0829314 -0.0821326 0)
(-0.0561208 -0.0781232 0)
(-0.0302274 -0.0625948 0)
(-0.0102614 -0.0382337 0)
(-0.0012261 -0.0110306 0)
(-0.00184807 0.0197006 0)
(-0.00991704 0.0483141 0)
(-0.0245554 0.0671322 0)
(-0.0423235 0.0778862 0)
(-0.0614111 0.0822651 0)
(-0.0808934 0.0814805 0)
(-0.100067 0.0761703 0)
(-0.118282 0.0664817 0)
(-0.134806 0.0522709 0)
(-0.148709 0.0333785 0)
(-0.1588 0.00995189 0)
(-0.163662 -0.017211 0)
(-0.161779 -0.04632 0)
(-0.151818 -0.0743678 0)
(-0.133106 -0.0971308 0)
(-0.10628 -0.109656 0)
(-0.0739324 -0.107491 0)
(-0.0409246 -0.0886637 0)
(-0.014291 -0.055775 0)
(-0.00180443 -0.0168262 0)
(-0.0020132 0.025214 0)
(-0.0107817 0.0609648 0)
(-0.0266284 0.0840215 0)
(-0.0457699 0.0970264 0)
(-0.0662775 0.102369 0)
(-0.0872621 0.101708 0)
(-0.108121 0.0958827 0)
(-0.128331 0.0850352 0)
(-0.14727 0.0688578 0)
(-0.164061 0.0469218 0)
(-0.17747 0.0190657 0)
(-0.185876 -0.0141649 0)
(-0.187355 -0.0510424 0)
(-0.179921 -0.0882377 0)
(-0.162029 -0.120582 0)
(-0.133384 -0.141345 0)
(-0.0959685 -0.143502 0)
(-0.0550545 -0.122401 0)
(-0.0200077 -0.0794961 0)
(-0.00272695 -0.0249828 0)
(-0.00214864 0.0311448 0)
(-0.0114837 0.0745342 0)
(-0.0282564 0.102035 0)
(-0.0483332 0.117334 0)
(-0.0696711 0.123662 0)
(-0.0914388 0.123224 0)
(-0.113174 0.117117 0)
(-0.134534 0.105493 0)
(-0.155089 0.0878564 0)
(-0.174135 0.0634441 0)
(-0.190541 0.0316691 0)
(-0.202663 -0.00735962 0)
(-0.208332 -0.0522353 0)
(-0.204994 -0.099611 0)
(-0.190123 -0.14364 0)
(-0.162071 -0.175817 0)
(-0.121421 -0.185904 0)
(-0.0728969 -0.16497 0)
(-0.0279599 -0.111255 0)
(-0.00419269 -0.0365341 0)
(-0.00227596 0.0374128 0)
(-0.012082 0.0888069 0)
(-0.0294882 0.120777 0)
(-0.0499462 0.138209 0)
(-0.0712886 0.145348 0)
(-0.0927662 0.145069 0)
(-0.114097 0.138798 0)
(-0.135176 0.126734 0)
(-0.155856 0.108208 0)
(-0.175736 0.0821045 0)
(-0.193991 0.0473398 0)
(-0.209214 0.00342946 0)
(-0.219289 -0.0488245 0)
(-0.221367 -0.106489 0)
(-0.212053 -0.163587 0)
(-0.188091 -0.210272 0)
(-0.14781 -0.232883 0)
(-0.0939032 -0.216534 0)
(-0.0386763 -0.15291 0)
(-0.00650233 -0.0528835 0)
(-0.00245974 0.0440027 0)
(-0.0127656 0.103625 0)
(-0.0305718 0.139805 0)
(-0.0507648 0.158872 0)
(-0.0710441 0.166327 0)
(-0.0907948 0.165859 0)
(-0.109971 0.159308 0)
(-0.128765 0.146982 0)
(-0.147388 0.128092 0)
(-0.165877 0.101213 0)
(-0.183911 0.0647714 0)
(-0.200616 0.0176075 0)
(-0.214326 -0.0403223 0)
(-0.222354 -0.106994 0)
(-0.220855 -0.177093 0)
(-0.205074 -0.240401 0)
(-0.170488 -0.280433 0)
(-0.116057 -0.275277 0)
(-0.0524161 -0.205712 0)
(-0.0100758 -0.075855 0)
(-0.00284959 0.051074 0)
(-0.0139549 0.119006 0)
(-0.032081 0.158689 0)
(-0.051291 0.178384 0)
(-0.0691961 0.185202 0)
(-0.0854445 0.183815 0)
(-0.100324 0.17655 0)
(-0.114391 0.163888 0)
(-0.128279 0.145004 0)
(-0.142544 0.118267 0)
(-0.157518 0.0817079 0)
(-0.173106 0.0335275 0)
(-0.188474 -0.02728 0)
(-0.201683 -0.100024 0)
(-0.209147 -0.180931 0)
(-0.205252 -0.260858 0)
(-0.182662 -0.322168 0)
(-0.135271 -0.336358 0)
(-0.0686369 -0.269201 0)
(-0.0153899 -0.107605 0)
(-0.00375778 0.0591635 0)
(-0.0164539 0.135307 0)
(-0.0350359 0.177054 0)
(-0.0524117 0.19563 0)
(-0.0663164 0.200288 0)
(-0.0769493 0.196829 0)
(-0.0851069 0.188089 0)
(-0.0917892 0.174751 0)
(-0.098084 0.156031 0)
(-0.105086 0.130222 0)
(-0.11381 0.095125 0)
(-0.125043 0.0484706 0)
(-0.13904 -0.0116242 0)
(-0.155128 -0.0860088 0)
(-0.170854 -0.173101 0)
(-0.180923 -0.266468 0)
(-0.176186 -0.350034 0)
(-0.145205 -0.391433 0)
(-0.085151 -0.339635 0)
(-0.0227097 -0.150152 0)
(-0.00579904 0.0695501 0)
(-0.0216586 0.153398 0)
(-0.0409154 0.194499 0)
(-0.055126 0.209175 0)
(-0.0627838 0.209526 0)
(-0.065195 0.202492 0)
(-0.0639309 0.191311 0)
(-0.0605286 0.176799 0)
(-0.0565224 0.158238 0)
(-0.0534778 0.13395 0)
(-0.0529881 0.101685 0)
(-0.0566275 0.0589599 0)
(-0.0658008 0.00330811 0)
(-0.081299 -0.0673804 0)
(-0.102527 -0.153951 0)
(-0.126033 -0.253944 0)
(-0.14289 -0.356083 0)
(-0.137651 -0.429395 0)
(-0.0971562 -0.408677 0)
(-0.0314174 -0.20445 0)
(-0.0100879 0.0849327 0)
(-0.0316906 0.174693 0)
(-0.0511068 0.210184 0)
(-0.0592263 0.21682 0)
(-0.0569224 0.210164 0)
(-0.0475167 0.197956 0)
(-0.033659 0.183462 0)
(-0.0174694 0.167409 0)
(-0.000841134 0.149058 0)
(0.0143522 0.126792 0)
(0.026156 0.0984741 0)
(0.0324714 0.0616666 0)
(0.0310452 0.0137506 0)
(0.0197327 -0.0480259 0)
(-0.0030256 -0.126431 0)
(-0.0367867 -0.223204 0)
(-0.0756367 -0.334634 0)
(-0.103195 -0.438195 0)
(-0.0966445 -0.463337 0)
(-0.0388061 -0.269646 0)
(-0.018259 0.11083 0)
(-0.048584 0.200191 0)
(-0.0638311 0.221006 0)
(-0.0584617 0.213965 0)
(-0.0393505 0.197608 0)
(-0.012824 0.179235 0)
(0.017392 0.161329 0)
(0.0488212 0.144082 0)
(0.0795145 0.126527 0)
(0.107639 0.107074 0)
(0.131233 0.0838042 0)
(0.148037 0.0545675 0)
(0.155355 0.0170154 0)
(0.15016 -0.0315774 0)
(0.129205 -0.0946627 0)
(0.089703 -0.177055 0)
(0.0320783 -0.283454 0)
(-0.0313381 -0.406174 0)
(-0.0726979 -0.486279 0)
(-0.0385243 -0.341122 0)
(-0.0307727 0.157744 0)
(-0.0682158 0.225136 0)
(-0.0608964 0.214388 0)
(-0.0251533 0.188489 0)
(0.0214431 0.162603 0)
(0.0709089 0.139942 0)
(0.119944 0.120874 0)
(0.166756 0.104578 0)
(0.210107 0.0896966 0)
(0.248813 0.074688 0)
(0.281402 0.0579574 0)
(0.305912 0.0378603 0)
(0.319642 0.0126643 0)
(0.319357 -0.0197088 0)
(0.300857 -0.0620496 0)
(0.258966 -0.119813 0)
(0.18899 -0.203605 0)
(0.0920006 -0.32452 0)
(-0.00991524 -0.453809 0)
(-0.0168354 -0.396845 0)
(-0.0279574 0.228385 0)
(-0.0413323 0.224704 0)
(0.0376655 0.165683 0)
(0.125144 0.126326 0)
(0.203428 0.0992818 0)
(0.272302 0.079311 0)
(0.333075 0.0644139 0)
(0.386538 0.0530342 0)
(0.433185 0.043696 0)
(0.473105 0.035121 0)
(0.50577 0.0262117 0)
(0.529964 0.015984 0)
(0.543408 0.00348878 0)
(0.543515 -0.0119966 0)
(0.526088 -0.0322581 0)
(0.48515 -0.0606162 0)
(0.412065 -0.106404 0)
(0.293969 -0.193394 0)
(0.130412 -0.332817 0)
(0.0660908 -0.369943 0)
(0.261325 0.138367 0)
(0.32464 0.118858 0)
(0.456851 0.077717 0)
(0.561555 0.051929 0)
(0.632969 0.0361249 0)
(0.684981 0.0257271 0)
(0.725528 0.0187463 0)
(0.758031 0.0139929 0)
(0.784285 0.0105731 0)
(0.805248 0.00782751 0)
(0.821141 0.00526944 0)
(0.831557 0.0025371 0)
(0.835561 -0.000719127 0)
(0.831611 -0.00441645 0)
(0.817083 -0.00921514 0)
(0.788452 -0.0159805 0)
(0.738102 -0.0271517 0)
(0.648407 -0.0516974 0)
(0.474133 -0.111461 0)
(0.340753 -0.156296 0)
)
;

boundaryField
{
    movingWall
    {
        type            fixedValue;
        value           uniform (1 0 0);
    }
    fixedWalls
    {
        type            noSlip;
    }
    frontAndBack
    {
        type            empty;
    }
}


// ************************************************************************* //
