/*--------------------------------*- C++ -*----------------------------------*\
  =========                 |
  \\      /  F ield         | OpenFOAM: The Open Source CFD Toolbox
   \\    /   O peration     | Website:  https://openfoam.org
    \\  /    A nd           | Version:  dev
     \\/     M anipulation  |
\*---------------------------------------------------------------------------*/
FoamFile
{
    format      ascii;
    class       volScalarField;
    location    "3.6";
    object      Ux;
}
// * * * * * * * * * * * * * * * * * * * * * * * * * * * * * * * * * * * * * //

dimensions      [0 1 -1 0 0 0 0];

internalField   nonuniform List<scalar> 
400
(
0.000164008
-6.24067e-05
-0.00126006
-0.00311996
-0.00534524
-0.00769453
-0.00997358
-0.0120134
-0.0136499
-0.0147166
-0.0150563
-0.0145504
-0.0131601
-0.0109687
-0.00820764
-0.00525018
-0.00255703
-0.00056755
0.000377238
0.000276249
-0.000153119
-0.00163378
-0.00511738
-0.00992186
-0.0154511
-0.0212052
-0.0267337
-0.0316221
-0.035474
-0.0379108
-0.0386016
-0.0373184
-0.0340146
-0.0289016
-0.0224862
-0.0155523
-0.00905114
-0.00390098
-0.000780297
0.000103922
-0.000542147
-0.00338404
-0.00908555
-0.0164953
-0.0247777
-0.0332764
-0.0413805
-0.0485138
-0.0541241
-0.057688
-0.0587522
-0.0570029
-0.0523648
-0.0450986
-0.035859
-0.0256849
-0.0158713
-0.00771535
-0.00227021
-0.000168631
-0.000880299
-0.0049884
-0.0127864
-0.0225998
-0.033355
-0.0442827
-0.0546722
-0.0638473
-0.0711504
-0.0759452
-0.0776606
-0.0758629
-0.0703751
-0.0614117
-0.0496713
-0.0363742
-0.023151
-0.0117505
-0.00375803
-0.000399195
-0.0011702
-0.00642834
-0.016178
-0.0282343
-0.0412967
-0.0545112
-0.0671111
-0.0783649
-0.0875439
-0.0939098
-0.0967551
-0.0954653
-0.0896643
-0.0794023
-0.0653072
-0.0487169
-0.0316308
-0.0164014
-0.00538319
-0.000609159
-0.00142496
-0.00772626
-0.0192777
-0.0334271
-0.0486726
-0.0641047
-0.0789383
-0.0924264
-0.1038
-0.112228
-0.116823
-0.116742
-0.111318
-0.100275
-0.0840196
-0.0638997
-0.0422863
-0.0223097
-0.00743179
-0.000859473
-0.00165099
-0.00889225
-0.0220835
-0.0381562
-0.0554392
-0.0729994
-0.0900721
-0.105936
-0.119815
-0.130804
-0.13785
-0.139818
-0.135644
-0.124586
-0.106631
-0.0829314
-0.0561208
-0.0302274
-0.0102614
-0.0012261
-0.00184807
-0.00991704
-0.0245554
-0.0423235
-0.0614111
-0.0808934
-0.100067
-0.118282
-0.134806
-0.148709
-0.1588
-0.163662
-0.161779
-0.151818
-0.133106
-0.10628
-0.0739324
-0.0409246
-0.014291
-0.00180443
-0.0020132
-0.0107817
-0.0266284
-0.0457699
-0.0662775
-0.0872621
-0.108121
-0.128331
-0.14727
-0.164061
-0.17747
-0.185876
-0.187355
-0.179921
-0.162029
-0.133384
-0.0959685
-0.0550545
-0.0200077
-0.00272695
-0.00214864
-0.0114837
-0.0282564
-0.0483332
-0.0696711
-0.0914388
-0.113174
-0.134534
-0.155089
-0.174135
-0.190541
-0.202663
-0.208332
-0.204994
-0.190123
-0.162071
-0.121421
-0.0728969
-0.0279599
-0.00419269
-0.00227596
-0.012082
-0.0294882
-0.0499462
-0.0712886
-0.0927662
-0.114097
-0.135176
-0.155856
-0.175736
-0.193991
-0.209214
-0.219289
-0.221367
-0.212053
-0.188091
-0.14781
-0.0939032
-0.0386763
-0.00650233
-0.00245974
-0.0127656
-0.0305718
-0.0507648
-0.0710441
-0.0907948
-0.109971
-0.128765
-0.147388
-0.165877
-0.183911
-0.200616
-0.214326
-0.222354
-0.220855
-0.205074
-0.170488
-0.116057
-0.0524161
-0.0100758
-0.00284959
-0.0139549
-0.032081
-0.051291
-0.0691961
-0.0854445
-0.100324
-0.114391
-0.128279
-0.142544
-0.157518
-0.173106
-0.188474
-0.201683
-0.209147
-0.205252
-0.182662
-0.135271
-0.0686369
-0.0153899
-0.00375778
-0.0164539
-0.0350359
-0.0524117
-0.0663164
-0.0769493
-0.0851069
-0.0917892
-0.098084
-0.105086
-0.11381
-0.125043
-0.13904
-0.155128
-0.170854
-0.180923
-0.176186
-0.145205
-0.085151
-0.0227097
-0.00579904
-0.0216586
-0.0409154
-0.055126
-0.0627838
-0.065195
-0.0639309
-0.0605286
-0.0565224
-0.0534778
-0.0529881
-0.0566275
-0.0658008
-0.081299
-0.102527
-0.126033
-0.14289
-0.137651
-0.0971562
-0.0314174
-0.0100879
-0.0316906
-0.0511068
-0.0592263
-0.0569224
-0.0475167
-0.033659
-0.0174694
-0.000841134
0.0143522
0.026156
0.0324714
0.0310452
0.0197327
-0.0030256
-0.0367867
-0.0756367
-0.103195
-0.0966445
-0.0388061
-0.018259
-0.048584
-0.0638311
-0.0584617
-0.0393505
-0.012824
0.017392
0.0488212
0.0795145
0.107639
0.131233
0.148037
0.155355
0.15016
0.129205
0.089703
0.0320783
-0.0313381
-0.0726979
-0.0385243
-0.0307727
-0.0682158
-0.0608964
-0.0251533
0.0214431
0.0709089
0.119944
0.166756
0.210107
0.248813
0.281402
0.305912
0.319642
0.319357
0.300857
0.258966
0.18899
0.0920006
-0.00991524
-0.0168354
-0.0279574
-0.0413323
0.0376655
0.125144
0.203428
0.272302
0.333075
0.386538
0.433185
0.473105
0.50577
0.529964
0.543408
0.543515
0.526088
0.48515
0.412065
0.293969
0.130412
0.0660908
0.261325
0.32464
0.456851
0.561555
0.632969
0.684981
0.725528
0.758031
0.784285
0.805248
0.821141
0.831557
0.835561
0.831611
0.817083
0.788452
0.738102
0.648407
0.474133
0.340753
)
;

boundaryField
{
    movingWall
    {
        type            calculated;
        value           uniform 1;
    }
    fixedWalls
    {
        type            calculated;
        value           uniform 0;
    }
    frontAndBack
    {
        type            empty;
    }
}


// ************************************************************************* //
