/*--------------------------------*- C++ -*----------------------------------*\
  =========                 |
  \\      /  F ield         | OpenFOAM: The Open Source CFD Toolbox
   \\    /   O peration     | Website:  https://openfoam.org
    \\  /    A nd           | Version:  dev
     \\/     M anipulation  |
\*---------------------------------------------------------------------------*/
FoamFile
{
    format      ascii;
    class       volScalarField;
    location    "3.6";
    object      Uy;
}
// * * * * * * * * * * * * * * * * * * * * * * * * * * * * * * * * * * * * * //

dimensions      [0 1 -1 0 0 0 0];

internalField   nonuniform List<scalar> 
400
(
-0.000165205
0.000148132
0.000476725
0.000680266
0.000775517
0.000792155
0.000748227
0.000649173
0.000492449
0.000275145
1.99572e-06
-0.000308955
-0.000619116
-0.000875086
-0.00101712
-0.000995204
-0.000788227
-0.000422885
-2.92478e-06
0.000260497
5.32868e-05
0.00158648
0.0030155
0.00394009
0.00438122
0.00442089
0.00411896
0.00350046
0.00256924
0.00133599
-0.000150565
-0.00177907
-0.0033615
-0.00465044
-0.00538151
-0.00534399
-0.00446375
-0.00287565
-0.000989054
0.000403109
0.00131449
0.00516183
0.0084006
0.0104982
0.0114807
0.0114835
0.0106168
0.00893668
0.0064705
0.00327264
-0.000512195
-0.00459988
-0.00854158
-0.0117631
-0.0136587
-0.0137477
-0.0118616
-0.00830062
-0.00391739
-0.000241968
0.00350925
0.0106235
0.0161455
0.0196297
0.0211936
0.0210578
0.0193923
0.0162861
0.011792
0.00601465
-0.000788901
-0.0081346
-0.0152587
-0.0211822
-0.0248527
-0.0254014
-0.0224673
-0.0164796
-0.0087803
-0.00166363
0.00652663
0.0178021
0.0260282
0.0310558
0.0332119
0.0328582
0.0302419
0.0254814
0.0186392
0.00984762
-0.000546733
-0.011849
-0.0229846
-0.0325028
-0.0387767
-0.040369
-0.0365363
-0.027714
-0.0157469
-0.00383458
0.0102801
0.0265694
0.0379239
0.0446684
0.0474626
0.0468767
0.0432591
0.0367497
0.0273893
0.0152906
0.000835086
-0.0151366
-0.0312366
-0.0454893
-0.0555397
-0.0591191
-0.0547837
-0.0427307
-0.025292
-0.00686293
0.0146956
0.03679
0.0516862
0.0603398
0.0638647
0.0631127
0.0585609
0.0503586
0.0384804
0.0229483
0.00408716
-0.0172251
-0.0393283
-0.0597056
-0.0751183
-0.0821326
-0.0781232
-0.0625948
-0.0382337
-0.0110306
0.0197006
0.0483141
0.0671322
0.0778862
0.0822651
0.0814805
0.0761703
0.0664817
0.0522709
0.0333785
0.00995189
-0.017211
-0.04632
-0.0743678
-0.0971308
-0.109656
-0.107491
-0.0886637
-0.055775
-0.0168262
0.025214
0.0609648
0.0840215
0.0970264
0.102369
0.101708
0.0958827
0.0850352
0.0688578
0.0469218
0.0190657
-0.0141649
-0.0510424
-0.0882377
-0.120582
-0.141345
-0.143502
-0.122401
-0.0794961
-0.0249828
0.0311448
0.0745342
0.102035
0.117334
0.123662
0.123224
0.117117
0.105493
0.0878564
0.0634441
0.0316691
-0.00735962
-0.0522353
-0.099611
-0.14364
-0.175817
-0.185904
-0.16497
-0.111255
-0.0365341
0.0374128
0.0888069
0.120777
0.138209
0.145348
0.145069
0.138798
0.126734
0.108208
0.0821045
0.0473398
0.00342946
-0.0488245
-0.106489
-0.163587
-0.210272
-0.232883
-0.216534
-0.15291
-0.0528835
0.0440027
0.103625
0.139805
0.158872
0.166327
0.165859
0.159308
0.146982
0.128092
0.101213
0.0647714
0.0176075
-0.0403223
-0.106994
-0.177093
-0.240401
-0.280433
-0.275277
-0.205712
-0.075855
0.051074
0.119006
0.158689
0.178384
0.185202
0.183815
0.17655
0.163888
0.145004
0.118267
0.0817079
0.0335275
-0.02728
-0.100024
-0.180931
-0.260858
-0.322168
-0.336358
-0.269201
-0.107605
0.0591635
0.135307
0.177054
0.19563
0.200288
0.196829
0.188089
0.174751
0.156031
0.130222
0.095125
0.0484706
-0.0116242
-0.0860088
-0.173101
-0.266468
-0.350034
-0.391433
-0.339635
-0.150152
0.0695501
0.153398
0.194499
0.209175
0.209526
0.202492
0.191311
0.176799
0.158238
0.13395
0.101685
0.0589599
0.00330811
-0.0673804
-0.153951
-0.253944
-0.356083
-0.429395
-0.408677
-0.20445
0.0849327
0.174693
0.210184
0.21682
0.210164
0.197956
0.183462
0.167409
0.149058
0.126792
0.0984741
0.0616666
0.0137506
-0.0480259
-0.126431
-0.223204
-0.334634
-0.438195
-0.463337
-0.269646
0.11083
0.200191
0.221006
0.213965
0.197608
0.179235
0.161329
0.144082
0.126527
0.107074
0.0838042
0.0545675
0.0170154
-0.0315774
-0.0946627
-0.177055
-0.283454
-0.406174
-0.486279
-0.341122
0.157744
0.225136
0.214388
0.188489
0.162603
0.139942
0.120874
0.104578
0.0896966
0.074688
0.0579574
0.0378603
0.0126643
-0.0197088
-0.0620496
-0.119813
-0.203605
-0.32452
-0.453809
-0.396845
0.228385
0.224704
0.165683
0.126326
0.0992818
0.079311
0.0644139
0.0530342
0.043696
0.035121
0.0262117
0.015984
0.00348878
-0.0119966
-0.0322581
-0.0606162
-0.106404
-0.193394
-0.332817
-0.369943
0.138367
0.118858
0.077717
0.051929
0.0361249
0.0257271
0.0187463
0.0139929
0.0105731
0.00782751
0.00526944
0.0025371
-0.000719127
-0.00441645
-0.00921514
-0.0159805
-0.0271517
-0.0516974
-0.111461
-0.156296
)
;

boundaryField
{
    movingWall
    {
        type            calculated;
        value           uniform 0;
    }
    fixedWalls
    {
        type            calculated;
        value           uniform 0;
    }
    frontAndBack
    {
        type            empty;
    }
}


// ************************************************************************* //
