/*--------------------------------*- C++ -*----------------------------------*\
  =========                 |
  \\      /  F ield         | OpenFOAM: The Open Source CFD Toolbox
   \\    /   O peration     | Website:  https://openfoam.org
    \\  /    A nd           | Version:  dev
     \\/     M anipulation  |
\*---------------------------------------------------------------------------*/
FoamFile
{
    format      ascii;
    class       volScalarField;
    location    "49.05";
    object      p;
}
// * * * * * * * * * * * * * * * * * * * * * * * * * * * * * * * * * * * * * //

dimensions      [0 2 -2 0 0 0 0];

internalField   nonuniform List<scalar> 
5184
(
7.0635e-07
-1.13666e-05
-9.73719e-05
-0.00025033
-0.000449843
-0.000678625
-0.000922439
-0.0011693
-0.00141007
-0.00163761
-0.00184649
-0.00203269
-0.00219328
-0.00232615
-0.00242983
-0.0025033
-0.0025459
-0.00255719
-0.00253689
-0.00248483
-0.00240094
-0.00228518
-0.00213761
-0.00195837
-0.00174769
-0.00150595
-0.0012337
-0.000931683
-0.000600894
-0.000242604
0.000141604
0.000549803
0.000979701
0.00142862
0.00189351
0.00237091
0.002857
0.00334762
0.00383829
0.00432426
0.00480059
0.00526221
0.00570399
0.00612085
0.00650783
0.00686023
0.00717366
0.00744421
0.00766849
0.00784378
0.00796806
0.00804012
0.00805963
0.00802714
0.00794416
0.00781312
0.00763744
0.00742143
0.0071703
0.00689011
0.00658772
0.00627076
0.00594753
0.005627
0.00531872
0.00503278
0.00477971
0.0045701
0.00441394
0.00431966
0.00429275
0.00432006
1.37074e-05
1.16981e-06
-7.34717e-05
-0.000201313
-0.000366667
-0.000557042
-0.000761506
-0.000970457
-0.00117597
-0.00137166
-0.00155247
-0.0017145
-0.00185477
-0.00197105
-0.0020617
-0.00212551
-0.00216163
-0.00216946
-0.00214856
-0.00209866
-0.00201957
-0.0019112
-0.00177356
-0.00160677
-0.00141103
-0.00118672
-0.000934379
-0.000654722
-0.000348714
-1.75724e-05
0.000337198
0.00071378
0.00111002
0.00152344
0.00195118
0.00239006
0.00283656
0.00328686
0.00373687
0.00418225
0.00461851
0.00504105
0.00544522
0.00582644
0.00618025
0.00650242
0.00678905
0.00703665
0.00724225
0.00740344
0.00751851
0.00758647
0.00760712
0.00758109
0.00750984
0.00739572
0.0072419
0.00705241
0.00683204
0.00658635
0.00632159
0.00604464
0.00576294
0.00548442
0.0052174
0.00497044
0.00475224
0.00457116
0.00443451
0.00434821
0.00431966
0.00434726
0.000100309
7.56029e-05
2.30689e-07
-0.000117383
-0.000265183
-0.000433517
-0.000613676
-0.000797831
-0.000979284
-0.00115247
-0.00131289
-0.00145695
-0.00158183
-0.00168536
-0.0017659
-0.00182221
-0.00185334
-0.00185862
-0.00183756
-0.00178978
-0.00171504
-0.00161321
-0.00148424
-0.00132819
-0.00114526
-0.000935774
-0.000700216
-0.00043927
-0.000153834
0.000154953
0.000485677
0.000836637
0.00120582
0.0015909
0.00198923
0.00239783
0.00281343
0.00323247
0.00365114
0.00406543
0.00447117
0.00486409
0.0052399
0.00559434
0.00592332
0.00622292
0.00648957
0.00672007
0.00691169
0.00706228
0.0071703
0.00723489
0.00725595
0.00723412
0.00717084
0.00706836
0.00692968
0.00675858
0.00655955
0.00633775
0.00609895
0.00584945
0.005596
0.00534574
0.00510604
0.00488433
0.00468815
0.00452451
0.00439946
0.00431824
0.00429047
0.00432111
0.000255391
0.000203986
0.000116147
-2.86645e-06
-0.000145376
-0.000303597
-0.000470403
-0.000639428
-0.000805132
-0.000962826
-0.00110863
-0.00123942
-0.00135268
-0.00144644
-0.00151917
-0.0015697
-0.00159711
-0.00160072
-0.00157999
-0.00153455
-0.0014641
-0.00136845
-0.00124751
-0.00110131
-0.00092996
-0.000733742
-0.000513075
-0.000268566
-1.02503e-06
0.000288501
0.000598712
0.000928028
0.00127458
0.00163619
0.00201039
0.00239438
0.00278509
0.00317918
0.00357306
0.00396296
0.00434493
0.00471495
0.00506897
0.00540298
0.00571309
0.00599562
0.00624719
0.00646478
0.00664584
0.00678833
0.00689084
0.00695258
0.00697346
0.00695416
0.00689605
0.00680129
0.00667277
0.00651405
0.00632938
0.00612361
0.00590212
0.00567076
0.00543573
0.00520353
0.00498083
0.00477431
0.00459056
0.00443587
0.00431567
0.00423502
0.004204
0.00422928
0.000460212
0.000371598
0.000262966
0.000135218
-9.19596e-06
-0.00016411
-0.000323753
-0.000483124
-0.00063781
-0.000784013
-0.000918549
-0.0010388
-0.00114267
-0.00122845
-0.00129481
-0.0013407
-0.00136531
-0.00136796
-0.00134816
-0.0013055
-0.00123965
-0.0011504
-0.0010376
-0.000901211
-0.000741294
-0.00055804
-0.000351787
-0.000123045
0.000127478
0.00039885
0.000689896
0.000999173
0.00132496
0.00166523
0.00201768
0.00237969
0.00274838
0.00312059
0.00349292
0.00386178
0.00422343
0.00457403
0.0049097
0.00522661
0.00552104
0.00578945
0.0060286
0.00623558
0.00640794
0.00654374
0.0066416
0.00670077
0.0067212
0.00670349
0.00664901
0.0065598
0.00643862
0.00628889
0.00611462
0.00592039
0.00571127
0.00549269
0.0052704
0.00505037
0.00483865
0.00464129
0.00446417
0.00431293
0.00419252
0.00410772
0.00406733
0.0040772
0.000698613
0.000566567
0.000431365
0.000289281
0.000137303
-1.98011e-05
-0.000177423
-0.000331818
-0.000479652
-0.000617998
-0.000744381
-0.000856752
-0.000953436
-0.00103308
-0.00109461
-0.00113714
-0.00115996
-0.00116251
-0.00114431
-0.00110495
-0.00104411
-0.00096152
-0.000856993
-0.000730418
-0.000581778
-0.000411175
-0.000218843
-5.18429e-06
0.000229215
0.000483553
0.00075679
0.00104763
0.00135449
0.00167553
0.00200858
0.0023512
0.00270066
0.00305396
0.00340788
0.00375897
0.00410363
0.00443816
0.00475882
0.00506188
0.00534372
0.00560091
0.00583025
0.00602891
0.00619449
0.00632505
0.00641924
0.0064763
0.00649615
0.00647936
0.00642722
0.0063417
0.00622543
0.00608167
0.00591426
0.00572755
0.00552632
0.00531569
0.00510102
0.00488781
0.00468164
0.004488
0.00431221
0.00415934
0.00403393
0.00394038
0.00388519
0.00387214
0.000956806
0.000778013
0.000612433
0.000451846
0.000287876
0.000124129
-3.57723e-05
-0.000189225
-0.000333895
-0.000467694
-0.000588846
-0.00069588
-0.000787587
-0.000862983
-0.000921269
-0.000961783
-0.00098397
-0.000987355
-0.000971514
-0.000936074
-0.000880697
-0.000805088
-0.000709004
-0.000592261
-0.000454755
-0.000296484
-0.000117571
8.17104e-05
0.000300904
0.00053935
0.000796156
0.00107018
0.00135999
0.0016639
0.00197989
0.00230569
0.00263869
0.00297606
0.00331468
0.00365122
0.00398221
0.00430402
0.00461298
0.00490544
0.00517781
0.00542669
0.0056489
0.00584162
0.00600241
0.00612933
0.00622099
0.00627659
0.00629598
0.00627969
0.0062289
0.0061455
0.00603201
0.00589156
0.00572783
0.00554499
0.00534758
0.00514046
0.00492868
0.0047174
0.00451177
0.00431686
0.00413751
0.00397831
0.00384349
0.00373707
0.00366275
0.00362176
0.00122266
0.000995783
0.000797565
0.000615614
0.000436445
0.000262695
9.71567e-05
-5.85992e-05
-0.000203163
-0.000335235
-0.000453718
-0.000557711
-0.000646479
-0.000719422
-0.000776039
-0.000815901
-0.000838623
-0.000843843
-0.000831211
-0.000800384
-0.000751022
-0.000682801
-0.00059542
-0.000488619
-0.000362196
-0.000216037
-5.01396e-05
0.000135358
0.000340145
0.000563712
0.000805323
0.00106399
0.00133845
0.00162715
0.00192824
0.00223958
0.0025587
0.00288286
0.00320908
0.0035341
0.00385451
0.00416674
0.00446715
0.0047521
0.00501799
0.0052614
0.00547911
0.00566825
0.00582633
0.00595132
0.00604175
0.00609675
0.00611607
0.00610014
0.00605008
0.00596766
0.00585528
0.00571596
0.00555326
0.00537118
0.00517409
0.00496664
0.00475364
0.00453997
0.00433049
0.0041299
0.00394269
0.00377304
0.00362495
0.00350214
0.00340537
0.0033332
0.00148591
0.00121072
0.000978691
0.000773543
0.00057695
0.000390747
0.000217016
5.63991e-05
-9.05446e-05
-0.000223256
-0.000341283
-0.00044428
-0.000531976
-0.000604155
-0.000660622
-0.000701187
-0.000725641
-0.000733747
-0.000725232
-0.000699789
-0.000657078
-0.000596742
-0.000518421
-0.00042177
-0.000306483
-0.000172325
-1.91568e-05
0.000153029
0.000344076
0.000553636
0.000781135
0.00102575
0.00128637
0.00156161
0.00184976
0.0021488
0.0024564
0.00276991
0.00308641
0.00340273
0.00371548
0.00402112
0.00431599
0.0045964
0.00485874
0.00509948
0.00531534
0.00550333
0.00566085
0.00578576
0.00587646
0.00593195
0.00595188
0.00593656
0.00588697
0.00580479
0.00569231
0.00555243
0.00538859
0.00520468
0.00500494
0.00479386
0.00457608
0.00435628
0.00413908
0.00392895
0.0037301
0.0035464
0.00338172
0.00323958
0.00311783
0.0030125
0.00173755
0.00141455
0.00114831
0.000918899
0.00070342
0.000503028
0.000319201
0.000151736
4.07894e-07
-0.000134915
-0.00025439
-0.0003582
-0.000446527
-0.000519524
-0.000577301
-0.000619903
-0.0006473
-0.00065938
-0.000655948
-0.000636731
-0.000601387
-0.000549524
-0.000480716
-0.000394525
-0.000290535
-0.000168379
-2.77732e-05
0.000131445
0.000309286
0.000505567
0.000719887
0.000951588
0.00119973
0.00146308
0.00174007
0.00202881
0.00232706
0.00263228
0.0029416
0.0032519
0.00355978
0.00386169
0.00415394
0.00443277
0.00469444
0.00493535
0.00515205
0.00534142
0.00550069
0.00562757
0.00572028
0.00577766
0.0057992
0.00578505
0.00573608
0.00565382
0.00554045
0.00539877
0.0052321
0.00504426
0.00483938
0.00462185
0.0043962
0.00416698
0.00393868
0.00371561
0.00350178
0.00330087
0.00311673
0.00295281
0.00280415
0.00266442
0.00196965
0.00159978
0.00129944
0.00104527
0.00081003
0.000594285
0.000398989
0.000223164
6.58594e-05
-7.37015e-05
-0.00019625
-0.000302469
-0.000392968
-0.000468259
-0.000528742
-0.000574691
-0.000606248
-0.000623421
-0.000626089
-0.000614008
-0.00058683
-0.00054412
-0.000485377
-0.000410067
-0.000317652
-0.000207624
-7.95476e-05
6.69079e-05
0.000231925
0.000415501
0.000617411
0.000837175
0.00107402
0.00132687
0.0015943
0.00187454
0.00216547
0.0024646
0.00276913
0.00307594
0.00338163
0.00368261
0.00397511
0.00425526
0.0045192
0.00476315
0.00498351
0.00517694
0.00534048
0.0054716
0.00556834
0.00562931
0.00565379
0.00564178
0.00559396
0.00551173
0.00539713
0.00525285
0.00508214
0.00488871
0.00467665
0.0044503
0.00421413
0.00397263
0.00373024
0.0034912
0.00325944
0.00303853
0.00283242
0.0026446
0.0024675
0.00229257
0.00217505
0.00175952
0.00142557
0.00114657
0.00089113
0.000659318
0.000451606
0.000266301
0.000101772
-4.33584e-05
-0.00017036
-0.000280389
-0.000374457
-0.000453415
-0.000517938
-0.000568516
-0.000605452
-0.000628866
-0.000638701
-0.000634735
-0.000616604
-0.000583822
-0.000535807
-0.000471918
-0.000391485
-0.000293852
-0.000178419
-4.468e-05
0.000107732
0.000279001
0.000469091
0.000677706
0.000904251
0.0011478
0.00140709
0.00168046
0.0019659
0.00226099
0.00256296
0.00286871
0.0031748
0.00347758
0.00377316
0.00405757
0.00432675
0.00457674
0.0048037
0.00500406
0.00517459
0.00531252
0.0054156
0.00548221
0.00551138
0.00550287
0.00545717
0.0053755
0.00525977
0.00511256
0.00493702
0.00473681
0.00451597
0.00427884
0.0040299
0.00377365
0.00351454
0.00325684
0.00300449
0.00276109
0.00253077
0.00231718
0.00211031
0.00189949
0.00234721
0.00188738
0.00152056
0.00121696
0.00094125
0.000693005
0.00047227
0.000276679
0.000103964
-4.78194e-05
-0.000180446
-0.000295517
-0.000394422
-0.000478329
-0.000548169
-0.000604633
-0.000648173
-0.000679005
-0.000697125
-0.000702324
-0.00069421
-0.000672235
-0.000635728
-0.000583929
-0.000516028
-0.000431211
-0.000328701
-0.000207807
-6.79664e-05
9.12038e-05
0.000269866
0.000467917
0.000684946
0.000920203
0.00117256
0.00144051
0.00172211
0.00201504
0.00231655
0.00262354
0.00293254
0.00323979
0.0035413
0.00383292
0.0041104
0.00436953
0.00460621
0.00481659
0.00499712
0.00514473
0.00525684
0.00533152
0.00536751
0.0053643
0.00532215
0.00524205
0.00512577
0.00497574
0.00479504
0.00458728
0.00435649
0.00410703
0.00384343
0.0035703
0.00329216
0.00301341
0.00273808
0.00246989
0.00221328
0.00197219
0.00173427
0.00148684
0.00248002
0.0019774
0.00157864
0.00125092
0.0009551
0.000690327
0.000456226
0.000249795
6.81623e-05
-9.11527e-05
-0.000230403
-0.000351605
-0.000456506
-0.000546567
-0.000622957
-0.000686549
-0.000737925
-0.000777386
-0.000804966
-0.000820454
-0.00082342
-0.000813245
-0.000789153
-0.000750257
-0.000695597
-0.000624187
-0.000535063
-0.000427337
-0.000300239
-0.000153174
1.42316e-05
0.00020208
0.000410156
0.000637891
0.000884322
0.00114807
0.00142731
0.00171978
0.00202279
0.00233321
0.00264753
0.00296189
0.00327216
0.003574
0.00386293
0.00413447
0.00438421
0.00460794
0.00480179
0.00496229
0.0050865
0.00517211
0.00521752
0.00522188
0.00518518
0.00510816
0.00499238
0.00484014
0.00465442
0.00443878
0.00419728
0.00393433
0.00365457
0.00336273
0.00306354
0.00276157
0.00246107
0.00216595
0.00188108
0.0016108
0.00134049
0.00105555
0.00256778
0.00202397
0.00159433
0.00124313
0.000927575
0.000646382
0.00039878
0.000181154
-9.94464e-06
-0.000177507
-0.000324239
-0.000452549
-0.000564518
-0.000661878
-0.000746017
-0.00081797
-0.000878433
-0.000927773
-0.00096605
-0.000993037
-0.00100825
-0.00101099
-0.00100036
-0.000975339
-0.000934801
-0.000877579
-0.000802509
-0.000708491
-0.000594534
-0.000459818
-0.000303743
-0.000125986
7.345e-05
0.000294191
0.00053545
0.000795995
0.00107413
0.00136767
0.00167396
0.00198987
0.00231183
0.0026359
0.00295778
0.0032729
0.00357655
0.00386393
0.00413027
0.00437099
0.0045818
0.00475879
0.00489859
0.00499847
0.00505639
0.00507113
0.00504231
0.0049704
0.00485672
0.00470338
0.00451325
0.00428988
0.00403734
0.00376013
0.00346303
0.00315099
0.00282897
0.00250183
0.0021741
0.00185002
0.00153495
0.00123374
0.000929573
0.00060593
0.00260507
0.00202174
0.00156241
0.00118851
0.000853748
0.000556407
0.000295328
6.63058e-05
-0.000134666
-0.000311065
-0.000466028
-0.000602335
-0.000722377
-0.00082814
-0.000921207
-0.00100276
-0.00107359
-0.00113411
-0.00118439
-0.00122418
-0.00125292
-0.00126982
-0.00127386
-0.00126385
-0.00123851
-0.00119647
-0.00113635
-0.00105682
-0.000956652
-0.000834793
-0.000690394
-0.000522895
-0.000332068
-0.000118071
0.000118503
0.000376592
0.000654632
0.000950543
0.00126172
0.00158503
0.00191687
0.00225318
0.00258949
0.00292103
0.00324278
0.00354961
0.00383635
0.004098
0.00432977
0.00452728
0.00468665
0.00480463
0.0048787
0.00490717
0.00488926
0.00482507
0.00471564
0.00456287
0.0043695
0.00413902
0.00387555
0.00358369
0.00326844
0.00293499
0.00258861
0.00223452
0.00187764
0.0015226
0.00117538
0.000841429
0.000501733
0.000137843
0.00258674
0.00196567
0.00147792
0.00108222
0.000728888
0.00041579
0.000141381
-9.91225e-05
-0.000310265
-0.000495994
-0.000659857
-0.000804987
-0.000934065
-0.00104931
-0.00115248
-0.00124488
-0.00132739
-0.00140046
-0.00146413
-0.00151813
-0.0015618
-0.00159426
-0.00161433
-0.00162068
-0.00161182
-0.00158618
-0.00154214
-0.00147815
-0.00139271
-0.00128451
-0.00115244
-0.000995671
-0.000813733
-0.000606541
-0.000374469
-0.000118386
0.000160305
0.000459641
0.00077709
0.00110955
0.00145336
0.00180437
0.00215793
0.00250905
0.0028524
0.00318247
0.00349367
0.00378049
0.00403763
0.00426014
0.00444355
0.00458403
0.00467849
0.00472469
0.00472134
0.00466813
0.00456573
0.0044158
0.00422091
0.00398448
0.00371067
0.00340422
0.00307035
0.00271456
0.00234252
0.00195987
0.00157201
0.00118404
0.00080267
0.000434031
5.68827e-05
-0.000349203
0.00250788
0.00185094
0.00133615
0.000919629
0.000548462
0.000220095
-6.74054e-05
-0.000319389
-0.000540923
-0.000736408
-0.000909786
-0.00106452
-0.00120357
-0.00132937
-0.00144383
-0.00154837
-0.00164393
-0.00173096
-0.00180952
-0.00187923
-0.00193939
-0.00198895
-0.00202662
-0.00205086
-0.00206
-0.00205222
-0.00202568
-0.00197855
-0.00190908
-0.00181566
-0.0016969
-0.00155169
-0.00137928
-0.0011793
-0.00095189
-0.000697693
-0.000417923
-0.000114392
0.000210466
0.00055359
0.000911307
0.00127936
0.00165296
0.00202684
0.00239538
0.00275266
0.00309262
0.00340922
0.00369654
0.003949
0.00416148
0.00432946
0.00444918
0.00451777
0.00453335
0.00449507
0.0044032
0.00425905
0.004065
0.00382436
0.00354132
0.00322078
0.00286822
0.0024895
0.00209072
0.00167807
0.00125746
0.000834594
0.000416985
1.15488e-05
-0.000405259
-0.000855928
0.00236383
0.00167299
0.00113262
0.000696339
0.000308153
-3.49214e-05
-0.000335208
-0.00059861
-0.000830701
-0.00103632
-0.0012198
-0.0013849
-0.00153485
-0.00167228
-0.00179924
-0.00191724
-0.00202726
-0.00212978
-0.0022248
-0.00231188
-0.00239021
-0.00245861
-0.00251562
-0.00255952
-0.0025884
-0.00260023
-0.00259289
-0.00256428
-0.00251235
-0.00243519
-0.0023311
-0.00219865
-0.00203676
-0.0018448
-0.00162261
-0.00137055
-0.00108963
-0.000781475
-0.000448376
-9.33229e-05
0.000280016
0.000667315
0.00106363
0.00146346
0.00186085
0.00224946
0.00262274
0.00297402
0.00329677
0.00358465
0.0038318
0.00403292
0.00418349
0.00427988
0.00431951
0.00430091
0.00422382
0.00408914
0.00389899
0.00365653
0.00336597
0.00303236
0.00266146
0.00225953
0.00183321
0.00138925
0.00093421
0.000474465
1.84303e-05
-0.000426097
-0.000885078
-0.00138318
0.00215017
0.00142752
0.000863112
0.000408205
3.87538e-06
-0.00035329
-0.000666007
-0.000940722
-0.0011835
-0.00139962
-0.00159375
-0.00176998
-0.00193177
-0.00208191
-0.00222261
-0.00235545
-0.00248144
-0.00260104
-0.0027142
-0.00282043
-0.00291878
-0.00300793
-0.00308623
-0.00315178
-0.00320243
-0.00323589
-0.00324977
-0.00324167
-0.00320922
-0.00315018
-0.0030625
-0.00294442
-0.00279452
-0.00261181
-0.0023958
-0.00214658
-0.00186485
-0.00155202
-0.00121021
-0.000842286
-0.000451872
-4.33367e-05
0.000378245
0.000807149
0.00123708
0.00166127
0.00207262
0.00246384
0.00282765
0.00315694
0.00344497
0.00368556
0.00387331
0.00400371
0.00407335
0.00408003
0.00402283
0.00390215
0.00371975
0.0034786
0.00318289
0.0028378
0.00244938
0.00202438
0.00156997
0.00109359
0.000602518
0.000103884
-0.000392874
-0.000878985
-0.00138298
-0.00193184
0.00186275
0.00111049
0.000523676
5.13376e-05
-0.000368205
-0.0007388
-0.00106356
-0.00134945
-0.00160304
-0.00182999
-0.00203534
-0.00222346
-0.00239803
-0.00256202
-0.00271774
-0.00286684
-0.00301036
-0.00314873
-0.00328186
-0.00340915
-0.00352953
-0.00364152
-0.0037433
-0.00383273
-0.00390744
-0.00396485
-0.00400229
-0.00401704
-0.00400638
-0.00396773
-0.00389866
-0.00379702
-0.00366101
-0.00348926
-0.0032809
-0.00303567
-0.00275395
-0.00243686
-0.00208629
-0.00170493
-0.00129632
-0.000864832
-0.000415636
4.53366e-05
0.000511468
0.000975551
0.00142992
0.00186661
0.00227754
0.00265473
0.00299047
0.00327759
0.00350965
0.00368113
0.00378766
0.00382614
0.00379489
0.00369367
0.00352376
0.00328788
0.00299011
0.00263579
0.00223126
0.00178373
0.00130102
0.000791319
0.000262706
-0.000276831
-0.00081672
-0.00134711
-0.00189928
-0.00250271
0.0014977
0.000718143
0.000110646
-0.000377868
-0.00081165
-0.00119498
-0.00153137
-0.00182829
-0.00209278
-0.00233091
-0.00254804
-0.00274883
-0.00293714
-0.00311614
-0.00328821
-0.00345507
-0.00361776
-0.0037767
-0.00393172
-0.00408212
-0.0042267
-0.00436382
-0.00449147
-0.00460727
-0.0047086
-0.0047926
-0.00485629
-0.00489659
-0.00491045
-0.00489488
-0.00484706
-0.00476441
-0.00464471
-0.00448614
-0.00428743
-0.00404788
-0.00376751
-0.00344708
-0.00308818
-0.00269329
-0.00226578
-0.00180998
-0.0013311
-0.000835259
-0.000329368
0.000178926
0.00068138
0.00116931
0.00163379
0.00206586
0.00245676
0.00279819
0.00308253
0.00330309
0.00345438
0.00353222
0.00353401
0.00345872
0.00330704
0.00308131
0.00278546
0.00242489
0.00200626
0.00153727
0.00102644
0.000482767
-8.47647e-05
-0.000667212
-0.00125274
-0.0018303
-0.00243416
-0.00309646
0.00105145
0.000247048
-0.000379333
-0.000882716
-0.00132972
-0.00172507
-0.00207265
-0.00238045
-0.00265594
-0.00290559
-0.00313508
-0.00334932
-0.00355238
-0.00374756
-0.00393736
-0.00412353
-0.00430711
-0.0044885
-0.00466745
-0.00484315
-0.00501428
-0.00517901
-0.00533512
-0.00548003
-0.00561082
-0.00572435
-0.00581731
-0.00588627
-0.00592778
-0.00593844
-0.00591498
-0.00585438
-0.00575393
-0.00561133
-0.00542482
-0.00519324
-0.00491614
-0.00459388
-0.00422766
-0.00381967
-0.00337305
-0.00289201
-0.00238176
-0.00184853
-0.00129952
-0.000742775
-0.000187132
0.000357987
0.000882751
0.00137715
0.00183127
0.00223552
0.00258096
0.00285957
0.00306452
0.0031904
0.00323345
0.00319171
0.00306511
0.00285546
0.00256645
0.00220349
0.00177351
0.00128473
0.000746403
0.000168416
-0.000439244
-0.00106657
-0.00170033
-0.00232816
-0.00298752
-0.0037135
0.000520779
-0.000305899
-0.000949287
-0.00146618
-0.00192536
-0.00233197
-0.0026903
-0.00300882
-0.00329542
-0.00355694
-0.00379937
-0.00402786
-0.00424669
-0.00445928
-0.00466822
-0.0048753
-0.00508157
-0.00528737
-0.00549239
-0.00569572
-0.00589587
-0.00609086
-0.00627826
-0.00645522
-0.00661859
-0.00676491
-0.00689051
-0.00699159
-0.00706429
-0.00710478
-0.0071093
-0.00707432
-0.00699662
-0.00687337
-0.00670223
-0.00648153
-0.00621028
-0.00588832
-0.00551644
-0.00509639
-0.00463105
-0.00412439
-0.00358155
-0.00300882
-0.00241361
-0.00180437
-0.0011905
-0.000582162
9.85589e-06
0.00057443
0.00110036
0.00157666
0.0019929
0.00233951
0.00260814
0.0027919
0.00288569
0.00288637
0.00279292
0.00260648
0.00233033
0.00196981
0.00153208
0.00102587
0.000461202
-0.000151058
-0.000799831
-0.00147393
-0.00215857
-0.00283992
-0.00355896
-0.00435389
-9.71627e-05
-0.000943438
-0.00160188
-0.00213088
-0.00260116
-0.00301828
-0.0033869
-0.00371595
-0.00401376
-0.0042875
-0.00454346
-0.00478702
-0.00502265
-0.00525389
-0.00548342
-0.00571306
-0.00594385
-0.00617611
-0.00640944
-0.00664281
-0.0068746
-0.00710266
-0.00732434
-0.00753657
-0.00773588
-0.00791851
-0.00808045
-0.00821749
-0.00832535
-0.00839969
-0.00843629
-0.00843105
-0.00838018
-0.00828024
-0.0081283
-0.00792205
-0.0076599
-0.00734111
-0.00696591
-0.00653558
-0.00605257
-0.00552055
-0.0049445
-0.00433067
-0.00368662
-0.00302114
-0.00234417
-0.00166662
-0.00100025
-0.000357367
0.000249458
0.0008077
0.00130526
0.00173083
0.00207428
0.00232703
0.00248235
0.00253569
0.00248482
0.00233001
0.00207398
0.00172185
0.00128095
0.000760492
0.00017129
-0.000474738
-0.00116532
-0.00188796
-0.00262615
-0.00336444
-0.00414762
-0.00501728
-0.000804829
-0.00166791
-0.00233939
-0.00287905
-0.00335932
-0.00378616
-0.00416461
-0.00450403
-0.00481314
-0.00509944
-0.00536952
-0.00562897
-0.00588243
-0.00613358
-0.00638515
-0.00663901
-0.00689621
-0.00715701
-0.00742094
-0.00768687
-0.00795303
-0.0082171
-0.00847622
-0.00872708
-0.00896593
-0.00918868
-0.00939095
-0.00956813
-0.00971547
-0.00982816
-0.00990141
-0.00993055
-0.00991114
-0.00983911
-0.00971084
-0.00952332
-0.00927427
-0.00896226
-0.00858686
-0.00814878
-0.00764993
-0.00709357
-0.00648439
-0.00582851
-0.00513355
-0.00440854
-0.00366392
-0.00291135
-0.00216354
-0.00143402
-0.00073684
-8.61856e-05
0.000503998
0.00102045
0.00145102
0.00178513
0.00201418
0.00213186
0.0021345
0.00202121
0.00179393
0.00145743
0.00101905
0.000488476
-0.000122689
-0.000801415
-0.00153413
-0.00230688
-0.00310127
-0.00390005
-0.00475211
-0.00570275
-0.00160423
-0.00248125
-0.00316368
-0.00371253
-0.00420167
-0.00463743
-0.00502522
-0.00537482
-0.00569531
-0.00599451
-0.00627927
-0.00655541
-0.00682773
-0.00710001
-0.00737508
-0.00765484
-0.00794032
-0.00823176
-0.00852862
-0.00882966
-0.00913299
-0.0094361
-0.00973595
-0.010029
-0.0103111
-0.010578
-0.0108249
-0.0110467
-0.0112382
-0.0113941
-0.0115091
-0.0115777
-0.011595
-0.011556
-0.0114566
-0.0112928
-0.0110616
-0.0107607
-0.0103891
-0.00994664
-0.00943464
-0.00885581
-0.0082144
-0.0075163
-0.00676905
-0.00598186
-0.00516555
-0.00433247
-0.00349629
-0.0026718
-0.00187457
-0.00112057
-0.000425773
0.000194391
0.000725496
0.00115466
0.00147105
0.00166632
0.00173499
0.00167469
0.00148635
0.00117413
0.000745263
0.000209799
-0.000419863
-0.00112953
-0.00190422
-0.00272841
-0.00358157
-0.00444445
-0.00537044
-0.00640876
-0.00249693
-0.00338492
-0.00407619
-0.00463272
-0.00512958
-0.00557345
-0.00597009
-0.00632966
-0.00666158
-0.006974
-0.00727398
-0.00756757
-0.00785972
-0.00815433
-0.0084543
-0.00876158
-0.0090772
-0.00940135
-0.00973346
-0.0100722
-0.0104155
-0.0107607
-0.0111047
-0.0114435
-0.0117729
-0.0120881
-0.012384
-0.0126552
-0.0128959
-0.0131003
-0.0132623
-0.013376
-0.0134357
-0.0134357
-0.0133708
-0.0132364
-0.0130285
-0.0127441
-0.012381
-0.0119385
-0.0114169
-0.0108184
-0.0101467
-0.00940708
-0.00860704
-0.00775577
-0.0068644
-0.00594588
-0.00501478
-0.00408714
-0.00318011
-0.00231154
-0.00149958
-0.000762057
-0.000115957
0.000423223
0.000842057
0.00112976
0.00127865
0.00128456
0.00114702
0.000869331
0.000458422
-7.54334e-05
-0.000719076
-0.00145712
-0.00227306
-0.00314964
-0.004064
-0.00499465
-0.00599982
-0.00713298
-0.00348397
-0.00437993
-0.00507789
-0.0056406
-0.00614401
-0.00659516
-0.00700013
-0.00736943
-0.00771281
-0.00803869
-0.00835438
-0.00866611
-0.008979
-0.00929705
-0.00962326
-0.0099596
-0.0103071
-0.010666
-0.0110356
-0.0114145
-0.0118006
-0.0121911
-0.0125824
-0.0129707
-0.0133513
-0.0137192
-0.0140688
-0.0143943
-0.0146894
-0.0149477
-0.0151626
-0.0153275
-0.0154357
-0.0154809
-0.0154569
-0.0153582
-0.01518
-0.014918
-0.0145692
-0.0141318
-0.0136053
-0.012991
-0.0122917
-0.0115124
-0.0106601
-0.00974385
-0.00877494
-0.00776677
-0.00673479
-0.00569622
-0.00466979
-0.00367533
-0.00273329
-0.00186411
-0.00108762
-0.000422257
0.000115555
0.000512162
0.000757264
0.00084442
0.000771384
0.000540245
0.000157358
-0.000366946
-0.00101884
-0.00178171
-0.00263747
-0.00356695
-0.0045447
-0.00554677
-0.00663659
-0.00787218
-0.00456589
-0.00546682
-0.00616931
-0.00673667
-0.00724547
-0.00770304
-0.0081158
-0.00849455
-0.00884935
-0.00918888
-0.00952066
-0.00985114
-0.0101856
-0.0105281
-0.0108817
-0.0112485
-0.0116296
-0.0120251
-0.0124343
-0.0128559
-0.0132874
-0.0137261
-0.0141682
-0.0146096
-0.0150454
-0.0154702
-0.0158782
-0.016263
-0.0166179
-0.0169359
-0.0172097
-0.017432
-0.0175953
-0.0176924
-0.0177163
-0.0176604
-0.0175186
-0.0172859
-0.0169579
-0.0165318
-0.016006
-0.0153807
-0.014658
-0.013842
-0.012939
-0.011958
-0.0109101
-0.00980907
-0.00867107
-0.00751442
-0.00635943
-0.00522792
-0.00414275
-0.00312717
-0.0022041
-0.00139532
-0.00072062
-0.000197011
0.000162078
0.000347441
0.000354573
0.000183932
-0.000159052
-0.000664234
-0.00131724
-0.00210028
-0.00299357
-0.00397588
-0.00501893
-0.00609598
-0.00727609
-0.0086221
-0.00574272
-0.0066456
-0.00735048
-0.00792097
-0.00843399
-0.00889713
-0.00931709
-0.00970496
-0.0100711
-0.0104243
-0.0107725
-0.0111221
-0.0114787
-0.0118465
-0.0122286
-0.0126271
-0.0130432
-0.013477
-0.0139279
-0.0143942
-0.0148738
-0.0153635
-0.0158595
-0.0163575
-0.0168524
-0.0173385
-0.0178095
-0.0182586
-0.0186787
-0.0190622
-0.0194011
-0.0196874
-0.0199127
-0.0200689
-0.020148
-0.0201422
-0.0200445
-0.0198485
-0.0195487
-0.019141
-0.0186225
-0.0179923
-0.0172513
-0.0164026
-0.015452
-0.0144077
-0.0132807
-0.0120848
-0.0108367
-0.00955575
-0.00826374
-0.00698447
-0.00574328
-0.00456637
-0.00348002
-0.00250966
-0.00167893
-0.00100868
-0.00051602
-0.000213513
-0.000108479
-0.000202605
-0.000491822
-0.000966492
-0.0016119
-0.00240912
-0.00333665
-0.00437103
-0.00548084
-0.0066363
-0.00791243
-0.00937722
-0.00701392
-0.0079158
-0.00862098
-0.00919312
-0.00970919
-0.010177
-0.0106035
-0.0110001
-0.0113773
-0.0117442
-0.0121089
-0.012478
-0.0128572
-0.0132508
-0.0136622
-0.0140934
-0.0145457
-0.0150192
-0.0155134
-0.0160265
-0.0165563
-0.0170996
-0.0176526
-0.0182105
-0.0187682
-0.0193196
-0.0198581
-0.0203765
-0.0208672
-0.021322
-0.0217322
-0.022089
-0.0223833
-0.022606
-0.0227479
-0.0228002
-0.0227547
-0.0226035
-0.02234
-0.0219585
-0.0214549
-0.0208268
-0.0200739
-0.0191982
-0.0182042
-0.0170995
-0.0158946
-0.0146032
-0.0132423
-0.0118321
-0.0103957
-0.00895869
-0.00754906
-0.00619603
-0.00492945
-0.00377872
-0.00277177
-0.00193383
-0.0012863
-0.000845725
-0.000622916
-0.000622317
-0.000841752
-0.00127251
-0.00189982
-0.00270375
-0.00366104
-0.00474588
-0.00592339
-0.00716041
-0.00853837
-0.0101307
-0.00837843
-0.00927647
-0.00997992
-0.0105523
-0.0110702
-0.0115418
-0.0119742
-0.012379
-0.0127669
-0.0131473
-0.0135283
-0.0139169
-0.0143189
-0.0147387
-0.0151798
-0.0156444
-0.0161337
-0.0166481
-0.0171868
-0.0177484
-0.0183304
-0.0189296
-0.0195421
-0.0201629
-0.0207867
-0.0214073
-0.0220175
-0.02261
-0.0231765
-0.0237081
-0.0241958
-0.0246298
-0.0250001
-0.0252966
-0.0255092
-0.0256278
-0.0256428
-0.0255451
-0.0253266
-0.02498
-0.0244997
-0.0238819
-0.0231246
-0.0222284
-0.0211968
-0.0200361
-0.0187562
-0.0173703
-0.0158955
-0.0143525
-0.0127655
-0.0111621
-0.00957247
-0.00802904
-0.00656538
-0.00521519
-0.00401107
-0.00298317
-0.00215786
-0.00155638
-0.00119377
-0.00107795
-0.0012093
-0.00158056
-0.00217728
-0.00297874
-0.00395996
-0.00509261
-0.00633812
-0.00765954
-0.00914511
-0.0108739
-0.00983465
-0.0107262
-0.0114259
-0.0119971
-0.0125158
-0.0129903
-0.0134278
-0.0138401
-0.0142382
-0.0146316
-0.0150287
-0.0154366
-0.0158611
-0.0163071
-0.016778
-0.0172761
-0.017803
-0.0183589
-0.0189432
-0.0195543
-0.02019
-0.0208469
-0.021521
-0.0222074
-0.0229004
-0.0235934
-0.0242794
-0.0249502
-0.0255973
-0.0262112
-0.0267821
-0.0272996
-0.0277528
-0.0281306
-0.0284217
-0.0286148
-0.028699
-0.0286637
-0.0284993
-0.0281968
-0.0277491
-0.0271505
-0.0263974
-0.0254888
-0.0244266
-0.0232159
-0.0218654
-0.0203878
-0.0187997
-0.0171222
-0.0153803
-0.0136031
-0.0118232
-0.0100761
-0.00839902
-0.00683033
-0.00540767
-0.00416666
-0.00313927
-0.00235226
-0.00182569
-0.00157182
-0.00159437
-0.0018882
-0.00243967
-0.00322758
-0.00422532
-0.00540199
-0.00671496
-0.00812317
-0.00972203
-0.0115966
-0.0113805
-0.012263
-0.0129573
-0.013526
-0.0140444
-0.0145207
-0.0149625
-0.0153816
-0.0157892
-0.0161949
-0.0166074
-0.0170339
-0.0174805
-0.0179521
-0.0184524
-0.018984
-0.0195483
-0.0201458
-0.020776
-0.0214374
-0.0221277
-0.0228436
-0.023581
-0.0243349
-0.0250994
-0.025868
-0.0266329
-0.027386
-0.028118
-0.0288192
-0.0294788
-0.0300858
-0.0306285
-0.0310946
-0.0314718
-0.0317476
-0.0319096
-0.0319458
-0.0318448
-0.0315961
-0.0311907
-0.030621
-0.0298816
-0.0289698
-0.0278854
-0.0266322
-0.0252174
-0.0236526
-0.0219538
-0.020142
-0.0182428
-0.0162864
-0.0143076
-0.0123447
-0.010439
-0.00863328
-0.00697072
-0.00549289
-0.00423806
-0.00323928
-0.0025226
-0.00210557
-0.00199612
-0.0021921
-0.0026813
-0.00344245
-0.00444754
-0.00566305
-0.00704201
-0.00853882
-0.0102565
-0.0122862
-0.0130133
-0.0138846
-0.0145719
-0.0151369
-0.0156539
-0.0161311
-0.0165763
-0.0170012
-0.0174173
-0.0178344
-0.0182611
-0.0187052
-0.0191728
-0.0196691
-0.0201979
-0.020762
-0.0213631
-0.0220018
-0.0226776
-0.0233893
-0.0241345
-0.0249101
-0.0257118