/*--------------------------------*- C++ -*----------------------------------*\
  =========                 |
  \\      /  F ield         | OpenFOAM: The Open Source CFD Toolbox
   \\    /   O peration     | Website:  https://openfoam.org
    \\  /    A nd           | Version:  dev
     \\/     M anipulation  |
\*---------------------------------------------------------------------------*/
FoamFile
{
    format      ascii;
    class       surfaceScalarField;
    location    "49.05";
    object      phi;
}
// * * * * * * * * * * * * * * * * * * * * * * * * * * * * * * * * * * * * * //

dimensions      [0 3 -1 0 0 0 0];

internalField   nonuniform List<scalar> 
10224
(
3.4122e-08
-3.4586e-08
8.80524e-08
-5.39353e-08
1.24578e-07
-3.65244e-08
1.2553e-07
-9.48206e-10
8.3889e-08
4.1644e-08
-1.62613e-09
8.55156e-08
-1.29189e-07
1.27561e-07
-2.95501e-07
1.66308e-07
-4.96496e-07
2.00994e-07
-7.27875e-07
2.31378e-07
-9.85365e-07
2.57491e-07
-1.26487e-06
2.79509e-07
-1.56256e-06
2.97687e-07
-1.87487e-06
3.12307e-07
-2.19852e-06
3.23656e-07
-2.53052e-06
3.31998e-07
-2.8681e-06
3.37573e-07
-3.20868e-06
3.40579e-07
-3.54985e-06
3.4118e-07
-3.88935e-06
3.39496e-07
-4.22496e-06
3.35613e-07
-4.55455e-06
3.29585e-07
-4.87598e-06
3.21435e-07
-5.18715e-06
3.11166e-07
-5.48592e-06
2.98767e-07
-5.77013e-06
2.84217e-07
-6.03763e-06
2.67494e-07
-6.2862e-06
2.4858e-07
-6.51368e-06
2.27471e-07
-6.71786e-06
2.04181e-07
-6.8966e-06
1.78749e-07
-7.04785e-06
1.51242e-07
-7.16961e-06
1.21762e-07
-7.26006e-06
9.04493e-08
-7.31754e-06
5.74838e-08
-7.34063e-06
2.30888e-08
-7.32816e-06
-1.24701e-08
-7.27927e-06
-4.88841e-08
-7.19347e-06
-8.58037e-08
-7.07063e-06
-1.22842e-07
-6.91105e-06
-1.59576e-07
-6.71549e-06
-1.95559e-07
-6.48517e-06
-2.30319e-07
-6.2218e-06
-2.63373e-07
-5.92757e-06
-2.94234e-07
-5.60515e-06
-3.22419e-07
-5.25769e-06
-3.47461e-07
-4.88876e-06
-3.68923e-07
-4.50236e-06
-3.86401e-07
-4.10282e-06
-3.99541e-07
-3.69477e-06
-4.08049e-07
-3.28307e-06
-4.11695e-07
-2.87275e-06
-4.10322e-07
-2.46889e-06
-4.03856e-07
-2.07659e-06
-3.92306e-07
-1.70082e-06
-3.75768e-07
-1.34639e-06
-3.54428e-07
-1.01783e-06
-3.2856e-07
-7.19307e-07
-2.98526e-07
-4.5453e-07
-2.64777e-07
-2.26681e-07
-2.27849e-07
-3.83069e-08
-1.88374e-07
1.08789e-07
-1.47094e-07
2.13669e-07
-1.04878e-07
2.76447e-07
-6.27777e-08
2.98556e-07
-2.21099e-08
2.83181e-07
1.53755e-08
2.35924e-07
4.72577e-08
1.6585e-07
7.0069e-08
8.72605e-08
7.85766e-08
2.2548e-08
6.4699e-08
2.25452e-08
5.40965e-08
-8.86875e-08
1.12671e-07
-1.12507e-07
1.18491e-07
-4.23348e-08
3.91717e-08
7.83731e-08
-1.41699e-07
2.22511e-07
-4.29446e-07
3.7326e-07
-8.2231e-07
5.20425e-07
-1.31414e-06
6.58144e-07
-1.89639e-06
7.83236e-07
-2.55922e-06
8.94211e-07
-3.29236e-06
9.90635e-07
-4.08556e-06
1.07271e-06
-4.9289e-06
1.14102e-06
-5.81292e-06
1.19633e-06
-6.72874e-06
1.23947e-06
-7.66802e-06
1.27128e-06
-8.62295e-06
1.29251e-06
-9.58619e-06
1.30382e-06
-1.05508e-05
1.30577e-06
-1.15101e-05
1.29877e-06
-1.24576e-05
1.28316e-06
-1.33871e-05
1.25912e-06
-1.42925e-05
1.22678e-06
-1.51675e-05
1.1862e-06
-1.60061e-05
1.13736e-06
-1.68021e-05
1.08024e-06
-1.75495e-05
1.01482e-06
-1.8242e-05
9.41091e-07
-1.88736e-05
8.59107e-07
-1.94384e-05
7.68978e-07
-1.99306e-05
6.70907e-07
-2.03445e-05
5.65206e-07
-2.06751e-05
4.52309e-07
-2.09174e-05
3.32785e-07
-2.10673e-05
2.07348e-07
-2.1121e-05
7.6864e-08
-2.10759e-05
-5.76515e-08
-2.09297e-05
-1.95033e-07
-2.06815e-05
-3.33971e-07
-2.03314e-05
-4.73028e-07
-1.98803e-05
-6.10652e-07
-1.93306e-05
-7.45193e-07
-1.8686e-05
-8.74936e-07
-1.79513e-05
-9.98125e-07
-1.71325e-05
-1.11299e-06
-1.62371e-05
-1.2178e-06
-1.52737e-05
-1.31087e-06
-1.4252e-05
-1.39064e-06
-1.31828e-05
-1.45566e-06
-1.20776e-05
-1.50467e-06
-1.09491e-05
-1.53662e-06
-9.81005e-06
-1.55071e-06
-8.67399e-06
-1.54638e-06
-7.55444e-06
-1.52341e-06
-6.46491e-06
-1.48183e-06
-5.41865e-06
-1.42203e-06
-4.42837e-06
-1.34471e-06
-3.50601e-06
-1.25092e-06
-2.66253e-06
-1.14201e-06
-1.90761e-06
-1.01969e-06
-1.24944e-06
-8.86016e-07
-6.94423e-07
-7.43397e-07
-2.46853e-07
-5.94665e-07
9.14236e-08
-4.43153e-07
3.21488e-07
-2.92842e-07
4.4794e-07
-1.48567e-07
4.79792e-07
-1.64792e-08
4.31533e-07
9.55225e-08
3.2462e-07
1.76998e-07
1.89087e-07
2.14135e-07
6.44213e-08
1.89395e-07
8.69559e-08
3.74488e-08
-1.26135e-07
4.35133e-08
-1.18564e-07
-4.30578e-08
4.42434e-08
-2.5855e-07
2.93865e-07
-6.22581e-07
5.86536e-07
-1.14227e-06
8.92941e-07
-1.81588e-06
1.19403e-06
-2.63575e-06
1.47802e-06
-3.59052e-06
1.73801e-06
-4.66666e-06
1.97035e-06
-5.84958e-06
2.17356e-06
-7.12441e-06
2.34754e-06
-8.47641e-06
2.49303e-06
-9.89135e-06
2.61127e-06
-1.13556e-05
2.70371e-06
-1.28562e-05
2.77187e-06
-1.43809e-05
2.81717e-06
-1.59179e-05
2.84088e-06
-1.74562e-05
2.84407e-06
-1.8985e-05
2.82761e-06
-2.0494e-05
2.79213e-06
-2.1973e-05
2.73809e-06
-2.3412e-05
2.66577e-06
-2.48011e-05
2.57532e-06
-2.61305e-05
2.4668e-06
-2.73905e-05
2.34023e-06
-2.85714e-05
2.19564e-06
-2.96634e-05
2.03313e-06
-3.06572e-05
1.85287e-06
-3.15434e-05
1.65521e-06
-3.23132e-05
1.44068e-06
-3.2958e-05
1.21002e-06
-3.34699e-05
9.64236e-07
-3.38417e-05
7.04626e-07
-3.40672e-05
4.32773e-07
-3.41409e-05
1.50573e-07
-3.40588e-05
-1.3977e-07
-3.3818e-05
-4.35747e-07
-3.34175e-05
-7.34561e-07
-3.28573e-05
-1.03316e-06
-3.21397e-05
-1.32824e-06
-3.12686e-05
-1.61635e-06
-3.02496e-05
-1.89388e-06
-2.90906e-05
-2.15714e-06
-2.78011e-05
-2.40246e-06
-2.63927e-05
-2.62622e-06
-2.48787e-05
-2.82492e-06
-2.3274e-05
-2.9953e-06
-2.15953e-05
-3.1344e-06
-1.98603e-05
-3.2396e-06
-1.80882e-05
-3.30874e-06
-1.62988e-05
-3.34016e-06
-1.45124e-05
-3.33275e-06
-1.27498e-05
-3.28603e-06
-1.10314e-05
-3.20016e-06
-9.37753e-06
-3.07595e-06
-7.80731e-06
-2.91492e-06
-6.33893e-06
-2.71931e-06
-4.98891e-06
-2.49203e-06
-3.77185e-06
-2.23675e-06
-2.7e-06
-1.95786e-06
-1.78283e-06
-1.66057e-06
-1.02656e-06
-1.35093e-06
-4.33671e-07
-1.03605e-06
-2.23785e-09
-7.24278e-07
2.74832e-07
-4.25641e-07
4.10608e-07
-1.52263e-07
4.2535e-07
8.0772e-08
3.47706e-07
2.54634e-07
2.15906e-07
3.45935e-07
7.87031e-08
3.26617e-07
1.65652e-07
1.972e-09
-1.28102e-07
-7.88331e-08
-3.77576e-08
-2.97541e-07
2.62952e-07
-6.87899e-07
6.84221e-07
-1.26823e-06
1.16687e-06
-2.04482e-06
1.66952e-06
-3.01486e-06
2.16407e-06
-4.16911e-06
2.63227e-06
-5.49396e-06
3.06285e-06
-6.97306e-06
3.44946e-06
-8.58859e-06
3.78909e-06
-1.0322e-05
4.08099e-06
-1.21549e-05
4.32589e-06
-1.4069e-05
4.52535e-06
-1.60467e-05
4.68144e-06
-1.80712e-05
4.79633e-06
-2.01262e-05
4.87216e-06
-2.21962e-05
4.91088e-06
-2.42662e-05
4.91416e-06
-2.6322e-05
4.88336e-06
-2.83494e-05
4.81952e-06
-3.03347e-05
4.72342e-06
-3.22645e-05
4.59554e-06
-3.41254e-05
4.4362e-06
-3.59042e-05
4.2456e-06
-3.75878e-05
4.02387e-06
-3.91633e-05
3.77117e-06
-4.0618e-05
3.48778e-06
-4.19393e-05
3.17414e-06
-4.3115e-05
2.83097e-06
-4.41336e-05
2.45928e-06
-4.49841e-05
2.06046e-06
-4.56562e-05
1.63635e-06
-4.61408e-05
1.18923e-06
-4.64299e-05
7.21867e-07
-4.65168e-05
2.37551e-07
-4.63967e-05
-2.59934e-07
-4.60661e-05
-7.66309e-07
-4.55239e-05
-1.27683e-06
-4.47707e-05
-1.78633e-06
-4.38096e-05
-2.28929e-06
-4.26461e-05
-2.77989e-06
-4.12879e-05
-3.2521e-06
-3.97452e-05
-3.69979e-06
-3.80309e-05
-4.11682e-06
-3.61599e-05
-4.49719e-06
-3.41497e-05
-4.8351e-06
-3.20198e-05
-5.12517e-06
-2.97918e-05
-5.36246e-06
-2.74887e-05
-5.54269e-06
-2.51352e-05
-5.66226e-06
-2.27568e-05
-5.71847e-06
-2.03801e-05
-5.70949e-06
-1.80316e-05
-5.63456e-06
-1.57378e-05
-5.49395e-06
-1.35246e-05
-5.28909e-06
-1.1417e-05
-5.02255e-06
-9.43822e-06
-4.6981e-06
-7.60955e-06
-4.32071e-06
-5.94974e-06
-3.89656e-06
-4.4745e-06
-3.43311e-06
-3.19593e-06
-2.93913e-06
-2.122e-06
-2.42486e-06
-1.2559e-06
-1.90214e-06
-5.95375e-07
-1.3848e-06
-1.3197e-07
-8.89039e-07
1.49831e-07
-4.34057e-07
2.73503e-07
-4.29016e-08
2.71535e-07
2.56596e-07
1.86453e-07
4.3101e-07
7.22698e-08
4.40807e-07
2.37922e-07
-4.20219e-08
-8.60762e-08
-2.30002e-07
1.50218e-07
-6.06599e-07
6.39543e-07
-1.19842e-06
1.27604e-06
-2.01923e-06
1.98767e-06
-3.07219e-06
2.72248e-06
-4.35212e-06
3.44401e-06
-5.84759e-06
4.12774e-06
-7.54272e-06
4.75799e-06
-9.41871e-06
5.32545e-06
-1.1455e-05
5.82536e-06
-1.36301e-05
6.25613e-06
-1.59225e-05
6.61823e-06
-1.83106e-05
6.91349e-06
-2.07736e-05
7.14444e-06
-2.32912e-05
7.31391e-06
-2.58438e-05
7.42474e-06
-2.84124e-05
7.47954e-06
-3.09789e-05
7.48062e-06
-3.35254e-05
7.42988e-06
-3.60347e-05
7.32879e-06
-3.84898e-05
7.17848e-06
-4.08739e-05
6.97971e-06
-4.31708e-05
6.73303e-06
-4.5364e-05
6.43881e-06
-4.74375e-05
6.09739e-06
-4.93755e-05
5.70915e-06
-5.11624e-05
5.27466e-06
-5.2783e-05
4.79475e-06
-5.42226e-05
4.27065e-06
-5.54674e-05
3.70403e-06
-5.65041e-05
3.09716e-06
-5.73206e-05
2.4529e-06
-5.79062e-05
1.77479e-06
-5.82514e-05
1.06709e-06
-5.83487e-05
3.34789e-07
-5.81922e-05
-4.16404e-07
-5.77784e-05
-1.18007e-06
-5.71062e-05
-1.94911e-06
-5.61766e-05
-2.71585e-06
-5.49938e-05
-3.4721e-06
-5.35645e-05
-4.20924e-06
-5.18982e-05
-4.91839e-06
-5.00075e-05
-5.59051e-06
-4.79077e-05
-6.21659e-06
-4.56171e-05
-6.78779e-06
-4.31565e-05
-7.29566e-06
-4.05495e-05
-7.73225e-06
-3.78216e-05
-8.09037e-06
-3.50005e-05
-8.36373e-06
-3.21157e-05
-8.54709e-06
-2.91977e-05
-8.63648e-06
-2.62779e-05
-8.62926e-06
-2.33882e-05
-8.5243e-06
-2.05601e-05
-8.32205e-06
-1.78245e-05
-8.02463e-06
-1.52112e-05
-7.63587e-06
-1.2748e-05
-7.16136e-06
-1.04602e-05
-6.60848e-06
-8.3703e-06
-5.98644e-06
-6.49713e-06
-5.30628e-06
-4.85524e-06
-4.58101e-06
-3.45438e-06
-3.82572e-06
-2.29877e-06
-3.05777e-06
-1.38642e-06
-2.29715e-06
-7.08485e-07
-1.56697e-06
-2.4847e-07
-8.94065e-07
1.84929e-08
-3.0986e-07
1.26481e-07
1.4861e-07
1.19664e-07
4.37823e-07
5.37119e-08
5.06757e-07
2.91637e-07
-8.94388e-08
3.36326e-09
-3.95409e-07
4.56185e-07
-9.45327e-07
1.18946e-06
-1.75579e-06
2.08651e-06
-2.83362e-06
3.0655e-06
-4.17705e-06
4.06591e-06
-5.77723e-06
5.04419e-06
-7.61978e-06
5.97028e-06
-9.6862e-06
6.82441e-06
-1.19552e-05
7.59445e-06
-1.44037e-05
8.27387e-06
-1.70077e-05
8.86014e-06
-1.97429e-05
9.35343e-06
-2.25851e-05
9.75569e-06
-2.55106e-05
1.00699e-05
-2.84961e-05
1.02994e-05
-3.15191e-05
1.04478e-05
-3.45578e-05
1.05183e-05
-3.7591e-05
1.05138e-05
-4.05979e-05
1.04368e-05
-4.35583e-05
1.02892e-05
-4.64523e-05
1.00725e-05
-4.92603e-05
9.78779e-06
-5.19632e-05
9.43591e-06
-5.45419e-05
9.01746e-06
-5.69775e-05
8.53304e-06
-5.92517e-05
7.98336e-06
-6.13464e-05
7.36938e-06
-6.32441e-05
6.69244e-06
-6.49279e-05
5.95443e-06
-6.63818e-05
5.15788e-06
-6.75907e-05
4.30607e-06
-6.85409e-05
3.40313e-06
-6.92202e-05
2.45409e-06
-6.96181e-05
1.46497e-06
-6.9726e-05
4.42715e-07
-6.95377e-05
-6.04713e-07
-6.90493e-05
-1.66843e-06
-6.82597e-05
-2.73868e-06
-6.71707e-05
-3.80491e-06
-6.57869e-05
-4.85587e-06
-6.41163e-05
-5.87982e-06
-6.21701e-05
-6.86462e-06
-5.99626e-05
-7.79796e-06
-5.75116e-05
-8.66759e-06
-5.4838e-05
-9.46149e-06
-5.19655e-05
-1.01681e-05
-4.89209e-05
-1.07768e-05
-4.57336e-05
-1.12777e-05
-4.2435e-05
-1.16622e-05
-3.90588e-05
-1.19234e-05
-3.56396e-05
-1.20556e-05
-3.22134e-05
-1.20554e-05
-2.88165e-05
-1.19213e-05
-2.54848e-05
-1.16537e-05
-2.22538e-05
-1.12557e-05
-1.91573e-05
-1.07323e-05
-1.62273e-05
-1.00914e-05
-1.34929e-05
-9.34286e-06
-1.098e-05
-8.49935e-06
-8.71032e-06
-7.57594e-06
-6.70096e-06
-6.59037e-06
-4.9636e-06
-5.56307e-06
-3.5039e-06
-4.51747e-06
-2.3208e-06
-3.48026e-06
-1.40592e-06
-2.48185e-06
-7.42951e-07
-1.55704e-06
-3.07017e-07
-7.4579e-07
-6.4125e-08
-9.42755e-08
2.95029e-08
3.44196e-07
2.83597e-08
5.07896e-07
3.19998e-07
-1.37676e-07
1.41036e-07
-5.66476e-07
8.84985e-07
-1.29789e-06
1.92087e-06
-2.33702e-06
3.12564e-06
-3.68218e-06
4.41066e-06
-5.32531e-06
5.70904e-06
-7.25278e-06
6.97167e-06
-9.44648e-06
8.16398e-06
-1.18848e-05
9.26278e-06
-1.45439e-05
1.02535e-05
-1.7398e-05
1.1128e-05
-2.04208e-05
1.18829e-05
-2.35856e-05
1.25182e-05
-2.68657e-05
1.30358e-05
-3.02349e-05
1.34391e-05
-3.36675e-05
1.37321e-05
-3.71385e-05
1.39188e-05
-4.06235e-05
1.40032e-05
-4.40986e-05
1.39888e-05
-4.75404e-05
1.38786e-05
-5.09263e-05
1.3675e-05
-5.42336e-05
1.33798e-05
-5.74404e-05
1.29946e-05
-6.05247e-05
1.25203e-05
-6.34652e-05
1.1958e-05
-6.62407e-05
1.13085e-05
-6.88304e-05
1.0573e-05
-7.1214e-05
9.75298e-06
-7.33719e-05
8.85035e-06
-7.52852e-05
7.8678e-06
-7.69362e-05
6.80887e-06
-7.83082e-05
5.67803e-06
-7.93859e-05
4.48087e-06
-8.0156e-05
3.22414e-06
-8.06068e-05
1.91578e-06
-8.07291e-05
5.64998e-07
-8.0516e-05
-8.17766e-07
-7.99636e-05
-2.2209e-06
-7.90706e-05
-3.63166e-06
-7.78391e-05
-5.03635e-06
-7.62746e-05
-6.42037e-06
-7.43859e-05
-7.76851e-06
-7.21855e-05
-9.06508e-06
-6.96893e-05
-1.02942e-05
-6.69169e-05
-1.144e-05
-6.38914e-05
-1.24869e-05
-6.06393e-05
-1.34203e-05
-5.71901e-05
-1.4226e-05
-5.35761e-05
-1.48916e-05
-4.98324e-05
-1.5406e-05
-4.59959e-05
-1.57599e-05
-4.21053e-05
-1.59463e-05
-3.82002e-05
-1.59605e-05
-3.43209e-05
-1.58005e-05
-3.05076e-05
-1.5467e-05
-2.67995e-05
-1.49637e-05
-2.32346e-05
-1.42973e-05
-1.98485e-05
-1.34775e-05
-1.66741e-05
-1.25173e-05
-1.37403e-05
-1.14331e-05
-1.10721e-05
-1.02442e-05
-8.68907e-06
-8.97338e-06
-6.60522e-06
-7.64692e-06
-4.82805e-06
-6.29464e-06
-3.35806e-06
-4.95025e-06
-2.18814e-06
-3.65178e-06
-1.30306e-06
-2.44213e-06
-6.7906e-07
-1.36979e-06
-2.8349e-07
-4.89843e-07
-7.44631e-08
1.35172e-07
-5.41369e-10
4.3397e-07
3.19455e-07
-1.85485e-07
3.26518e-07
-7.38311e-07
1.43781e-06
-1.6545e-06
2.83706e-06
-2.92708e-06
4.39821e-06
-4.54496e-06
6.02854e-06
-6.49283e-06
7.65691e-06
-8.75145e-06
9.23029e-06
-1.12983e-05
1.07108e-05
-1.41082e-05
1.20727e-05
-1.71543e-05
1.32995e-05
-2.04082e-05
1.4382e-05
-2.38413e-05
1.5316e-05
-2.74246e-05
1.61014e-05
-3.11291e-05
1.67404e-05
-3.49266e-05
1.72366e-05
-3.87891e-05
1.75946e-05
-4.26894e-05
1.78191e-05
-4.66007e-05
1.79146e-05
-5.04971e-05
1.78852e-05
-5.43528e-05
1.77344e-05
-5.81429e-05
1.74651e-05
-6.18425e-05
1.70795e-05
-6.54274e-05
1.65794e-05
-6.88735e-05
1.59664e-05
-7.21571e-05
1.52416e-05
-7.52549e-05
1.44063e-05
-7.81442e-05
1.34623e-05
-8.08026e-05
1.24114e-05
-8.32088e-05
1.12565e-05
-8.5342e-05
1.0001e-05
-8.71828e-05
8.64971e-06
-8.87132e-05
7.20837e-06
-8.99165e-05
5.6842e-06
-9.07782e-05
4.08582e-06
-9.12857e-05
2.42333e-06
-9.14291e-05
7.08365e-07
-9.12009e-05
-1.04593e-06
-9.05968e-05
-2.82499e-06
-8.96156e-05
-4.61287e-06
-8.82595e-05
-6.39244e-06
-8.65344e-05
-8.14552e-06
-8.44497e-05
-9.85316e-06
-8.2019e-05
-1.14958e-05
-7.92594e-05
-1.30538e-05
-7.61921e-05
-1.45072e-05
-7.2842e-05
-1.5837e-05
-6.92377e-05
-1.70246e-05
-6.54109e-05
-1.80528e-05
-6.1397e-05
-1.89056e-05
-5.72335e-05
-1.95694e-05
-5.29608e-05
-2.00326e-05
-4.86208e-05
-2.02863e-05
-4.42567e-05
-2.03246e-05
-3.99125e-05
-2.01448e-05
-3.5632e-05
-1.97476e-05
-3.14583e-05
-1.91374e-05
-2.7433e-05
-1.83225e-05
-2.35956e-05
-1.73149e-05
-1.99824e-05
-1.61306e-05
-1.66258e-05
-1.47897e-05
-1.35539e-05
-1.33161e-05
-1.07891e-05
-1.17381e-05
-8.3481e-06
-1.00879e-05
-6.24074e-06
-8.40199e-06
-4.46963e-06
-6.72136e-06
-3.0296e-06
-5.09182e-06
-1.9073e-06
-3.56442e-06
-1.08096e-06
-2.19613e-06
-5.20186e-07
-1.05062e-06
-1.85997e-07
-1.99018e-07
-3.10352e-08
2.79008e-07
2.88419e-07
-2.32225e-07
5.58742e-07
-9.08152e-07
2.11374e-06
-2.00917e-06
3.93808e-06
-3.51623e-06
5.90527e-06
-5.40843e-06
7.92075e-06
-7.66264e-06
9.91111e-06
-1.02534e-05
1.1821e-05
-1.31532e-05
1.36106e-05
-1.6333e-05
1.52525e-05
-1.97624e-05
1.6729e-05
-2.34106e-05
1.80302e-05
-2.72463e-05
1.91517e-05
-3.12384e-05
2.00935e-05
-3.53559e-05
2.08579e-05
-3.95684e-05
2.14491e-05
-4.38462e-05
2.18723e-05
-4.81599e-05
2.21328e-05
-5.24811e-05
2.22357e-05
-5.67815e-05
2.21856e-05
-6.10337e-05
2.19866e-05
-6.52106e-05
2.1642e-05
-6.92855e-05
2.11543e-05
-7.3232e-05
2.05259e-05
-7.70241e-05
1.97585e-05
-8.06364e-05
1.88538e-05
-8.40435e-05
1.78135e-05
-8.72209e-05
1.66397e-05
-9.01446e-05
1.53351e-05
-9.27913e-05
1.39032e-05
-9.5139e-05
1.23487e-05
-9.71666e-05
1.06773e-05
-9.88547e-05
8.89647e-06
-0.000100186
7.01502e-06
-0.000101143
5.04363e-06
-0.000101715
2.99469e-06
-0.000101889
8.82433e-07
-0.000101658
-1.27713e-06
-0.000101016
-3.46629e-06
-9.99635e-05
-5.66571e-06
-9.85013e-05
-7.85463e-06
-9.66357e-05
-1.00111e-05
-9.43768e-05
-1.21121e-05
-9.17385e-05
-1.41341e-05
-8.87391e-05
-1.60532e-05
-8.54008e-05
-1.78456e-05
-8.17499e-05
-1.94879e-05
-7.78168e-05
-2.09578e-05
-7.36353e-05
-2.22342e-05
-6.92428e-05
-2.32981e-05
-6.46797e-05
-2.41325e-05
-5.9989e-05
-2.47233e-05
-5.52156e-05
-2.50597e-05
-5.04061e-05
-2.5134e-05
-4.56079e-05
-2.4943e-05
-4.08684e-05
-2.44871e-05
-3.62344e-05
-2.37714e-05
-3.17513e-05
-2.28056e-05
-2.74622e-05
-2.1604e-05
-2.34071e-05
-2.01857e-05
-1.9622e-05
-1.85747e-05
-1.61383e-05
-1.67998e-05
-1.29818e-05
-1.48946e-05
-1.01721e-05
-1.28976e-05
-7.72191e-06
-1.08522e-05
-5.63652e-06
-8.80674e-06
-3.9133e-06
-6.81503e-06
-2.54145e-06
-4.93627e-06
-1.50181e-06
-3.23578e-06
-7.66911e-07
-1.78552e-06
-3.01276e-07
-6.64655e-07
-6.20187e-08
3.97522e-08
2.264e-07
-2.77618e-07
8.3636e-07
-1.07446e-06
2.91058e-06
-2.35825e-06
5.22187e-06
-4.09815e-06
7.64517e-06
-6.26341e-06
1.0086e-05
-8.82275e-06
1.24705e-05
-1.17441e-05
1.47424e-05
-1.49947e-05
1.68612e-05
-1.85411e-05
1.87988e-05
-2.23495e-05
2.05374e-05
-2.6386e-05
2.20667e-05
-3.06169e-05
2.33827e-05
-3.50088e-05
2.44854e-05
-3.9529e-05
2.5378e-05
-4.4145e-05
2.60652e-05
-4.88254e-05
2.65527e-05
-5.35393e-05
2.68466e-05
-5.82561e-05
2.69526e-05
-6.29463e-05
2.68758e-05
-6.75806e-05
2.66209e-05
-7.21302e-05
2.61915e-05
-7.65665e-05
2.55907e-05
-8.08617e-05
2.48211e-05
-8.4988e-05
2.38848e-05
-8.89182e-05
2.2784e-05
-9.26254e-05
2.15207e-05
-9.60834e-05
2.00977e-05
-9.92665e-05
1.85183e-05
-0.00010215
1.67869e-05
-0.000104711
1.49093e-05
-0.000106926
1.28925e-05
-0.000108775
1.07454e-05
-0.000110239
8.47877e-06
-0.0001113
6.10536e-06
-0.000111946
3.63998e-06
-0.000112163
1.09956e-06
-0.000111943
-1.49691e-06
-0.000111281
-4.12841e-06
-0.000110175
-6.77207e-06
-0.000108626
-9.40334e-06
-0.000106641
-1.19962e-05
-0.000104229
-1.45237e-05
-0.000101405
-1.69577e-05
-9.81884e-05
-1.92702e-05
-9.46012e-05
-2.14328e-05
-9.06711e-05
-2.3418e-05
-8.64298e-05
-2.51991e-05
-8.19127e-05
-2.67513e-05
-7.71594e-05
-2.80515e-05
-7.22122e-05
-2.90796e-05
-6.71169e-05
-2.98187e-05
-6.19212e-05
-3.02553e-05
-5.66749e-05
-3.03804e-05
-5.14285e-05
-3.01894e-05
-4.6233e-05
-2.96825e-05
-4.11391e-05
-2.88653e-05
-3.61958e-05
-2.77489e-05
-3.14502e-05
-2.63496e-05
-2.69461e-05
-2.46898e-05
-2.27234e-05
-2.27974e-05
-1.88173e-05
-2.0706e-05
-1.52571e-05
-1.84548e-05
-1.2066e-05
-1.60887e-05
-9.25992e-06
-1.36582e-05
-6.84746e-06
-1.12192e-05
-4.82904e-06
-8.83344e-06
-3.19693e-06
-6.56839e-06
-1.9351e-06
-4.49761e-06
-1.01942e-06
-2.7012e-06
-4.18187e-07
-1.26589e-06
-9.2937e-08
-2.85496e-07
1.33464e-07
-3.2155e-07
1.15791e-06
-1.23639e-06
3.82543e-06
-2.69949e-06
6.68497e-06
-4.66872e-06
9.6144e-06
-7.1036e-06
1.25209e-05
-9.96465e-06
1.53315e-05
-1.3213e-05
1.79908e-05
-1.68103e-05
2.04585e-05
-2.07186e-05
2.27071e-05
-2.49004e-05
2.47191e-05
-2.93187e-05
2.6485e-05
-3.39373e-05
2.80012e-05
-3.87205e-05
2.92687e-05
-4.36337e-05
3.02912e-05
-4.86429e-05
3.10743e-05
-5.37148e-05
3.16246e-05
-5.8817e-05
3.19488e-05
-6.39176e-05
3.20532e-05
-6.89855e-05
3.19437e-05
-7.39899e-05
3.16253e-05
-7.89006e-05
3.11022e-05
-8.36877e-05
3.03778e-05
-8.83216e-05
2.9455e-05
-9.27733e-05
2.83365e-05
-9.70139e-05
2.70246e-05
-0.000101015
2.5522e-05
-0.00010475
2.3832e-05
-0.00010819
2.19587e-05
-0.00011131
1.99073e-05
-0.000114086
1.76847e-05
-0.000116493
1.52992e-05
-0.000118509
1.27615e-05
-0.000120114
1.00841e-05
-0.00012129
7.28186e-06
-0.000122023
4.37216e-06
-0.000122298
1.37468e-06
-0.000122106
-1.68849e-06
-0.000121442
-4.79296e-06
-0.000120302
-7.9122e-06
-0.000118687
-1.10177e-05
-0.000116604
-1.40795e-05
-0.000114062
-1.70659e-05
-0.000111075
-1.99447e-05
-0.000107662
-2.2683e-05
-0.000103847
-2.5248e-05
-9.96573e-05
-2.76074e-05
-9.51262e-05
-2.97302e-05
-9.02904e-05
-3.1587e-05
-8.51908e-05
-3.31511e-05
-7.98721e-05
-3.43984e-05
-7.4382e-05
-3.53088e-05
-6.87712e-05
-3.58662e-05
-6.30922e-05
-3.60594e-05
-5.73992e-05
-3.58824e-05
-5.17466e-05
-3.53351e-05
-4.61888e-05
-3.44231e-05
-4.0779e-05
-3.31587e-05
-3.55682e-05
-3.15604e-05
-3.06046e-05
-2.96535e-05
-2.59322e-05
-2.74698e-05
-2.15904e-05
-2.50479e-05
-1.76125e-05
-2.24327e-05
-1.40258e-05
-1.96755e-05
-1.085e-05
-1.6834e-05
-8.09738e-06
-1.39718e-05
-5.77199e-06
-1.11588e-05
-3.86959e-06
-8.47077e-06
-2.37768e-06
-5.98952e-06
-1.27573e-06
-3.80315e-06
-5.35799e-07
-2.00582e-06
-1.23586e-07
-6.97709e-07
9.87785e-09
-3.63981e-07
1.52189e-06
-1.39346e-06
4.85491e-06
-3.03149e-06
8.32301e-06
-5.22518e-06
1.18081e-05
-7.92459e-06
1.52203e-05
-1.10821e-05
1.8489e-05
-1.46521e-05
2.15608e-05
-1.85905e-05
2.43969e-05
-2.28546e-05
2.69712e-05
-2.74031e-05
2.92676e-05
-3.21959e-05
3.12778e-05
-3.71941e-05
3.29995e-05
-4.23601e-05
3.44346e-05
-4.76571e-05
3.55882e-05
-5.30495e-05
3.64668e-05
-5.85028e-05
3.70779e-05
-6.39829e-05
3.7429e-05
-6.94569e-05
3.75272e-05
-7.48922e-05
3.7379e-05
-8.02568e-05
3.699e-05
-8.55194e-05
3.63647e-05
-9.06486e-05
3.5507e-05
-9.56138e-05
3.44203e-05
-0.000100385
3.31073e-05
-0.000104931
3.1571e-05
-0.000109223
2.98144e-05
-0.000113233
2.78415e-05
-0.000116931
2.5657e-05
-0.000120291
2.32672e-05
-0.000123286
2.06798e-05
-0.000125892
1.79048e-05
-0.000128084
1.49541e-05
-0.000129843
1.18424e-05
-0.000131148
8.58668e-06
-0.000131982
5.20677e-06
-0.000132333
1.72518e-06
-0.000132188
-1.83288e-06
-0.000131542
-5.43958e-06
-0.000130389
-9.06466e-06
-0.000128731
-1.26756e-05
-0.000126573
-1.62381e-05
-0.000123923
-1.97161e-05
-0.000120795
-2.30726e-05
-0.000117208
-2.62699e-05
-0.000113185
-2.92704e-05
-0.000108756
-3.2037e-05
-0.000103952
-3.45336e-05
-9.88127e-05
-3.67265e-05
-9.33796e-05
-3.85842e-05
-8.76992e-05
-4.00788e-05
-8.18215e-05
-4.11864e-05
-7.57997e-05
-4.18879e-05
-6.96894e-05
-4.21697e-05
-6.35479e-05
-4.20239e-05
-5.74335e-05
-4.14495e-05
-5.14046e-05
-4.04521e-05
-4.55184e-05
-3.90448e-05
-3.98306e-05
-3.72482e-05
-3.43938e-05
-3.50903e-05
-2.92567e-05
-3.26069e-05
-2.44633e-05
-2.98413e-05
-2.00517e-05
-2.68443e-05
-1.60535e-05
-2.36738e-05
-1.24928e-05
-2.03947e-05
-9.38608e-06
-1.70785e-05
-6.74148e-06
-1.38034e-05
-4.55868e-06
-1.06536e-05
-2.82894e-06
-7.71926e-06
-1.53546e-06
-5.09663e-06
-6.54007e-07
-2.88727e-06
-1.53993e-07
-1.19772e-06
-1.44115e-07
-4.04897e-07
1.92679e-06
-1.54537e-06
5.99538e-06
-3.3533e-06
1.01309e-05
-5.76558e-06
1.42204e-05
-8.72314e-06
1.81779e-05
-1.21705e-05
2.19364e-05
-1.60552e-05
2.54454e-05
-2.03274e-05
2.86692e-05
-2.49399e-05
3.15837e-05
-2.98474e-05
3.41751e-05
-3.50065e-05
3.6437e-05
-4.03759e-05
3.83689e-05
-4.59157e-05
3.99743e-05
-5.15872e-05
4.12598e-05
-5.73535e-05
4.22331e-05
-6.31785e-05
4.29028e-05
-6.90271e-05
4.32775e-05
-7.4865e-05
4.33651e-05
-8.06587e-05
4.31727e-05
-8.63751e-05
4.27065e-05
-9.19819e-05
4.19714e-05
-9.74467e-05
4.09718e-05
-0.000102738
3.97114e-05
-0.000107824
3.81932e-05
-0.000112673
3.64206e-05
-0.000117256
3.43972e-05
-0.000121542
3.21274e-05
-0.000125501
2.96165e-05
-0.000129106
2.68718e-05
-0.000132328
2.39022e-05
-0.000135142
2.07187e-05
-0.000137523
1.73351e-05
-0.000139449
1.37677e-05
-0.000140898
1.00359e-05
-0.000141853
6.16175e-06
-0.000142298
2.17069e-06
-0.000142222
-1.90897e-06
-0.000141616
-6.04595e-06
-0.000140474
-1.02062e-05
-0.000138797
-1.43532e-05
-0.000136587
-1.84481e-05
-0.000133853
-2.24504e-05
-0.000130607
-2.63182e-05
-0.000126868
-3.00088e-05
-0.000122659
-3.34794e-05
-0.000118008
-3.66877e-05
-0.000112949
-3.95927e-05
-0.000107521
-4.21552e-05
-0.000101765
-4.43393e-05
-9.5732e-05
-4.61123e-05
-8.94722e-05
-4.74463e-05
-8.30416e-05
-4.83185e-05
-7.64988e-05
-4.87125e-05
-6.99046e-05
-4.86181e-05
-6.3321e-05
-4.8033e-05
-5.68107e-05
-4.69624e-05
-5.04355e-05
-4.542e-05
-4.42559e-05
-4.34278e-05
-3.83295e-05
-4.10167e-05
-3.27102e-05
-3.82262e-05
-2.7447e-05
-3.51045e-05
-2.25833e-05
-3.1708e-05
-1.81557e-05
-2.81014e-05
-1.41933e-05
-2.43571e-05
-1.07172e-05
-2.05546e-05
-7.74015e-06
-1.67805e-05
-5.266e-06
-1.31277e-05
-3.2901e-06
-9.69516e-06
-1.79942e-06
-6.58731e-06
-7.73279e-07
-3.91341e-06
-1.84332e-07
-1.78667e-06
-3.28447e-07
-4.44286e-07
2.37108e-06
-1.6919e-06
7.24298e-06
-3.66422e-06
1.21033e-05
-6.28842e-06
1.68446e-05
-9.49673e-06
2.13862e-05
-1.3226e-05
2.56656e-05
-1.74171e-05
2.96366e-05
-2.20148e-05
3.32668e-05
-2.6967e-05
3.65359e-05
-3.22245e-05
3.94326e-05
-3.7741e-05
4.19535e-05
-4.34723e-05
4.41002e-05
-4.93764e-05
4.58784e-05
-5.54131e-05
4.72965e-05
-6.15438e-05
4.83638e-05
-6.77311e-05
4.90902e-05
-7.3939e-05
4.94854e-05
-8.01322e-05
4.95583e-05
-8.62762e-05
4.93168e-05
-9.23372e-05
4.87674e-05
-9.82818e-05
4.7916e-05
-0.000104077
4.6767e-05
-0.00010969
4.53244e-05
-0.000115089
4.35919e-05
-0.000120241
4.15729e-05
-0.000125115
3.92716e-05
-0.000129681
3.66927e-05
-0.000133906
3.38424e-05
-0.000137763
3.07286e-05
-0.000141222
2.73613e-05
-0.000144257
2.37529e-05
-0.00014684
1.99185e-05
-0.000148949
1.58763e-05
-0.00015056
1.16476e-05
-0.000151656
7.25713e-06
-0.000152218
2.7329e-06
-0.000152233
-1.89364e-06
-0.000151691
-6.58781e-06
-0.000150586
-1.13118e-05
-0.000148914
-1.60249e-05
-0.000146678
-2.0684e-05
-0.000143885
-2.52437e-05
-0.000140546
-2.96571e-05
-0.000136678
-3.38764e-05
-0.000132305
-3.78534e-05
-0.000127452
-4.15401e-05
-0.000122155
-4.48902e-05
-0.000116451
-4.78589e-05
-0.000110385
-5.0405e-05
-0.000104007
-5.24908e-05
-9.73692e-05
-5.40837e-05
-9.05308e-05
-5.5157e-05
-8.35529e-05
-5.56903e-05
-7.65e-05
-5.56711e-05
-6.9438e-05
-5.5095e-05
-6.2434e-05
-5.39664e-05
-5.55549e-05
-5.2299e-05
-4.88663e-05
-5.01164e-05
-4.24314e-05
-4.74516e-05
-3.63098e-05
-4.43478e-05
-3.05562e-05
-4.0858e-05
-2.52198e-05
-3.70444e-05
-2.03428e-05
-3.29784e-05
-1.59599e-05
-2.874e-05
-1.20975e-05
-2.4417e-05
-8.77308e-06
-2.01049e-05
-5.99534e-06
-1.59055e-05
-3.7638e-06
-1.19267e-05
-2.06929e-06
-8.28182e-06
-8.94485e-07
-5.08821e-06
-2.14884e-07
-2.46627e-06
-5.43332e-07
-4.82126e-07
2.85321e-06
-1.83284e-06
8.5937e-06
-3.96361e-06
1.4234e-05
-6.79242e-06
1.96734e-05
-1.02432e-05
2.4837e-05
-1.42454e-05
2.96678e-05
-1.87336e-05
3.41248e-05
-2.36471e-05
3.81802e-05
-2.89291e-05
4.18178e-05
-3.45267e-05
4.50303e-05
-4.03904e-05
4.78172e-05
-4.64736e-05
5.01833e-05
-5.27321e-05
5.21369e-05
-5.9124e-05
5.36884e-05
-6.56093e-05
5.48491e-05
-7.21497e-05
5.56305e-05
-7.8708e-05
5.60437e-05
-8.52481e-05
5.60984e-05
-9.17349e-05
5.58035e-05
-9.81337e-05
5.51663e-05
-0.000104411
5.41928e-05
-0.000110532
5.28882e-05
-0.000116464
5.12567e-05
-0.000122174
4.93021e-05
-0.00012763
4.70285e-05
-0.000132798
4.444e-05
-0.000137648
4.15421e-05
-0.000142147
3.83414e-05
-0.000146265
3.48466e-05
-0.000149972
3.10686e-05
-0.00015324
2.70209e-05
-0.000156041
2.27201e-05
-0.000158351
1.8186e-05
-0.000160145
1.34419e-05
-0.000161403
8.5148e-06
-0.000162106
3.43539e-06
-0.000162237
-1.76193e-06
-0.000161786
-7.03908e-06
-0.000160743
-1.23545e-05
-0.000159105
-1.76635e-05
-0.00015687
-2.29184e-05
-0.000154045
-2.8069e-05
-0.000150639
-3.30633e-05
-0.000146667
-3.78481e-05
-0.000142151
-4.23693e-05
-0.000137118
-4.65735e-05
-0.0001316
-5.0408e-05
-0.000125636
-5.38225e-05
-0.000119272
-5.67696e-05
-0.000112556
-5.92062e-05
-0.000105546
-6.10944e-05
-9.83e-05
-6.24026e-05
-9.08839e-05
-6.31064e-05
-8.33652e-05
-6.31898e-05
-7.58142e-05
-6.2646e-05
-6.83028e-05
-6.14779e-05
-6.0903e-05
-5.96988e-05
-5.36863e-05
-5.7333e-05
-4.67219e-05
-5.4416e-05
-4.00756e-05
-5.09941e-05
-3.38087e-05
-4.71249e-05
-2.79766e-05
-4.28765e-05
-2.2628e-05
-3.8327e-05
-1.78037e-05
-3.35643e-05
-1.35357e-05
-2.8685e-05
-9.8473e-06
-2.37933e-05
-6.75194e-06
-1.90008e-05
-4.2537e-06
-1.44249e-05
-2.34734e-06
-1.01882e-05
-1.01878e-06
-6.41678e-06
-2.45994e-07
-3.23906e-06
-7.89326e-07
-5.18381e-07
3.37159e-06
-1.96798e-06
1.00433e-05
-4.25089e-06
1.65169e-05
-7.27641e-06
2.26989e-05
-1.09606e-05
2.85211e-05
-1.52259e-05
3.39331e-05
-2.00007e-05
3.88997e-05
-2.52191e-05
4.33986e-05
-3.082e-05
4.74187e-05
-3.67466e-05
5.0957e-05
-4.29466e-05
5.40171e-05
-4.93706e-05
5.66074e-05
-5.59727e-05
5.8739e-05
-6.27093e-05
6.0425e-05
-6.95392e-05
6.1679e-05
-7.64229e-05
6.25143e-05
-8.33225e-05
6.29433e-05
-9.02012e-05
6.29772e-05
-9.70232e-05
6.26256e-05
-0.000103754
6.18966e-05
-0.000110358
6.07968e-05
-0.000116801
5.93317e-05
-0.00012305
5.75059e-05
-0.000129072
5.53235e-05
-0.000134832
5.27886e-05
-0.000140298
4.99059e-05
-0.000145437
4.66811e-05
-0.000150217
4.31214e-05
-0.000154606
3.9236e-05
-0.000158574
3.50365e-05
-0.000162091
3.05376e-05
-0.000165128
2.5757e-05
-0.000167658
2.07162e-05
-0.000169656
1.54402e-05
-0.000171099
9.95816e-06
-0.000171967
4.30327e-06
-0.000172242
-1.48721e-06
-0.000171909
-7.37197e-06
-0.000170958
-1.33058e-05
-0.000169381
-1.92399e-05
-0.000167178
-2.51222e-05
-0.000164349
-3.08976e-05
-0.000160903
-3.6509e-05
-0.000156854
-4.18972e-05
-0.000152221
-4.70027e-05
-0.000147029
-5.17654e-05
-0.00014131
-5.61266e-05
-0.000135103
-6.00294e-05
-0.000128453
-6.34201e-05
-0.00012141
-6.62492e-05
-0.000114031
-6.8473e-05
-0.00010638
-7.00543e-05
-9.85222e-05
-7.09638e-05
-9.05305e-05
-7.11815e-05
-8.24794e-05
-7.06971e-05
-7.44458e-05
-6.95115e-05
-6.65075e-05
-6.76371e-05
-5.8742e-05
-6.50985e-05
-5.12252e-05
-6.19328e-05
-4.403e-05
-5.81894e-05
-3.72246e-05
-5.39303e-05
-3.08716e-05
-4.92294e-05
-2.50268e-05
-4.41719e-05
-1.97376e-05
-3.88535e-05
-1.50427e-05
-3.33798e-05
-1.09712e-05
-2.78648e-05
-7.54211e-06
-2.24299e-05
-4.76421e-06
-1.72028e-05
-2.6363e-06
-1.23161e-05
-1.14751e-06
-7.90557e-06
-2.78055e-07
-4.10851e-06
-1.06738e-06
-5.52996e-07
3.92458e-06
-2.09706e-06
1.15874e-05
-4.52542e-06
1.89453e-05
-7.73918e-06
2.59127e-05
-1.16469e-05
3.24289e-05
-1.61645e-05
3.84507e-05
-2.12146e-05
4.39497e-05
-2.67261e-05
4.89101e-05
-3.26337e-05
5.33263e-05
-3.88773e-05
5.72005e-05
-4.54013e-05
6.05411e-05
-5.21543e-05
6.33604e-05
-5.90883e-05
6.5673e-05
-6.61583e-05
6.7495e-05
-7.33219e-05
6.88426e-05
-8.05387e-05
6.97311e-05
-8.77701e-05
7.01747e-05
-9.49788e-05
7.01859e-05
-0.000102129
6.97753e-05
-0.000109184
6.89519e-05