/*--------------------------------*- C++ -*----------------------------------*\
  =========                 |
  \\      /  F ield         | OpenFOAM: The Open Source CFD Toolbox
   \\    /   O peration     | Website:  https://openfoam.org
    \\  /    A nd           | Version:  dev
     \\/     M anipulation  |
\*---------------------------------------------------------------------------*/
FoamFile
{
    format      ascii;
    class       volVectorField;
    location    "49.05";
    object      U;
}
// * * * * * * * * * * * * * * * * * * * * * * * * * * * * * * * * * * * * * //

dimensions      [0 1 -1 0 0 0 0];

internalField   nonuniform List<vector> 
5184
(
(1.24458e-05 -1.2598e-05 0)
(4.53634e-05 -2.08308e-05 0)
(8.04628e-05 -1.72291e-05 0)
(9.60994e-05 -8.19041e-06 0)
(8.22656e-05 2.67231e-06 0)
(3.65601e-05 1.36215e-05 0)
(-4.0476e-05 2.38507e-05 0)
(-0.000146824 3.30559e-05 0)
(-0.00027969 4.11166e-05 0)
(-0.000436017 4.8038e-05 0)
(-0.000612682 5.38814e-05 0)
(-0.000806652 5.87317e-05 0)
(-0.00101506 6.26812e-05 0)
(-0.00123523 6.58214e-05 0)
(-0.00146472 6.82369e-05 0)
(-0.00170125 7.00034e-05 0)
(-0.00194276 7.11852e-05 0)
(-0.00218733 7.18347e-05 0)
(-0.00243318 7.19927e-05 0)
(-0.00267862 7.16889e-05 0)
(-0.00292205 7.09425e-05 0)
(-0.00316189 6.9764e-05 0)
(-0.00339664 6.81564e-05 0)
(-0.00362475 6.61166e-05 0)
(-0.0038447 6.36374e-05 0)
(-0.00405495 6.07092e-05 0)
(-0.00425394 5.73214e-05 0)
(-0.0044401 5.34644e-05 0)
(-0.00461186 4.9131e-05 0)
(-0.00476762 4.43182e-05 0)
(-0.00490583 3.90285e-05 0)
(-0.00502496 3.32712e-05 0)
(-0.00512356 2.70635e-05 0)
(-0.00520025 2.04314e-05 0)
(-0.00525376 1.34107e-05 0)
(-0.00528297 6.04704e-06 0)
(-0.00528696 -1.60331e-06 0)
(-0.00526497 -9.47392e-06 0)
(-0.00521652 -1.74883e-05 0)
(-0.00514139 -2.55603e-05 0)
(-0.00503961 -3.35957e-05 0)
(-0.00491159 -4.14928e-05 0)
(-0.00475801 -4.91443e-05 0)
(-0.00457995 -5.64393e-05 0)
(-0.00437879 -6.3265e-05 0)
(-0.0041563 -6.95095e-05 0)
(-0.00391457 -7.5064e-05 0)
(-0.00365603 -7.98255e-05 0)
(-0.00338341 -8.36992e-05 0)
(-0.00309971 -8.66015e-05 0)
(-0.00280818 -8.84617e-05 0)
(-0.00251224 -8.92247e-05 0)
(-0.00221546 -8.88524e-05 0)
(-0.00192151 -8.73249e-05 0)
(-0.00163404 -8.46419e-05 0)
(-0.00135672 -8.08227e-05 0)
(-0.00109307 -7.59065e-05 0)
(-0.000846465 -6.99523e-05 0)
(-0.000620058 -6.30382e-05 0)
(-0.000416698 -5.52601e-05 0)
(-0.000238883 -4.67318e-05 0)
(-8.8692e-05 -3.75862e-05 0)
(3.22876e-05 -2.79787e-05 0)
(0.000123042 -1.80923e-05 0)
(0.00018324 -8.15206e-06 0)
(0.000213384 1.54781e-06 0)
(0.000215063 1.05821e-05 0)
(0.000191333 1.83129e-05 0)
(0.000147226 2.37274e-05 0)
(9.08376e-05 2.51343e-05 0)
(3.66415e-05 1.98494e-05 0)
(6.22829e-06 6.24257e-06 0)
(2.09256e-05 -4.57309e-05 0)
(6.57951e-05 -6.56232e-05 0)
(9.49059e-05 -4.05274e-05 0)
(7.30024e-05 7.64964e-06 0)
(-1.87548e-05 6.56993e-05 0)
(-0.000187188 0.000126026 0)
(-0.000432881 0.000184344 0)
(-0.00075262 0.000238409 0)
(-0.00114086 0.000287077 0)
(-0.00159081 0.000329904 0)
(-0.00209514 0.00036685 0)
(-0.00264638 0.000398105 0)
(-0.00323722 0.000423979 0)
(-0.00386068 0.00044484 0)
(-0.00451014 0.000461065 0)
(-0.0051794 0.000473013 0)
(-0.00586266 0.000481007 0)
(-0.00655447 0.000485322 0)
(-0.0072497 0.000486183 0)
(-0.00794346 0.00048376 0)
(-0.00863104 0.000478174 0)
(-0.0093079 0.000469502 0)
(-0.00996956 0.000457783 0)
(-0.0106116 0.000443026 0)
(-0.0112296 0.000425219 0)
(-0.0118191 0.000404339 0)
(-0.0123758 0.00038036 0)
(-0.0128952 0.000353267 0)
(-0.013373 0.000323059 0)
(-0.0138047 0.000289764 0)
(-0.0141862 0.000253441 0)
(-0.0145134 0.000214194 0)
(-0.0147823 0.000172173 0)
(-0.0149893 0.000127581 0)
(-0.0151312 8.06772e-05 0)
(-0.0152051 3.17816e-05 0)
(-0.0152086 -1.87269e-05 0)
(-0.01514 -7.04099e-05 0)
(-0.0149981 -0.000122772 0)
(-0.0147826 -0.000175266 0)
(-0.0144938 -0.000227297 0)
(-0.014133 -0.000278232 0)
(-0.0137023 -0.00032741 0)
(-0.0132048 -0.000374152 0)
(-0.0126443 -0.000417772 0)
(-0.0120258 -0.000457597 0)
(-0.0113551 -0.000492971 0)
(-0.0106386 -0.000523282 0)
(-0.00988388 -0.000547967 0)
(-0.00909899 -0.000566533 0)
(-0.00829263 -0.000578565 0)
(-0.00747399 -0.000583744 0)
(-0.0066526 -0.000581856 0)
(-0.0058382 -0.000572797 0)
(-0.00504059 -0.000556583 0)
(-0.00426944 -0.000533352 0)
(-0.00353412 -0.000503369 0)
(-0.00284356 -0.000467024 0)
(-0.00220605 -0.000424832 0)
(-0.00162907 -0.000377433 0)
(-0.00111908 -0.000325598 0)
(-0.000681405 -0.000270229 0)
(-0.000319939 -0.00021239 0)
(-3.69713e-05 -0.000153333 0)
(0.000167135 -9.45708e-05 0)
(0.000294301 -3.79798e-05 0)
(0.000349281 1.39766e-05 0)
(0.000340354 5.7992e-05 0)
(0.000280023 8.94709e-05 0)
(0.000186148 0.000101914 0)
(8.64148e-05 8.6554e-05 0)
(1.96927e-05 3.64977e-05 0)
(1.76782e-05 -8.12686e-05 0)
(4.14448e-05 -9.50083e-05 0)
(1.97553e-05 -1.91203e-05 0)
(-8.3844e-05 0.000105958 0)
(-0.000290142 0.000254714 0)
(-0.000607887 0.000410696 0)
(-0.00103834 0.000563584 0)
(-0.00157769 0.000707237 0)
(-0.00221876 0.000838202 0)
(-0.00295237 0.00095477 0)
(-0.00376824 0.00105635 0)
(-0.00465565 0.00114302 0)
(-0.00560387 0.00121531 0)
(-0.00660245 0.00127394 0)
(-0.00764131 0.00131974 0)
(-0.0087109 0.00135352 0)
(-0.00980213 0.00137605 0)
(-0.0109064 0.00138802 0)
(-0.0120155 0.00138998 0)
(-0.0131215 0.00138237 0)
(-0.014217 0.00136553 0)
(-0.0152944 0.00133968 0)
(-0.0163467 0.00130495 0)
(-0.0173666 0.00126139 0)
(-0.018347 0.00120903 0)
(-0.0192809 0.00114784 0)
(-0.0201613 0.00107783 0)
(-0.0209813 0.000998995 0)
(-0.0217338 0.000911412 0)
(-0.0224122 0.000815216 0)
(-0.02301 0.000710639 0)
(-0.0235207 0.000598027 0)
(-0.0239384 0.000477853 0)
(-0.0242578 0.000350732 0)
(-0.0244738 0.000217432 0)
(-0.0245823 7.88758e-05 0)
(-0.0245799 -6.38555e-05 0)
(-0.024464 -0.000209526 0)
(-0.0242332 -0.000356751 0)
(-0.0238872 -0.000504012 0)
(-0.0234266 -0.000649674 0)
(-0.0228538 -0.000792001 0)
(-0.0221722 -0.000929192 0)
(-0.0213866 -0.0010594 0)
(-0.0205032 -0.00118078 0)
(-0.0195298 -0.00129151 0)
(-0.0184752 -0.00138982 0)
(-0.0173496 -0.00147409 0)
(-0.0161646 -0.0015428 0)
(-0.0149324 -0.00159464 0)
(-0.0136664 -0.00162851 0)
(-0.0123806 -0.00164358 0)
(-0.0110897 -0.00163927 0)
(-0.00980841 -0.00161534 0)
(-0.00855166 -0.00157185 0)
(-0.00733415 -0.00150921 0)
(-0.00617014 -0.00142816 0)
(-0.00507317 -0.0013298 0)
(-0.00405578 -0.00121559 0)
(-0.00312925 -0.00108733 0)
(-0.00230331 -0.000947196 0)
(-0.00158586 -0.000797756 0)
(-0.000982646 -0.000642019 0)
(-0.000496886 -0.00048352 0)
(-0.00012889 -0.000326461 0)
(0.000124413 -0.000175931 0)
(0.000270125 -3.82475e-05 0)
(0.000320103 7.8569e-05 0)
(0.000291492 0.000164217 0)
(0.000207532 0.000205525 0)
(0.000102512 0.000186379 0)
(2.49921e-05 9.04298e-05 0)
(8.8635e-06 -9.77671e-05 0)
(-6.94112e-06 -7.3172e-05 0)
(-0.000107491 8.47883e-05 0)
(-0.000322301 0.000318426 0)
(-0.000669624 0.000590236 0)
(-0.00115787 0.000874588 0)
(-0.00178778 0.00115444 0)
(-0.00255459 0.00141901 0)
(-0.00344974 0.0016618 0)
(-0.00446222 0.00187929 0)
(-0.00557954 0.00206991 0)
(-0.00678847 0.00223342 0)
(-0.00807562 0.00237037 0)
(-0.00942771 0.0024818 0)
(-0.0108318 0.00256898 0)
(-0.0122756 0.00263325 0)
(-0.013747 0.00267588 0)
(-0.0152347 0.00269803 0)
(-0.0167278 0.00270068 0)
(-0.0182156 0.00268461 0)
(-0.0196881 0.00265044 0)
(-0.0211351 0.00259857 0)
(-0.0225469 0.00252929 0)
(-0.0239139 0.00244275 0)
(-0.0252266 0.00233902 0)
(-0.0264754 0.00221816 0)
(-0.027651 0.00208023 0)
(-0.0287441 0.00192532 0)
(-0.0297456 0.00175364 0)
(-0.0306467 0.00156555 0)
(-0.0314387 0.00136158 0)
(-0.0321134 0.00114245 0)
(-0.0326633 0.000909144 0)
(-0.0330812 0.000662901 0)
(-0.033361 0.000405235 0)
(-0.0334974 0.000137949 0)
(-0.0334862 -0.000136865 0)
(-0.0333244 -0.000416838 0)
(-0.0330102 -0.000699332 0)
(-0.0325435 -0.000981468 0)
(-0.0319256 -0.00126016 0)
(-0.0311596 -0.00153214 0)
(-0.0302501 -0.00179404 0)
(-0.0292037 -0.00204242 0)
(-0.0280287 -0.00227382 0)
(-0.0267351 -0.00248485 0)
(-0.0253346 -0.00267228 0)
(-0.0238405 -0.00283304 0)
(-0.0222677 -0.00296436 0)
(-0.0206322 -0.00306381 0)
(-0.0189514 -0.00312938 0)
(-0.0172433 -0.00315952 0)
(-0.0155267 -0.00315321 0)
(-0.0138209 -0.00311001 0)
(-0.012145 -0.00303005 0)
(-0.0105179 -0.00291413 0)
(-0.00895817 -0.00276368 0)
(-0.00748308 -0.0025808 0)
(-0.00610881 -0.00236826 0)
(-0.00484988 -0.0021295 0)
(-0.00371877 -0.00186868 0)
(-0.00272559 -0.0015907 0)
(-0.00187768 -0.00130128 0)
(-0.00117916 -0.00100709 0)
(-0.000630499 -0.000715956 0)
(-0.000227987 -0.000437152 0)
(3.68615e-05 -0.000181825 0)
(0.000177951 3.64095e-05 0)
(0.000215018 0.000200828 0)
(0.000174242 0.000291034 0)
(9.30927e-05 0.000282723 0)
(2.40421e-05 0.000147354 0)
(-2.11177e-06 -8.44577e-05 0)
(-6.72613e-05 2.08539e-05 0)
(-0.000264097 0.00029548 0)
(-0.000609831 0.00066817 0)
(-0.00111697 0.0010911 0)
(-0.00179172 0.00153035 0)
(-0.0026331 0.00196247 0)
(-0.00363472 0.00237196 0)
(-0.00478647 0.00274911 0)
(-0.00607561 0.00308828 0)
(-0.00748779 0.00338668 0)
(-0.00900776 0.0036435 0)
(-0.0106199 0.0038592 0)
(-0.0123087 0.00403501 0)
(-0.0140588 0.0041726 0)
(-0.0158554 0.0042738 0)
(-0.0176841 0.00434038 0)
(-0.019531 0.00437401 0)
(-0.0213829 0.0043761 0)
(-0.0232267 0.00434783 0)
(-0.0250499 0.0042901 0)
(-0.0268401 0.00420358 0)
(-0.0285852 0.00408872 0)
(-0.0302733 0.00394582 0)
(-0.0318926 0.00377507 0)
(-0.0334315 0.00357664 0)
(-0.0348784 0.00335069 0)
(-0.0362221 0.00309751 0)
(-0.0374515 0.00281755 0)
(-0.0385558 0.00251147 0)
(-0.0395246 0.00218021 0)
(-0.0403482 0.00182504 0)
(-0.0410174 0.00144763 0)
(-0.0415239 0.00105002 0)
(-0.0418605 0.000634693 0)
(-0.042021 0.000204573 0)
(-0.0420005 -0.000236978 0)
(-0.0417957 -0.00068617 0)
(-0.0414047 -0.00113881 0)
(-0.0408275 -0.00159034 0)
(-0.0400661 -0.0020359 0)
(-0.0391243 -0.00247035 0)
(-0.0380079 -0.00288841 0)
(-0.0367249 -0.00328469 0)
(-0.0352853 -0.00365381 0)
(-0.0337013 -0.00399048 0)
(-0.0319869 -0.00428966 0)
(-0.0301581 -0.00454659 0)
(-0.0282328 -0.00475698 0)
(-0.02623 -0.00491706 0)
(-0.0241706 -0.0050237 0)
(-0.022076 -0.00507451 0)
(-0.0199688 -0.00506793 0)
(-0.0178717 -0.00500328 0)
(-0.0158077 -0.00488081 0)
(-0.0137993 -0.00470178 0)
(-0.0118686 -0.00446848 0)
(-0.0100363 -0.00418422 0)
(-0.00832159 -0.00385338 0)
(-0.00674194 -0.00348145 0)
(-0.00531224 -0.00307498 0)
(-0.00404462 -0.00264172 0)
(-0.00294796 -0.00219068 0)
(-0.0020274 -0.00173227 0)
(-0.00128387 -0.00127853 0)
(-0.000713602 -0.000843538 0)
(-0.000307593 -0.000443779 0)
(-5.10655e-05 -9.88221e-05 0)
(7.68707e-05 0.000167989 0)
(0.000103734 0.000328916 0)
(6.75681e-05 0.000351215 0)
(1.96786e-05 0.000194243 0)
(-1.36906e-05 -3.75796e-05 0)
(-0.000132842 0.000197348 0)
(-0.0004359 0.000627009 0)
(-0.000924848 0.00117063 0)
(-0.00160432 0.00177223 0)
(-0.00247689 0.00239093 0)
(-0.00353871 0.00299766 0)
(-0.00478108 0.00357262 0)
(-0.0061919 0.00410295 0)
(-0.00775666 0.00458087 0)
(-0.00945919 0.00500232 0)
(-0.0112824 0.00536578 0)
(-0.0132089 0.00567151 0)
(-0.0152211 0.00592088 0)
(-0.0173017 0.00611586 0)
(-0.0194337 0.00625872 0)
(-0.0216008 0.00635174 0)
(-0.0237869 0.00639705 0)
(-0.0259765 0.00639654 0)
(-0.0281546 0.00635175 0)
(-0.0303064 0.00626393 0)
(-0.0324175 0.006134 0)
(-0.0344738 0.00596264 0)
(-0.0364611 0.00575032 0)
(-0.0383659 0.0054974 0)
(-0.0401744 0.00520418 0)
(-0.0418732 0.00487107 0)
(-0.0434492 0.00449857 0)
(-0.0448895 0.00408746 0)
(-0.0461818 0.00363883 0)
(-0.0473142 0.00315417 0)
(-0.0482753 0.00263543 0)
(-0.0490549 0.0020851 0)
(-0.0496436 0.00150624 0)
(-0.0500331 0.000902476 0)
(-0.0502165 0.000278079 0)
(-0.0501884 -0.000362086 0)
(-0.0499453 -0.00101256 0)
(-0.0494851 -0.00166734 0)
(-0.0488083 -0.00231992 0)
(-0.0479169 -0.00296335 0)
(-0.0468156 -0.00359037 0)
(-0.0455113 -0.00419348 0)
(-0.0440131 -0.00476506 0)
(-0.0423326 -0.0052975 0)
(-0.0404837 -0.00578336 0)
(-0.0384825 -0.00621552 0)
(-0.0363473 -0.00658729 0)
(-0.0340984 -0.00689262 0)
(-0.0317577 -0.0071262 0)
(-0.0293486 -0.00728363 0)
(-0.026896 -0.00736157 0)
(-0.0244252 -0.00735779 0)
(-0.0219624 -0.00727135 0)
(-0.0195337 -0.00710263 0)
(-0.0171649 -0.00685343 0)
(-0.0148811 -0.00652697 0)
(-0.0127061 -0.006128 0)
(-0.010662 -0.00566275 0)
(-0.00876865 -0.00513901 0)
(-0.00704342 -0.00456611 0)
(-0.00550037 -0.00395505 0)
(-0.00414997 -0.00331855 0)
(-0.00299858 -0.00267119 0)
(-0.00204798 -0.00202971 0)
(-0.00129489 -0.00141332 0)
(-0.000730517 -0.000844165 0)
(-0.000340125 -0.000347935 0)
(-0.000102743 4.53849e-05 0)
(9.27622e-06 0.000300842 0)
(3.25526e-05 0.000377618 0)
(1.36328e-05 0.000224654 0)
(-2.51891e-05 4.40601e-05 0)
(-0.000200057 0.000461321 0)
(-0.000614241 0.0010873 0)
(-0.00125327 0.00183521 0)
(-0.00211267 0.00264315 0)
(-0.0031903 0.00346485 0)
(-0.00447859 0.00426667 0)
(-0.00596582 0.00502515 0)
(-0.00763748 0.00572466 0)
(-0.00947701 0.00635551 0)
(-0.0114664 0.00691237 0)
(-0.0135869 0.00739309 0)
(-0.0158192 0.00779767 0)
(-0.0181441 0.00812754 0)
(-0.0205425 0.00838498 0)
(-0.0229958 0.00857265 0)
(-0.0254855 0.00869329 0)
(-0.027994 0.00874948 0)
(-0.0305039 0.00874356 0)
(-0.0329981 0.00867746 0)
(-0.0354602 0.00855276 0)
(-0.0378737 0.00837067 0)
(-0.0402227 0.00813209 0)
(-0.0424914 0.00783771 0)
(-0.0446642 0.00748809 0)
(-0.0467257 0.00708375 0)
(-0.0486608 0.00662535 0)
(-0.0504548 0.00611373 0)
(-0.0520932 0.00555007 0)
(-0.0535621 0.00493599 0)
(-0.0548484 0.00427364 0)
(-0.0559395 0.0035658 0)
(-0.056824 0.00281592 0)
(-0.0574914 0.00202821 0)
(-0.0579328 0.00120766 0)
(-0.0581405 0.000360052 0)
(-0.0581088 -0.000508043 0)
(-0.0578337 -0.00138929 0)
(-0.0573132 -0.00227563 0)
(-0.0565478 -0.00315838 0)
(-0.05554 -0.0040283 0)
(-0.0542949 -0.00487572 0)
(-0.0528202 -0.00569069 0)
(-0.0511262 -0.00646311 0)
(-0.0492257 -0.0071829 0)
(-0.0471341 -0.00784024 0)
(-0.0448691 -0.00842567 0)
(-0.0424511 -0.00893038 0)
(-0.0399023 -0.00934633 0)
(-0.0372471 -0.00966652 0)
(-0.0345114 -0.00988512 0)
(-0.0317226 -0.00999767 0)
(-0.028909 -0.0100012 0)
(-0.0260994 -0.00989452 0)
(-0.023323 -0.00967803 0)
(-0.0206084 -0.00935412 0)
(-0.0179835 -0.00892707 0)
(-0.015475 -0.00840314 0)
(-0.0131076 -0.0077906 0)
(-0.0109038 -0.00709979 0)
(-0.00888309 -0.00634308 0)
(-0.00706159 -0.00553501 0)
(-0.00545156 -0.00469232 0)
(-0.00406084 -0.00383412 0)
(-0.00289243 -0.00298211 0)
(-0.00194403 -0.0021609 0)
(-0.00120769 -0.00139843 0)
(-0.000669451 -0.000726556 0)
(-0.000309095 -0.000181792 0)
(-9.977e-05 0.000194045 0)
(-7.66998e-06 0.000352824 0)
(6.87087e-06 0.000235151 0)
(-3.63495e-05 0.000160458 0)
(-0.00026702 0.000814647 0)
(-0.000793996 0.00168015 0)
(-0.00158615 0.00266693 0)
(-0.00262931 0.00370926 0)
(-0.00391592 0.00475706 0)
(-0.00543402 0.00577328 0)
(-0.00716831 0.00673162 0)
(-0.00910145 0.00761428 0)
(-0.0112146 0.00840997 0)
(-0.0134877 0.00911235 0)
(-0.0159003 0.0097187 0)
(-0.0184314 0.0102288 0)
(-0.0210601 0.0106443 0)
(-0.0237659 0.0109676 0)
(-0.0265285 0.0112018 0)
(-0.0293279 0.0113501 0)
(-0.0321448 0.0114155 0)
(-0.0349603 0.0114007 0)
(-0.0377556 0.0113081 0)
(-0.0405126 0.0111396 0)
(-0.0432133 0.0108966 0)
(-0.04584 0.0105804 0)
(-0.0483755 0.0101919 0)
(-0.0508024 0.00973178 0)
(-0.0531038 0.00920092 0)
(-0.0552632 0.00860026 0)
(-0.0572643 0.00793103 0)
(-0.0590914 0.00719492 0)
(-0.0607291 0.00639416 0)
(-0.0621632 0.00553167 0)
(-0.0633799 0.00461114 0)
(-0.0643668 0.00363714 0)
(-0.0651126 0.00261518 0)
(-0.0656076 0.00155173 0)
(-0.0658435 0.000454251 0)
(-0.065814 -0.0006688 0)
(-0.0655149 -0.00180803 0)
(-0.064944 -0.00295316 0)
(-0.0641019 -0.00409312 0)
(-0.0629912 -0.00521617 0)
(-0.0616177 -0.00631003 0)
(-0.0599894 -0.00736209 0)
(-0.0581174 -0.00835956 0)
(-0.0560156 -0.00928968 0)
(-0.0537005 -0.01014 0)
(-0.0511915 -0.0108986 0)
(-0.0485103 -0.0115542 0)
(-0.0456811 -0.0120967 0)
(-0.0427303 -0.0125172 0)
(-0.0396859 -0.0128082 0)
(-0.0365777 -0.0129641 0)
(-0.0334364 -0.0129811 0)
(-0.0302935 -0.0128575 0)
(-0.0271808 -0.0125939 0)
(-0.0241297 -0.0121931 0)
(-0.0211708 -0.0116605 0)
(-0.0183334 -0.011004 0)
(-0.015645 -0.010234 0)
(-0.0131304 -0.00936361 0)
(-0.0108116 -0.00840837 0)
(-0.00870681 -0.0073866 0)
(-0.00683033 -0.00631928 0)
(-0.00519177 -0.00523028 0)
(-0.00379572 -0.00414647 0)
(-0.00264133 -0.00309798 0)
(-0.00172201 -0.00211864 0)
(-0.0010252 -0.00124644 0)
(-0.000532036 -0.000524174 0)
(-0.00021716 -8.89763e-08 0)
(-5.04303e-05 0.00027126 0)
(-7.62159e-08 0.000224027 0)
(-4.70754e-05 0.000310977 0)
(-0.000332748 0.00125724 0)
(-0.000972165 0.00240652 0)
(-0.00191786 0.00366767 0)
(-0.00314582 0.00497288 0)
(-0.00464268 0.0062698 0)
(-0.00639162 0.00751913 0)
(-0.00837335 0.00869266 0)
(-0.0105673 0.00977104 0)
(-0.0129522 0.0107419 0)
(-0.0155057 0.0115982 0)
(-0.0182056 0.0123368 0)
(-0.0210292 0.0129576 0)
(-0.0239541 0.0134622 0)
(-0.0269584 0.0138534 0)
(-0.0300202 0.0141348 0)
(-0.0331183 0.0143098 0)
(-0.036232 0.0143819 0)
(-0.0393408 0.0143544 0)
(-0.0424247 0.0142298 0)
(-0.045464 0.0140105 0)
(-0.0484394 0.0136983 0)
(-0.0513318 0.0132944 0)
(-0.0541223 0.0128001 0)
(-0.0567925 0.0122166 0)
(-0.0593239 0.0115447 0)
(-0.0616987 0.010786 0)
(-0.0638994 0.009942 0)
(-0.0659088 0.009015 0)
(-0.0677107 0.00800793 0)
(-0.0692894 0.00692455 0)
(-0.0706304 0.00576958 0)
(-0.0717202 0.0045488 0)
(-0.0725467 0.00326912 0)
(-0.0730994 0.00193862 0)
(-0.0733694 0.000566586 0)
(-0.07335 -0.000836523 0)
(-0.0730364 -0.0022591 0)
(-0.0724265 -0.00368849 0)
(-0.0715203 -0.00511109 0)
(-0.0703209 -0.00651246 0)
(-0.0688339 -0.00787757 0)
(-0.067068 -0.00919093 0)
(-0.0650348 -0.0104369 0)
(-0.0627489 -0.0115998 0)
(-0.0602277 -0.0126644 0)
(-0.0574917 -0.013616 0)
(-0.054564 -0.0144408 0)
(-0.0514704 -0.0151265 0)
(-0.0482389 -0.0156619 0)
(-0.0448997 -0.0160379 0)
(-0.0414844 -0.0162473 0)
(-0.0380261 -0.0162855 0)
(-0.0345589 -0.0161503 0)
(-0.0311168 -0.015842 0)
(-0.0277341 -0.0153643 0)
(-0.024444 -0.0147235 0)
(-0.0212785 -0.0139291 0)
(-0.0182677 -0.0129937 0)
(-0.0154392 -0.0119333 0)
(-0.0128173 -0.0107667 0)
(-0.0104227 -0.00951628 0)
(-0.0082719 -0.00820735 0)
(-0.0063767 -0.0068687 0)
(-0.00474362 -0.00553248 0)
(-0.00337369 -0.00423451 0)
(-0.00226213 -0.00301448 0)
(-0.00139823 -0.00191642 0)
(-0.00076499 -0.000989231 0)
(-0.000338985 -0.000287089 0)
(-9.4167e-05 0.000129817 0)
(-6.93808e-06 0.000190633 0)
(-5.73552e-05 0.000494715 0)
(-0.000396759 0.00178785 0)
(-0.00114701 0.00326553 0)
(-0.00224489 0.00483703 0)
(-0.00365664 0.00643401 0)
(-0.00536293 0.00800311 0)
(-0.0073418 0.00950398 0)
(-0.0095697 0.0109074 0)
(-0.0120227 0.0121932 0)
(-0.0146765 0.0133484 0)
(-0.0175067 0.0143658 0)
(-0.020489 0.0152422 0)
(-0.0235992 0.0159775 0)
(-0.0268135 0.0165736 0)
(-0.0301082 0.0170337 0)
(-0.0334606 0.0173618 0)
(-0.036848 0.017562 0)
(-0.0402485 0.017638 0)
(-0.0436404 0.0175934 0)
(-0.0470024 0.0174314 0)
(-0.0503137 0.0171544 0)
(-0.0535538 0.0167645 0)
(-0.0567021 0.0162635 0)
(-0.0597388 0.0156527 0)
(-0.062644 0.0149335 0)
(-0.0653982 0.0141073 0)
(-0.0679824 0.0131758 0)
(-0.0703777 0.0121412 0)
(-0.0725661 0.0110063 0)
(-0.0745302 0.00977489 0)
(-0.0762533 0.00845153 0)
(-0.0777199 0.00704209 0)
(-0.0789157 0.00555361 0)
(-0.0798277 0.00399451 0)
(-0.0804445 0.00237457 0)
(-0.0807568 0.000704994 0)
(-0.0807571 -0.00100165 0)
(-0.0804403 -0.00273142 0)
(-0.0798036 -0.00446917 0)
(-0.0788471 -0.0061986 0)
(-0.0775735 -0.00790248 0)
(-0.0759884 -0.00956282 0)
(-0.0741008 -0.0111611 0)
(-0.0719224 -0.0126787 0)
(-0.0694683 -0.0140968 0)
(-0.0667568 -0.0153972 0)
(-0.063809 -0.0165622 0)
(-0.0606493 -0.0175755 0)
(-0.0573046 -0.0184218 0)
(-0.0538045 -0.019088 0)
(-0.0501809 -0.0195629 0)
(-0.0464674 -0.0198378 0)
(-0.0426992 -0.0199068 0)
(-0.0389127 -0.0197669 0)
(-0.0351445 -0.0194187 0)
(-0.0314314 -0.018866 0)
(-0.0278094 -0.0181162 0)
(-0.0243132 -0.0171803 0)
(-0.0209757 -0.0160734 0)
(-0.0178273 -0.0148142 0)
(-0.0148951 -0.0134249 0)
(-0.0122025 -0.0119319 0)
(-0.00976848 -0.0103652 0)
(-0.00760727 -0.00875852 0)
(-0.00572777 -0.00714939 0)
(-0.00413327 -0.00557937 0)
(-0.00282119 -0.00409405 0)
(-0.00178306 -0.00274346 0)
(-0.00100408 -0.00158234 0)
(-0.000463028 -0.0006705 0)
(-0.000138062 -7.31259e-05 0)
(-1.35986e-05 0.000134884 0)
(-6.72069e-05 0.000710637 0)
(-0.000458826 0.00240459 0)
(-0.00131753 0.0042551 0)
(-0.00256502 0.00617307 0)
(-0.00415804 0.00809083 0)
(-0.0060713 0.00995524 0)
(-0.00827762 0.0117259 0)
(-0.010749 0.0133735 0)
(-0.0134578 0.0148779 0)
(-0.0163769 0.016226 0)
(-0.0194795 0.0174108 0)
(-0.0227393 0.0184294 0)
(-0.0261303 0.0192821 0)
(-0.0296272 0.0199713 0)
(-0.0332053 0.0205006 0)
(-0.0368404 0.0208746 0)
(-0.0405089 0.0210977 0)
(-0.0441876 0.0211743 0)
(-0.0478538 0.0211083 0)
(-0.0514854 0.0209033 0)
(-0.0550602 0.0205619 0)
(-0.0585568 0.0200867 0)
(-0.0619536 0.0194795 0)
(-0.0652296 0.0187421 0)
(-0.068364 0.0178761 0)
(-0.0713361 0.0168832 0)
(-0.0741259 0.0157655 0)
(-0.0767136 0.0145258 0)
(-0.07908 0.0131676 0)
(-0.0812069 0.0116952 0)
(-0.0830766 0.0101144 0)
(-0.0846726 0.00843211 0)
(-0.0859797 0.00665669 0)
(-0.0869842 0.00479811 0)
(-0.0876738 0.00286793 0)
(-0.0880384 0.000879333 0)
(-0.0880699 -0.00115291 0)
(-0.0877625 -0.00321246 0)
(-0.0871129 -0.00528156 0)
(-0.0861207 -0.00734114 0)
(-0.0847881 -0.00937103 0)
(-0.0831208 -0.0113502 0)
(-0.0811273 -0.0132569 0)
(-0.0788196 -0.0150693 0)
(-0.0762128 -0.0167654 0)
(-0.0733258 -0.0183237 0)
(-0.0701802 -0.0197235 0)
(-0.0668011 -0.0209453 0)
(-0.0632167 -0.0219713 0)
(-0.0594578 -0.0227857 0)
(-0.0555578 -0.0233751 0)
(-0.0515522 -0.0237291 0)
(-0.0474783 -0.0238403 0)
(-0.0433746 -0.0237051 0)
(-0.0392804 -0.0233235 0)
(-0.035235 -0.0226996 0)
(-0.0312773 -0.0218418 0)
(-0.027445 -0.0207628 0)
(-0.0237739 -0.0194796 0)
(-0.0202974 -0.0180139 0)
(-0.0170457 -0.0163916 0)
(-0.0140452 -0.0146429 0)
(-0.0113176 -0.0128026 0)
(-0.00888022 -0.0109094 0)
(-0.00674451 -0.0090064 0)
(-0.0049164 -0.00714098 0)
(-0.00339588 -0.00536467 0)
(-0.00217701 -0.0037334 0)
(-0.00124746 -0.00230772 0)
(-0.000588277 -0.00115277 0)
(-0.000181788 -0.000338407 0)
(-2.0031e-05 5.69493e-05 0)
(-7.66548e-05 0.000957665 0)
(-0.000518846 0.00310514 0)
(-0.00148311 0.00537233 0)
(-0.00287679 0.00767267 0)
(-0.00464748 0.0099402 0)
(-0.00676401 0.012123 0)
(-0.00919396 0.0141816 0)
(-0.0119048 0.0160875 0)
(-0.0148652 0.0178211 0)
(-0.0180451 0.0193702 0)
(-0.0214151 0.0207282 0)
(-0.0249468 0.021893 0)
(-0.0286126 0.0228654 0)
(-0.0323858 0.0236486 0)
(-0.0362403 0.024247 0)
(-0.040151 0.0246654 0)
(-0.044093 0.0249092 0)
(-0.0480424 0.024983 0)
(-0.0519755 0.0248912 0)
(-0.0558693 0.0246378 0)
(-0.0597007 0.0242258 0)
(-0.0634473 0.0236579 0)
(-0.0670868 0.0229364 0)
(-0.0705972 0.0220631 0)
(-0.0739568 0.02104 0)
(-0.077144 0.0198693 0)
(-0.0801378 0.0185533 0)
(-0.0829177 0.0170955 0)
(-0.0854634 0.0154998 0)
(-0.0877558 0.0137715 0)
(-0.0897764 0.0119174 0)
(-0.0915077 0.00994537 0)
(-0.0929337 0.00786533 0)
(-0.0940396 0.00568875 0)
(-0.0948126 0.003429 0)
(-0.0952414 0.00110126 0)
(-0.0953172 -0.00127743 0)
(-0.0950334 -0.00368828 0)
(-0.094386 -0.00611087 0)
(-0.0933738 -0.00852326 0)
(-0.0919986 -0.0109022 0)
(-0.0902654 -0.0132236 0)
(-0.0881823 -0.0154623 0)
(-0.0857612 -0.0175931 0)
(-0.0830171 -0.0195906 0)
(-0.0799689 -0.0214299 0)
(-0.0766386 -0.0230869 0)
(-0.0730519 -0.024539 0)
(-0.0692379 -0.0257652 0)
(-0.0652283 -0.026747 0)
(-0.0610582 -0.0274686 0)
(-0.0567646 -0.0279173 0)
(-0.0523869 -0.0280844 0)
(-0.0479659 -0.0279649 0)
(-0.0435433 -0.0275584 0)
(-0.0391613 -0.0268692 0)
(-0.0348617 -0.0259063 0)
(-0.0306853 -0.0246838 0)
(-0.0266714 -0.0232211 0)
(-0.0228564 -0.0215424 0)
(-0.019274 -0.0196772 0)
(-0.0159539 -0.01766 0)
(-0.0129213 -0.0155301 0)
(-0.0101964 -0.0133316 0)
(-0.00779392 -0.0111131 0)
(-0.00572271 -0.00892789 0)
(-0.00398565 -0.00683344 0)
(-0.00257956 -0.00489174 0)
(-0.00149474 -0.00316908 0)
(-0.000714575 -0.0017359 0)
(-0.000225345 -0.000666591 0)
(-2.62616e-05 -4.29557e-05 0)
(-8.57202e-05 0.00123471 0)
(-0.000576767 0.00388696 0)
(-0.00164339 0.0066138 0)
(-0.00317923 0.00933193 0)
(-0.00512313 0.0119779 0)
(-0.0074382 0.0145021 0)
(-0.0100869 0.0168667 0)
(-0.0130322 0.0190448 0)
(-0.016239 0.0210182 0)
(-0.0196741 0.0227759 0)
(-0.0233058 0.0243125 0)
(-0.0271034 0.0256269 0)
(-0.0310377 0.0267211 0)
(-0.0350806 0.027599 0)
(-0.0392049 0.0282658 0)
(-0.0433841 0.0287273 0)
(-0.0475929 0.0289892 0)
(-0.0518061 0.0290569 0)
(-0.0559995 0.0289352 0)
(-0.0601491 0.0286284 0)
(-0.0642312 0.02814 0)
(-0.0682228 0.0274729 0)
(-0.0721006 0.0266295 0)
(-0.0758419 0.0256121 0)
(-0.0794243 0.0244229 0)
(-0.0828255 0.0230643 0)
(-0.0860235 0.0215393 0)
(-0.0889971 0.0198515 0)
(-0.0917252 0.0180059 0)
(-0.0941877 0.0160083 0)
(-0.0963653 0.0138665 0)
(-0.0982397 0.0115896 0)
(-0.0997939 0.00918876 0)
(-0.101012 0.00667715 0)
(-0.101881 0.00406987 0)
(-0.102387 0.00138414 0)
(-0.102522 -0.00136074 0)
(-0.102278 -0.00414351 0)
(-0.101649 -0.00694101 0)
(-0.100634 -0.00972839 0)
(-0.0992331 -0.0124793 0)
(-0.0974513 -0.0151663 0)
(-0.0952957 -0.017761 0)
(-0.0927776 -0.0202344 0)
(-0.0899117 -0.0225576 0)
(-0.0867166 -0.0247022 0)
(-0.0832146 -0.0266404 0)
(-0.0794317 -0.028346 0)
(-0.0753973 -0.0297949 0)
(-0.0711445 -0.0309654 0)
(-0.0667092 -0.0318389 0)
(-0.0621304 -0.0324004 0)
(-0.0574493 -0.0326391 0)
(-0.052709 -0.0325488 0)
(-0.0479538 -0.0321282 0)
(-0.0432288 -0.0313813 0)
(-0.038579 -0.0303178 0)
(-0.0340487 -0.0289532 0)
(-0.0296805 -0.0273086 0)
(-0.0255147 -0.0254113 0)
(-0.0215887 -0.0232941 0)
(-0.0179358 -0.0209956 0)
(-0.014585 -0.0185601 0)
(-0.01156 -0.0160367 0)
(-0.00887909 -0.01348 0)
(-0.00655442 -0.0109492 0)
(-0.00459203 -0.00850786 0)
(-0.00299178 -0.00622417 0)
(-0.00174665 -0.00417026 0)
(-0.000842368 -0.00242197 0)
(-0.000268956 -0.00105832 0)
(-3.23491e-05 -0.000164697 0)
(-9.44183e-05 0.00154067 0)
(-0.000632553 0.00474735 0)
(-0.00179808 0.0079757 0)
(-0.00347159 0.0111463 0)
(-0.00558358 0.0141991 0)
(-0.00809165 0.0170872 0)
(-0.0109532 0.0197756 0)
(-0.0141269 0.0222396 0)
(-0.017574 0.0244631 0)
(-0.0212581 0.026437 0)
(-0.0251449 0.0281575 0)
(-0.0292018 0.0296249 0)
(-0.033398 0.0308426 0)
(-0.0377038 0.0318157 0)
(-0.0420909 0.0325505 0)
(-0.046532 0.0330534 0)
(-0.0510008 0.0333311 0)
(-0.0554714 0.0333896 0)
(-0.059919 0.0332342 0)
(-0.0643188 0.0328696 0)
(-0.0686468 0.0322995 0)
(-0.072879 0.0315273 0)
(-0.0769919 0.0305556 0)
(-0.0809619 0.0293869 0)
(-0.0847659 0.0280236 0)
(-0.0883812 0.0264685 0)
(-0.091785 0.024725 0)
(-0.0949552 0.0227972 0)
(-0.0978702 0.0206905 0)
(-0.100509 0.0184118 0)
(-0.102851 0.0159695 0)
(-0.104878 0.0133741 0)
(-0.106571 0.0106379 0)
(-0.107914 0.00777567 0)
(-0.108892 0.00480425 0)
(-0.109492 0.00174289 0)
(-0.109702 -0.0013869 0)
(-0.109514 -0.00456135 0)
(-0.108921 -0.00775459 0)
(-0.107922 -0.0109388 0)
(-0.106514 -0.0140845 0)
(-0.104702 -0.0171609 0)
(-0.102492 -0.0201359 0)
(-0.0998939 -0.022977 0)
(-0.0969224 -0.0256514 0)
(-0.0935954 -0.0281269 0)
(-0.089935 -0.0303718 0)
(-0.0859671 -0.0323563 0)
(-0.0817217 -0.0340524 0)
(-0.0772325 -0.0354351 0)
(-0.0725367 -0.0364827 0)
(-0.0676747 -0.0371773 0)
(-0.0626895 -0.037506 0)
(-0.0576267 -0.0374605 0)
(-0.0525334 -0.0370387 0)
(-0.0474576 -0.036244 0)
(-0.0424478 -0.0350864 0)
(-0.0375518 -0.0335824 0)
(-0.0328163 -0.0317551 0)
(-0.0282857 -0.0296342 0)
(-0.0240012 -0.0272562 0)
(-0.0200006 -0.0246638 0)
(-0.0163168 -0.0219059 0)
(-0.0129777 -0.0190375 0)
(-0.0100054 -0.0161186 0)
(-0.00741571 -0.0132148 0)
(-0.00521821 -0.0103962 0)
(-0.00341593 -0.00773699 0)
(-0.0020047 -0.0053156 0)
(-0.000972534 -0.00321347 0)
(-0.000312991 -0.00151459 0)
(-3.83715e-05 -0.000308312 0)
(-0.000102756 0.00187444 0)
(-0.000686158 0.00568347 0)
(-0.00194693 0.0094539 0)
(-0.00375324 0.0131107 0)
(-0.00602763 0.0165979 0)
(-0.00872245 0.0198722 0)
(-0.0117903 0.0229019 0)
(-0.0151855 0.0256654 0)
(-0.0188657 0.0281493 0)
(-0.0227916 0.0303467 0)
(-0.0269264 0.0322562 0)
(-0.0312355 0.03388 0)
(-0.0356862 0.035223 0)
(-0.0402477 0.0362919 0)
(-0.0448906 0.037094 0)
(-0.0495867 0.0376371 0)
(-0.0543088 0.0379285 0)
(-0.0590307 0.0379751 0)
(-0.0637266 0.0377826 0)
(-0.0683716 0.0373563 0)
(-0.072941 0.0367002 0)
(-0.0774103 0.0358179 0)
(-0.0817556 0.0347124 0)
(-0.0859528 0.0333863 0)
(-0.0899783 0.0318422 0)
(-0.0938087 0.0300834 0)
(-0.0974208 0.0281134 0)
(-0.100792 0.0259368 0)
(-0.103899 0.0235597 0)
(-0.106722 0.0209896 0)
(-0.109238 0.0182358 0)
(-0.111428 0.0153097 0)
(-0.113272 0.0122251 0)
(-0.114754 0.00899813 0)
(-0.115856 0.0056473 0)
(-0.116564 0.00219383 0)
(-0.116867 -0.00133857 0)
(-0.116754 -0.00492368 0)
(-0.116217 -0.00853293 0)
(-0.115252 -0.0121356 0)
(-0.113858 -0.0156989 0)
(-0.112035 -0.0191885 0)
(-0.109789 -0.0225689 0)
(-0.10713 -0.0258036 0)
(-0.10407 -0.028856 0)
(-0.100627 -0.0316895 0)
(-0.096822 -0.0342686 0)
(-0.0926812 -0.0365592 0)
(-0.0882345 -0.0385295 0)
(-0.0835162 -0.0401504 0)
(-0.0785644 -0.0413968 0)
(-0.073421 -0.0422476 0)
(-0.0681309 -0.0426871 0)
(-0.0627419 -0.042705 0)
(-0.0573041 -0.0422974 0)
(-0.0518686 -0.041467 0)
(-0.0464877 -0.0402236 0)
(-0.0412132 -0.0385847 0)
(-0.0360958 -0.0365748 0)
(-0.0311845 -0.0342264 0)
(-0.0265252 -0.0315792 0)
(-0.0221602 -0.0286801 0)
(-0.0181271 -0.0255829 0)
(-0.0144582 -0.0223481 0)
(-0.0111799 -0.0190419 0)
(-0.00831231 -0.0157362 0)
(-0.00586854 -0.0125078 0)
(-0.00385518 -0.00943755 0)
(-0.002271 -0.00661031 0)
(-0.00110625 -0.00411363 0)
(-0.000357921 -0.00203688 0)
(-4.44192e-05 -0.000474066 0)
(-0.000110735 0.00223489 0)
(-0.000737521 0.00669233 0)
(-0.00208968 0.011044 0)
(-0.00402357 0.0152198 0)
(-0.00645417 0.0191682 0)
(-0.00932887 0.0228503 0)
(-0.0125957 0.0262386 0)
(-0.0162047 0.0293149 0)
(-0.0201102 0.0320692 0)
(-0.02427 0.0344976 0)
(-0.0286447 0.0366012 0)
(-0.0331979 0.0383847 0)
(-0.0378954 0.0398548 0)
(-0.042705 0.0410201 0)
(-0.0475962 0.0418894 0)
(-0.0525401 0.0424716 0)
(-0.0575088 0.042775 0)
(-0.0624755 0.0428074 0)
(-0.0674142 0.0425751 0)
(-0.0722994 0.0420839 0)
(-0.0771059 0.0413382 0)
(-0.0818091 0.0403419 0)
(-0.0863846 0.0390981 0)
(-0.0908081 0.0376097 0)
(-0.0950554 0.0358796 0)