/*--------------------------------*- C++ -*----------------------------------*\
  =========                 |
  \\      /  F ield         | OpenFOAM: The Open Source CFD Toolbox
   \\    /   O peration     | Website:  https://openfoam.org
    \\  /    A nd           | Version:  dev
     \\/     M anipulation  |
\*---------------------------------------------------------------------------*/
FoamFile
{
    format      ascii;
    class       volScalarField;
    location    "49.05";
    object      Uy;
}
// * * * * * * * * * * * * * * * * * * * * * * * * * * * * * * * * * * * * * //

dimensions      [0 1 -1 0 0 0 0];

internalField   nonuniform List<scalar> 
5184
(
-1.2598e-05
-2.08308e-05
-1.72291e-05
-8.19041e-06
2.67231e-06
1.36215e-05
2.38507e-05
3.30559e-05
4.11166e-05
4.8038e-05
5.38814e-05
5.87317e-05
6.26812e-05
6.58214e-05
6.82369e-05
7.00034e-05
7.11852e-05
7.18347e-05
7.19927e-05
7.16889e-05
7.09425e-05
6.9764e-05
6.81564e-05
6.61166e-05
6.36374e-05
6.07092e-05
5.73214e-05
5.34644e-05
4.9131e-05
4.43182e-05
3.90285e-05
3.32712e-05
2.70635e-05
2.04314e-05
1.34107e-05
6.04704e-06
-1.60331e-06
-9.47392e-06
-1.74883e-05
-2.55603e-05
-3.35957e-05
-4.14928e-05
-4.91443e-05
-5.64393e-05
-6.3265e-05
-6.95095e-05
-7.5064e-05
-7.98255e-05
-8.36992e-05
-8.66015e-05
-8.84617e-05
-8.92247e-05
-8.88524e-05
-8.73249e-05
-8.46419e-05
-8.08227e-05
-7.59065e-05
-6.99523e-05
-6.30382e-05
-5.52601e-05
-4.67318e-05
-3.75862e-05
-2.79787e-05
-1.80923e-05
-8.15206e-06
1.54781e-06
1.05821e-05
1.83129e-05
2.37274e-05
2.51343e-05
1.98494e-05
6.24257e-06
-4.57309e-05
-6.56232e-05
-4.05274e-05
7.64964e-06
6.56993e-05
0.000126026
0.000184344
0.000238409
0.000287077
0.000329904
0.00036685
0.000398105
0.000423979
0.00044484
0.000461065
0.000473013
0.000481007
0.000485322
0.000486183
0.00048376
0.000478174
0.000469502
0.000457783
0.000443026
0.000425219
0.000404339
0.00038036
0.000353267
0.000323059
0.000289764
0.000253441
0.000214194
0.000172173
0.000127581
8.06772e-05
3.17816e-05
-1.87269e-05
-7.04099e-05
-0.000122772
-0.000175266
-0.000227297
-0.000278232
-0.00032741
-0.000374152
-0.000417772
-0.000457597
-0.000492971
-0.000523282
-0.000547967
-0.000566533
-0.000578565
-0.000583744
-0.000581856
-0.000572797
-0.000556583
-0.000533352
-0.000503369
-0.000467024
-0.000424832
-0.000377433
-0.000325598
-0.000270229
-0.00021239
-0.000153333
-9.45708e-05
-3.79798e-05
1.39766e-05
5.7992e-05
8.94709e-05
0.000101914
8.6554e-05
3.64977e-05
-8.12686e-05
-9.50083e-05
-1.91203e-05
0.000105958
0.000254714
0.000410696
0.000563584
0.000707237
0.000838202
0.00095477
0.00105635
0.00114302
0.00121531
0.00127394
0.00131974
0.00135352
0.00137605
0.00138802
0.00138998
0.00138237
0.00136553
0.00133968
0.00130495
0.00126139
0.00120903
0.00114784
0.00107783
0.000998995
0.000911412
0.000815216
0.000710639
0.000598027
0.000477853
0.000350732
0.000217432
7.88758e-05
-6.38555e-05
-0.000209526
-0.000356751
-0.000504012
-0.000649674
-0.000792001
-0.000929192
-0.0010594
-0.00118078
-0.00129151
-0.00138982
-0.00147409
-0.0015428
-0.00159464
-0.00162851
-0.00164358
-0.00163927
-0.00161534
-0.00157185
-0.00150921
-0.00142816
-0.0013298
-0.00121559
-0.00108733
-0.000947196
-0.000797756
-0.000642019
-0.00048352
-0.000326461
-0.000175931
-3.82475e-05
7.8569e-05
0.000164217
0.000205525
0.000186379
9.04298e-05
-9.77671e-05
-7.3172e-05
8.47883e-05
0.000318426
0.000590236
0.000874588
0.00115444
0.00141901
0.0016618
0.00187929
0.00206991
0.00223342
0.00237037
0.0024818
0.00256898
0.00263325
0.00267588
0.00269803
0.00270068
0.00268461
0.00265044
0.00259857
0.00252929
0.00244275
0.00233902
0.00221816
0.00208023
0.00192532
0.00175364
0.00156555
0.00136158
0.00114245
0.000909144
0.000662901
0.000405235
0.000137949
-0.000136865
-0.000416838
-0.000699332
-0.000981468
-0.00126016
-0.00153214
-0.00179404
-0.00204242
-0.00227382
-0.00248485
-0.00267228
-0.00283304
-0.00296436
-0.00306381
-0.00312938
-0.00315952
-0.00315321
-0.00311001
-0.00303005
-0.00291413
-0.00276368
-0.0025808
-0.00236826
-0.0021295
-0.00186868
-0.0015907
-0.00130128
-0.00100709
-0.000715956
-0.000437152
-0.000181825
3.64095e-05
0.000200828
0.000291034
0.000282723
0.000147354
-8.44577e-05
2.08539e-05
0.00029548
0.00066817
0.0010911
0.00153035
0.00196247
0.00237196
0.00274911
0.00308828
0.00338668
0.0036435
0.0038592
0.00403501
0.0041726
0.0042738
0.00434038
0.00437401
0.0043761
0.00434783
0.0042901
0.00420358
0.00408872
0.00394582
0.00377507
0.00357664
0.00335069
0.00309751
0.00281755
0.00251147
0.00218021
0.00182504
0.00144763
0.00105002
0.000634693
0.000204573
-0.000236978
-0.00068617
-0.00113881
-0.00159034
-0.0020359
-0.00247035
-0.00288841
-0.00328469
-0.00365381
-0.00399048
-0.00428966
-0.00454659
-0.00475698
-0.00491706
-0.0050237
-0.00507451
-0.00506793
-0.00500328
-0.00488081
-0.00470178
-0.00446848
-0.00418422
-0.00385338
-0.00348145
-0.00307498
-0.00264172
-0.00219068
-0.00173227
-0.00127853
-0.000843538
-0.000443779
-9.88221e-05
0.000167989
0.000328916
0.000351215
0.000194243
-3.75796e-05
0.000197348
0.000627009
0.00117063
0.00177223
0.00239093
0.00299766
0.00357262
0.00410295
0.00458087
0.00500232
0.00536578
0.00567151
0.00592088
0.00611586
0.00625872
0.00635174
0.00639705
0.00639654
0.00635175
0.00626393
0.006134
0.00596264
0.00575032
0.0054974
0.00520418
0.00487107
0.00449857
0.00408746
0.00363883
0.00315417
0.00263543
0.0020851
0.00150624
0.000902476
0.000278079
-0.000362086
-0.00101256
-0.00166734
-0.00231992
-0.00296335
-0.00359037
-0.00419348
-0.00476506
-0.0052975
-0.00578336
-0.00621552
-0.00658729
-0.00689262
-0.0071262
-0.00728363
-0.00736157
-0.00735779
-0.00727135
-0.00710263
-0.00685343
-0.00652697
-0.006128
-0.00566275
-0.00513901
-0.00456611
-0.00395505
-0.00331855
-0.00267119
-0.00202971
-0.00141332
-0.000844165
-0.000347935
4.53849e-05
0.000300842
0.000377618
0.000224654
4.40601e-05
0.000461321
0.0010873
0.00183521
0.00264315
0.00346485
0.00426667
0.00502515
0.00572466
0.00635551
0.00691237
0.00739309
0.00779767
0.00812754
0.00838498
0.00857265
0.00869329
0.00874948
0.00874356
0.00867746
0.00855276
0.00837067
0.00813209
0.00783771
0.00748809
0.00708375
0.00662535
0.00611373
0.00555007
0.00493599
0.00427364
0.0035658
0.00281592
0.00202821
0.00120766
0.000360052
-0.000508043
-0.00138929
-0.00227563
-0.00315838
-0.0040283
-0.00487572
-0.00569069
-0.00646311
-0.0071829
-0.00784024
-0.00842567
-0.00893038
-0.00934633
-0.00966652
-0.00988512
-0.00999767
-0.0100012
-0.00989452
-0.00967803
-0.00935412
-0.00892707
-0.00840314
-0.0077906
-0.00709979
-0.00634308
-0.00553501
-0.00469232
-0.00383412
-0.00298211
-0.0021609
-0.00139843
-0.000726556
-0.000181792
0.000194045
0.000352824
0.000235151
0.000160458
0.000814647
0.00168015
0.00266693
0.00370926
0.00475706
0.00577328
0.00673162
0.00761428
0.00840997
0.00911235
0.0097187
0.0102288
0.0106443
0.0109676
0.0112018
0.0113501
0.0114155
0.0114007
0.0113081
0.0111396
0.0108966
0.0105804
0.0101919
0.00973178
0.00920092
0.00860026
0.00793103
0.00719492
0.00639416
0.00553167
0.00461114
0.00363714
0.00261518
0.00155173
0.000454251
-0.0006688
-0.00180803
-0.00295316
-0.00409312
-0.00521617
-0.00631003
-0.00736209
-0.00835956
-0.00928968
-0.01014
-0.0108986
-0.0115542
-0.0120967
-0.0125172
-0.0128082
-0.0129641
-0.0129811
-0.0128575
-0.0125939
-0.0121931
-0.0116605
-0.011004
-0.010234
-0.00936361
-0.00840837
-0.0073866
-0.00631928
-0.00523028
-0.00414647
-0.00309798
-0.00211864
-0.00124644
-0.000524174
-8.89763e-08
0.00027126
0.000224027
0.000310977
0.00125724
0.00240652
0.00366767
0.00497288
0.0062698
0.00751913
0.00869266
0.00977104
0.0107419
0.0115982
0.0123368
0.0129576
0.0134622
0.0138534
0.0141348
0.0143098
0.0143819
0.0143544
0.0142298
0.0140105
0.0136983
0.0132944
0.0128001
0.0122166
0.0115447
0.010786
0.009942
0.009015
0.00800793
0.00692455
0.00576958
0.0045488
0.00326912
0.00193862
0.000566586
-0.000836523
-0.0022591
-0.00368849
-0.00511109
-0.00651246
-0.00787757
-0.00919093
-0.0104369
-0.0115998
-0.0126644
-0.013616
-0.0144408
-0.0151265
-0.0156619
-0.0160379
-0.0162473
-0.0162855
-0.0161503
-0.015842
-0.0153643
-0.0147235
-0.0139291
-0.0129937
-0.0119333
-0.0107667
-0.00951628
-0.00820735
-0.0068687
-0.00553248
-0.00423451
-0.00301448
-0.00191642
-0.000989231
-0.000287089
0.000129817
0.000190633
0.000494715
0.00178785
0.00326553
0.00483703
0.00643401
0.00800311
0.00950398
0.0109074
0.0121932
0.0133484
0.0143658
0.0152422
0.0159775
0.0165736
0.0170337
0.0173618
0.017562
0.017638
0.0175934
0.0174314
0.0171544
0.0167645
0.0162635
0.0156527
0.0149335
0.0141073
0.0131758
0.0121412
0.0110063
0.00977489
0.00845153
0.00704209
0.00555361
0.00399451
0.00237457
0.000704994
-0.00100165
-0.00273142
-0.00446917
-0.0061986
-0.00790248
-0.00956282
-0.0111611
-0.0126787
-0.0140968
-0.0153972
-0.0165622
-0.0175755
-0.0184218
-0.019088
-0.0195629
-0.0198378
-0.0199068
-0.0197669
-0.0194187
-0.018866
-0.0181162
-0.0171803
-0.0160734
-0.0148142
-0.0134249
-0.0119319
-0.0103652
-0.00875852
-0.00714939
-0.00557937
-0.00409405
-0.00274346
-0.00158234
-0.0006705
-7.31259e-05
0.000134884
0.000710637
0.00240459
0.0042551
0.00617307
0.00809083
0.00995524
0.0117259
0.0133735
0.0148779
0.016226
0.0174108
0.0184294
0.0192821
0.0199713
0.0205006
0.0208746
0.0210977
0.0211743
0.0211083
0.0209033
0.0205619
0.0200867
0.0194795
0.0187421
0.0178761
0.0168832
0.0157655
0.0145258
0.0131676
0.0116952
0.0101144
0.00843211
0.00665669
0.00479811
0.00286793
0.000879333
-0.00115291
-0.00321246
-0.00528156
-0.00734114
-0.00937103
-0.0113502
-0.0132569
-0.0150693
-0.0167654
-0.0183237
-0.0197235
-0.0209453
-0.0219713
-0.0227857
-0.0233751
-0.0237291
-0.0238403
-0.0237051
-0.0233235
-0.0226996
-0.0218418
-0.0207628
-0.0194796
-0.0180139
-0.0163916
-0.0146429
-0.0128026
-0.0109094
-0.0090064
-0.00714098
-0.00536467
-0.0037334
-0.00230772
-0.00115277
-0.000338407
5.69493e-05
0.000957665
0.00310514
0.00537233
0.00767267
0.0099402
0.012123
0.0141816
0.0160875
0.0178211
0.0193702
0.0207282
0.021893
0.0228654
0.0236486
0.024247
0.0246654
0.0249092
0.024983
0.0248912
0.0246378
0.0242258
0.0236579
0.0229364
0.0220631
0.02104
0.0198693
0.0185533
0.0170955
0.0154998
0.0137715
0.0119174
0.00994537
0.00786533
0.00568875
0.003429
0.00110126
-0.00127743
-0.00368828
-0.00611087
-0.00852326
-0.0109022
-0.0132236
-0.0154623
-0.0175931
-0.0195906
-0.0214299
-0.0230869
-0.024539
-0.0257652
-0.026747
-0.0274686
-0.0279173
-0.0280844
-0.0279649
-0.0275584
-0.0268692
-0.0259063
-0.0246838
-0.0232211
-0.0215424
-0.0196772
-0.01766
-0.0155301
-0.0133316
-0.0111131
-0.00892789
-0.00683344
-0.00489174
-0.00316908
-0.0017359
-0.000666591
-4.29557e-05
0.00123471
0.00388696
0.0066138
0.00933193
0.0119779
0.0145021
0.0168667
0.0190448
0.0210182
0.0227759
0.0243125
0.0256269
0.0267211
0.027599
0.0282658
0.0287273
0.0289892
0.0290569
0.0289352
0.0286284
0.02814
0.0274729
0.0266295
0.0256121
0.0244229
0.0230643
0.0215393
0.0198515
0.0180059
0.0160083
0.0138665
0.0115896
0.00918876
0.00667715
0.00406987
0.00138414
-0.00136074
-0.00414351
-0.00694101
-0.00972839
-0.0124793
-0.0151663
-0.017761
-0.0202344
-0.0225576
-0.0247022
-0.0266404
-0.028346
-0.0297949
-0.0309654
-0.0318389
-0.0324004
-0.0326391
-0.0325488
-0.0321282
-0.0313813
-0.0303178
-0.0289532
-0.0273086
-0.0254113
-0.0232941
-0.0209956
-0.0185601
-0.0160367
-0.01348
-0.0109492
-0.00850786
-0.00622417
-0.00417026
-0.00242197
-0.00105832
-0.000164697
0.00154067
0.00474735
0.0079757
0.0111463
0.0141991
0.0170872
0.0197756
0.0222396
0.0244631
0.026437
0.0281575
0.0296249
0.0308426
0.0318157
0.0325505
0.0330534
0.0333311
0.0333896
0.0332342
0.0328696
0.0322995
0.0315273
0.0305556
0.0293869
0.0280236
0.0264685
0.024725
0.0227972
0.0206905
0.0184118
0.0159695
0.0133741
0.0106379
0.00777567
0.00480425
0.00174289
-0.0013869
-0.00456135
-0.00775459
-0.0109388
-0.0140845
-0.0171609
-0.0201359
-0.022977
-0.0256514
-0.0281269
-0.0303718
-0.0323563
-0.0340524
-0.0354351
-0.0364827
-0.0371773
-0.037506
-0.0374605
-0.0370387
-0.036244
-0.0350864
-0.0335824
-0.0317551
-0.0296342
-0.0272562
-0.0246638
-0.0219059
-0.0190375
-0.0161186
-0.0132148
-0.0103962
-0.00773699
-0.0053156
-0.00321347
-0.00151459
-0.000308312
0.00187444
0.00568347
0.0094539
0.0131107
0.0165979
0.0198722
0.0229019
0.0256654
0.0281493
0.0303467
0.0322562
0.03388
0.035223
0.0362919
0.037094
0.0376371
0.0379285
0.0379751
0.0377826
0.0373563
0.0367002
0.0358179
0.0347124
0.0333863
0.0318422
0.0300834
0.0281134
0.0259368
0.0235597
0.0209896
0.0182358
0.0153097
0.0122251
0.00899813
0.0056473
0.00219383
-0.00133857
-0.00492368
-0.00853293
-0.0121356
-0.0156989
-0.0191885
-0.0225689
-0.0258036
-0.028856
-0.0316895
-0.0342686
-0.0365592
-0.0385295
-0.0401504
-0.0413968
-0.0422476
-0.0426871
-0.042705
-0.0422974
-0.041467
-0.0402236
-0.0385847
-0.0365748
-0.0342264
-0.0315792
-0.0286801
-0.0255829
-0.0223481
-0.0190419
-0.0157362
-0.0125078
-0.00943755
-0.00661031
-0.00411363
-0.00203688
-0.000474066
0.00223489
0.00669233
0.011044
0.0152198
0.0191682
0.0228503
0.0262386
0.0293149
0.0320692
0.0344976
0.0366012
0.0383847
0.0398548
0.0410201
0.0418894
0.0424716
0.042775
0.0428074
0.0425751
0.0420839
0.0413382
0.0403419
0.0390981
0.0376097
0.0358796
0.0339111
0.0317082
0.0292758
0.0266205
0.0237503
0.0206755
0.0174085
0.013964
0.0103595
0.00661538
0.00275455
-0.00119713
-0.00521107
-0.00925604
-0.0132983
-0.017302
-0.0212292
-0.0250407
-0.028696
-0.0321543
-0.0353748
-0.0383174
-0.0409437
-0.0432174
-0.0451052
-0.0465779
-0.0476109
-0.048185
-0.0482874
-0.0479121
-0.0470605
-0.045742
-0.0439744
-0.0417838
-0.0392048
-0.0362805
-0.0330619
-0.0296079
-0.0259845
-0.0222644
-0.0185262
-0.0148535
-0.0113344
-0.00806073
-0.00512656
-0.00262735
-0.000662496
0.00262087
0.00777084
0.0127412
0.0174675
0.0219031
0.0260142
0.0297777
0.0331799
0.0362145
0.0388812
0.0411841
0.0431306
0.04473
0.0459926
0.046929
0.0475497
0.047864
0.0478805
0.0476064
0.0470479
0.04621
0.0450966
0.0437113
0.0420571
0.0401369
0.0379544
0.0355137
0.03282
0.0298804
0.0267034
0.0232998
0.019683
0.0158687
0.0118758
0.00772582
0.00344367
-0.000942875
-0.00540293
-0.00990267
-0.0144055
-0.0188723
-0.0232616
-0.0275305
-0.0316343
-0.0355278
-0.0391657
-0.0425032
-0.045497
-0.048106
-0.0502923
-0.0520219
-0.053266
-0.0540017
-0.0542129
-0.0538908
-0.0530353
-0.0516548
-0.0497669
-0.0473989
-0.0445876
-0.0413789
-0.0378283
-0.0339995
-0.0299645
-0.0258025
-0.0215992
-0.0174457
-0.0134377
-0.00967448
-0.00625746
-0.00328886
-0.000874433
0.00303117
0.00891573
0.0145408
0.0198475
0.0247953
0.0293556
0.0335107
0.0372514
0.0405761
0.0434883
0.0459958
0.048109
0.0498398
0.0512009
0.052205
0.0528638
0.0531883
0.0531879
0.0528708
0.0522436
0.0513117
0.0500795
0.0485506
0.0467282
0.0446155
0.0422161
0.0395343
0.0365757
0.0333473
0.0298583
0.02612
0.0221464
0.0179542
0.0135633
0.00899666
0.0042806
-0.000555177
-0.00547762
-0.0104504
-0.0154342
-0.0203867
-0.0252629
-0.0300159
-0.0345969
-0.0389563
-0.0430437
-0.0468095
-0.050205
-0.0531838
-0.0557029
-0.057723
-0.0592106
-0.0601383
-0.0604858
-0.0602414
-0.0594023
-0.0579755
-0.0559781
-0.0534381
-0.050394
-0.0468948
-0.0429998
-0.038778
-0.0343075
-0.0296743
-0.0249717
-0.0202986
-0.0157591
-0.0114607
-0.00751267
-0.00402509
-0.00111102
0.00346453
0.0101236
0.0164373
0.0223533
0.027837
0.032866
0.0374282
0.0415199
0.0451442
0.0483091
0.0510264
0.05331
0.0551747
0.0566359
0.0577084
0.0584058
0.0587404
0.0587229
0.0583622
0.0576656
0.0566392
0.0552874
0.0536142
0.0516228
0.0493164
0.0466988
0.0437743
0.0405486
0.0370289
0.0332247
0.0291476
0.024812
0.0202356
0.015439
0.0104463
0.00528526
-1.27398e-05
-0.00541269
-0.010876
-0.0163604
-0.0218207
-0.0272085
-0.0324728
-0.0375606
-0.0424174
-0.046988
-0.0512173
-0.0550509
-0.0584369
-0.0613261
-0.0636738
-0.0654407
-0.0665941
-0.0671093
-0.0669704
-0.0661714
-0.0647173
-0.0626241
-0.0599198
-0.0566443
-0.0528494
-0.0485984
-0.0439654
-0.0390349
-0.0339
-0.0286619
-0.0234284
-0.0183122
-0.0134298
-0.00889979
-0.00484057
-0.00137374
0.00391962
0.0113907
0.0184252
0.0249776
0.0310199
0.0365361
0.0415204
0.0459749
0.0499081
0.0533329
0.0562653
0.0587231
0.0607245
0.0622877
0.0634299
0.0641667
0.064512
0.0644777
0.0640738
0.0633083
0.0621876
0.0607167
0.0588995
0.0567396
0.05424
0.0514045
0.0482374
0.0447443
0.0409325
0.0368116
0.0323934
0.0276927
0.0227276
0.0175194
0.0120932
0.0064778
0.000706109
-0.0051851
-0.011155
-0.0171591
-0.0231488
-0.0290724
-0.0348752
-0.0404997
-0.0458866
-0.0509754
-0.0557051
-0.0600157
-0.0638487
-0.0671485
-0.069864
-0.0719496
-0.0733665
-0.0740845
-0.0740829
-0.0733518
-0.0718928
-0.0697206
-0.0668624
-0.0633592
-0.0592652
-0.0546474
-0.0495854
-0.0441697
-0.0385014
-0.0326902
-0.0268529
-0.0211121
-0.0155943
-0.0104277
-0.00574066
-0.00166438
0.00439503
0.0127133
0.0204988
0.027713
0.034335
0.040356
0.0457766
0.0506054
0.0548564
0.058548
0.0617009
0.0643369
0.066478
0.0681454
0.069359
0.0701365
0.0704937
0.0704438
0.0699979
0.0691647
0.0679511
0.0663626
0.0644033
0.0620766
0.0593857
0.0563341
0.0529261
0.0491671
0.0450643
0.0406272
0.0358676
0.0308006
0.0254443
0.0198207
0.0139554
0.00787816
0.00162308
-0.00477151
-0.0112629
-0.0178041
-0.0243439
-0.0308273
-0.0371955
-0.0433868
-0.049337
-0.0549799
-0.0602488
-0.0650771
-0.0693994
-0.0731533
-0.0762803
-0.0787277
-0.08045
-0.0814103
-0.081582
-0.0809504
-0.0795133
-0.0772824
-0.0742842
-0.0705597
-0.0661651
-0.0611713
-0.0556627
-0.0497368
-0.0435026
-0.0370787
-0.0305922
-0.0241761
-0.0179678
-0.0121066
-0.00673164
-0.00198509
0.00488925
0.0140873
0.0226516
0.0305513
0.037773
0.0443152
0.0501856
0.0553994
0.059977
0.0639422
0.0673208
0.0701391
0.0724231
0.0741973
0.0754844
0.0763046
0.0766754
0.0766117
0.0761256
0.0752268
0.0739229
0.0722194
0.0701208
0.0676305
0.0647515
0.0614873
0.0578417
0.05382
0.0494291
0.0446783
0.0395791
0.0341466
0.0283989
0.0223581
0.0160502
0.0095057
0.00275953
-0.00414869
-0.0111746
-0.0182691
-0.0253784
-0.0324443
-0.0394043
-0.0461924
-0.0527391
-0.058973
-0.0648209
-0.0702094
-0.0750658
-0.07932
-0.0829056
-0.0857619
-0.0878354
-0.0890818
-0.0894677
-0.088972
-0.0875877
-0.0853231
-0.0822023
-0.0782662
-0.0735724
-0.0681949
-0.0622235
-0.0557624
-0.048929
-0.0418517
-0.0346682
-0.0275231
-0.0205658
-0.013948
-0.00782068
-0.00233835
0.00540072
0.0155085
0.0248772
0.0334842
0.0413239
0.0484026
0.0547354
0.0603445
0.0652568
0.0695022
0.0731117
0.0761165
0.0785468
0.0804306
0.0817936
0.0826587
0.0830454
0.0829703
0.0824468
0.0814854
0.0800943
0.0782796
0.0760458
0.0733962
0.0703339
0.0668619
0.0629837
0.0587043
0.0540302
0.04897
0.0435351
0.03774
0.0316027
0.0251452
0.0183936
0.0113787
0.00413603
-0.00329389
-0.0108653
-0.0185274
-0.0262239
-0.0338937
-0.0414708
-0.0488847
-0.0560613
-0.0629232
-0.0693907
-0.0753833
-0.0808206
-0.0856241
-0.0897186
-0.0930346
-0.0955096
-0.0970906
-0.0977362
-0.0974179
-0.0961227
-0.0938539
-0.0906326
-0.0864985
-0.0815099
-0.0757438
-0.0692948
-0.0622741
-0.0548079
-0.0470349
-0.0391045
-0.0311739
-0.0234056
-0.0159647
-0.00901584
-0.00272698
0.00592776
0.0169721
0.0271686
0.0365028
0.0449774
0.0526065
0.0594133
0.0654273
0.0706821
0.0752139
0.0790595
0.0822549
0.0848349
0.0868312
0.088273
0.0891857
0.0895911
0.0895076
0.0889499
0.0879296
0.0864555
0.0845341
0.0821701
0.0793669
0.0761272
0.0724537
0.0683496
0.0638192
0.0588683
0.0535051
0.0477403
0.0415878
0.0350652
0.0281939
0.0209999
0.013514
0.00577184
-0.00218534
-0.0103109
-0.0185523
-0.0268516
-0.0351448
-0.0433626
-0.0514305
-0.0592693
-0.0667959
-0.0739241
-0.0805658
-0.0866323
-0.0920363
-0.0966932
-0.100523
-0.103454
-0.105423
-0.10638
-0.106286
-0.105121
-0.102883
-0.0995887
-0.0952748
-0.0899998
-0.0838431
-0.0769038
-0.0693004
-0.0611678
-0.052656
-0.0439268
-0.035151
-0.0265058
-0.018171
-0.0103261
-0.00315416
0.0064686
0.0184736
0.0295186
0.0395978
0.0487223
0.0569148
0.0642062
0.0706338
0.0762384
0.0810625
0.085149
0.0885391
0.0912722
0.0933843
0.0949078
0.095871
0.0962982
0.0962097
0.0956216
0.0945466
0.0929944
0.0909718
0.0884837
0.0855335
0.0821236
0.0782563
0.0739342
0.069161
0.0639418
0.0582839
0.0521971
0.0456947
0.0387932
0.0315136
0.0238811
0.0159262
0.00768442
-0.000802781
-0.00948814
-0.0183182
-0.0272331
-0.0361668
-0.0450468
-0.0537948
-0.0623268
-0.070554
-0.0783835
-0.0857196
-0.0924649
-0.0985226
-0.103798
-0.1082
-0.111646
-0.114062
-0.115385
-0.115568
-0.114582
-0.112416
-0.109081
-0.104611
-0.0990628
-0.0925173
-0.0850781
-0.0768702
-0.0680384
-0.0587439
-0.0491621
-0.0394788
-0.0298868
-0.0205824
-0.0117613
-0.0036234
0.00702139
0.020008
0.0319196
0.0427595
0.0525474
0.0613145
0.0691002
0.0759494
0.0819103
0.0870323
0.0913642
0.094953
0.0978426
0.100074
0.101682
0.102699
0.103151
0.103061
0.102447
0.101322
0.0996971
0.0975794
0.0949741
0.0918843
0.0883125
0.0842602
0.0797296
0.0747234
0.0692459
0.0633034
0.0569047
0.0500619
0.0427905
0.0351105
0.0270462
0.0186273
0.00988884
0.000871996
-0.00837577
-0.0178003
-0.0273407
-0.0369289
-0.0464897
-0.0559415
-0.0651956
-0.0741576
-0.0827282
-0.0908036
-0.0982778
-0.105044
-0.110996
-0.116031
-0.120055
-0.12298
-0.124732
-0.125252
-0.124498
-0.122452
-0.119116
-0.11452
-0.108717
-0.10179
-0.0938443
-0.085013
-0.07545
-0.0653288
-0.0548391
-0.0441829
-0.0335703
-0.0232155
-0.0133322
-0.00413855
0.00758422
0.02157
0.0343638
0.0459778
0.0564407
0.0657925
0.0740808
0.0813588
0.087682
0.0931068
0.0976883
0.101479
0.104529
0.106881
0.108577
0.109651
0.110132
0.110045
0.109409
0.108239
0.106547
0.104341
0.101626
0.0984053
0.0946806
0.0904532
0.0857246
0.0804966
0.0747725
0.0685573
0.0618587
0.0546873
0.0470575
0.0389876
0.0305011
0.0216262
0.0123972
0.0028545
-0.00695468
-0.0169761
-0.027148
-0.0374011
-0.0476581
-0.0578339
-0.0678361
-0.0775649
-0.0869143
-0.095773
-0.104026
-0.111555
-0.118243
-0.123976
-0.128644
-0.132147
-0.134395
-0.135317
-0.134857
-0.132986
-0.129697
-0.12501
-0.118978
-0.111681
-0.103228
-0.0937575
-0.0834333
-0.0724417
-0.0609877
-0.0492906
-0.0375797
-0.0260884
-0.0150504
-0.00470381
0.00815507
0.0231544
0.036843
0.0492423
0.0603901
0.070335
0.0791333
0.0868461
0.0935368
0.0992688
0.104104
0.1081
0.111312
0.113789
0.115576
0.116709
0.117222
0.117141
0.116488
0.115279
0.113527
0.111239
0.108422
0.105079
0.101211
0.0968199
0.0919049
0.0864675
0.0805098
0.0740355
0.0670508
0.0595648
0.0515902
0.0431439
0.0342475
0.0249279
0.015218
0.00515696
-0.00520874
-0.0158253
-0.0266307
-0.0375549
-0.048519
-0.0594354
-0.0702079
-0.0807319
-0.0908953
-0.100579
-0.109659
-0.118006
-0.125492
-0.131988
-0.137371
-0.141523
-0.144341
-0.145736
-0.145639
-0.144006
-0.140817
-0.136087
-0.129858
-0.12221
-0.113253
-0.103132
-0.0920189
-0.0801141
-0.0676386
-0.0548305
-0.0419393
-0.0292202
-0.0169283
-0.00532373
0.00873192
0.0247557
0.039349
0.0525426
0.0643831
0.074928
0.0842422
0.092395
0.0994575
0.1055
0.110592
0.114796
0.118173
0.120778
0.122657
0.123853
0.124401
0.124331
0.123665
0.122422
0.120614
0.118253
0.115342
0.111886
0.107886
0.103341
0.0982523
0.092619
0.086442
0.0797237
0.0724685
0.0646839
0.0563807
0.0475739
0.0382831
0.0285333
0.0183556
0.00778765
-0.00312548
-0.0143309
-0.0257672
-0.0373639
-0.0490414
-0.0607099
-0.0722705
-0.0836141
-0.0946229
-0.10517
-0.115123
-0.124343
-0.132687
-0.140013
-0.146182
-0.151061
-0.154527
-0.156474
-0.156816
-0.155491
-0.152468
-0.147746
-0.141362
-0.13339
-0.12394
-0.113162
-0.101236
-0.0883776
-0.0748234
-0.060832
-0.0466751
-0.0326313
-0.0189793
-0.00600318
0.00931269
0.0263683
0.0418734
0.0558678
0.068407
0.0795573
0.089392
0.0979888
0.105426
0.111783
0.117133
0.121547
0.125092
0.127825
0.129799
0.13106
0.131646
0.131589
0.130915
0.129642
0.127787
0.125358
0.122362
0.118802
0.11468
0.109995
0.104745
0.0989302
0.0925493
0.0856033
0.0780949
0.0700296
0.0614161
0.0522672
0.0426004
0.0324382
0.0218097
0.0107504
-0.000696656
-0.01248
-0.0245393
-0.0368047
-0.0491962
-0.0616231
-0.073984
-0.0861663
-0.098047
-0.109493
-0.120362
-0.130505
-0.139767
-0.147991
-0.15502
-0.160704
-0.164901
-0.167485
-0.16835
-0.167414
-0.164629
-0.159979
-0.153491
-0.14523
-0.135306
-0.123871
-0.111115
-0.0972634
-0.0825738
-0.0673253
-0.0518137
-0.0363429
-0.0212175
-0.00674739
0.00989528
0.0279868
0.0444078
0.0592072
0.0724491
0.0842084
0.094567
0.103611
0.111426
0.118097
0.123708
0.128334
0.132046
0.134909
0.13698
0.138308
0.138934
0.138893
0.138214
0.136917
0.135018
0.132529
0.129455
0.125802
0.121568
0.116754
0.111357
0.105376
0.0988074
0.0916513
0.0839083
0.0755819
0.0666786
0.0572086
0.0471869
0.0366336
0.0255748
0.0140437
0.00208103
-0.0102641
-0.0229332
-0.0358576
-0.0489579
-0.062143
-0.0753101
-0.0883439
-0.101117
-0.113491
-0.125314
-0.136428
-0.146665
-0.155852
-0.163817
-0.170388
-0.175404
-0.178716
-0.180194
-0.179736
-0.177272
-0.172769
-0.166238
-0.157735
-0.147364
-0.13528
-0.121679
-0.106802
-0.0909215
-0.0743413
-0.0573828
-0.0403774
-0.0236577
-0.00756192
0.0104776
0.0296056
0.0469439
0.06255
0.0764966
0.088867
0.0997512
0.109243
0.117437
0.124425
0.130296
0.135134
0.139014
0.142008
0.144175
0.14557
0.146238
0.146216
0.145534
0.144216
0.14228
0.139736
0.136593
0.132855
0.128521
0.12359
0.11806
0.111927
0.105188
0.09784
0.0898823
0.081316
0.0721451
0.0623773
0.0520246
0.0411044
0.0296399
0.0176609
0.0052054
-0.00768031
-0.0209402
-0.0345076
-0.0483047
-0.0622409
-0.0762131
-0.0901044
-0.103784
-0.117108
-0.129918
-0.142045
-0.15331
-0.163524
-0.172498
-0.18004
-0.185965
-0.1901
-0.19229
-0.192408
-0.190359
-0.186087
-0.179586
-0.170898
-0.160121
-0.147404
-0.132954
-0.11702
-0.0998974
-0.081911
-0.0634105
-0.0447577
-0.0263155
-0.00845265
0.0110577
0.0312194
0.0494735
0.0658859
0.0805373
0.0935189
0.104929
0.114869
0.123441
0.130745
0.136877
0.141925
0.145973
0.149096
0.15136
0.152822
0.153531
0.153529
0.152847
0.151512
0.149541
0.146949
0.143744
0.139928
0.135504
0.130469
0.124819
0.11855
0.111658
0.104137
0.0959857
0.0872018
0.0777873
0.067747
0.05709
0.0458303
0.0339878
0.021589
0.0086683
-0.00473132
-0.018557
-0.0327451
-0.04722
-0.0618929
-0.0766613
-0.0914077
-0.105999
-0.120288
-0.13411
-0.147286
-0.159626
-0.170928
-0.180982
-0.189577
-0.196503
-0.201562
-0.204569
-0.205369
-0.203838
-0.199896
-0.193511
-0.184708
-0.173574
-0.160255
-0.144958
-0.127946
-0.109531
-0.0900648
-0.0699256
-0.0495076
-0.029207
-0.00942579
0.0116336
0.032823
0.0519888
0.0692048
0.0845589
0.0981504
0.110085
0.120472
0.129421
0.137039
0.143429
0.148686
0.1529
0.15615
0.158508
0.160035
0.160786
0.160803
0.160122
0.158771
0.15677
0.154134
0.150872
0.146988
0.142483
0.137354
0.131598
0.125209
0.11818
0.110507
0.102183
0.0932046
0.0835719
0.0732863
0.0623537
0.0507847
0.0385955
0.0258089
0.0124552
-0.00142639
-0.015787
-0.0305667
-0.0456931
-0.0610803
-0.0766274
-0.0922179
-0.107718
-0.122977
-0.137827
-0.15208
-0.165536
-0.177979
-0.189181
-0.19891
-0.20693
-0.213014
-0.21695
-0.218546
-0.217648
-0.214144
-0.207975
-0.199143
-0.187716
-0.173834
-0.157705
-0.1396
-0.119851
-0.0988328
-0.0769567
-0.0546514
-0.0323492
-0.0104878
0.0122035
0.0344116
0.0544826
0.0724971
0.0885502
0.102748
0.115205
0.126036
0.135359
0.143288
0.149932
0.155394
0.159769
0.163143
0.165592
0.167182
0.167971
0.168006
0.167325
0.165959
0.16393
0.161253
0.15794
0.153994
0.149417
0.144206
0.138356
0.131862
0.124715
0.116907
0.108432
0.0992848
0.0894603
0.0789581
0.0677807
0.0559351
0.0434337
0.030295
0.0165451
0.00221853
-0.0126403
-0.0279758
-0.04372
-0.0597907
-0.0760904
-0.0925044
-0.1089
-0.125125
-0.141008
-0.156357
-0.170961
-0.184591
-0.197002
-0.20794
-0.217146
-0.224361
-0.229338
-0.231853
-0.231713
-0.228769
-0.222929
-0.214166
-0.202528
-0.188139
-0.171204
-0.152003
-0.130882
-0.108244
-0.0845322
-0.0602136
-0.0357593
-0.0116456
0.0127657
0.0359809
0.0569481
0.0757541
0.0925004
0.1073
0.120273
0.131544
0.141236
0.149471
0.156364
0.162026
0.166557
0.170049
0.172584
0.174233
0.175057
0.175106
0.174424
0.173041
0.170984
0.168269
0.164908
0.160906
0.156265
0.150981
0.145051
0.138465
0.131216
0.123294
0.114691
0.105398
0.0954094
0.0847205
0.0733308
0.0612436
0.048467
0.0350154
0.02091
0.0061805
-0.00913398
-0.0249831
-0.0413039
-0.0580193
-0.075036
-0.092243
-0.10951
-0.126686
-0.143598
-0.160049
-0.175822
-0.190674
-0.204348
-0.216567
-0.227045
-0.235493
-0.24163
-0.245191
-0.245942
-0.243692
-0.23831
-0.229733
-0.217979
-0.203155
-0.185456
-0.165165
-0.142645
-0.118324
-0.0926799
-0.066219
-0.0394549
-0.0129062
0.0133187
0.0375269
0.0593793
0.078968
0.0964001
0.111795
0.125279
0.136983
0.147037
0.155571
0.162706
0.16856
0.17324
0.176843
0.179457
0.181157
0.18201
0.18207
0.181381
0.179981
0.177894
0.175142
0.171735
0.167682
0.162983
0.157635
0.151634
0.144971
0.137637
0.12962
0.12091
0.111497
0.101372
0.0905269
0.0789587
0.0666666
0.0536545
0.0399321
0.0255157
0.0104296
-0.00529274
-0.0216069
-0.038456
-0.0557689
-0.0734579
-0.0914174
-0.109521
-0.127621
-0.145544
-0.163092
-0.180041
-0.196142
-0.211121
-0.224682
-0.236513
-0.246296
-0.25371
-0.258449
-0.260232
-0.258823
-0.254041
-0.245782
-0.234028
-0.218858
-0.200453
-0.179095
-0.155159
-0.129098
-0.101426
-0.072692
-0.0434542
-0.0142769
0.0138614
0.0390466
0.0617715
0.0821325
0.100241
0.116222
0.130209
0.142337
0.152745
0.161569
0.168938
0.174975
0.179793
0.183498
0.186182
0.187925
0.188798
0.188861
0.188161
0.186738
0.18462
0.181828
0.178377
0.174275
0.169523
0.16412
0.158058
0.151331
0.143927
0.135833
0.127039
0.11753
0.107296
0.0963266
0.0846146
0.0721557
0.0589495
0.045001
0.0303213
0.014929
-0.00114852
-0.0178734
-0.0351956
-0.0530509
-0.0713587
-0.0900198
-0.108914
-0.127898
-0.146801
-0.165426
-0.183548
-0.200908
-0.217222
-0.232175
-0.245434
-0.256645
-0.265451
-0.271502
-0.274465
-0.274052
-0.270028
-0.262238
-0.250617
-0.235211
-0.216177
-0.193791
-0.168436
-0.140588
-0.110797
-0.0796568
-0.0477753
-0.0157654
0.0143929
0.0405377
0.0641211
0.0852424
0.104017
0.120575
0.135053
0.147596
0.158347
0.167449
0.175039
0.181247
0.186193
0.189987
0.192729
0.194504
0.195388
0.195445
0.194726
0.193273
0.191118
0.188285
0.184789
0.18064
0.175839
0.170385
0.164273
0.157493
0.150033
0.141881
0.133022
0.123442
0.113127
0.102065
0.0902448
0.0776581
0.0643008
0.0501729
0.0352802
0.0196355
0.00325964
-0.0138165
-0.0315504
-0.0498857
-0.0687499
-0.0880518
-0.107679
-0.127494