/*--------------------------------*- C++ -*----------------------------------*\
  =========                 |
  \\      /  F ield         | OpenFOAM: The Open Source CFD Toolbox
   \\    /   O peration     | Website:  https://openfoam.org
    \\  /    A nd           | Version:  dev
     \\/     M anipulation  |
\*---------------------------------------------------------------------------*/
FoamFile
{
    format      ascii;
    class       volScalarField;
    location    "44.55";
    object      p;
}
// * * * * * * * * * * * * * * * * * * * * * * * * * * * * * * * * * * * * * //

dimensions      [0 2 -2 0 0 0 0];

internalField   nonuniform List<scalar> 
5184
(
9.15163e-07
-1.10253e-05
-9.69977e-05
-0.000249963
-0.000449481
-0.000678264
-0.000922072
-0.00116893
-0.00140969
-0.00163721
-0.00184608
-0.00203227
-0.00219285
-0.00232571
-0.00242938
-0.00250284
-0.00254542
-0.00255669
-0.00253637
-0.00248431
-0.0024004
-0.00228464
-0.00213707
-0.00195784
-0.00174717
-0.00150544
-0.00123319
-0.00093118
-0.000600398
-0.000242114
0.000142086
0.000550277
0.000980166
0.00142908
0.00189395
0.00237134
0.00285742
0.00334802
0.00383867
0.00432463
0.00480096
0.00526257
0.00570434
0.00612118
0.00650815
0.00686053
0.00717395
0.00744449
0.00766876
0.00784404
0.00796831
0.00804037
0.00805986
0.00802737
0.00794438
0.00781335
0.00763766
0.00742164
0.0071705
0.0068903
0.00658792
0.00627096
0.00594774
0.00562721
0.00531894
0.00503302
0.00477995
0.00457033
0.00441416
0.00431987
0.00429294
0.00432024
1.40482e-05
1.53692e-06
-7.3109e-05
-0.000200958
-0.000366312
-0.00055669
-0.000761156
-0.000970103
-0.00117561
-0.00137128
-0.00155208
-0.0017141
-0.00185436
-0.00197063
-0.00206127
-0.00212506
-0.00216117
-0.00216898
-0.00214806
-0.00209815
-0.00201905
-0.00191068
-0.00177304
-0.00160625
-0.00141052
-0.00118622
-0.000933883
-0.00065423
-0.000348227
-1.70903e-05
0.000337675
0.00071425
0.00111049
0.00152389
0.00195162
0.00239049
0.00283698
0.00328727
0.00373726
0.00418264
0.00461889
0.00504142
0.00544559
0.00582679
0.00618059
0.00650275
0.00678937
0.00703696
0.00724254
0.00740372
0.00751878
0.00758673
0.00760738
0.00758134
0.00751009
0.00739596
0.00724214
0.00705263
0.00683226
0.00658656
0.00632179
0.00604484
0.00576315
0.00548464
0.00521763
0.00497068
0.00475248
0.00457139
0.00443471
0.0043484
0.00431984
0.00434746
0.000100671
7.59564e-05
5.73345e-07
-0.000117044
-0.000264843
-0.000433181
-0.000613343
-0.000797493
-0.000978933
-0.00115211
-0.00131252
-0.00145656
-0.00158144
-0.00168496
-0.00176549
-0.00182177
-0.00185289
-0.00185816
-0.00183707
-0.00178928
-0.00171454
-0.0016127
-0.00148373
-0.00132769
-0.00114477
-0.000935283
-0.000699727
-0.000438784
-0.00015335
0.000155432
0.000486152
0.000837108
0.00120629
0.00159136
0.00198968
0.00239826
0.00281385
0.00323288
0.00365154
0.00406583
0.00447156
0.00486448
0.00524027
0.00559471
0.00592367
0.00622327
0.0064899
0.00672039
0.006912
0.00706259
0.00717059
0.00723518
0.00725623
0.00723439
0.00717111
0.00706862
0.00692993
0.00675882
0.00655978
0.00633798
0.00609917
0.00584966
0.00559622
0.00534597
0.00510628
0.00488457
0.00468838
0.00452475
0.00439969
0.00431844
0.00429067
0.00432133
0.000255724
0.000204311
0.000116467
-2.54992e-06
-0.000145063
-0.000303287
-0.000470091
-0.000639106
-0.000804796
-0.000962477
-0.00110828
-0.00123906
-0.00135231
-0.00144606
-0.00151877
-0.00156928
-0.00159667
-0.00160026
-0.00157952
-0.00153406
-0.0014636
-0.00136795
-0.00124702
-0.00110081
-0.00092947
-0.000733254
-0.000512588
-0.000268079
-5.39837e-07
0.000288984
0.000599191
0.000928504
0.00127505
0.00163666
0.00201084
0.00239482
0.00278552
0.00317959
0.00357347
0.00396336
0.00434533
0.00471535
0.00506936
0.00540336
0.00571346
0.00599598
0.00624754
0.00646513
0.00664618
0.00678866
0.00689116
0.00695289
0.00697377
0.00695445
0.00689634
0.00680157
0.00667304
0.00651431
0.00632963
0.00612386
0.00590236
0.00567099
0.00543596
0.00520377
0.00498108
0.00477455
0.0045908
0.00443612
0.00431593
0.00423526
0.00420423
0.00422951
0.00046051
0.000371895
0.000263261
0.000135506
-8.91309e-06
-0.000163827
-0.000323462
-0.000482818
-0.00063749
-0.000783682
-0.000918211
-0.00103846
-0.00114231
-0.00122808
-0.00129442
-0.0013403
-0.00136488
-0.00136752
-0.0013477
-0.00130502
-0.00123916
-0.00114991
-0.00103711
-0.000900724
-0.000740808
-0.000557552
-0.000351297
-0.000122554
0.000127969
0.00039934
0.000690384
0.000999658
0.00132544
0.0016657
0.00201814
0.00238014
0.00274882
0.00312101
0.00349334
0.00386219
0.00422384
0.00457444
0.00491011
0.00522701
0.00552143
0.00578983
0.00602897
0.00623595
0.0064083
0.0065441
0.00664195
0.00670111
0.00672152
0.00670381
0.00664932
0.0065601
0.00643892
0.00628917
0.0061149
0.00592066
0.00571153
0.00549294
0.00527065
0.00505062
0.00483891
0.00464154
0.00446442
0.00431319
0.00419279
0.00410799
0.0040676
0.00407746
0.000698875
0.000566829
0.000431626
0.000289539
0.000137559
-1.95385e-05
-0.000177147
-0.000331528
-0.000479349
-0.000617686
-0.000744062
-0.000856425
-0.000953098
-0.00103273
-0.00109423
-0.00113674
-0.00115954
-0.00116207
-0.00114385
-0.00110447
-0.00104363
-0.000961036
-0.00085651
-0.000729934
-0.000581292
-0.000410684
-0.000218348
-4.68621e-06
0.000229715
0.000484052
0.000757288
0.00104812
0.00135499
0.00167601
0.00200905
0.00235166
0.0027011
0.0030544
0.00340831
0.00375939
0.00410405
0.00443858
0.00475924
0.00506229
0.00534413
0.00560131
0.00583064
0.0060293
0.00619487
0.00632543
0.00641961
0.00647667
0.00649651
0.00647971
0.00642756
0.00634203
0.00622574
0.00608198
0.00591457
0.00572785
0.00552661
0.00531597
0.00510129
0.00488809
0.00468193
0.00448828
0.0043125
0.00415962
0.00403421
0.00394068
0.0038855
0.00387245
0.000957034
0.000778239
0.000612661
0.000452075
0.00028811
0.000124375
-3.55125e-05
-0.000188952
-0.000333612
-0.000467403
-0.000588547
-0.00069557
-0.000787263
-0.000862642
-0.000920905
-0.000961393
-0.000983554
-0.000986914
-0.000971054
-0.000935602
-0.000880219
-0.000804609
-0.000708523
-0.000591775
-0.000454264
-0.000295986
-0.000117066
8.22191e-05
0.000301416
0.000539863
0.000796669
0.00107069
0.0013605
0.00166439
0.00198038
0.00230616
0.00263915
0.00297651
0.00331512
0.00365166
0.00398265
0.00430445
0.00461342
0.00490587
0.00517824
0.00542711
0.00564932
0.00584203
0.00600282
0.00612974
0.0062214
0.00627699
0.00629637
0.00628007
0.00622927
0.00614586
0.00603236
0.0058919
0.00572817
0.00554532
0.0053479
0.00514077
0.00492898
0.0047177
0.00451208
0.00431717
0.00413783
0.00397864
0.00384381
0.0037374
0.0036631
0.00362211
0.00122286
0.00099598
0.000797766
0.000615823
0.000436663
0.000262927
9.74004e-05
-5.83447e-05
-0.000202899
-0.000334962
-0.000453435
-0.000557415
-0.000646167
-0.000719088
-0.00077568
-0.000815514
-0.000838207
-0.000843403
-0.000830753
-0.000799914
-0.000750547
-0.000682323
-0.000594937
-0.000488128
-0.000361697
-0.000215529
-4.96241e-05
0.000135879
0.00034067
0.000564239
0.000805851
0.00106451
0.00133897
0.00162766
0.00192874
0.00224006
0.00255917
0.00288333
0.00320953
0.00353455
0.00385496
0.00416719
0.0044676
0.00475254
0.00501843
0.00526184
0.00547956
0.0056687
0.00582677
0.00595176
0.00604219
0.00609718
0.00611649
0.00610056
0.00605049
0.00596805
0.00585566
0.00571634
0.00555363
0.00537154
0.00517444
0.00496698
0.00475397
0.00454031
0.00433083
0.00413025
0.00394305
0.00377341
0.00362532
0.00350252
0.00340575
0.00333359
0.00148607
0.00121089
0.000978875
0.000773738
0.000577156
0.000390964
0.000217243
5.66362e-05
-9.02973e-05
-0.000222998
-0.000341014
-0.000443995
-0.000531672
-0.000603826
-0.000660264
-0.000700797
-0.000725223
-0.000733306
-0.000724775
-0.000699321
-0.000656603
-0.000596262
-0.000517933
-0.000421272
-0.000305974
-0.000171805
-1.86286e-05
0.000153564
0.000344616
0.00055418
0.00078168
0.00102629
0.00128691
0.00156214
0.00185028
0.00214931
0.00245689
0.00277039
0.00308688
0.0034032
0.00371595
0.00402158
0.00431645
0.00459687
0.0048592
0.00509995
0.00531581
0.0055038
0.00566132
0.00578623
0.00587693
0.00593242
0.00595234
0.00593701
0.00588741
0.00580521
0.00569272
0.00555283
0.00538899
0.00520507
0.00500532
0.00479423
0.00457644
0.00435664
0.00413945
0.00392933
0.00373049
0.0035468
0.00338213
0.00324001
0.00311825
0.00301293
0.00173769
0.00141471
0.00114848
0.00091908
0.000703611
0.000503228
0.00031941
0.000151957
6.40514e-07
-0.000134669
-0.00025413
-0.000357922
-0.000446226
-0.000519194
-0.000576939
-0.000619509
-0.000646878
-0.000658937
-0.000655489
-0.000636262
-0.00060091
-0.000549038
-0.000480219
-0.000394016
-0.000290013
-0.000167845
-2.72298e-05
0.000131997
0.000309843
0.000506129
0.000720451
0.000952151
0.00120029
0.00146363
0.00174061
0.00202933
0.00232757
0.00263278
0.0029421
0.00325239
0.00356027
0.00386218
0.00415442
0.00443325
0.00469493
0.00493583
0.00515255
0.00534192
0.0055012
0.00562808
0.00572079
0.00577817
0.00579969
0.00578554
0.00573655
0.00565427
0.00554088
0.00539919
0.00523253
0.00504469
0.00483981
0.00462227
0.0043966
0.00416738
0.00393909
0.00371602
0.00350221
0.00330131
0.00311718
0.00295327
0.00280462
0.00266489
0.00196977
0.00159992
0.0012996
0.00104544
0.000810205
0.00059447
0.000399184
0.000223372
6.6081e-05
-7.34642e-05
-0.000195994
-0.000302192
-0.000392665
-0.000467925
-0.000528374
-0.000574291
-0.000605821
-0.000622974
-0.000625627
-0.000613535
-0.000586347
-0.000543624
-0.000484868
-0.000409544
-0.000317115
-0.000207075
-7.89869e-05
6.74782e-05
0.000232503
0.000416084
0.000617996
0.000837759
0.0010746
0.00132744
0.00159486
0.00187509
0.002166
0.00246512
0.00276964
0.00307645
0.00338215
0.00368312
0.00397562
0.00425577
0.00451971
0.00476367
0.00498403
0.00517747
0.00534101
0.00547214
0.00556887
0.00562984
0.00565433
0.00564231
0.00559447
0.00551221
0.00539759
0.0052533
0.00508259
0.00488917
0.00467712
0.00445077
0.00421458
0.00397308
0.0037307
0.00349166
0.00325991
0.00303902
0.00283292
0.00264512
0.00246803
0.00229309
0.00217516
0.00175964
0.00142571
0.00114672
0.000891291
0.000659491
0.000451792
0.000266501
0.000101988
-4.31241e-05
-0.000170104
-0.000280108
-0.000374147
-0.000453072
-0.000517562
-0.000568109
-0.00060502
-0.000628415
-0.000638234
-0.000634255
-0.000616111
-0.000583315
-0.000535285
-0.00047138
-0.000390932
-0.000293285
-0.000177839
-4.40892e-05
0.000108331
0.000279607
0.0004697
0.000678315
0.000904856
0.0011484
0.00140768
0.00168104
0.00196646
0.00226154
0.00256351
0.00286925
0.00317534
0.00347812
0.0037737
0.0040581
0.00432729
0.00457728
0.00480425
0.00500461
0.00517515
0.00531308
0.00541617
0.00548278
0.00551195
0.00550343
0.00545771
0.00537602
0.00526027
0.00511305
0.0049375
0.00473729
0.00451647
0.00427935
0.0040304
0.00377415
0.00351505
0.00325736
0.00300503
0.00276163
0.00253132
0.00231775
0.00211089
0.00190007
0.00234729
0.00188749
0.00152069
0.0012171
0.000941401
0.000693171
0.000472451
0.000276877
0.00010418
-4.75818e-05
-0.000180184
-0.000295226
-0.0003941
-0.000477974
-0.000547783
-0.000604219
-0.000647735
-0.000678547
-0.000696651
-0.000701834
-0.000693704
-0.000671713
-0.000635189
-0.000583373
-0.000515456
-0.000430624
-0.0003281
-0.000207194
-6.73437e-05
9.18334e-05
0.0002705
0.000468552
0.000685579
0.00092083
0.00117318
0.00144112
0.00172271
0.00201563
0.00231714
0.00262412
0.00293312
0.00324037
0.00354188
0.00383349
0.00411097
0.0043701
0.0046068
0.00481718
0.00499771
0.00514532
0.00525743
0.00533211
0.0053681
0.00536489
0.00532272
0.00524261
0.00512631
0.00497626
0.00479555
0.00458778
0.00435701
0.00410757
0.00384398
0.00357085
0.00329272
0.00301398
0.00273867
0.00247049
0.0022139
0.00197282
0.00173491
0.00148749
0.0024801
0.00197751
0.00157876
0.00125105
0.000955249
0.000690492
0.000456409
0.000249998
6.83867e-05
-9.09046e-05
-0.000230128
-0.0003513
-0.000456169
-0.000546199
-0.000622559
-0.000686125
-0.000737478
-0.000776919
-0.00080448
-0.00081995
-0.000822898
-0.000812704
-0.000788595
-0.000749681
-0.000695004
-0.000623577
-0.000534439
-0.0004267
-0.000299591
-0.000152519
1.48921e-05
0.000202743
0.00041082
0.000638553
0.000884978
0.00114871
0.00142795
0.00172042
0.00202342
0.00233383
0.00264815
0.00296251
0.00327278
0.00357461
0.00386354
0.00413508
0.00438482
0.00460856
0.00480241
0.0049629
0.00508711
0.00517272
0.00521813
0.0052225
0.00518579
0.00510875
0.00499296
0.0048407
0.00465497
0.00443932
0.00419783
0.0039349
0.00365515
0.00336334
0.00306416
0.0027622
0.00246172
0.00216662
0.00188176
0.00161149
0.00134119
0.00105626
0.00256785
0.00202407
0.00159445
0.00124326
0.000927728
0.000646555
0.000398974
0.00018137
-9.70467e-06
-0.000177242
-0.000323946
-0.000452227
-0.000564165
-0.000661496
-0.000745607
-0.000817535
-0.000877974
-0.000927293
-0.000965548
-0.000992515
-0.00100771
-0.00101043
-0.00099978
-0.000974739
-0.000934183
-0.000876943
-0.000801858
-0.000707827
-0.000593859
-0.000459134
-0.000303053
-0.000125291
7.41488e-05
0.00029489
0.000536147
0.000796687
0.00107481
0.00136835
0.00167463
0.00199054
0.00231251
0.00263657
0.00295845
0.00327356
0.00357721
0.00386458
0.00413092
0.00437165
0.00458245
0.00475944
0.00489923
0.0049991
0.00505703
0.00507178
0.00504295
0.00497103
0.00485733
0.00470398
0.00451385
0.00429047
0.00403792
0.00376072
0.00346365
0.00315163
0.00282963
0.00250251
0.0021748
0.00185074
0.00153568
0.00123449
0.000930334
0.000606703
0.00260514
0.00202185
0.00156253
0.00118866
0.000853915
0.000556594
0.000295539
6.65413e-05
-0.000134404
-0.000310777
-0.000465713
-0.000601993
-0.000722007
-0.000827743
-0.000920783
-0.00100231
-0.00107311
-0.00113361
-0.00118387
-0.00122363
-0.00125235
-0.00126923
-0.00127325
-0.00126323
-0.00123786
-0.0011958
-0.00113566
-0.00105612
-0.000955947
-0.000834078
-0.000689671
-0.000522164
-0.00033133
-0.000117329
0.000119246
0.000377333
0.000655369
0.000951274
0.00126244
0.00158576
0.0019176
0.00225391
0.00259022
0.00292175
0.00324349
0.0035503
0.00383704
0.00409869
0.00433046
0.00452796
0.00468732
0.00480529
0.00487936
0.00490785
0.00488994
0.00482574
0.00471629
0.00456351
0.00437014
0.00413965
0.00387618
0.00358433
0.00326909
0.00293566
0.0025893
0.00223524
0.00187839
0.00152337
0.00117617
0.000842236
0.000502554
0.000138676
0.00258682
0.00196579
0.00147806
0.00108239
0.000729074
0.000415999
0.000141616
-9.88625e-05
-0.000309979
-0.000495682
-0.000659521
-0.000804625
-0.000933676
-0.00104889
-0.00115204
-0.00124442
-0.0013269
-0.00139993
-0.00146359
-0.00151755
-0.00156121
-0.00159364
-0.00161369
-0.00162002
-0.00161114
-0.00158548
-0.00154143
-0.00147742
-0.00139197
-0.00128376
-0.00115167
-0.000994898
-0.00081295
-0.000605751
-0.000373674
-0.00011759
0.0001611
0.000460432
0.000777877
0.00111033
0.00145415
0.00180516
0.00215872
0.00250983
0.00285317
0.00318322
0.00349441
0.00378123
0.00403837
0.00426087
0.00444426
0.00458473
0.00467917
0.00472538
0.00472204
0.00466883
0.00456643
0.00441649
0.0042216
0.00398516
0.00371135
0.0034049
0.00307105
0.00271528
0.00234326
0.00196064
0.0015728
0.00118486
0.000803514
0.000434893
5.77598e-05
-0.000348314
0.00250797
0.00185108
0.00133631
0.000919815
0.000548673
0.000220331
-6.71449e-05
-0.000319104
-0.000540613
-0.000736074
-0.000909428
-0.00106414
-0.00120316
-0.00132893
-0.00144337
-0.00154788
-0.0016434
-0.00173041
-0.00180894
-0.00187862
-0.00193876
-0.0019883
-0.00202594
-0.00205016
-0.00205927
-0.00205148
-0.00202492
-0.00197778
-0.0019083
-0.00181487
-0.0016961
-0.00155087
-0.00137844
-0.00117846
-0.000951039
-0.000696838
-0.000417066
-0.000113536
0.000211319
0.000554441
0.000912157
0.00128021
0.00165381
0.00202769
0.00239621
0.00275347
0.00309341
0.00341
0.00369732
0.00394978
0.00416224
0.0043302
0.0044499
0.0045185
0.00453408
0.00449581
0.00440394
0.00425979
0.00406573
0.00382509
0.00354205
0.00322152
0.00286897
0.00249026
0.00209151
0.00167888
0.0012583
0.000835464
0.000417879
1.24606e-05
-0.000404331
-0.000854987
0.00236394
0.00167315
0.00113281
0.000696552
0.000308391
-3.46592e-05
-0.000334922
-0.0005983
-0.000830368
-0.00103597
-0.00121942
-0.0013845
-0.00153442
-0.00167182
-0.00179874
-0.00191672
-0.00202671
-0.0021292
-0.00222418
-0.00231123
-0.00238953
-0.00245791
-0.00251489
-0.00255877
-0.00258763
-0.00259944
-0.00259209
-0.00256347
-0.00251153
-0.00243435
-0.00233024
-0.00219777
-0.00203587
-0.0018439
-0.00162169
-0.00136963
-0.00108871
-0.000780549
-0.000447451
-9.24001e-05
0.000280937
0.000668234
0.00106455
0.00146437
0.00186175
0.00225034
0.00262359
0.00297486
0.00329759
0.00358547
0.00383261
0.00403372
0.00418426
0.00428064
0.00432027
0.00430168
0.00422459
0.00408992
0.00389976
0.0036573
0.00336675
0.00303315
0.00266226
0.00226035
0.00183405
0.00139011
0.000935099
0.00047538
1.93693e-05
-0.00042514
-0.000884104
-0.00138219
0.00215031
0.0014277
0.000863325
0.000408444
4.13883e-06
-0.000353003
-0.000665698
-0.00094039
-0.00118315
-0.00139924
-0.00159335
-0.00176956
-0.00193131
-0.00208142
-0.00222209
-0.00235489
-0.00248085
-0.00260041
-0.00271355
-0.00281974
-0.00291806
-0.00300718
-0.00308546
-0.00315098
-0.00320161
-0.00323505
-0.00324892
-0.0032408
-0.00320834
-0.00314928
-0.00306159
-0.00294349
-0.00279357
-0.00261084
-0.00239482
-0.00214559
-0.00186386
-0.00155102
-0.00120921
-0.000841286
-0.000450874
-4.2342e-05
0.000379234
0.000808128
0.00123804
0.00166221
0.00207354
0.00246474
0.00282853
0.00315781
0.00344583
0.00368642
0.00387414
0.00400452
0.00407415
0.00408083
0.00402363
0.00390296
0.00372055
0.00347941
0.00318371
0.00283863
0.00245023
0.00202524
0.00157085
0.0010945
0.000603449
0.000104842
-0.000391893
-0.000877984
-0.00138196
-0.0019308
0.00186291
0.00111069
0.000523912
5.15999e-05
-0.00036792
-0.000738493
-0.00106323
-0.0013491
-0.00160266
-0.00182959
-0.00203491
-0.002223
-0.00239754
-0.00256149
-0.00271718
-0.00286625
-0.00300973
-0.00314807
-0.00328116
-0.00340842
-0.00352876
-0.00364072
-0.00374247
-0.00383188
-0.00390656
-0.00396396
-0.00400139
-0.00401611
-0.00400544
-0.00396677
-0.00389768
-0.00379602
-0.00365999
-0.00348822
-0.00327984
-0.0030346
-0.00275287
-0.00243578
-0.0020852
-0.00170384
-0.00129524
-0.000863755
-0.000414566
4.63941e-05
0.000512507
0.000976566
0.00143091
0.00186757
0.00227849
0.00265566
0.00299139
0.0032785
0.00351055
0.00368201
0.00378852
0.003827
0.00379574
0.00369452
0.00352461
0.00328873
0.00299097
0.00263666
0.00223214
0.00178463
0.00130194
0.000792265
0.000263677
-0.000275834
-0.000815699
-0.00134607
-0.00189822
-0.00250163
0.00149788
0.000718367
0.000110903
-0.000377587
-0.000811346
-0.00119465
-0.00153102
-0.00182792
-0.00209239
-0.00233049
-0.00254759
-0.00274834
-0.00293662
-0.00311558
-0.00328761
-0.00345444
-0.00361709
-0.00377599
-0.00393097
-0.00408133
-0.00422588
-0.00436297
-0.00449059
-0.00460636
-0.00470767
-0.00479165
-0.00485532
-0.0048956
-0.00490944
-0.00489385
-0.004846
-0.00476333
-0.00464361
-0.00448502
-0.00428629
-0.00404673
-0.00376634
-0.00344591
-0.00308701
-0.00269212
-0.00226462
-0.00180882
-0.00132995
-0.000834115
-0.000328244
0.000180023
0.000682447
0.00117035
0.0016348
0.00206686
0.00245775
0.00279916
0.00308349
0.00330404
0.0034553
0.00353314
0.00353491
0.00345961
0.00330793
0.0030822
0.00278636
0.0024258
0.00200718
0.00153821
0.0010274
0.000483752
-8.37561e-05
-0.000666177
-0.00125168
-0.00182922
-0.00243306
-0.00309534
0.00105165
0.00024729
-0.00037906
-0.000882417
-0.0013294
-0.00172472
-0.00207228
-0.00238005
-0.00265552
-0.00290514
-0.0031346
-0.0033488
-0.00355183
-0.00374697
-0.00393673
-0.00412286
-0.0043064
-0.00448775
-0.00466666
-0.00484232
-0.00501341
-0.0051781
-0.00533419
-0.00547906
-0.00560982
-0.00572333
-0.00581627
-0.00588521
-0.00592669
-0.00593732
-0.00591384
-0.00585322
-0.00575274
-0.00561012
-0.00542359
-0.00519199
-0.00491488
-0.0045926
-0.00422639
-0.0038184
-0.00337179
-0.00289076
-0.00238052
-0.0018473
-0.0012983
-0.000741587
-0.000185978
0.000359108
0.000883842
0.00137822
0.00183232
0.00223655
0.00258198
0.00286058
0.00306551
0.00319137
0.00323441
0.00319266
0.00306605
0.0028564
0.0025674
0.00220444
0.00177447
0.00128571
0.0007474
0.000169436
-0.0004382
-0.0010655
-0.00169924
-0.00232704
-0.00298639
-0.00371234
0.000520996
-0.00030564
-0.000948996
-0.00146586
-0.00192502
-0.00233161
-0.00268991
-0.0030084
-0.00329497
-0.00355645
-0.00379885
-0.0040273
-0.0042461
-0.00445865
-0.00466755
-0.00487459
-0.00508081
-0.00528657
-0.00549156
-0.00569484
-0.00589495
-0.0060899
-0.00627726
-0.0064542
-0.00661754
-0.00676382
-0.00688939
-0.00699045
-0.00706312
-0.00710357
-0.00710807
-0.00707307
-0.00699534
-0.00687206
-0.00670091
-0.00648019
-0.00620891
-0.00588695
-0.00551506
-0.00509502
-0.00462969
-0.00412304
-0.00358021
-0.0030075
-0.0024123
-0.00180309
-0.00118924
-0.000580947
1.10352e-05
0.00057558
0.00110148
0.00157776
0.00199399
0.00234059
0.00260919
0.00279293
0.0028867
0.00288737
0.00279391
0.00260746
0.00233131
0.00197079
0.00153307
0.00102688
0.000462231
-0.000150006
-0.000798757
-0.00147283
-0.00215745
-0.00283877
-0.00355779
-0.0043527
-9.69265e-05
-0.00094316
-0.00160157
-0.00213054
-0.0026008
-0.00301788
-0.00338648
-0.0037155
-0.00401328
-0.00428698
-0.00454291
-0.00478643
-0.00502202
-0.00525323
-0.00548271
-0.0057123
-0.00594306
-0.00617527
-0.00640855
-0.00664188
-0.00687364
-0.00710165
-0.0073233
-0.00753548
-0.00773475
-0.00791735
-0.00807925
-0.00821626
-0.00832408
-0.0083984
-0.00843496
-0.0084297
-0.0083788
-0.00827884
-0.00812688
-0.0079206
-0.00765843
-0.00733963
-0.00696442
-0.00653409
-0.00605109
-0.00551909
-0.00494306
-0.00432925
-0.00368522
-0.00301976
-0.00234281
-0.0016653
-0.000998973
-0.000356123
0.00025067
0.000808887
0.00130642
0.00173197
0.0020754
0.00232812
0.00248342
0.00253674
0.00248586
0.00233103
0.002075
0.00172287
0.00128197
0.000761532
0.000172348
-0.000473659
-0.00116422
-0.00188683
-0.002625
-0.00336326
-0.00414642
-0.00501605
-0.000804569
-0.00166761
-0.00233905
-0.00287869
-0.00335893
-0.00378574
-0.00416416
-0.00450355
-0.00481262
-0.00509889
-0.00536893
-0.00562835
-0.00588177
-0.00613287
-0.0063844
-0.00663822
-0.00689537
-0.00715613
-0.00742001
-0.00768589
-0.00795201
-0.00821604
-0.00847512
-0.00872592
-0.00896473
-0.00918743
-0.00938966
-0.0095668
-0.00971411
-0.00982677
-0.00989998
-0.00992909
-0.00990966
-0.0098376
-0.00970931
-0.00952177
-0.00927269
-0.00896066
-0.00858526
-0.00814718
-0.00764834
-0.007092
-0.00648284
-0.00582698
-0.00513204
-0.00440706
-0.00366246
-0.00290992
-0.00216215
-0.00143267
-0.000735529
-8.49087e-05
0.000505244
0.00102166
0.0014522
0.00178629
0.0020153
0.00213296
0.00213558
0.00202227
0.00179499
0.00145848
0.00102011
0.000489544
-0.000121605
-0.000800311
-0.001533
-0.00230573
-0.0031001
-0.00389884
-0.00475089
-0.00570149
-0.00160394
-0.00248092
-0.00316331
-0.00371214
-0.00420125
-0.00463698
-0.00502474
-0.0053743
-0.00569476
-0.00599393
-0.00627865
-0.00655476
-0.00682703
-0.00709927
-0.00737429
-0.007654
-0.00793944
-0.00823083
-0.00852764
-0.00882863
-0.00913191
-0.00943498
-0.00973478
-0.0100277
-0.0103099
-0.0105767
-0.0108235
-0.0110453
-0.0112368
-0.0113926
-0.0115075
-0.0115761
-0.0115934
-0.0115544
-0.0114549
-0.0112911
-0.0110599
-0.010759
-0.0103874
-0.00994492
-0.00943293
-0.00885412
-0.00821273
-0.00751466
-0.00676743
-0.00598026
-0.00516398
-0.00433093
-0.00349479
-0.00267034
-0.00187315
-0.0011192
-0.000424435
0.000195691
0.000726757
0.00115588
0.00147224
0.00166748
0.00173612
0.00167581
0.00148745
0.00117522
0.000746355
0.000210897
-0.000418751
-0.0011284
-0.00190307
-0.00272723
-0.00358037
-0.00444322
-0.00536918
-0.00640747
-0.0024966
-0.00338455
-0.00407579
-0.0046323
-0.00512912
-0.00557296
-0.00596957
-0.0063291
-0.006661
-0.00697337
-0.00727332
-0.00756687
-0.00785897
-0.00815354
-0.00845347
-0.0087607
-0.00907627
-0.00940037
-0.00973243
-0.0100711
-0.0104144
-0.0107595
-0.0111034
-0.0114422
-0.0117715
-0.0120867
-0.0123826
-0.0126537
-0.0128943
-0.0130987
-0.0132607
-0.0133744
-0.013434
-0.0134339
-0.013369
-0.0132346
-0.0130267
-0.0127422
-0.0123792
-0.0119366
-0.0114151
-0.0108166
-0.0101449
-0.00940531
-0.0086053
-0.00775406
-0.00686272
-0.00594423
-0.00501316
-0.00408556
-0.00317857
-0.00231006
-0.00149814
-0.000760666
-0.000114611
0.000424524
0.000843315
0.00113098
0.00127984
0.00128573
0.00114817
0.000870465
0.000459551
-7.43003e-05
-0.000717932
-0.00145595
-0.00227188
-0.00314843
-0.00406276
-0.00499339
-0.00599853
-0.00713166
-0.0034836
-0.00437952
-0.00507745
-0.00564013
-0.00614351
-0.00659463
-0.00699957
-0.00736884
-0.00771218
-0.00803802
-0.00835367
-0.00866536
-0.0089782
-0.00929622
-0.00962237
-0.00995867
-0.0103061
-0.010665
-0.0110345
-0.0114134
-0.0117994
-0.0121898
-0.0125811
-0.0129693
-0.0133499
-0.0137177
-0.0140672
-0.0143927
-0.0146877
-0.014946
-0.0151609
-0.0153257
-0.0154339
-0.015479
-0.015455
-0.0153563
-0.015178
-0.014916
-0.0145672
-0.0141298
-0.0136033
-0.012989
-0.0122898
-0.0115105
-0.0106582
-0.00974202
-0.00877313
-0.007765
-0.00673306
-0.00569452
-0.00466814
-0.00367374
-0.00273175
-0.00186263
-0.00108618
-0.000420874
0.000116891
0.000513455
0.000758521
0.000845647
0.000772585
0.000541428
0.000158533
-0.000365771
-0.00101765
-0.00178051
-0.00263625
-0.00356571
-0.00454344
-0.00554548
-0.00663528
-0.00787083
-0.00456547
-0.00546636
-0.00616882
-0.00673615
-0.00724492
-0.00770247
-0.00811519
-0.00849391
-0.00884868
-0.00918816
-0.00951991
-0.00985034
-0.0101847
-0.0105272
-0.0108808
-0.0112475
-0.0116286
-0.012024
-0.0124332
-0.0128546
-0.0132861
-0.0137247
-0.0141668
-0.0146081
-0.0150439
-0.0154686
-0.0158765
-0.0162613
-0.0166161
-0.0169341
-0.0172078
-0.0174301
-0.0175934
-0.0176905
-0.0177143
-0.0176584
-0.0175166
-0.0172838
-0.0169558
-0.0165297
-0.0160039
-0.0153786
-0.0146559
-0.0138399
-0.012937
-0.011956
-0.0109082
-0.00980717
-0.00866921
-0.00751261
-0.00635766
-0.00522621
-0.00414111
-0.00312559
-0.00220258
-0.00139385
-0.000719203
-0.000195641
0.000163408
0.000348735
0.000355836
0.000185173
-0.000157824
-0.00066301
-0.00131601
-0.00209904
-0.00299232
-0.00397461
-0.00501763
-0.00609466
-0.00727474
-0.00862071
-0.00574224
-0.00664509
-0.00734995
-0.00792041
-0.0084334
-0.00889651
-0.00931643
-0.00970427
-0.0100703
-0.0104235
-0.0107717
-0.0111213
-0.0114778
-0.0118455
-0.0122276
-0.0126261
-0.0130421
-0.0134759
-0.0139266
-0.0143929
-0.0148724
-0.015362
-0.015858
-0.016356
-0.0168508
-0.0173368
-0.0178077
-0.0182568
-0.0186769
-0.0190603
-0.0193992
-0.0196853
-0.0199106
-0.0200668
-0.0201458
-0.02014
-0.0200423
-0.0198463
-0.0195465
-0.0191387
-0.0186203
-0.0179901
-0.0172491
-0.0164005
-0.0154499
-0.0144056
-0.0132786
-0.0120827
-0.0108347
-0.00955382
-0.00826186
-0.00698265
-0.00574153
-0.00456469
-0.0034784
-0.0025081
-0.00167743
-0.00100723
-0.000514615
-0.000212147
-0.000107147
-0.000201301
-0.000490536
-0.000965215
-0.00161062
-0.00240784
-0.00333536
-0.00436972
-0.00547951
-0.00663494
-0.00791105
-0.00937581
-0.00701339
-0.00791523
-0.00862039
-0.0091925
-0.00970854
-0.0101763
-0.0106028
-0.0109994
-0.0113765
-0.0117434
-0.012108
-0.0124771
-0.0128562
-0.0132498
-0.0136611
-0.0140923
-0.0145445
-0.015018
-0.0155121
-0.0160251
-0.0165549
-0.0170981
-0.017651
-0.0182089
-0.0187665
-0.0193178
-0.0198562
-0.0203746
-0.0208653
-0.02132
-0.0217301
-0.0220869
-0.0223811
-0.0226037
-0.0227456
-0.0227979
-0.0227524
-0.0226012
-0.0223377
-0.0219562
-0.0214526
-0.0208245
-0.0200716
-0.0191959
-0.0182019
-0.0170972
-0.0158923
-0.014601
-0.0132402
-0.01183
-0.0103937
-0.00895676
-0.00754721
-0.00619425
-0.00492774
-0.00377708
-0.00277019
-0.00193229
-0.00128481
-0.000844283
-0.000621513
-0.000620946
-0.000840405
-0.00127118
-0.00189849
-0.00270242
-0.00365971
-0.00474453
-0.00592203
-0.00715903
-0.00853696
-0.0101292
-0.00837783
-0.00927584
-0.00997927
-0.0105516
-0.0110695
-0.0115411
-0.0119735
-0.0123782
-0.0127661
-0.0131464
-0.0135274
-0.013916
-0.0143179
-0.0147377
-0.0151787
-0.0156432
-0.0161325
-0.0166468
-0.0171855
-0.017747
-0.0183289
-0.018928
-0.0195404
-0.0201612
-0.0207849
-0.0214054
-0.0220156
-0.022608
-0.0231744
-0.023706
-0.0241936
-0.0246275
-0.0249978
-0.0252942
-0.0255068
-0.0256254
-0.0256404
-0.0255427
-0.0253241
-0.0249775
-0.0244973
-0.0238794
-0.0231221
-0.022226
-0.0211944
-0.0200337
-0.0187538
-0.017368
-0.0158932
-0.0143503
-0.0127634
-0.01116
-0.00957051
-0.00802716
-0.00656357
-0.00521345
-0.00400939
-0.00298155
-0.00215629
-0.00155486
-0.00119229
-0.00107651
-0.00120788
-0.00157917
-0.0021759
-0.00297737
-0.00395858
-0.00509123
-0.00633673
-0.00765813
-0.00914367
-0.0108724
-0.00983398
-0.0107255
-0.0114252
-0.0119964
-0.0125151
-0.0129895
-0.013427
-0.0138393
-0.0142374
-0.0146307
-0.0150278
-0.0154356
-0.0158601
-0.016306
-0.0167768
-0.0172749
-0.0178017
-0.0183575
-0.0189417
-0.0195528
-0.0201884
-0.0208453
-0.0215193
-0.0222056
-0.0228985
-0.0235915
-0.0242773
-0.0249481
-0.0255951
-0.026209
-0.0267798
-0.0272973
-0.0277504
-0.0281281
-0.0284191
-0.0286122
-0.0286964
-0.0286611
-0.0284967
-0.0281942
-0.0277465
-0.0271479
-0.0263948
-0.0254862
-0.0244241
-0.0232134
-0.021863
-0.0203854
-0.0187974
-0.0171199
-0.0153781
-0.013601
-0.0118212
-0.0100741
-0.00839711
-0.0068285
-0.0054059
-0.00416495
-0.00313762
-0.00235066
-0.00182413
-0.00157032
-0.0015929
-0.00188676
-0.00243825
-0.00322616
-0.0042239
-0.00540057
-0.00671354
-0.00812173
-0.00972057
-0.0115951
-0.0113797
-0.0122622
-0.0129566
-0.0135252
-0.0140436
-0.0145199
-0.0149617
-0.0153808
-0.0157883
-0.016194
-0.0166064
-0.0170328
-0.0174794
-0.0179509
-0.0184512
-0.0189827
-0.0195469
-0.0201443
-0.0207744
-0.0214358
-0.022126
-0.0228418
-0.0235792
-0.024333
-0.0250975
-0.0258659
-0.0266308
-0.0273838
-0.0281157
-0.0288168
-0.0294764
-0.0300834
-0.0306259
-0.031092
-0.0314692
-0.0317449
-0.0319069
-0.031943
-0.031842
-0.0315934
-0.031188
-0.0306183
-0.0298789
-0.0289671
-0.0278828
-0.0266296
-0.0252148
-0.02365
-0.0219513
-0.0201396
-0.0182404
-0.0162841
-0.0143054
-0.0123426
-0.010437
-0.00863135
-0.00696886
-0.0054911
-0.00423633
-0.00323761
-0.00252098
-0.00210399
-0.00199459
-0.0021906
-0.00267982
-0.003441
-0.0044461
-0.0056616
-0.00704056
-0.00853735
-0.010255
-0.0122847
-0.0130125
-0.0138838
-0.0145711
-0.0151361
-0.015653
-0.0161303
-0.0165754
-0.0170003
-0.0174164
-0.0178334
-0.0182601
-0.0187041
-0.0191716
-0.0196679
-0.0201966
-0.0207607
-0.0213617
-0.0220003
-0.022676
-0.0233876
-0.0241328
-0.0249082
-0.0257099