/*--------------------------------*- C++ -*----------------------------------*\
  =========                 |
  \\      /  F ield         | OpenFOAM: The Open Source CFD Toolbox
   \\    /   O peration     | Website:  https://openfoam.org
    \\  /    A nd           | Version:  dev
     \\/     M anipulation  |
\*---------------------------------------------------------------------------*/
FoamFile
{
    format      ascii;
    class       surfaceScalarField;
    location    "44.55";
    object      phi;
}
// * * * * * * * * * * * * * * * * * * * * * * * * * * * * * * * * * * * * * //

dimensions      [0 3 -1 0 0 0 0];

internalField   nonuniform List<scalar> 
10224
(
3.40523e-08
-3.46517e-08
8.80082e-08
-5.39715e-08
1.2455e-07
-3.65341e-08
1.25507e-07
-9.50917e-10
8.38694e-08
4.16399e-08
-1.64315e-09
8.55107e-08
-1.29201e-07
1.27557e-07
-2.95504e-07
1.66304e-07
-4.96491e-07
2.00987e-07
-7.2786e-07
2.31369e-07
-9.85338e-07
2.5748e-07
-1.26483e-06
2.79497e-07
-1.56251e-06
2.97674e-07
-1.8748e-06
3.12293e-07
-2.19844e-06
3.2364e-07
-2.53043e-06
3.31983e-07
-2.86798e-06
3.37557e-07
-3.20855e-06
3.40563e-07
-3.54971e-06
3.41163e-07
-3.88919e-06
3.39479e-07
-4.22478e-06
3.35597e-07
-4.55435e-06
3.29568e-07
-4.87577e-06
3.21419e-07
-5.18692e-06
3.11151e-07
-5.48568e-06
2.98753e-07
-5.76988e-06
2.84204e-07
-6.03736e-06
2.67481e-07
-6.28593e-06
2.48568e-07
-6.51339e-06
2.2746e-07
-6.71756e-06
2.04172e-07
-6.8963e-06
1.78741e-07
-7.04754e-06
1.51236e-07
-7.16929e-06
1.21757e-07
-7.25974e-06
9.04462e-08
-7.31722e-06
5.74828e-08
-7.34031e-06
2.30897e-08
-7.32784e-06
-1.24671e-08
-7.27897e-06
-4.88792e-08
-7.19317e-06
-8.57969e-08
-7.07034e-06
-1.22833e-07
-6.91077e-06
-1.59566e-07
-6.71522e-06
-1.95547e-07
-6.48492e-06
-2.30306e-07
-6.22156e-06
-2.63359e-07
-5.92734e-06
-2.94218e-07
-5.60494e-06
-3.22401e-07
-5.25749e-06
-3.47443e-07
-4.88859e-06
-3.68903e-07
-4.50221e-06
-3.86381e-07
-4.10269e-06
-3.99522e-07
-3.69466e-06
-4.0803e-07
-3.28298e-06
-4.11676e-07
-2.87268e-06
-4.10304e-07
-2.46884e-06
-4.03838e-07
-2.07655e-06
-3.92289e-07
-1.70079e-06
-3.75753e-07
-1.34638e-06
-3.54415e-07
-1.01783e-06
-3.28549e-07
-7.19313e-07
-2.98518e-07
-4.54545e-07
-2.64769e-07
-2.26703e-07
-2.27842e-07
-3.83318e-08
-1.8837e-07
1.08762e-07
-1.47093e-07
2.13641e-07
-1.04881e-07
2.76419e-07
-6.27822e-08
2.98533e-07
-2.21151e-08
2.83166e-07
1.53694e-08
2.35914e-07
4.7252e-08
1.65844e-07
7.00669e-08
8.72613e-08
7.8579e-08
2.25521e-08
6.47018e-08
2.25392e-08
5.40521e-08
-8.87191e-08
1.12625e-07
-1.12531e-07
1.18448e-07
-4.23451e-08
3.91328e-08
7.83656e-08
-1.41728e-07
2.22501e-07
-4.29463e-07
3.73244e-07
-8.22311e-07
5.20404e-07
-1.31413e-06
6.58118e-07
-1.89634e-06
7.83204e-07
-2.55914e-06
8.94173e-07
-3.29225e-06
9.90591e-07
-4.08542e-06
1.07266e-06
-4.92871e-06
1.14097e-06
-5.8127e-06
1.19627e-06
-6.72847e-06
1.23942e-06
-7.66771e-06
1.27122e-06
-8.6226e-06
1.29245e-06
-9.58579e-06
1.30376e-06
-1.05503e-05
1.3057e-06
-1.15096e-05
1.29871e-06
-1.24571e-05
1.2831e-06
-1.33865e-05
1.25906e-06
-1.42919e-05
1.22673e-06
-1.51668e-05
1.18614e-06
-1.60054e-05
1.1373e-06
-1.68014e-05
1.08019e-06
-1.75487e-05
1.01477e-06
-1.82411e-05
9.41048e-07
-1.88728e-05
8.59068e-07
-1.94375e-05
7.68944e-07
-1.99297e-05
6.70878e-07
-2.03436e-05
5.65183e-07
-2.06741e-05
4.52292e-07
-2.09165e-05
3.32775e-07
-2.10663e-05
2.07345e-07
-2.11201e-05
7.68685e-08
-2.10749e-05
-5.76394e-08
-2.09288e-05
-1.95013e-07
-2.06807e-05
-3.33944e-07
-2.03305e-05
-4.72994e-07
-1.98795e-05
-6.1061e-07
-1.93299e-05
-7.45146e-07
-1.86853e-05
-8.74883e-07
-1.79506e-05
-9.98066e-07
-1.71319e-05
-1.11293e-06
-1.62365e-05
-1.21773e-06
-1.52732e-05
-1.3108e-06
-1.42515e-05
-1.39057e-06
-1.31823e-05
-1.45558e-06
-1.20772e-05
-1.50459e-06
-1.09487e-05
-1.53655e-06
-9.80976e-06
-1.55063e-06
-8.67375e-06
-1.54632e-06
-7.55425e-06
-1.52334e-06
-6.46477e-06
-1.48177e-06
-5.41855e-06
-1.42197e-06
-4.4283e-06
-1.34466e-06
-3.50598e-06
-1.25087e-06
-2.66252e-06
-1.14197e-06
-1.90763e-06
-1.01966e-06
-1.24948e-06
-8.85994e-07
-6.94476e-07
-7.43382e-07
-2.46914e-07
-5.94658e-07
9.136e-08
-4.43155e-07
3.21427e-07
-2.92849e-07
4.47888e-07
-1.48577e-07
4.79753e-07
-1.64938e-08
4.31506e-07
9.55006e-08
3.24604e-07
1.76973e-07
1.8908e-07
2.14114e-07
6.44112e-08
1.89376e-07
8.69457e-08
3.74302e-08
-1.26142e-07
4.34845e-08
-1.18574e-07
-4.30911e-08
4.42345e-08
-2.58578e-07
2.93852e-07
-6.22595e-07
5.86515e-07
-1.14226e-06
8.92908e-07
-1.81584e-06
1.19398e-06
-2.63568e-06
1.47796e-06
-3.5904e-06
1.73793e-06
-4.66649e-06
1.97026e-06
-5.84936e-06
2.17346e-06
-7.12412e-06
2.34743e-06
-8.47607e-06
2.49291e-06
-9.89094e-06
2.61114e-06
-1.13551e-05
2.70359e-06
-1.28556e-05
2.77174e-06
-1.43802e-05
2.81704e-06
-1.59172e-05
2.84074e-06
-1.74554e-05
2.84393e-06
-1.89842e-05
2.82747e-06
-2.04931e-05
2.792e-06
-2.1972e-05
2.73796e-06
-2.34109e-05
2.66564e-06
-2.48e-05
2.5752e-06
-2.61293e-05
2.46668e-06
-2.73893e-05
2.34012e-06
-2.85701e-05
2.19554e-06
-2.9662e-05
2.03304e-06
-3.06558e-05
1.85279e-06
-3.1542e-05
1.65514e-06
-3.23117e-05
1.44062e-06
-3.29565e-05
1.20997e-06
-3.34684e-05
9.64202e-07
-3.38402e-05
7.04607e-07
-3.40656e-05
4.32769e-07
-3.41394e-05
1.50585e-07
-3.40573e-05
-1.39742e-07
-3.38166e-05
-4.35703e-07
-3.3416e-05
-7.34502e-07
-3.28559e-05
-1.03308e-06
-3.21384e-05
-1.32815e-06
-3.12673e-05
-1.61625e-06
-3.02484e-05
-1.89376e-06
-2.90895e-05
-2.15702e-06
-2.78001e-05
-2.40233e-06
-2.63917e-05
-2.62607e-06
-2.48778e-05
-2.82477e-06
-2.32732e-05
-2.99515e-06
-2.15945e-05
-3.13424e-06
-1.98597e-05
-3.23944e-06
-1.80876e-05
-3.30858e-06
-1.62983e-05
-3.34e-06
-1.4512e-05
-3.3326e-06
-1.27494e-05
-3.28589e-06
-1.10312e-05
-3.20002e-06
-9.37732e-06
-3.07582e-06
-7.80717e-06
-2.91481e-06
-6.33884e-06
-2.71921e-06
-4.98886e-06
-2.49195e-06
-3.77185e-06
-2.23668e-06
-2.70003e-06
-1.95781e-06
-1.78288e-06
-1.66053e-06
-1.02663e-06
-1.35091e-06
-4.33745e-07
-1.03604e-06
-2.30999e-09
-7.24285e-07
2.74763e-07
-4.25656e-07
4.1055e-07
-1.52286e-07
4.25309e-07
8.07377e-08
3.47683e-07
2.54591e-07
2.15891e-07
3.45894e-07
7.86914e-08
3.26584e-07
1.65637e-07
1.96309e-09
-1.28098e-07
-7.88497e-08
-3.77602e-08
-2.97558e-07
2.62941e-07
-6.87904e-07
6.84197e-07
-1.26821e-06
1.16682e-06
-2.04477e-06
1.66946e-06
-3.01477e-06
2.16399e-06
-4.16896e-06
2.63215e-06
-5.49375e-06
3.06272e-06
-6.97279e-06
3.4493e-06
-8.58824e-06
3.78891e-06
-1.03216e-05
4.0808e-06
-1.21544e-05
4.32568e-06
-1.40684e-05
4.52514e-06
-1.6046e-05
4.68121e-06
-1.80704e-05
4.7961e-06
-2.01252e-05
4.87192e-06
-2.21951e-05
4.91064e-06
-2.42651e-05
4.91392e-06
-2.63208e-05
4.88312e-06
-2.83481e-05
4.81929e-06
-3.03333e-05
4.72319e-06
-3.2263e-05
4.59532e-06
-3.41238e-05
4.43599e-06
-3.59025e-05
4.2454e-06
-3.75861e-05
4.02368e-06
-3.91615e-05
3.77099e-06
-4.06161e-05
3.48762e-06
-4.19373e-05
3.174e-06
-4.3113e-05
2.83085e-06
-4.41316e-05
2.45918e-06
-4.4982e-05
2.06039e-06
-4.56541e-05
1.6363e-06
-4.61387e-05
1.1892e-06
-4.64278e-05
7.21864e-07
-4.65147e-05
2.37575e-07
-4.63946e-05
-2.59883e-07
-4.60641e-05
-7.6623e-07
-4.55219e-05
-1.27673e-06
-4.47687e-05
-1.7862e-06
-4.38077e-05
-2.28914e-06
-4.26443e-05
-2.77971e-06
-4.12861e-05
-3.2519e-06
-3.97436e-05
-3.69957e-06
-3.80293e-05
-4.11659e-06
-3.61585e-05
-4.49694e-06
-3.41484e-05
-4.83484e-06
-3.20186e-05
-5.1249e-06
-2.97907e-05
-5.36219e-06
-2.74877e-05
-5.54241e-06
-2.51343e-05
-5.66199e-06
-2.27561e-05
-5.7182e-06
-2.03795e-05
-5.70923e-06
-1.80311e-05
-5.63431e-06
-1.57374e-05
-5.49372e-06
-1.35243e-05
-5.28887e-06
-1.14168e-05
-5.02236e-06
-9.43805e-06
-4.69793e-06
-7.60944e-06
-4.32056e-06
-5.94969e-06
-3.89644e-06
-4.47449e-06
-3.43301e-06
-3.19596e-06
-2.93906e-06
-2.12205e-06
-2.42482e-06
-1.25597e-06
-1.90213e-06
-5.95443e-07
-1.38481e-06
-1.32038e-07
-8.89064e-07
1.49763e-07
-4.34095e-07
2.73452e-07
-4.29477e-08
2.71507e-07
2.56545e-07
1.86437e-07
4.30954e-07
7.22616e-08
4.40761e-07
2.37899e-07
-4.20277e-08
-8.60688e-08
-2.30008e-07
1.50218e-07
-6.06594e-07
6.39525e-07
-1.1984e-06
1.276e-06
-2.01917e-06
1.98759e-06
-3.07208e-06
2.72237e-06
-4.35196e-06
3.44386e-06
-5.84736e-06
4.12755e-06
-7.54241e-06
4.75777e-06
-9.4183e-06
5.3252e-06
-1.14545e-05
5.82509e-06
-1.36295e-05
6.25583e-06
-1.59217e-05
6.61792e-06
-1.83098e-05
6.91316e-06
-2.07726e-05
7.14409e-06
-2.32901e-05
7.31355e-06
-2.58425e-05
7.42437e-06
-2.84111e-05
7.47918e-06
-3.09774e-05
7.48026e-06
-3.35238e-05
7.42952e-06
-3.6033e-05
7.32844e-06
-3.84879e-05
7.17813e-06
-4.0872e-05
6.97938e-06
-4.31687e-05
6.73271e-06
-4.53618e-05
6.43851e-06
-4.74352e-05
6.0971e-06
-4.93731e-05
5.70889e-06
-5.11599e-05
5.27442e-06
-5.27805e-05
4.79454e-06
-5.42201e-05
4.27046e-06
-5.54648e-05
3.70389e-06
-5.65014e-05
3.09705e-06
-5.7318e-05
2.45282e-06
-5.79035e-05
1.77475e-06
-5.82487e-05
1.06709e-06
-5.8346e-05
3.3483e-07
-5.81896e-05
-4.16323e-07
-5.77758e-05
-1.17994e-06
-5.71036e-05
-1.94895e-06
-5.61742e-05
-2.71565e-06
-5.49915e-05
-3.47186e-06
-5.35622e-05
-4.20897e-06
-5.1896e-05
-4.91808e-06
-5.00054e-05
-5.59018e-06
-4.79058e-05
-6.21623e-06
-4.56153e-05
-6.78741e-06
-4.31549e-05
-7.29526e-06
-4.05479e-05
-7.73184e-06
-3.78202e-05
-8.08995e-06
-3.49993e-05
-8.36331e-06
-3.21146e-05
-8.54668e-06
-2.91967e-05
-8.63607e-06
-2.62771e-05
-8.62886e-06
-2.33875e-05
-8.52392e-06
-2.05595e-05
-8.3217e-06
-1.78241e-05
-8.0243e-06
-1.52108e-05
-7.63557e-06
-1.27477e-05
-7.1611e-06
-1.046e-05
-6.60826e-06
-8.37017e-06
-5.98625e-06
-6.49706e-06
-5.30612e-06
-4.85523e-06
-4.5809e-06
-3.4544e-06
-3.82564e-06
-2.29881e-06
-3.05773e-06
-1.38647e-06
-2.29715e-06
-7.08542e-07
-1.567e-06
-2.48528e-07
-8.94111e-07
1.84426e-08
-3.0992e-07
1.26447e-07
1.48547e-07
1.19646e-07
4.37757e-07
5.37065e-08
5.06699e-07
2.91606e-07
-8.944e-08
3.3697e-09
-3.95403e-07
4.56178e-07
-9.453e-07
1.18942e-06
-1.75573e-06
2.08643e-06
-2.83352e-06
3.06537e-06
-4.17689e-06
4.06574e-06
-5.77699e-06
5.04397e-06
-7.61944e-06
5.97001e-06
-9.68577e-06
6.82409e-06
-1.19547e-05
7.59409e-06
-1.4403e-05
8.27348e-06
-1.70069e-05
8.85971e-06
-1.9742e-05
9.35298e-06
-2.25841e-05
9.75522e-06
-2.55093e-05
1.00694e-05
-2.84947e-05
1.02989e-05
-3.15176e-05
1.04473e-05
-3.45561e-05
1.05177e-05
-3.75892e-05
1.05133e-05
-4.05959e-05
1.04363e-05
-4.35561e-05
1.02887e-05
-4.645e-05
1.0072e-05
-4.92579e-05
9.78732e-06
-5.19607e-05
9.43546e-06
-5.45392e-05
9.01703e-06
-5.69747e-05
8.53264e-06
-5.92488e-05
7.983e-06
-6.13435e-05
7.36905e-06
-6.32411e-05
6.69215e-06
-6.49248e-05
5.95418e-06
-6.63786e-05
5.15768e-06
-6.75875e-05
4.30592e-06
-6.85377e-05
3.40303e-06
-6.9217e-05
2.45405e-06
-6.96148e-05
1.46497e-06
-6.97228e-05
4.42778e-07
-6.95345e-05
-6.04595e-07
-6.90462e-05
-1.66826e-06
-6.82567e-05
-2.73845e-06
-6.71677e-05
-3.80462e-06
-6.5784e-05
-4.85554e-06
-6.41136e-05
-5.87944e-06
-6.21675e-05
-6.86419e-06
-5.99601e-05
-7.7975e-06
-5.75093e-05
-8.66709e-06
-5.48357e-05
-9.46096e-06
-5.19634e-05
-1.01676e-05
-4.8919e-05
-1.07762e-05
-4.57318e-05
-1.12771e-05
-4.24335e-05
-1.16617e-05
-3.90574e-05
-1.19228e-05
-3.56384e-05
-1.2055e-05
-3.22124e-05
-1.20549e-05
-2.88156e-05
-1.19207e-05
-2.5484e-05
-1.16532e-05
-2.22531e-05
-1.12552e-05
-1.91568e-05
-1.07319e-05
-1.62269e-05
-1.0091e-05
-1.34926e-05
-9.34253e-06
-1.09798e-05
-8.49907e-06
-8.71018e-06
-7.57572e-06
-6.70089e-06
-6.59019e-06
-4.96358e-06
-5.56295e-06
-3.5039e-06
-4.5174e-06
-2.32082e-06
-3.48023e-06
-1.40596e-06
-2.48187e-06
-7.42993e-07
-1.55709e-06
-3.07056e-07
-7.45862e-07
-6.41599e-08
-9.43565e-08
2.9483e-08
3.44117e-07
2.83544e-08
5.07829e-07
3.19963e-07
-1.37671e-07
1.4104e-07
-5.66457e-07
8.84962e-07
-1.29784e-06
1.9208e-06
-2.33693e-06
3.12551e-06
-3.68203e-06
4.41047e-06
-5.32507e-06
5.70879e-06
-7.25245e-06
6.97135e-06
-9.44604e-06
8.1636e-06
-1.18843e-05
9.26234e-06
-1.45432e-05
1.0253e-05
-1.73972e-05
1.11275e-05
-2.04198e-05
1.18824e-05
-2.35844e-05
1.25176e-05
-2.68643e-05
1.30351e-05
-3.02334e-05
1.34384e-05
-3.36658e-05
1.37314e-05
-3.71367e-05
1.39181e-05
-4.06215e-05
1.40025e-05
-4.40964e-05
1.39882e-05
-4.75381e-05
1.3878e-05
-5.09237e-05
1.36743e-05
-5.42309e-05
1.33792e-05
-5.74375e-05
1.29939e-05
-6.05217e-05
1.25197e-05
-6.34621e-05
1.19574e-05
-6.62374e-05
1.1308e-05
-6.8827e-05
1.05725e-05
-7.12105e-05
9.75255e-06
-7.33683e-05
8.84997e-06
-7.52816e-05
7.86748e-06
-7.69325e-05
6.80861e-06
-7.83044e-05
5.67784e-06
-7.93822e-05
4.48075e-06
-8.01522e-05
3.22408e-06
-8.0603e-05
1.91579e-06
-8.07253e-05
5.65088e-07
-8.05123e-05
-8.17603e-07
-7.99599e-05
-2.22066e-06
-7.9067e-05
-3.63136e-06
-7.78357e-05
-5.03597e-06
-7.62713e-05
-6.41993e-06
-7.43827e-05
-7.76801e-06
-7.21824e-05
-9.06451e-06
-6.96863e-05
-1.02936e-05
-6.69141e-05
-1.14393e-05
-6.38888e-05
-1.24862e-05
-6.06369e-05
-1.34195e-05
-5.71878e-05
-1.42253e-05
-5.35741e-05
-1.48909e-05
-4.98305e-05
-1.54052e-05
-4.59942e-05
-1.57591e-05
-4.21038e-05
-1.59455e-05
-3.81989e-05
-1.59598e-05
-3.43198e-05
-1.57998e-05
-3.05066e-05
-1.54664e-05
-2.67987e-05
-1.49631e-05
-2.32339e-05
-1.42967e-05
-1.9848e-05
-1.3477e-05
-1.66736e-05
-1.25169e-05
-1.374e-05
-1.14327e-05
-1.10719e-05
-1.02439e-05
-8.68892e-06
-8.97313e-06
-6.60513e-06
-7.64674e-06
-4.82801e-06
-6.29452e-06
-3.35806e-06
-4.95018e-06
-2.18815e-06
-3.65177e-06
-1.30308e-06
-2.44216e-06
-6.79083e-07
-1.36986e-06
-2.83516e-07
-4.89934e-07
-7.4481e-08
1.35082e-07
-5.47483e-10
4.33897e-07
3.19417e-07
-1.85476e-07
3.26515e-07
-7.38279e-07
1.43776e-06
-1.65443e-06
2.83695e-06
-2.92695e-06
4.39803e-06
-4.54475e-06
6.02828e-06
-6.49252e-06
7.65656e-06
-8.75102e-06
9.22985e-06
-1.12977e-05
1.07103e-05
-1.41075e-05
1.20721e-05
-1.71534e-05
1.32989e-05
-2.04072e-05
1.43813e-05
-2.38401e-05
1.53153e-05
-2.74232e-05
1.61006e-05
-3.11276e-05
1.67395e-05
-3.49248e-05
1.72357e-05
-3.87871e-05
1.75937e-05
-4.26872e-05
1.78182e-05
-4.65984e-05
1.79137e-05
-5.04945e-05
1.78843e-05
-5.43501e-05
1.77335e-05
-5.814e-05
1.74642e-05
-6.18394e-05
1.70786e-05
-6.54241e-05
1.65786e-05
-6.887e-05
1.59656e-05
-7.21535e-05
1.52408e-05
-7.52512e-05
1.44057e-05
-7.81403e-05
1.34617e-05
-8.07987e-05
1.24109e-05
-8.32047e-05
1.1256e-05
-8.53378e-05
1.00006e-05
-8.71786e-05
8.64939e-06
-8.87089e-05
7.20813e-06
-8.99122e-05
5.68405e-06
-9.07739e-05
4.08575e-06
-9.12814e-05
2.42335e-06
-9.14248e-05
7.08486e-07
-9.11967e-05
-1.04572e-06
-9.05927e-05
-2.82468e-06
-8.96116e-05
-4.61247e-06
-8.82556e-05
-6.39195e-06
-8.65306e-05
-8.14496e-06
-8.44461e-05
-9.85251e-06
-8.20155e-05
-1.14951e-05
-7.92561e-05
-1.3053e-05
-7.61889e-05
-1.45064e-05
-7.2839e-05
-1.58362e-05
-6.92349e-05
-1.70237e-05
-6.54083e-05
-1.80518e-05
-6.13946e-05
-1.89046e-05
-5.72314e-05
-1.95684e-05
-5.29589e-05
-2.00316e-05
-4.8619e-05
-2.02853e-05
-4.42552e-05
-2.03237e-05
-3.99111e-05
-2.01439e-05
-3.56308e-05
-1.97467e-05
-3.14573e-05
-1.91366e-05
-2.74322e-05
-1.83218e-05
-2.35949e-05
-1.73142e-05
-1.99818e-05
-1.613e-05
-1.66254e-05
-1.47891e-05
-1.35535e-05
-1.33157e-05
-1.07889e-05
-1.17378e-05
-8.34794e-06
-1.00877e-05
-6.24065e-06
-8.40181e-06
-4.46958e-06
-6.72125e-06
-3.02958e-06
-5.09178e-06
-1.90731e-06
-3.56444e-06
-1.08097e-06
-2.19619e-06
-5.20201e-07
-1.05071e-06
-1.86007e-07
-1.99112e-07
-3.10409e-08
2.78929e-07
2.88378e-07
-2.32213e-07
5.58728e-07
-9.08108e-07
2.11366e-06
-2.00908e-06
3.93792e-06
-3.51605e-06
5.90501e-06
-5.40816e-06
7.92039e-06
-7.66225e-06
9.91065e-06
-1.02529e-05
1.18205e-05
-1.31525e-05
1.361e-05
-1.63321e-05
1.52517e-05
-1.97614e-05
1.67281e-05
-2.34094e-05
1.80293e-05
-2.72449e-05
1.91508e-05
-3.12368e-05
2.00925e-05
-3.5354e-05
2.08568e-05
-3.95664e-05
2.1448e-05
-4.38439e-05
2.18712e-05
-4.81574e-05
2.21317e-05
-5.24783e-05
2.22346e-05
-5.67786e-05
2.21845e-05
-6.10306e-05
2.19855e-05
-6.52073e-05
2.16409e-05
-6.92819e-05
2.11533e-05
-7.32282e-05
2.05249e-05
-7.70202e-05
1.97576e-05
-8.06323e-05
1.88529e-05
-8.40393e-05
1.78127e-05
-8.72166e-05
1.66389e-05
-9.01401e-05
1.53344e-05
-9.27868e-05
1.39027e-05
-9.51344e-05
1.23482e-05
-9.71619e-05
1.06769e-05
-9.885e-05
8.89618e-06
-0.000100181
7.01484e-06
-0.000101139
5.04356e-06
-0.00010171
2.99473e-06
-0.000101884
8.8259e-07
-0.000101653
-1.27686e-06
-0.000101012
-3.46591e-06
-9.99589e-05
-5.66522e-06
-9.84969e-05
-7.85403e-06
-9.66314e-05
-1.00104e-05
-9.43727e-05
-1.21113e-05
-9.17346e-05
-1.41332e-05
-8.87353e-05
-1.60522e-05
-8.53972e-05
-1.78445e-05
-8.17465e-05
-1.94868e-05
-7.78136e-05
-2.09566e-05
-7.36323e-05
-2.22331e-05
-6.92401e-05
-2.32969e-05
-6.46772e-05
-2.41313e-05
-5.99867e-05
-2.47221e-05
-5.52135e-05
-2.50585e-05
-5.04043e-05
-2.51329e-05
-4.56063e-05
-2.49419e-05
-4.0867e-05
-2.4486e-05
-3.62332e-05
-2.37704e-05
-3.17503e-05
-2.28047e-05
-2.74614e-05
-2.16032e-05
-2.34064e-05
-2.0185e-05
-1.96214e-05
-1.85741e-05
-1.61378e-05
-1.67993e-05
-1.29815e-05
-1.48942e-05
-1.01719e-05
-1.28973e-05
-7.72175e-06
-1.08519e-05
-5.63642e-06
-8.80658e-06
-3.91325e-06
-6.81495e-06
-2.54143e-06
-4.93626e-06
-1.5018e-06
-3.23581e-06
-7.66915e-07
-1.7856e-06
-3.0128e-07
-6.64746e-07
-6.20224e-08
3.96692e-08
2.26356e-07
-2.77604e-07
8.36332e-07
-1.07441e-06
2.91047e-06
-2.35813e-06
5.22164e-06
-4.09794e-06
7.64482e-06
-6.26308e-06
1.00855e-05
-8.82229e-06
1.24699e-05
-1.17435e-05
1.47417e-05
-1.49939e-05
1.68604e-05
-1.85401e-05
1.87979e-05
-2.23483e-05
2.05363e-05
-2.63846e-05
2.20656e-05
-3.06153e-05
2.33815e-05
-3.5007e-05
2.44842e-05
-3.95269e-05
2.53767e-05
-4.41427e-05
2.60639e-05
-4.88229e-05
2.65514e-05
-5.35364e-05
2.68453e-05
-5.82531e-05
2.69512e-05
-6.29431e-05
2.68745e-05
-6.75771e-05
2.66196e-05
-7.21264e-05
2.61902e-05
-7.65626e-05
2.55895e-05
-8.08576e-05
2.48199e-05
-8.49837e-05
2.38837e-05
-8.89137e-05
2.27829e-05
-9.26207e-05
2.15197e-05
-9.60786e-05
2.00968e-05
-9.92616e-05
1.85175e-05
-0.000102145
1.67862e-05
-0.000104706
1.49087e-05
-0.000106921
1.2892e-05
-0.00010877
1.07451e-05
-0.000110233
8.47857e-06
-0.000111295
6.10529e-06
-0.00011194
3.64004e-06
-0.000112158
1.09975e-06
-0.000111938
-1.49658e-06
-0.000111276
-4.12794e-06
-0.00011017
-6.77147e-06
-0.000108621
-9.40261e-06
-0.000106636
-1.19954e-05
-0.000104225
-1.45227e-05
-0.000101401
-1.69567e-05
-9.81843e-05
-1.9269e-05
-9.45972e-05
-2.14316e-05
-9.06673e-05
-2.34167e-05
-8.64262e-05
-2.51978e-05
-8.19094e-05
-2.67498e-05
-7.71563e-05
-2.805e-05
-7.22094e-05
-2.90782e-05
-6.71143e-05
-2.98172e-05
-6.19189e-05
-3.02539e-05
-5.66728e-05
-3.0379e-05
-5.14266e-05
-3.0188e-05
-4.62314e-05
-2.96812e-05
-4.11377e-05
-2.88641e-05
-3.61946e-05
-2.77477e-05
-3.14492e-05
-2.63486e-05
-2.69453e-05
-2.46889e-05
-2.27227e-05
-2.27966e-05
-1.88167e-05
-2.07053e-05
-1.52567e-05
-1.84542e-05
-1.20656e-05
-1.60883e-05
-9.25971e-06
-1.36579e-05
-6.84731e-06
-1.1219e-05
-4.82895e-06
-8.83331e-06
-3.19688e-06
-6.56833e-06
-1.93508e-06
-4.49762e-06
-1.01942e-06
-2.70126e-06
-4.18186e-07
-1.26598e-06
-9.29382e-08
-2.85579e-07
1.33417e-07
-3.21534e-07
1.15787e-06
-1.23633e-06
3.82526e-06
-2.69935e-06
6.68467e-06
-4.66847e-06
9.61395e-06
-7.10322e-06
1.25203e-05
-9.96412e-06
1.53307e-05
-1.32123e-05
1.79899e-05
-1.68094e-05
2.04575e-05
-2.07175e-05
2.2706e-05
-2.48991e-05
2.47179e-05
-2.93171e-05
2.64836e-05
-3.39354e-05
2.79998e-05
-3.87184e-05
2.92672e-05
-4.36314e-05
3.02896e-05
-4.86403e-05
3.10728e-05
-5.37119e-05
3.16231e-05
-5.88138e-05
3.19472e-05
-6.39142e-05
3.20516e-05
-6.89819e-05
3.19422e-05
-7.39861e-05
3.16238e-05
-7.88965e-05
3.11007e-05
-8.36834e-05
3.03763e-05
-8.83171e-05
2.94536e-05
-9.27685e-05
2.83352e-05
-9.7009e-05
2.70233e-05
-0.00010101
2.55209e-05
-0.000104744
2.3831e-05
-0.000108185
2.19578e-05
-0.000111305
1.99065e-05
-0.00011408
1.7684e-05
-0.000116487
1.52987e-05
-0.000118503
1.27611e-05
-0.000120108
1.00838e-05
-0.000121285
7.28178e-06
-0.000122017
4.37224e-06
-0.000122292
1.37492e-06
-0.000122101
-1.68809e-06
-0.000121436
-4.79241e-06
-0.000120296
-7.9115e-06
-0.000118682
-1.10169e-05
-0.000116599
-1.40785e-05
-0.000114057
-1.70648e-05
-0.00011107
-1.99435e-05
-0.000107657
-2.26816e-05
-0.000103842
-2.52465e-05
-9.96532e-05
-2.76058e-05
-9.51223e-05
-2.97286e-05
-9.02868e-05
-3.15854e-05
-8.51875e-05
-3.31494e-05
-7.98689e-05
-3.43967e-05
-7.43791e-05
-3.5307e-05
-6.87686e-05
-3.58645e-05
-6.30899e-05
-3.60577e-05
-5.73971e-05
-3.58808e-05
-5.17448e-05
-3.53336e-05
-4.61872e-05
-3.44217e-05
-4.07776e-05
-3.31573e-05
-3.55671e-05
-3.15591e-05
-3.06036e-05
-2.96524e-05
-2.59314e-05
-2.74688e-05
-2.15897e-05
-2.5047e-05
-1.7612e-05
-2.2432e-05
-1.40254e-05
-1.96749e-05
-1.08497e-05
-1.68335e-05
-8.09718e-06
-1.39715e-05
-5.77186e-06
-1.11586e-05
-3.86951e-06
-8.47067e-06
-2.37764e-06
-5.9895e-06
-1.27571e-06
-3.80319e-06
-5.35794e-07
-2.00589e-06
-1.23585e-07
-6.97787e-07
9.83101e-09
-3.63962e-07
1.52183e-06
-1.39338e-06
4.85468e-06
-3.03133e-06
8.32261e-06
-5.22489e-06
1.18075e-05
-7.92415e-06
1.52195e-05
-1.10815e-05
1.84881e-05
-1.46513e-05
2.15597e-05
-1.85895e-05
2.43956e-05
-2.28533e-05
2.69698e-05
-2.74016e-05
2.92661e-05
-3.21941e-05
3.12762e-05
-3.71921e-05
3.29978e-05
-4.23578e-05
3.44329e-05
-4.76545e-05
3.55864e-05
-5.30467e-05
3.64649e-05
-5.84996e-05
3.7076e-05
-6.39795e-05
3.74271e-05
-6.94532e-05
3.75253e-05
-7.48882e-05
3.73772e-05
-8.02526e-05
3.69882e-05
-8.55149e-05
3.63629e-05
-9.06439e-05
3.55053e-05
-9.56089e-05
3.44186e-05
-0.00010038
3.31058e-05
-0.000104926
3.15695e-05
-0.000109218
2.98131e-05
-0.000113227
2.78403e-05
-0.000116925
2.5656e-05
-0.000120285
2.32663e-05
-0.00012328
2.0679e-05
-0.000125886
1.79042e-05
-0.000128078
1.49537e-05
-0.000129837
1.18421e-05
-0.000131141
8.5866e-06
-0.000131976
5.20687e-06
-0.000132327
1.72546e-06
-0.000132182
-1.83241e-06
-0.000131536
-5.43894e-06
-0.000130383
-9.06384e-06
-0.000128726
-1.26746e-05
-0.000126567
-1.62369e-05
-0.000123917
-1.97148e-05
-0.000120789
-2.30712e-05
-0.000117203
-2.62684e-05
-0.00011318
-2.92688e-05
-0.000108751
-3.20352e-05
-0.000103948
-3.45318e-05
-9.88087e-05
-3.67246e-05
-9.33759e-05
-3.85822e-05
-8.76957e-05
-4.00768e-05
-8.18184e-05
-4.11844e-05
-7.57968e-05
-4.1886e-05
-6.96868e-05
-4.21677e-05
-6.35456e-05
-4.2022e-05
-5.74315e-05
-4.14477e-05
-5.14027e-05
-4.04504e-05
-4.55168e-05
-3.90432e-05
-3.98292e-05
-3.72467e-05
-3.43927e-05
-3.50889e-05
-2.92558e-05
-3.26057e-05
-2.44626e-05
-2.98403e-05
-2.00511e-05
-2.68434e-05
-1.6053e-05
-2.36731e-05
-1.24924e-05
-2.03941e-05
-9.38582e-06
-1.70781e-05
-6.74131e-06
-1.38031e-05
-4.55857e-06
-1.06534e-05
-2.82887e-06
-7.71919e-06
-1.53543e-06
-5.09664e-06
-6.53997e-07
-2.88732e-06
-1.5399e-07
-1.19779e-06
-1.4416e-07
-4.04875e-07
1.92671e-06
-1.54528e-06
5.99509e-06
-3.35312e-06
1.01304e-05
-5.76526e-06
1.42196e-05
-8.72266e-06
1.81769e-05
-1.21698e-05
2.19353e-05
-1.60543e-05
2.54441e-05
-2.03263e-05
2.86677e-05
-2.49385e-05
3.15821e-05
-2.98457e-05
3.41733e-05
-3.50046e-05
3.64351e-05
-4.03737e-05
3.83669e-05
-4.59132e-05
3.99723e-05
-5.15845e-05
4.12577e-05
-5.73504e-05
4.22309e-05
-6.31751e-05
4.29007e-05
-6.90234e-05
4.32754e-05
-7.4861e-05
4.3363e-05
-8.06544e-05
4.31706e-05
-8.63706e-05
4.27044e-05
-9.19771e-05
4.19694e-05
-9.74416e-05
4.09699e-05
-0.000102733
3.97095e-05
-0.000107818
3.81915e-05
-0.000112668
3.6419e-05
-0.00011725
3.43957e-05
-0.000121536
3.2126e-05
-0.000125495
2.96153e-05
-0.0001291
2.68708e-05
-0.000132322
2.39013e-05
-0.000135136
2.0718e-05
-0.000137517
1.73346e-05
-0.000139442
1.37675e-05
-0.000140891
1.00358e-05
-0.000141846
6.16187e-06
-0.000142292
2.17102e-06
-0.000142216
-1.90843e-06
-0.00014161
-6.04521e-06
-0.000140468
-1.02053e-05
-0.000138791
-1.4352e-05
-0.000136581
-1.84468e-05
-0.000133847
-2.24489e-05
-0.000130601
-2.63166e-05
-0.000126863
-3.0007e-05
-0.000122654
-3.34775e-05
-0.000118003
-3.66857e-05
-0.000112945
-3.95905e-05
-0.000107516
-4.2153e-05
-0.000101761
-4.4337e-05
-9.57283e-05
-4.611e-05
-8.94687e-05
-4.7444e-05
-8.30384e-05
-4.83163e-05
-7.64959e-05
-4.87102e-05
-6.9902e-05
-4.8616e-05
-6.33187e-05
-4.80309e-05
-5.68087e-05
-4.69605e-05
-5.04338e-05
-4.54181e-05
-4.42544e-05
-4.34261e-05
-3.83282e-05
-4.10151e-05
-3.27091e-05
-3.82248e-05
-2.74462e-05
-3.51032e-05
-2.25826e-05
-3.17069e-05
-1.81551e-05
-2.81005e-05
-1.41929e-05
-2.43564e-05
-1.07169e-05
-2.05541e-05
-7.73993e-06
-1.67801e-05
-5.26586e-06
-1.31275e-05
-3.29002e-06
-9.69504e-06
-1.79938e-06
-6.58727e-06
-7.73263e-07
-3.91344e-06
-1.84329e-07
-1.78673e-06
-3.28489e-07
-4.44261e-07
2.37097e-06
-1.6918e-06
7.24263e-06
-3.66401e-06
1.21027e-05
-6.28806e-06
1.68437e-05
-9.49619e-06
2.13851e-05
-1.32252e-05
2.56643e-05
-1.74161e-05
2.9635e-05
-2.20136e-05
3.32651e-05
-2.69655e-05
3.6534e-05
-3.22227e-05
3.94306e-05
-3.77389e-05
4.19513e-05
-4.34699e-05
4.40979e-05
-4.93737e-05
4.58761e-05
-5.54101e-05
4.72941e-05
-6.15405e-05
4.83613e-05
-6.77275e-05
4.90877e-05
-7.39351e-05
4.94829e-05
-8.0128e-05
4.95558e-05
-8.62717e-05
4.93143e-05
-9.23324e-05
4.87651e-05
-9.82767e-05
4.79137e-05
-0.000104072
4.67648e-05
-0.000109684
4.53223e-05
-0.000115083
4.35899e-05
-0.000120235
4.15711e-05
-0.000125109
3.92699e-05
-0.000129674
3.66911e-05
-0.0001339
3.3841e-05
-0.000137757
3.07275e-05
-0.000141216
2.73604e-05
-0.00014425
2.37521e-05
-0.000146833
1.9918e-05
-0.000148942
1.5876e-05
-0.000150553
1.16475e-05
-0.000151649
7.25727e-06
-0.000152211
2.73328e-06
-0.000152226
-1.89303e-06
-0.000151685
-6.58697e-06
-0.000150579
-1.13107e-05
-0.000148908
-1.60236e-05
-0.000146672
-2.06825e-05
-0.000143879
-2.5242e-05
-0.00014054
-2.96553e-05
-0.000136673
-3.38744e-05
-0.000132299
-3.78512e-05
-0.000127447
-4.15379e-05
-0.00012215
-4.48878e-05
-0.000116446
-4.78565e-05
-0.000110381
-5.04025e-05
-0.000104003
-5.24882e-05
-9.73655e-05
-5.40812e-05
-9.05274e-05
-5.51544e-05
-8.35498e-05
-5.56878e-05
-7.64971e-05
-5.56687e-05
-6.94354e-05
-5.50926e-05
-6.24318e-05
-5.39642e-05
-5.5553e-05
-5.22969e-05
-4.88646e-05
-5.01144e-05
-4.243e-05
-4.74498e-05
-3.63086e-05
-4.43462e-05
-3.05552e-05
-4.08566e-05
-2.5219e-05
-3.70432e-05
-2.03422e-05
-3.29774e-05
-1.59594e-05
-2.87391e-05
-1.20971e-05
-2.44164e-05
-8.77282e-06
-2.01044e-05
-5.99517e-06
-1.59051e-05
-3.7637e-06
-1.19265e-05
-2.06923e-06
-8.28174e-06
-8.94463e-07
-5.08821e-06
-2.1488e-07
-2.46631e-06
-5.43368e-07
-4.82099e-07
2.85306e-06
-1.83273e-06
8.59326e-06
-3.96338e-06
1.42333e-05
-6.79204e-06
1.96724e-05
-1.02426e-05
2.48357e-05
-1.42446e-05
2.96663e-05
-1.87326e-05
3.4123e-05
-2.36457e-05
3.81782e-05
-2.89274e-05
4.18157e-05
-3.45248e-05
4.50279e-05
-4.03882e-05
4.78147e-05
-4.6471e-05
5.01807e-05
-5.27292e-05
5.21342e-05
-5.91208e-05
5.36856e-05
-6.56058e-05
5.48463e-05
-7.21459e-05
5.56277e-05
-7.87038e-05
5.60409e-05
-8.52436e-05
5.60957e-05
-9.17301e-05
5.58008e-05
-9.81286e-05
5.51636e-05
-0.000104405
5.41902e-05
-0.000110526
5.28857e-05
-0.000116458
5.12543e-05
-0.000122168
4.92999e-05
-0.000127623
4.70264e-05
-0.000132792
4.44381e-05
-0.000137641
4.15403e-05
-0.00014214
3.83399e-05
-0.000146258
3.48453e-05
-0.000149965
3.10676e-05
-0.000153233
2.70201e-05
-0.000156034
2.27195e-05
-0.000158344
1.81856e-05
-0.000160138
1.34418e-05
-0.000161396
8.51496e-06
-0.000162098
3.43581e-06
-0.00016223
-1.76125e-06
-0.000161779
-7.03815e-06
-0.000160736
-1.23534e-05
-0.000159098
-1.76621e-05
-0.000156864
-2.29167e-05
-0.000154039
-2.80671e-05
-0.000150633
-3.30613e-05
-0.000146661
-3.78458e-05
-0.000142145
-4.23669e-05
-0.000137112
-4.6571e-05
-0.000131595
-5.04054e-05
-0.000125631
-5.38197e-05
-0.000119267
-5.67668e-05
-0.000112552
-5.92033e-05
-0.000105542
-6.10915e-05
-9.82963e-05
-6.23997e-05
-9.08806e-05
-6.31035e-05
-8.33622e-05
-6.31871e-05
-7.58115e-05
-6.26433e-05
-6.83003e-05
-6.14753e-05
-6.09009e-05
-5.96964e-05
-5.36845e-05
-5.73308e-05
-4.67203e-05
-5.44139e-05
-4.00743e-05
-5.09923e-05
-3.38076e-05
-4.71233e-05
-2.79757e-05
-4.2875e-05
-2.26273e-05
-3.83258e-05
-1.78031e-05
-3.35633e-05
-1.35353e-05
-2.86842e-05
-9.847e-06
-2.37927e-05
-6.75174e-06
-1.90004e-05
-4.25358e-06
-1.44247e-05
-2.34727e-06
-1.0188e-05
-1.01875e-06
-6.41673e-06
-2.45988e-07
-3.23907e-06
-7.89355e-07
-5.18351e-07
3.37141e-06
-1.96786e-06
1.00428e-05
-4.25064e-06
1.65161e-05
-7.27599e-06
2.26977e-05
-1.096e-05
2.85196e-05
-1.5225e-05
3.39313e-05
-1.99996e-05
3.88976e-05
-2.52177e-05
4.33963e-05
-3.08182e-05
4.74162e-05
-3.67446e-05
5.09543e-05
-4.29442e-05
5.40143e-05
-4.93679e-05
5.66044e-05
-5.59696e-05
5.8736e-05
-6.27059e-05
6.04219e-05
-6.95354e-05
6.16759e-05
-7.64188e-05
6.25111e-05
-8.33181e-05
6.29401e-05
-9.01965e-05
6.29741e-05
-9.70182e-05
6.26225e-05
-0.000103748
6.18936e-05
-0.000110352
6.07939e-05
-0.000116795
5.9329e-05
-0.000123044
5.75033e-05
-0.000129065
5.5321e-05
-0.000134825
5.27863e-05
-0.000140291
4.99038e-05
-0.00014543
4.66792e-05
-0.00015021
4.31197e-05
-0.000154599
3.92345e-05
-0.000158567
3.50353e-05
-0.000162083
3.05367e-05
-0.00016512
2.57564e-05
-0.00016765
2.07158e-05
-0.000169649
1.54401e-05
-0.000171092
9.95834e-06
-0.00017196
4.30373e-06
-0.000172235
-1.48646e-06
-0.000171902
-7.37094e-06
-0.000170951
-1.33045e-05
-0.000169374
-1.92384e-05
-0.000167171
-2.51204e-05
-0.000164342
-3.08956e-05
-0.000160897
-3.65067e-05
-0.000156848
-4.18948e-05
-0.000152215
-4.7e-05
-0.000147023
-5.17626e-05
-0.000141305
-5.61237e-05
-0.000135098
-6.00263e-05
-0.000128448
-6.34169e-05
-0.000121405
-6.62461e-05
-0.000114027
-6.84698e-05
-0.000106376
-7.00511e-05
-9.85186e-05
-7.09607e-05
-9.05272e-05
-7.11784e-05
-8.24765e-05
-7.06941e-05
-7.44432e-05
-6.95086e-05
-6.65051e-05
-6.76344e-05
-5.874e-05
-6.5096e-05
-5.12235e-05
-6.19304e-05
-4.40285e-05
-5.81873e-05
-3.72233e-05
-5.39284e-05
-3.08706e-05
-4.92277e-05
-2.5026e-05
-4.41704e-05
-1.9737e-05
-3.88523e-05
-1.50422e-05
-3.33789e-05
-1.09709e-05
-2.78641e-05
-7.54188e-06
-2.24294e-05
-4.76407e-06
-1.72025e-05
-2.63622e-06
-1.23159e-05
-1.14747e-06
-7.90547e-06
-2.78047e-07
-4.1085e-06
-1.0674e-06
-5.52964e-07
3.92438e-06
-2.09693e-06
1.15867e-05
-4.52515e-06
1.89443e-05
-7.73874e-06
2.59113e-05
-1.16463e-05
3.24272e-05
-1.61636e-05
3.84487e-05
-2.12134e-05
4.39474e-05
-2.67246e-05
4.89075e-05
-3.26319e-05
5.33235e-05
-3.88751e-05
5.71975e-05
-4.53988e-05
6.0538e-05
-5.21515e-05
6.33571e-05
-5.90851e-05
6.56696e-05
-6.61548e-05
6.74916e-05
-7.3318e-05
6.88391e-05
-8.05345e-05
6.97276e-05
-8.77656e-05
7.01712e-05
-9.49739e-05
7.01824e-05
-0.000102123