/*--------------------------------*- C++ -*----------------------------------*\
  =========                 |
  \\      /  F ield         | OpenFOAM: The Open Source CFD Toolbox
   \\    /   O peration     | Website:  https://openfoam.org
    \\  /    A nd           | Version:  dev
     \\/     M anipulation  |
\*---------------------------------------------------------------------------*/
FoamFile
{
    format      ascii;
    class       volScalarField;
    location    "44.55";
    object      Ux;
}
// * * * * * * * * * * * * * * * * * * * * * * * * * * * * * * * * * * * * * //

dimensions      [0 1 -1 0 0 0 0];

internalField   nonuniform List<scalar> 
5184
(
1.24187e-05
4.53187e-05
8.04357e-05
9.60814e-05
8.22505e-05
3.65464e-05
-4.04868e-05
-0.00014683
-0.00027969
-0.00043601
-0.000612667
-0.000806628
-0.00101502
-0.00123519
-0.00146466
-0.00170119
-0.00194269
-0.00218725
-0.00243308
-0.00267851
-0.00292192
-0.00316176
-0.00339649
-0.00362459
-0.00384453
-0.00405477
-0.00425375
-0.00443991
-0.00461165
-0.00476741
-0.00490561
-0.00502474
-0.00512334
-0.00520002
-0.00525353
-0.00528274
-0.00528673
-0.00526475
-0.0052163
-0.00514117
-0.00503941
-0.00491139
-0.00475782
-0.00457977
-0.00437862
-0.00415614
-0.00391442
-0.0036559
-0.00338329
-0.00309961
-0.00280809
-0.00251217
-0.0022154
-0.00192146
-0.00163401
-0.00135669
-0.00109305
-0.000846458
-0.000620059
-0.000416706
-0.000238897
-8.8709e-05
3.22688e-05
0.000123022
0.000183219
0.000213365
0.000215049
0.000191324
0.00014722
9.08358e-05
3.66436e-05
6.23007e-06
2.09065e-05
6.57589e-05
9.48725e-05
7.29732e-05
-1.87801e-05
-0.000187205
-0.000432889
-0.000752614
-0.00114084
-0.00159077
-0.00209507
-0.00264629
-0.0032371
-0.00386053
-0.00450996
-0.00517919
-0.00586242
-0.0065542
-0.00724939
-0.00794311
-0.00863067
-0.00930749
-0.00996912
-0.0106111
-0.0112291
-0.0118186
-0.0123753
-0.0128947
-0.0133724
-0.0138041
-0.0141856
-0.0145127
-0.0147816
-0.0149886
-0.0151305
-0.0152044
-0.0152079
-0.0151393
-0.0149974
-0.0147819
-0.0144932
-0.0141324
-0.0137018
-0.0132043
-0.0126438
-0.0120254
-0.0113546
-0.0106382
-0.00988354
-0.00909869
-0.00829236
-0.00747376
-0.00665241
-0.00583805
-0.00504047
-0.00426935
-0.00353406
-0.00284353
-0.00220604
-0.00162908
-0.00111911
-0.000681439
-0.000319981
-3.70168e-05
0.000167089
0.000294259
0.000349247
0.00034033
0.000280006
0.00018614
8.64092e-05
1.96895e-05
1.76702e-05
4.14255e-05
1.97319e-05
-8.38675e-05
-0.000290159
-0.00060789
-0.00103832
-0.00157765
-0.00221869
-0.00295227
-0.0037681
-0.00465547
-0.00560365
-0.00660218
-0.00764099
-0.00871053
-0.0098017
-0.0109059
-0.0120149
-0.0131209
-0.0142163
-0.0152937
-0.0163459
-0.0173658
-0.0183461
-0.01928
-0.0201604
-0.0209803
-0.0217328
-0.0224112
-0.0230089
-0.0235196
-0.0239373
-0.0242567
-0.0244727
-0.0245812
-0.0245788
-0.024463
-0.0242322
-0.0238861
-0.0234257
-0.0228529
-0.0221713
-0.0213857
-0.0205024
-0.019529
-0.0184745
-0.017349
-0.016164
-0.0149318
-0.0136659
-0.0123802
-0.0110894
-0.00980813
-0.00855144
-0.00733398
-0.00617002
-0.00507309
-0.00405573
-0.00312923
-0.00230332
-0.00158589
-0.000982691
-0.000496938
-0.000128944
0.000124361
0.000270078
0.000320067
0.000291469
0.000207518
0.000102503
2.49888e-05
8.85979e-06
-6.95144e-06
-0.000107504
-0.000322311
-0.000669622
-0.00115784
-0.00178773
-0.0025545
-0.00344962
-0.00446205
-0.00557931
-0.00678819
-0.00807527
-0.0094273
-0.0108314
-0.012275
-0.0137464
-0.015234
-0.016727
-0.0182148
-0.0196871
-0.0211341
-0.0225459
-0.0239128
-0.0252254
-0.0264741
-0.0276497
-0.0287427
-0.0297442
-0.0306452
-0.0314372
-0.0321119
-0.0326618
-0.0330797
-0.0333595
-0.0334959
-0.0334847
-0.0333229
-0.0330087
-0.0325421
-0.0319242
-0.0311582
-0.0302488
-0.0292025
-0.0280276
-0.0267341
-0.0253336
-0.0238396
-0.0222669
-0.0206315
-0.0189507
-0.0172427
-0.0155262
-0.0138205
-0.0121446
-0.0105177
-0.00895796
-0.00748293
-0.00610871
-0.00484982
-0.00371874
-0.0027256
-0.00187771
-0.0011792
-0.000630549
-0.000228037
3.68116e-05
0.000177907
0.000214989
0.000174227
9.30849e-05
2.40397e-05
-2.11433e-06
-6.72669e-05
-0.0002641
-0.000609822
-0.00111694
-0.00179166
-0.002633
-0.00363458
-0.00478627
-0.00607535
-0.00748746
-0.00900735
-0.0106194
-0.0123081
-0.0140581
-0.0158546
-0.0176832
-0.0195301
-0.0213819
-0.0232256
-0.0250487
-0.0268388
-0.0285838
-0.0302718
-0.0318911
-0.0334299
-0.0348768
-0.0362204
-0.0374497
-0.0385539
-0.0395227
-0.0403463
-0.0410155
-0.041522
-0.0418586
-0.0420191
-0.0419986
-0.0417938
-0.0414028
-0.0408257
-0.0400644
-0.0391226
-0.0380063
-0.0367233
-0.0352838
-0.0336999
-0.0319856
-0.030157
-0.0282317
-0.0262291
-0.0241697
-0.0220753
-0.0199681
-0.0178711
-0.0158072
-0.0137989
-0.0118683
-0.010036
-0.00832142
-0.00674182
-0.00531217
-0.0040446
-0.00294797
-0.00202742
-0.00128391
-0.000713643
-0.000307636
-5.11054e-05
7.684e-05
0.000103716
6.75607e-05
1.96771e-05
-1.36919e-05
-0.000132842
-0.000435891
-0.00092482
-0.00160427
-0.0024768
-0.00353857
-0.00478088
-0.00619163
-0.0077563
-0.00945876
-0.0112819
-0.0132083
-0.0152204
-0.0173008
-0.0194328
-0.0215997
-0.0237857
-0.0259752
-0.0281532
-0.0303049
-0.0324159
-0.0344721
-0.0364594
-0.038364
-0.0401724
-0.0418712
-0.0434471
-0.0448874
-0.0461796
-0.0473119
-0.048273
-0.0490526
-0.0496413
-0.0500307
-0.0502141
-0.0501861
-0.049943
-0.0494829
-0.0488061
-0.0479148
-0.0468136
-0.0455093
-0.0440112
-0.0423308
-0.040482
-0.038481
-0.0363459
-0.0340971
-0.0317565
-0.0293476
-0.026895
-0.0244244
-0.0219617
-0.0195331
-0.0171644
-0.0148807
-0.0127057
-0.0106617
-0.00876847
-0.0070433
-0.0055003
-0.00414994
-0.00299858
-0.002048
-0.00129492
-0.000730547
-0.000340155
-0.00010277
9.25661e-06
3.25441e-05
1.36313e-05
-2.51887e-05
-0.000200051
-0.00061422
-0.00125322
-0.00211258
-0.00319016
-0.00447839
-0.00596554
-0.00763712
-0.00947656
-0.0114659
-0.0135862
-0.0158184
-0.0181432
-0.0205415
-0.0229946
-0.0254843
-0.0279926
-0.0305023
-0.0329965
-0.0354584
-0.0378718
-0.0402207
-0.0424893
-0.044662
-0.0467234
-0.0486584
-0.0504523
-0.0520907
-0.0535595
-0.0548458
-0.0559368
-0.0568213
-0.0574887
-0.0579301
-0.0581378
-0.0581061
-0.0578311
-0.0573107
-0.0565452
-0.0555375
-0.0542925
-0.052818
-0.0511241
-0.0492237
-0.0471321
-0.0448673
-0.0424494
-0.0399008
-0.0372457
-0.0345102
-0.0317215
-0.028908
-0.0260986
-0.0233222
-0.0206077
-0.017983
-0.0154746
-0.0131073
-0.0109035
-0.00888289
-0.00706146
-0.00545148
-0.0040608
-0.00289242
-0.00194403
-0.0012077
-0.00066947
-0.000309114
-9.97862e-05
-7.6783e-06
6.86907e-06
-3.63477e-05
-0.000267008
-0.000793962
-0.00158607
-0.00262919
-0.00391574
-0.00543376
-0.00716796
-0.009101
-0.011214
-0.013487
-0.0158995
-0.0184304
-0.021059
-0.0237647
-0.0265271
-0.0293264
-0.0321432
-0.0349585
-0.0377537
-0.0405105
-0.0432111
-0.0458377
-0.048373
-0.0507998
-0.0531012
-0.0552605
-0.0572615
-0.0590885
-0.0607262
-0.0621601
-0.0633768
-0.0643637
-0.0651095
-0.0656045
-0.0658404
-0.0658109
-0.0655118
-0.0649411
-0.064099
-0.0629884
-0.0616149
-0.0599868
-0.0581149
-0.0560132
-0.0536983
-0.0511894
-0.0485084
-0.0456793
-0.0427286
-0.0396844
-0.0365763
-0.0334352
-0.0302925
-0.0271799
-0.0241289
-0.0211701
-0.0183329
-0.0156445
-0.0131301
-0.0108113
-0.00870662
-0.0068302
-0.00519168
-0.00379567
-0.00264131
-0.00172201
-0.0010252
-0.000532046
-0.00021717
-5.04363e-05
-7.79971e-08
-4.7073e-05
-0.000332732
-0.000972119
-0.00191777
-0.00314567
-0.00464245
-0.0063913
-0.00837292
-0.0105668
-0.0129515
-0.0155049
-0.0182046
-0.0210281
-0.0239529
-0.026957
-0.0300186
-0.0331166
-0.0362301
-0.0393387
-0.0424225
-0.0454616
-0.0484369
-0.0513292
-0.0541196
-0.0567896
-0.0593209
-0.0616956
-0.0638962
-0.0659055
-0.0677073
-0.069286
-0.070627
-0.0717167
-0.0725432
-0.0730959
-0.073366
-0.0733466
-0.0730331
-0.0724232
-0.0715171
-0.0703178
-0.0688309
-0.0670651
-0.065032
-0.0627462
-0.0602252
-0.0574893
-0.0545618
-0.0514684
-0.0482371
-0.0448979
-0.0414828
-0.0380247
-0.0345576
-0.0311158
-0.0277332
-0.0244432
-0.0212779
-0.0182672
-0.0154387
-0.0128169
-0.0104224
-0.00827171
-0.00637657
-0.00474353
-0.00337364
-0.00226211
-0.00139822
-0.000764992
-0.000338989
-9.41702e-05
-6.9394e-06
-5.73524e-05
-0.000396738
-0.00114695
-0.00224478
-0.00365645
-0.00536265
-0.00734142
-0.00956919
-0.012022
-0.0146757
-0.0175058
-0.020488
-0.023598
-0.026812
-0.0301067
-0.0334588
-0.0368461
-0.0402464
-0.0436381
-0.047
-0.0503111
-0.053551
-0.0566992
-0.0597358
-0.0626408
-0.0653949
-0.0679789
-0.0703742
-0.0725625
-0.0745265
-0.0762496
-0.0777161
-0.0789119
-0.0798238
-0.0804407
-0.080753
-0.0807534
-0.0804366
-0.0798
-0.0788436
-0.07757
-0.0759851
-0.0740976
-0.0719193
-0.0694654
-0.066754
-0.0638064
-0.0606469
-0.0573023
-0.0538024
-0.0501789
-0.0464656
-0.0426977
-0.0389113
-0.0351433
-0.0314303
-0.0278084
-0.0243124
-0.0209751
-0.0178268
-0.0148947
-0.0122022
-0.00976823
-0.00760708
-0.00572764
-0.00413319
-0.00282115
-0.00178303
-0.00100408
-0.000463027
-0.000138063
-1.35992e-05
-6.72037e-05
-0.000458802
-0.00131746
-0.00256488
-0.00415782
-0.00607098
-0.00827718
-0.0107484
-0.0134571
-0.016376
-0.0194785
-0.0227381
-0.0261289
-0.0296256
-0.0332035
-0.0368384
-0.0405067
-0.0441852
-0.0478513
-0.0514827
-0.0550574
-0.0585537
-0.0619504
-0.0652263
-0.0683605
-0.0713325
-0.0741222
-0.0767097
-0.0790761
-0.0812029
-0.0830725
-0.0846685
-0.0859756
-0.08698
-0.0876697
-0.0880343
-0.0880659
-0.0877585
-0.087109
-0.0861168
-0.0847844
-0.0831172
-0.0811238
-0.0788162
-0.0762096
-0.0733227
-0.0701773
-0.0667984
-0.0632142
-0.0594554
-0.0555556
-0.0515502
-0.0474765
-0.043373
-0.039279
-0.0352338
-0.0312763
-0.0274441
-0.0237731
-0.0202968
-0.0170452
-0.0140447
-0.0113173
-0.00887998
-0.00674434
-0.00491628
-0.00339581
-0.00217697
-0.00124744
-0.000588271
-0.000181787
-2.00311e-05
-7.6651e-05
-0.000518817
-0.00148303
-0.00287663
-0.00464723
-0.00676364
-0.00919345
-0.0119041
-0.0148644
-0.0180441
-0.0214139
-0.0249454
-0.0286111
-0.032384
-0.0362384
-0.0401488
-0.0440907
-0.0480399
-0.0519728
-0.0558663
-0.0596976
-0.063444
-0.0670833
-0.0705936
-0.073953
-0.0771401
-0.0801338
-0.0829135
-0.0854592
-0.0877515
-0.089772
-0.0915033
-0.0929292
-0.0940352
-0.0948081
-0.095237
-0.0953128
-0.0950291
-0.0943818
-0.0933697
-0.0919946
-0.0902615
-0.0881786
-0.0857576
-0.0830137
-0.0799655
-0.0766354
-0.073049
-0.0692351
-0.0652258
-0.0610558
-0.0567625
-0.052385
-0.0479641
-0.0435417
-0.0391599
-0.0348605
-0.0306843
-0.0266705
-0.0228557
-0.0192734
-0.0159535
-0.0129209
-0.0101961
-0.00779371
-0.00572256
-0.00398555
-0.00257951
-0.00149471
-0.000714563
-0.000225343
-2.62614e-05
-8.57158e-05
-0.000576735
-0.0016433
-0.00317905
-0.00512284
-0.00743779
-0.0100863
-0.0130314
-0.0162381
-0.0196731
-0.0233045
-0.0271019
-0.0310361
-0.0350787
-0.0392028
-0.0433818
-0.0475903
-0.0518033
-0.0559965
-0.0601459
-0.0642279
-0.0682192
-0.0720969
-0.0758381
-0.0794203
-0.0828213
-0.0860192
-0.0889926
-0.0917207
-0.0941831
-0.0963606
-0.098235
-0.0997891
-0.101007
-0.101876
-0.102383
-0.102517
-0.102273
-0.101644
-0.100629
-0.0992288
-0.0974471
-0.0952916
-0.0927737
-0.089908
-0.0867131
-0.0832113
-0.0794285
-0.0753943
-0.0711417
-0.0667067
-0.0621281
-0.0574472
-0.052707
-0.047952
-0.0432272
-0.0385777
-0.0340475
-0.0296795
-0.0255139
-0.021588
-0.0179352
-0.0145845
-0.0115597
-0.00887882
-0.00655423
-0.00459191
-0.0029917
-0.00174661
-0.00084235
-0.000268951
-3.23487e-05
-9.44132e-05
-0.000632517
-0.00179798
-0.00347139
-0.00558326
-0.00809119
-0.0109526
-0.0141261
-0.017573
-0.0212569
-0.0251435
-0.0292002
-0.0333962
-0.0377018
-0.0420886
-0.0465295
-0.050998
-0.0554685
-0.0599158
-0.0643155
-0.0686433
-0.0728753
-0.0769879
-0.0809578
-0.0847617
-0.0883767
-0.0917804
-0.0949505
-0.0978654
-0.100504
-0.102846
-0.104873
-0.106566
-0.107909
-0.108887
-0.109487
-0.109697
-0.109509
-0.108917
-0.107917
-0.106509
-0.104697
-0.102487
-0.0998897
-0.0969184
-0.0935916
-0.0899313
-0.0859637
-0.0817185
-0.0772295
-0.0725339
-0.0676721
-0.0626872
-0.0576246
-0.0525314
-0.0474559
-0.0424463
-0.0375505
-0.0328152
-0.0282847
-0.0240004
-0.0199999
-0.0163163
-0.0129773
-0.0100051
-0.00741549
-0.00521806
-0.00341583
-0.00200465
-0.000972509
-0.000312984
-3.8371e-05
-0.000102751
-0.000686118
-0.00194682
-0.00375302
-0.00602728
-0.00872196
-0.0117897
-0.0151847
-0.0188647
-0.0227904
-0.0269249
-0.0312337
-0.0356843
-0.0402456
-0.0448882
-0.049584
-0.0543059
-0.0590275
-0.0637233
-0.0683681
-0.0729372
-0.0774064
-0.0817514
-0.0859484
-0.0899738
-0.0938041
-0.097416
-0.100787
-0.103894
-0.106717
-0.109233
-0.111422
-0.113267
-0.114748
-0.115851
-0.116559
-0.116862
-0.116749
-0.116212
-0.115247
-0.113853
-0.11203
-0.109785
-0.107125
-0.104066
-0.100623
-0.0968181
-0.0926775
-0.0882311
-0.083513
-0.0785614
-0.0734182
-0.0681283
-0.0627396
-0.057302
-0.0518668
-0.0464861
-0.0412117
-0.0360945
-0.0311834
-0.0265243
-0.0221594
-0.0181265
-0.0144577
-0.0111796
-0.00831205
-0.00586836
-0.00385507
-0.00227093
-0.00110622
-0.000357912
-4.44184e-05
-0.000110729
-0.000737478
-0.00208956
-0.00402333
-0.0064538
-0.00932834
-0.012595
-0.0162038
-0.0201091
-0.0242686
-0.0286431
-0.0331961
-0.0378933
-0.0427027
-0.0475936
-0.0525373
-0.0575058
-0.0624723
-0.0674107
-0.0722956
-0.0771019
-0.081805
-0.0863803
-0.0908035
-0.0950507
-0.0990979
-0.102921
-0.106498
-0.109804
-0.112818
-0.115518
-0.117882
-0.119891
-0.121525
-0.122768
-0.123604
-0.124018
-0.123999
-0.123539
-0.12263
-0.121269
-0.119456
-0.117196
-0.114495
-0.111365
-0.107823
-0.103889
-0.0995889
-0.0949518
-0.0900127
-0.0848104
-0.0793881
-0.0737926
-0.068074
-0.0622852
-0.0564811
-0.0507174
-0.0450505
-0.0395357
-0.0342268
-0.029175
-0.0244275
-0.0200271
-0.0160112
-0.0124109
-0.00925076
-0.00654811
-0.00431323
-0.00254797
-0.00124488
-0.000404278
-5.05885e-05
-0.000118341
-0.000786514
-0.00222591
-0.00428169
-0.00686172
-0.00990866
-0.0133661
-0.0171804
-0.0213023
-0.0256869
-0.0302927
-0.0350811
-0.0400166
-0.0450657
-0.050197
-0.0553808
-0.0605888
-0.0657936
-0.0709689
-0.0760888
-0.0811282
-0.0860619
-0.0908654
-0.095514
-0.0999835
-0.10425
-0.108288
-0.112075
-0.115588
-0.118802
-0.121695
-0.124246
-0.126433
-0.128236
-0.129637
-0.130618
-0.131163
-0.131259
-0.130896
-0.130065
-0.12876
-0.12698
-0.124727
-0.122005
-0.118826
-0.115203
-0.111157
-0.106712
-0.101896
-0.0967455
-0.0912989
-0.0856008
-0.0796997
-0.0736481
-0.0675019
-0.0613194
-0.0551606
-0.0490865
-0.0431574
-0.0374326
-0.0319687
-0.0268188
-0.0220312
-0.017649
-0.0137086
-0.0102393
-0.00726325
-0.00479461
-0.00283858
-0.00139004
-0.00045267
-5.69836e-05
-0.000125574
-0.000833121
-0.00235554
-0.00452742
-0.0072499
-0.0104612
-0.0141008
-0.0181114
-0.0224405
-0.0270407
-0.0318681
-0.0368826
-0.0420471
-0.0473269
-0.05269
-0.0581059
-0.0635457
-0.0689819
-0.0743877
-0.0797372
-0.085005
-0.090166
-0.0951954
-0.100069
-0.104761
-0.109248
-0.113505
-0.117508
-0.121233
-0.124656
-0.127754
-0.130504
-0.132883
-0.134871
-0.136446
-0.137591
-0.138288
-0.138521
-0.138278
-0.137548
-0.136323
-0.134599
-0.132376
-0.129657
-0.12645
-0.122768
-0.118628
-0.114054
-0.109074
-0.103723
-0.0980408
-0.0920719
-0.0858667
-0.07948
-0.0729708
-0.0664011
-0.0598353
-0.0533391
-0.0469786
-0.0408188
-0.0349224
-0.0293488
-0.0241527
-0.0193832
-0.0150827
-0.011286
-0.00802018
-0.00530386
-0.00314578
-0.00154334
-0.000503711
-6.37089e-05
-0.000132411
-0.000877173
-0.00247809
-0.0047598
-0.00761714
-0.0109842
-0.0147967
-0.0189936
-0.0235199
-0.0283252
-0.033364
-0.0385943
-0.0439777
-0.0494787
-0.0550641
-0.0607032
-0.0663666
-0.0720264
-0.0776559
-0.083229
-0.0887202
-0.0941045
-0.0993571
-0.104453
-0.109368
-0.114077
-0.118556
-0.12278
-0.126725
-0.130365
-0.133678
-0.136638
-0.139224
-0.141411
-0.14318
-0.144508
-0.145377
-0.145769
-0.145669
-0.145064
-0.143944
-0.142302
-0.140135
-0.137443
-0.134232
-0.130513
-0.126301
-0.121617
-0.11649
-0.110953
-0.105045
-0.0988124
-0.0923066
-0.0855847
-0.0787084
-0.0717437
-0.0647595
-0.0578269
-0.0510177
-0.0444032
-0.038053
-0.0320333
-0.0264058
-0.0212264
-0.0165439
-0.0123995
-0.00882564
-0.00584583
-0.00347273
-0.0017065
-0.000558041
-7.0871e-05
-0.00013883
-0.000918525
-0.00259315
-0.00497805
-0.00796219
-0.0114759
-0.0154511
-0.0198239
-0.0245363
-0.0295358
-0.0347748
-0.0402099
-0.0458014
-0.0515128
-0.0573105
-0.063163
-0.0690408
-0.0749159
-0.0807614
-0.0865512
-0.09226
-0.0978628
-0.103335
-0.108652
-0.113788
-0.118721
-0.123423
-0.127872
-0.132042
-0.135907
-0.139444
-0.142627
-0.145432
-0.147836
-0.149814
-0.151345
-0.152407
-0.15298
-0.153048
-0.152593
-0.151604
-0.15007
-0.147985
-0.145348
-0.142159
-0.138428
-0.134167
-0.129397
-0.124142
-0.118435
-0.112315
-0.105829
-0.0990283
-0.0919731
-0.0847278
-0.0773621
-0.0699495
-0.0625667
-0.0552918
-0.048203
-0.041377
-0.0348878
-0.0288047
-0.023191
-0.0181031
-0.0135887
-0.00968653
-0.00642552
-0.00382271
-0.0018813
-0.000616316
-7.85776e-05
-0.000144804
-0.000957019
-0.00270028
-0.00518133
-0.00828374
-0.0119343
-0.0160618
-0.0205992
-0.025486
-0.0306677
-0.0360949
-0.0417228
-0.0475106
-0.053421
-0.0594198
-0.0654752
-0.0715573
-0.0776382
-0.0836909
-0.0896896
-0.0956091
-0.101425
-0.107112
-0.112646
-0.118002
-0.123157
-0.128085
-0.132761
-0.13716
-0.141257
-0.145027
-0.148443
-0.15148
-0.154114
-0.156319
-0.158071
-0.159347
-0.160124
-0.160383
-0.160105
-0.159273
-0.157875
-0.155901
-0.153346
-0.150209
-0.146494
-0.142211
-0.137378
-0.132018
-0.126161
-0.119847
-0.11312
-0.106035
-0.0986516
-0.091038
-0.0832675
-0.0754185
-0.0675733
-0.0598166
-0.052234
-0.0449103
-0.0379274
-0.0313633
-0.0252898
-0.019771
-0.0148625
-0.0106099
-0.00704803
-0.00419901
-0.00206951
-0.000679199
-8.6937e-05
-0.000150305
-0.000992486
-0.00279903
-0.00536879
-0.00858044
-0.0123575
-0.016626
-0.021316
-0.0263648
-0.031716
-0.0373186
-0.0431265
-0.0490979
-0.0551949
-0.0613826
-0.0676291
-0.0739044
-0.0801805
-0.0864306
-0.0926291
-0.098751
-0.104772
-0.110668
-0.116414
-0.121987
-0.127362
-0.132515
-0.13742
-0.142052
-0.146385
-0.150394
-0.154053
-0.157334
-0.160211
-0.162658
-0.164649
-0.166159
-0.167162
-0.167636
-0.16756
-0.166913
-0.16568
-0.163847
-0.161404
-0.158349
-0.15468
-0.150406
-0.145539
-0.1401
-0.134118
-0.127629
-0.12068
-0.113323
-0.105621
-0.097643
-0.0894671
-0.0811761
-0.0728583
-0.0646053
-0.0565105
-0.0486672
-0.0411664
-0.0340953
-0.0275349
-0.0215585
-0.0162299
-0.0116026
-0.00771844
-0.00460497
-0.00227296
-0.000747359
-9.60581e-05
-0.000155305
-0.00102475
-0.00288892
-0.00553957
-0.00885093
-0.0127438
-0.0171412
-0.0219712
-0.0271688
-0.032676
-0.0384402
-0.0444143
-0.0505557
-0.0568257
-0.0631893
-0.069614
-0.07607
-0.0825294
-0.0889657
-0.0953534
-0.101668
-0.107886
-0.113983
-0.119935
-0.125719
-0.13131
-0.136685
-0.141818
-0.146684
-0.151257
-0.155511
-0.159418
-0.162952
-0.166085
-0.168788
-0.171034
-0.172796
-0.174047
-0.174759
-0.17491
-0.174476
-0.173437
-0.171776
-0.169479
-0.166538
-0.162949
-0.158715
-0.153846
-0.148359
-0.14228
-0.135643
-0.128493
-0.120882
-0.112874
-0.104541
-0.0959628
-0.0872278
-0.07843
-0.0696683
-0.0610443
-0.0526605
-0.0446176
-0.037013
-0.0299379
-0.0234756
-0.0176995
-0.0126717
-0.00844183
-0.00504391
-0.00249344
-0.000821467
-0.000106051
-0.000159773
-0.00105363
-0.0029695
-0.0056928
-0.00909389
-0.013091
-0.017605
-0.0225616
-0.0278941
-0.0335428
-0.0394541
-0.0455798
-0.0518764
-0.0583049
-0.0648298
-0.0714188
-0.0780418
-0.0846712
-0.0912808
-0.0978457
-0.104342
-0.110746
-0.117034
-0.123183
-0.129171
-0.134973
-0.140565
-0.145923
-0.151022
-0.155835
-0.160336
-0.164497
-0.16829
-0.171687
-0.174659
-0.177175
-0.179206
-0.180723
-0.181697
-0.1821
-0.181906
-0.181091
-0.179633
-0.177515
-0.174723
-0.17125
-0.167093
-0.162257
-0.156757
-0.150613
-0.143858
-0.136534
-0.128693
-0.120398
-0.111723
-0.102751
-0.0935736
-0.0842921
-0.0750123
-0.0658445
-0.0569007
-0.0482924
-0.0401279
-0.0325098
-0.0255324
-0.0192798
-0.0138239
-0.00922318
-0.00551912
-0.00273276
-0.000902196
-0.000117025
-0.00016368
-0.00107897
-0.0030403
-0.00582767
-0.00930805
-0.0133975
-0.018015
-0.0230841
-0.0285369
-0.0343121
-0.040355
-0.0466166
-0.0530528
-0.059624
-0.0662947
-0.0730324
-0.0798073
-0.0865919
-0.0933605
-0.100089
-0.106753
-0.11333
-0.119798
-0.126134
-0.132315
-0.138319
-0.144122
-0.149699
-0.155026
-0.160076
-0.164824
-0.169241
-0.173298
-0.176966
-0.180215
-0.183012
-0.185328
-0.18713
-0.188385
-0.189065
-0.189137
-0.188576
-0.187353
-0.185449
-0.182843
-0.179522
-0.175481
-0.170719
-0.165243
-0.159073
-0.152236
-0.144771
-0.136729
-0.128171
-0.119173
-0.10982
-0.100208
-0.0904433
-0.0806398
-0.0709165
-0.0613956
-0.0522
-0.0434499
-0.0352603
-0.0277379
-0.0209786
-0.0150656
-0.0100674
-0.00603387
-0.00299271
-0.000990218
-0.000129094
-0.000166998
-0.00110061
-0.00310094
-0.00594342
-0.00949224
-0.0136617
-0.0183689
-0.0235361
-0.0290937
-0.0349795
-0.0411377
-0.0475186
-0.0540776
-0.0607748
-0.0675745
-0.0744441
-0.0813542
-0.0882776
-0.095189
-0.102065
-0.108881
-0.115617
-0.122251
-0.12876
-0.135122
-0.141317
-0.147319
-0.153107
-0.158655
-0.163938
-0.168928
-0.173599
-0.177921
-0.181864
-0.185395
-0.188484
-0.191095
-0.193197
-0.194753
-0.19573
-0.196095
-0.195815
-0.194861
-0.193204
-0.190822
-0.187695
-0.183811
-0.179164
-0.173758
-0.167604
-0.160726
-0.153159
-0.14495
-0.136161
-0.126865
-0.117151
-0.107117
-0.0968763
-0.0865483
-0.0762617
-0.0661497
-0.056347
-0.0469868
-0.0381978
-0.0301003
-0.0228035
-0.016403
-0.0109791
-0.00659131
-0.00327506
-0.0010862
-0.00014237
-0.000169704
-0.00111841
-0.00315104
-0.00603939
-0.00964543
-0.013882
-0.0186649
-0.0239149
-0.0295614
-0.0355412
-0.0417976
-0.0482803
-0.0549444
-0.0617496
-0.06866
-0.0756434
-0.0826705
-0.0897145
-0.0967507
-0.103756
-0.110708
-0.117585
-0.124368
-0.131034
-0.137562
-0.143933
-0.150122
-0.156108
-0.161866
-0.167372
-0.172599
-0.177518
-0.182102
-0.186318
-0.190135
-0.193519
-0.196436
-0.198849
-0.200721
-0.202016
-0.202696
-0.202726
-0.20207
-0.200697
-0.198577
-0.195685
-0.192002
-0.187518
-0.182227
-0.176137
-0.169265
-0.161641
-0.153308
-0.144325
-0.134766
-0.124717
-0.114282
-0.103577
-0.0927294
-0.0818769
-0.0711637
-0.0607371
-0.0507446
-0.0413293
-0.0326267
-0.024761
-0.017842
-0.0119628
-0.00719453
-0.00358154
-0.00119082
-0.000156968
-0.000171777
-0.00113225
-0.00319031
-0.00611506
-0.00976681
-0.0140574
-0.0189013
-0.0242185
-0.0299374
-0.0359939
-0.0423307
-0.0488969
-0.0556472
-0.0625412
-0.0695431
-0.0766206
-0.0837449
-0.0908897
-0.0980307
-0.105146
-0.112213
-0.119213
-0.126124
-0.132928
-0.139605
-0.146133
-0.152493
-0.158661
-0.164615
-0.170331
-0.175782
-0.180941
-0.185779
-0.190264
-0.194365
-0.198047
-0.201273
-0.204005
-0.206206
-0.207835
-0.208851
-0.209216
-0.208889
-0.207833
-0.206013
-0.203398
-0.199964
-0.19569
-0.190566
-0.184592
-0.177779
-0.170149
-0.161742
-0.152612
-0.142829
-0.132481
-0.121673
-0.110523
-0.0991682
-0.0877532
-0.0764337
-0.0653706
-0.0547261
-0.0446595
-0.0353229
-0.026857
-0.0193876
-0.0130227
-0.00784649
-0.00391386
-0.00130474
-0.000173005
-0.000173203
-0.00114206
-0.00321856
-0.00617005
-0.0098558
-0.0141869
-0.019077
-0.0244454
-0.0302197
-0.036335
-0.0427336
-0.0493641
-0.0561809
-0.0631436
-0.0702163
-0.077367
-0.0845671
-0.0917909
-0.0990149
-0.106217
-0.113378
-0.120477
-0.127497
-0.134417
-0.14122
-0.147885
-0.154394
-0.160726
-0.166857
-0.172765
-0.178425
-0.18381
-0.18889
-0.193636
-0.198014
-0.201989
-0.205525
-0.208581
-0.211118
-0.213094
-0.214464
-0.215185
-0.215214
-0.214508
-0.213027
-0.210732
-0.207593
-0.203581
-0.198679
-0.192878
-0.186181
-0.178604
-0.170179
-0.160955
-0.150999
-0.140395
-0.12925
-0.117686
-0.105843
-0.0938755
-0.081951
-0.0702436
-0.0589315
-0.0481913
-0.0381932
-0.0290964
-0.0210446
-0.0141628
-0.00854999
-0.00427367
-0.0014286
-0.000190601
-0.000173972
-0.0011478
-0.00323569
-0.0062042
-0.00991212
-0.0142701
-0.0191915
-0.0245947
-0.0304069
-0.0365627
-0.043004
-0.0496789
-0.0565416
-0.0635517
-0.0706733
-0.0778747
-0.0851278
-0.0924073
-0.0996903
-0.106956
-0.114186
-0.12136
-0.128462
-0.135473
-0.142377
-0.149156
-0.155791
-0.162261
-0.168548
-0.174627
-0.180476
-0.186067
-0.191374
-0.196365
-0.201009
-0.20527
-0.20911
-0.212489
-0.215366
-0.217696
-0.219433
-0.22053
-0.22094
-0.220614
-0.219507
-0.217575
-0.214777
-0.211081
-0.206457
-0.20089
-0.194372
-0.186913
-0.178534
-0.169279
-0.159207
-0.148402
-0.136966
-0.125025
-0.112722
-0.100222
-0.0877008
-0.0753477
-0.0633572
-0.0519246
-0.0412399
-0.0314827
-0.0228168
-0.0153864
-0.00930765
-0.00466253
-0.00156307
-0.000209877
-0.000174085
-0.00114948
-0.00324173
-0.00621756
-0.00993585
-0.0143072
-0.0192445
-0.0246662
-0.0304987
-0.0366764
-0.0431406
-0.0498394
-0.0567267
-0.063762
-0.0709095
-0.0781379
-0.0854193
-0.0927293
-0.100046
-0.107349
-0.11462
-0.121842
-0.128998
-0.136073
-0.143051
-0.149914
-0.156646
-0.163229
-0.169644
-0.175868
-0.181881
-0.187656
-0.193167
-0.198385
-0.203278
-0.20781
-0.211945
-0.215641
-0.218856
-0.221543
-0.223656
-0.225143
-0.225953
-0.226035
-0.225336
-0.223806
-0.221398
-0.218069
-0.213783
-0.208513
-0.202243
-0.194971
-0.18671
-0.177493
-0.167375
-0.15643
-0.144761
-0.132491
-0.119768
-0.106763
-0.0936621
-0.0806691
-0.0679956
-0.0558564
-0.0444633
-0.0340181
-0.0247072
-0.0166965
-0.0101218
-0.00508197
-0.00170878
-0.000230958
-0.00017355
-0.00114716
-0.00323686
-0.00621048
-0.00992748
-0.0142987
-0.019237
-0.0246606
-0.0304957
-0.0366764
-0.0431436
-0.0498452
-0.0567349
-0.0637723
-0.0709217
-0.078152
-0.0854359
-0.0927495
-0.100072
-0.107383
-0.114667
-0.121907
-0.129088
-0.136195
-0.143215
-0.150131
-0.15693
-0.163593
-0.170105
-0.176444
-0.182591
-0.188522
-0.194211
-0.199631
-0.20475
-0.209535
-0.213948
-0.217948
-0.221493
-0.224536
-0.227027
-0.228913
-0.230139
-0.230651
-0.23039
-0.2293
-0.227326
-0.224418
-0.22053
-0.215623
-0.209672
-0.202662
-0.194596
-0.185497
-0.175408
-0.164399
-0.152564
-0.140025
-0.126932
-0.11346
-0.0998069
-0.0861886
-0.0728345
-0.0599804
-0.0478611
-0.0367031
-0.0267179
-0.0180956
-0.0109947
-0.00553337
-0.00186634
-0.000253969
-0.000172388
-0.00114097
-0.00322144
-0.0061836
-0.00988799
-0.0142459
-0.0191705
-0.0245797
-0.0303998
-0.0365644
-0.0430144
-0.0496974
-0.0565669
-0.0635825
-0.0707088
-0.0779148
-0.085174
-0.0924628
-0.099761
-0.10705
-0.114315
-0.121541
-0.128713
-0.135819
-0.142846
-0.149781
-0.156611
-0.16332
-0.169893
-0.176313
-0.18256
-0.188614
-0.19445
-0.200041
-0.205359
-0.210371
-0.21504
-0.219327
-0.223188
-0.226577
-0.229443
-0.231731
-0.233384
-0.234343
-0.234545
-0.233929
-0.232432
-0.229995
-0.226563
-0.222086
-0.216528
-0.20986
-0.202073
-0.193177
-0.183204
-0.172213
-0.160291
-0.147555
-0.134154
-0.120267
-0.106099
-0.0918801
-0.0778567
-0.0642862
-0.0514283
-0.0395364
-0.0288495
-0.0195853
-0.0119279
-0.00601801
-0.00203635
-0.000279039
-0.000170628
-0.00113111
-0.003196
-0.0061379
-0.00981886
-0.0141508
-0.0190473
-0.0244264
-0.030214
-0.0363438
-0.0427564
-0.049399
-0.0562253
-0.0631946
-0.0702719
-0.0774265
-0.0846323
-0.0918665
-0.0991096
-0.106345
-0.113557
-0.120733
-0.127861
-0.13493
-0.141927
-0.148843
-0.155665
-0.16238
-0.168977
-0.175438
-0.181747
-0.187885
-0.19383
-0.199559
-0.205042
-0.21025
-0.215147
-0.219696
-0.223854
-0.227574
-0.230804
-0.233491
-0.235574
-0.236991
-0.237677
-0.237563
-0.23658
-0.234662
-0.231743
-0.227764
-0.222672
-0.216429
-0.20901
-0.20041
-0.190647
-0.179768
-0.167849
-0.155
-0.141366
-0.127127
-0.112495
-0.097711
-0.0830392
-0.0687592
-0.0551568
-0.0425143
-0.0311014
-0.0211667
-0.012923
-0.00653702
-0.00221937
-0.000306298
-0.000168315
-0.00111785
-0.0031613
-0.00607477
-0.00972218
-0.0140163
-0.0188711
-0.0242047
-0.0299431
-0.0360196
-0.0423746
-0.0489551
-0.0557148
-0.062613
-0.0696147
-0.0766897
-0.0838124
-0.0909608
-0.0981162
-0.105263
-0.112387
-0.119478
-0.126523
-0.133514
-0.140442
-0.147297
-0.15407
-0.16075
-0.167327
-0.173786
-0.180115
-0.186295
-0.192309
-0.198134
-0.203744
-0.209111
-0.214203
-0.218984
-0.223411
-0.227439
-0.231018
-0.234092
-0.236602
-0.238482
-0.239663
-0.240074
-0.239639
-0.238282
-0.23593
-0.232511
-0.227961
-0.222226
-0.215266
-0.20706
-0.197609
-0.186946
-0.175131
-0.162266
-0.148488
-0.133974
-0.118941
-0.103641
-0.0883531
-0.07338
-0.0590348
-0.0456309
-0.0334716
-0.0228397
-0.0139809
-0.00709135
-0.00241593
-0.000335876
-0.000165507
-0.00110156
-0.00311834
-0.00599603
-0.00960073
-0.0138461
-0.0186464
-0.0239202
-0.0295932
-0.0355984
-0.0418761
-0.0483731
-0.0550427
-0.0618445
-0.0687436
-0.0757101
-0.082719
-0.0897491
-0.0967828
-0.103805
-0.110805
-0.11777
-0.124693
-0.131566
-0.138381
-0.145132
-0.151811
-0.15841
-0.164921
-0.171333
-0.177635
-0.183812
-0.189848
-0.195724
-0.201417
-0.206902
-0.212149
-0.217124
-0.221787
-0.226095
-0.229998
-0.233443
-0.236368
-0.238707
-0.24039
-0.24134
-0.241477
-0.240719
-0.238982
-0.236184
-0.232248
-0.227104
-0.220697
-0.212986
-0.203956
-0.193619
-0.182022
-0.169248
-0.155427
-0.140731
-0.125376
-0.109621
-0.0937627
-0.078124
-0.0630466
-0.0488774
-0.035956
-0.0246033
-0.0151018
-0.00768174
-0.0026265
-0.000367903
-0.000162278
-0.00108271
-0.00306836
-0.00590398
-0.00945797
-0.0136448
-0.0183794
-0.02358
-0.0291724
-0.0350893
-0.0412705
-0.0476626
-0.0542189
-0.0608989
-0.0676678
-0.0744964
-0.0813601
-0.0882385
-0.0951151
-0.101976
-0.108812
-0.115612
-0.122371
-0.129082
-0.13574
-0.14234
-0.148879
-0.155349
-0.161745
-0.16806
-0.174285
-0.180408
-0.186417
-0.192295
-0.198024
-0.20358
-0.208936
-0.214063
-0.218922
-0.223474
-0.227671
-0.23146
-0.234782
-0.237569
-0.23975
-0.241247
-0.241974
-0.241843
-0.240762
-0.23864
-0.235385
-0.230914
-0.225152
-0.21804
-0.209543
-0.199652
-0.188393
-0.175832
-0.162084
-0.147311
-0.131727
-0.115596
-0.0992253
-0.0829609
-0.0671726
-0.0522422
-0.0385489
-0.0264554
-0.0162858
-0.00830869
-0.0028515
-0.000402509
-0.000158719
-0.00106186
-0.00301291
-0.00580145
-0.00929823
-0.0134185
-0.0180773
-0.0231929
-0.0286908
-0.0345032
-0.0405696
-0.0468362
-0.0532561
-0.0597888
-0.0664
-0.0730606
-0.0797469
-0.0864394
-0.0931226
-0.0997844
-0.106416
-0.113009
-0.11956
-0.126063
-0.132518
-0.13892
-0.145268
-0.151559
-0.15779
-0.163956
-0.170051
-0.176068
-0.181997
-0.187824
-0.193536
-0.199111
-0.204528
-0.209758
-0.214769
-0.219523
-0.223976