/*--------------------------------*- C++ -*----------------------------------*\
  =========                 |
  \\      /  F ield         | OpenFOAM: The Open Source CFD Toolbox
   \\    /   O peration     | Website:  https://openfoam.org
    \\  /    A nd           | Version:  dev
     \\/     M anipulation  |
\*---------------------------------------------------------------------------*/
FoamFile
{
    format      ascii;
    class       surfaceScalarField;
    location    "45.45";
    object      phi;
}
// * * * * * * * * * * * * * * * * * * * * * * * * * * * * * * * * * * * * * //

dimensions      [0 3 -1 0 0 0 0];

internalField   nonuniform List<scalar> 
10224
(
3.40952e-08
-3.461e-08
8.80383e-08
-5.39426e-08
1.24563e-07
-3.65244e-08
1.25513e-07
-9.49085e-10
8.38733e-08
4.16412e-08
-1.63817e-09
8.55129e-08
-1.29196e-07
1.27559e-07
-2.95501e-07
1.66306e-07
-4.9649e-07
2.00991e-07
-7.27862e-07
2.31373e-07
-9.85344e-07
2.57483e-07
-1.26484e-06
2.795e-07
-1.56252e-06
2.97677e-07
-1.87482e-06
3.12297e-07
-2.19846e-06
3.23645e-07
-2.53045e-06
3.31988e-07
-2.86801e-06
3.37562e-07
-3.20857e-06
3.40567e-07
-3.54974e-06
3.41167e-07
-3.88923e-06
3.39483e-07
-4.22483e-06
3.35601e-07
-4.5544e-06
3.29573e-07
-4.87582e-06
3.21424e-07
-5.18698e-06
3.11156e-07
-5.48573e-06
2.98757e-07
-5.76994e-06
2.84207e-07
-6.03742e-06
2.67484e-07
-6.28599e-06
2.48571e-07
-6.51346e-06
2.27464e-07
-6.71763e-06
2.04175e-07
-6.89637e-06
1.78744e-07
-7.04761e-06
1.51238e-07
-7.16937e-06
1.21759e-07
-7.25982e-06
9.04474e-08
-7.3173e-06
5.74835e-08
-7.34039e-06
2.30899e-08
-7.32792e-06
-1.24674e-08
-7.27904e-06
-4.888e-08
-7.19324e-06
-8.57984e-08
-7.07041e-06
-1.22835e-07
-6.91084e-06
-1.59569e-07
-6.71529e-06
-1.9555e-07
-6.48498e-06
-2.30309e-07
-6.22162e-06
-2.63362e-07
-5.92739e-06
-2.94222e-07
-5.60499e-06
-3.22405e-07
-5.25754e-06
-3.47447e-07
-4.88863e-06
-3.68908e-07
-4.50225e-06
-3.86386e-07
-4.10272e-06
-3.99528e-07
-3.69469e-06
-4.08036e-07
-3.28301e-06
-4.11681e-07
-2.8727e-06
-4.10309e-07
-2.46886e-06
-4.03843e-07
-2.07656e-06
-3.92294e-07
-1.70081e-06
-3.75757e-07
-1.34639e-06
-3.54418e-07
-1.01784e-06
-3.28551e-07
-7.19318e-07
-2.98517e-07
-4.54546e-07
-2.64769e-07
-2.26698e-07
-2.27845e-07
-3.83254e-08
-1.88377e-07
1.08766e-07
-1.471e-07
2.13641e-07
-1.04881e-07
2.7642e-07
-6.27753e-08
2.98537e-07
-2.21063e-08
2.8317e-07
1.53766e-08
2.35917e-07
4.72576e-08
1.65848e-07
7.00697e-08
8.72681e-08
7.85761e-08
2.25575e-08
6.46932e-08
2.25342e-08
5.40833e-08
-8.86928e-08
1.12653e-07
-1.12509e-07
1.18467e-07
-4.23361e-08
3.91481e-08
7.83711e-08
-1.41715e-07
2.22506e-07
-4.29452e-07
3.73251e-07
-8.22304e-07
5.20412e-07
-1.31412e-06
6.58127e-07
-1.89635e-06
7.83214e-07
-2.55916e-06
8.94184e-07
-3.29228e-06
9.90603e-07
-4.08545e-06
1.07268e-06
-4.92876e-06
1.14098e-06
-5.81275e-06
1.19629e-06
-6.72853e-06
1.23943e-06
-7.66778e-06
1.27124e-06
-8.62268e-06
1.29246e-06
-9.58588e-06
1.30377e-06
-1.05504e-05
1.30572e-06
-1.15097e-05
1.29873e-06
-1.24572e-05
1.28311e-06
-1.33867e-05
1.25908e-06
-1.4292e-05
1.22674e-06
-1.5167e-05
1.18616e-06
-1.60056e-05
1.13732e-06
-1.68016e-05
1.0802e-06
-1.75488e-05
1.01478e-06
-1.82413e-05
9.41059e-07
-1.8873e-05
8.59079e-07
-1.94377e-05
7.68953e-07
-1.99299e-05
6.70887e-07
-2.03438e-05
5.6519e-07
-2.06744e-05
4.52298e-07
-2.09167e-05
3.32778e-07
-2.10666e-05
2.07347e-07
-2.11203e-05
7.68683e-08
-2.10752e-05
-5.76415e-08
-2.0929e-05
-1.95017e-07
-2.06809e-05
-3.3395e-07
-2.03307e-05
-4.73002e-07
-1.98797e-05
-6.1062e-07
-1.933e-05
-7.45157e-07
-1.86855e-05
-8.74896e-07
-1.79507e-05
-9.9808e-07
-1.7132e-05
-1.11294e-06
-1.62367e-05
-1.21775e-06
-1.52733e-05
-1.31082e-06
-1.42516e-05
-1.39058e-06
-1.31824e-05
-1.4556e-06
-1.20773e-05
-1.50461e-06
-1.09488e-05
-1.53656e-06
-9.80984e-06
-1.55065e-06
-8.67381e-06
-1.54633e-06
-7.5543e-06
-1.52336e-06
-6.46481e-06
-1.48178e-06
-5.41858e-06
-1.42199e-06
-4.42832e-06
-1.34468e-06
-3.50599e-06
-1.25089e-06
-2.66253e-06
-1.14198e-06
-1.90763e-06
-1.01967e-06
-1.24948e-06
-8.85995e-07
-6.94462e-07
-7.43384e-07
-2.46896e-07
-5.94663e-07
9.13744e-08
-4.4316e-07
3.21436e-07
-2.9285e-07
4.47897e-07
-1.48573e-07
4.79761e-07
-1.64866e-08
4.31511e-07
9.55106e-08
3.24606e-07
1.76985e-07
1.89084e-07
2.14121e-07
6.44218e-08
1.8938e-07
8.69422e-08
3.74419e-08
-1.26134e-07
4.34989e-08
-1.18564e-07
-4.30765e-08
4.42422e-08
-2.58564e-07
2.93861e-07
-6.22583e-07
5.86526e-07
-1.14225e-06
8.92922e-07
-1.81584e-06
1.194e-06
-2.63569e-06
1.47798e-06
-3.59042e-06
1.73795e-06
-4.66653e-06
1.97029e-06
-5.84941e-06
2.17349e-06
-7.12419e-06
2.34746e-06
-8.47614e-06
2.49294e-06
-9.89103e-06
2.61117e-06
-1.13552e-05
2.70362e-06
-1.28558e-05
2.77178e-06
-1.43804e-05
2.81707e-06
-1.59174e-05
2.84078e-06
-1.74556e-05
2.84397e-06
-1.89844e-05
2.82751e-06
-2.04933e-05
2.79203e-06
-2.19722e-05
2.73799e-06
-2.34112e-05
2.66568e-06
-2.48002e-05
2.57523e-06
-2.61296e-05
2.46671e-06
-2.73896e-05
2.34015e-06
-2.85704e-05
2.19557e-06
-2.96624e-05
2.03306e-06
-3.06561e-05
1.85281e-06
-3.15423e-05
1.65516e-06
-3.2312e-05
1.44063e-06
-3.29568e-05
1.20998e-06
-3.34687e-05
9.64212e-07
-3.38406e-05
7.04613e-07
-3.4066e-05
4.32772e-07
-3.41397e-05
1.50583e-07
-3.40576e-05
-1.39748e-07
-3.38169e-05
-4.35713e-07
-3.34164e-05
-7.34515e-07
-3.28563e-05
-1.0331e-06
-3.21387e-05
-1.32817e-06
-3.12676e-05
-1.61627e-06
-3.02487e-05
-1.89379e-06
-2.90897e-05
-2.15705e-06
-2.78003e-05
-2.40236e-06
-2.6392e-05
-2.62611e-06
-2.4878e-05
-2.8248e-06
-2.32734e-05
-2.99519e-06
-2.15947e-05
-3.13428e-06
-1.98598e-05
-3.23948e-06
-1.80878e-05
-3.30862e-06
-1.62984e-05
-3.34004e-06
-1.45121e-05
-3.33264e-06
-1.27495e-05
-3.28593e-06
-1.10312e-05
-3.20006e-06
-9.37738e-06
-3.07585e-06
-7.80721e-06
-2.91484e-06
-6.33886e-06
-2.71923e-06
-4.98888e-06
-2.49197e-06
-3.77185e-06
-2.2367e-06
-2.70003e-06
-1.95782e-06
-1.78287e-06
-1.66053e-06
-1.02661e-06
-1.35091e-06
-4.33723e-07
-1.03604e-06
-2.29237e-09
-7.24287e-07
2.74778e-07
-4.25654e-07
4.10564e-07
-1.52279e-07
4.25317e-07
8.07503e-08
3.47683e-07
2.5461e-07
2.15894e-07
3.45914e-07
7.86974e-08
3.26598e-07
1.6564e-07
1.96592e-09
-1.281e-07
-7.88417e-08
-3.77544e-08
-2.97547e-07
2.6295e-07
-6.87894e-07
6.8421e-07
-1.26821e-06
1.16684e-06
-2.04477e-06
1.66948e-06
-3.01478e-06
2.16401e-06
-4.16899e-06
2.63219e-06
-5.49379e-06
3.06275e-06
-6.97285e-06
3.44934e-06
-8.58832e-06
3.78896e-06
-1.03217e-05
4.08085e-06
-1.21545e-05
4.32573e-06
-1.40685e-05
4.52519e-06
-1.60462e-05
4.68127e-06
-1.80705e-05
4.79615e-06
-2.01255e-05
4.87198e-06
-2.21954e-05
4.9107e-06
-2.42654e-05
4.91398e-06
-2.63211e-05
4.88318e-06
-2.83484e-05
4.81935e-06
-3.03336e-05
4.72325e-06
-3.22633e-05
4.59537e-06
-3.41241e-05
4.43604e-06
-3.59029e-05
4.24545e-06
-3.75865e-05
4.02372e-06
-3.91619e-05
3.77104e-06
-4.06165e-05
3.48766e-06
-4.19378e-05
3.17404e-06
-4.31135e-05
2.83088e-06
-4.4132e-05
2.4592e-06
-4.49825e-05
2.06041e-06
-4.56546e-05
1.63631e-06
-4.61392e-05
1.18921e-06
-4.64283e-05
7.21866e-07
-4.65152e-05
2.3757e-07
-4.63951e-05
-2.59894e-07
-4.60646e-05
-7.66248e-07
-4.55223e-05
-1.27675e-06
-4.47692e-05
-1.78623e-06
-4.38082e-05
-2.28918e-06
-4.26447e-05
-2.77975e-06
-4.12865e-05
-3.25195e-06
-3.9744e-05
-3.69962e-06
-3.80297e-05
-4.11664e-06
-3.61588e-05
-4.497e-06
-3.41487e-05
-4.83491e-06
-3.20189e-05
-5.12497e-06
-2.97909e-05
-5.36226e-06
-2.74879e-05
-5.54248e-06
-2.51345e-05
-5.66206e-06
-2.27563e-05
-5.71826e-06
-2.03796e-05
-5.7093e-06
-1.80312e-05
-5.63437e-06
-1.57375e-05
-5.49377e-06
-1.35244e-05
-5.28893e-06
-1.14168e-05
-5.0224e-06
-9.4381e-06
-4.69797e-06
-7.60947e-06
-4.32059e-06
-5.9497e-06
-3.89647e-06
-4.47449e-06
-3.43303e-06
-3.19596e-06
-2.93907e-06
-2.12204e-06
-2.42482e-06
-1.25595e-06
-1.90213e-06
-5.95423e-07
-1.38481e-06
-1.3202e-07
-8.89058e-07
1.49784e-07
-4.34084e-07
2.73468e-07
-4.2935e-08
2.7151e-07
2.5656e-07
1.86437e-07
4.30977e-07
7.22618e-08
4.4078e-07
2.37909e-07
-4.20263e-08
-8.60725e-08
-2.30003e-07
1.50223e-07
-6.06589e-07
6.39538e-07
-1.19839e-06
1.27602e-06
-2.01917e-06
1.98762e-06
-3.0721e-06
2.72241e-06
-4.35199e-06
3.4439e-06
-5.8474e-06
4.1276e-06
-7.54247e-06
4.75783e-06
-9.41839e-06
5.32526e-06
-1.14546e-05
5.82516e-06
-1.36296e-05
6.2559e-06
-1.59219e-05
6.61799e-06
-1.831e-05
6.91324e-06
-2.07729e-05
7.14418e-06
-2.32903e-05
7.31364e-06
-2.58428e-05
7.42446e-06
-2.84114e-05
7.47927e-06
-3.09778e-05
7.48035e-06
-3.35242e-05
7.42961e-06
-3.60334e-05
7.32853e-06
-3.84883e-05
7.17822e-06
-4.08724e-05
6.97946e-06
-4.31692e-05
6.73279e-06
-4.53623e-05
6.43858e-06
-4.74358e-05
6.09718e-06
-4.93737e-05
5.70895e-06
-5.11605e-05
5.27448e-06
-5.2781e-05
4.79459e-06
-5.42207e-05
4.27051e-06
-5.54654e-05
3.70392e-06
-5.65021e-05
3.09708e-06
-5.73186e-05
2.45284e-06
-5.79042e-05
1.77476e-06
-5.82494e-05
1.06709e-06
-5.83466e-05
3.34821e-07
-5.81902e-05
-4.16341e-07
-5.77765e-05
-1.17997e-06
-5.71042e-05
-1.94899e-06
-5.61748e-05
-2.7157e-06
-5.4992e-05
-3.47192e-06
-5.35627e-05
-4.20903e-06
-5.18965e-05
-4.91816e-06
-5.00059e-05
-5.59025e-06
-4.79062e-05
-6.21632e-06
-4.56157e-05
-6.78751e-06
-4.31553e-05
-7.29536e-06
-4.05483e-05
-7.73194e-06
-3.78205e-05
-8.09006e-06
-3.49996e-05
-8.36341e-06
-3.21148e-05
-8.54678e-06
-2.91969e-05
-8.63617e-06
-2.62773e-05
-8.62896e-06
-2.33876e-05
-8.52401e-06
-2.05596e-05
-8.32178e-06
-1.78242e-05
-8.02438e-06
-1.52109e-05
-7.63564e-06
-1.27477e-05
-7.16116e-06
-1.046e-05
-6.60831e-06
-8.3702e-06
-5.98629e-06
-6.49708e-06
-5.30616e-06
-4.85524e-06
-4.58092e-06
-3.4544e-06
-3.82565e-06
-2.2988e-06
-3.05773e-06
-1.38646e-06
-2.29714e-06
-7.08524e-07
-1.56699e-06
-2.4851e-07
-8.94099e-07
1.84602e-08
-3.09903e-07
1.26458e-07
1.48563e-07
1.19648e-07
4.37777e-07
5.37041e-08
5.0672e-07
2.91619e-07
-8.94388e-08
3.36762e-09
-3.95401e-07
4.56186e-07
-9.45301e-07
1.18944e-06
-1.75574e-06
2.08646e-06
-2.83353e-06
3.06541e-06
-4.17691e-06
4.06579e-06
-5.77704e-06
5.04403e-06
-7.61952e-06
5.97008e-06
-9.68586e-06
6.82417e-06
-1.19548e-05
7.59418e-06
-1.44032e-05
8.27358e-06
-1.70071e-05
8.85982e-06
-1.97422e-05
9.35309e-06
-2.25843e-05
9.75533e-06
-2.55096e-05
1.00695e-05
-2.8495e-05
1.0299e-05
-3.15179e-05
1.04474e-05
-3.45565e-05
1.05179e-05
-3.75896e-05
1.05134e-05
-4.05964e-05
1.04364e-05
-4.35566e-05
1.02888e-05
-4.64505e-05
1.00721e-05
-4.92585e-05
9.78744e-06
-5.19613e-05
9.43557e-06
-5.45398e-05
9.01714e-06
-5.69754e-05
8.53274e-06
-5.92495e-05
7.98309e-06
-6.13442e-05
7.36913e-06
-6.32418e-05
6.69222e-06
-6.49255e-05
5.95424e-06
-6.63793e-05
5.15773e-06
-6.75882e-05
4.30595e-06
-6.85384e-05
3.40305e-06
-6.92177e-05
2.45406e-06
-6.96156e-05
1.46497e-06
-6.97235e-05
4.42763e-07
-6.95353e-05
-6.04622e-07
-6.90469e-05
-1.6683e-06
-6.82574e-05
-2.73851e-06
-6.71684e-05
-3.80469e-06
-6.57847e-05
-4.85562e-06
-6.41142e-05
-5.87953e-06
-6.21681e-05
-6.86429e-06
-5.99607e-05
-7.79761e-06
-5.75098e-05
-8.66721e-06
-5.48363e-05
-9.46108e-06
-5.19639e-05
-1.01677e-05
-4.89194e-05
-1.07764e-05
-4.57322e-05
-1.12773e-05
-4.24338e-05
-1.16618e-05
-3.90577e-05
-1.19229e-05
-3.56387e-05
-1.20552e-05
-3.22126e-05
-1.2055e-05
-2.88158e-05
-1.19209e-05
-2.54842e-05
-1.16533e-05
-2.22533e-05
-1.12553e-05
-1.91569e-05
-1.0732e-05
-1.6227e-05
-1.00911e-05
-1.34927e-05
-9.34261e-06
-1.09798e-05
-8.49913e-06
-8.71021e-06
-7.57577e-06
-6.7009e-06
-6.59023e-06
-4.96359e-06
-5.56298e-06
-3.50391e-06
-4.51741e-06
-2.32082e-06
-3.48023e-06
-1.40595e-06
-2.48186e-06
-7.42978e-07
-1.55707e-06
-3.07042e-07
-7.45839e-07
-6.41451e-08
-9.4333e-08
2.94884e-08
3.4414e-07
2.83531e-08
5.0785e-07
3.19976e-07
-1.37671e-07
1.4104e-07
-5.66458e-07
8.84973e-07
-1.29785e-06
1.92083e-06
-2.33694e-06
3.12555e-06
-3.68205e-06
4.41053e-06
-5.32512e-06
5.70886e-06
-7.25252e-06
6.97143e-06
-9.44614e-06
8.1637e-06
-1.18844e-05
9.26245e-06
-1.45433e-05
1.02531e-05
-1.73974e-05
1.11276e-05
-2.042e-05
1.18825e-05
-2.35847e-05
1.25177e-05
-2.68646e-05
1.30353e-05
-3.02337e-05
1.34386e-05
-3.36662e-05
1.37315e-05
-3.71371e-05
1.39183e-05
-4.06219e-05
1.40027e-05
-4.40969e-05
1.39883e-05
-4.75386e-05
1.38781e-05
-5.09243e-05
1.36745e-05
-5.42315e-05
1.33793e-05
-5.74382e-05
1.29941e-05
-6.05224e-05
1.25198e-05
-6.34628e-05
1.19575e-05
-6.62382e-05
1.13081e-05
-6.88278e-05
1.05727e-05
-7.12113e-05
9.75265e-06
-7.33691e-05
8.85006e-06
-7.52825e-05
7.86756e-06
-7.69334e-05
6.80867e-06
-7.83053e-05
5.67788e-06
-7.93831e-05
4.48078e-06
-8.01531e-05
3.22409e-06
-8.06039e-05
1.91579e-06
-8.07262e-05
5.65067e-07
-8.05132e-05
-8.17642e-07
-7.99608e-05
-2.22072e-06
-7.90679e-05
-3.63143e-06
-7.78365e-05
-5.03606e-06
-7.62721e-05
-6.42004e-06
-7.43835e-05
-7.76813e-06
-7.21831e-05
-9.06465e-06
-6.9687e-05
-1.02937e-05
-6.69148e-05
-1.14395e-05
-6.38894e-05
-1.24864e-05
-6.06375e-05
-1.34197e-05
-5.71884e-05
-1.42255e-05
-5.35746e-05
-1.48911e-05
-4.9831e-05
-1.54054e-05
-4.59946e-05
-1.57593e-05
-4.21041e-05
-1.59457e-05
-3.81992e-05
-1.596e-05
-3.432e-05
-1.58e-05
-3.05068e-05
-1.54665e-05
-2.67989e-05
-1.49632e-05
-2.32341e-05
-1.42968e-05
-1.98481e-05
-1.34771e-05
-1.66737e-05
-1.2517e-05
-1.37401e-05
-1.14328e-05
-1.10719e-05
-1.02439e-05
-8.68895e-06
-8.97319e-06
-6.60515e-06
-7.64678e-06
-4.82802e-06
-6.29454e-06
-3.35806e-06
-4.95019e-06
-2.18815e-06
-3.65177e-06
-1.30307e-06
-2.44215e-06
-6.79075e-07
-1.36984e-06
-2.83503e-07
-4.89906e-07
-7.44738e-08
1.35109e-07
-5.46468e-10
4.3392e-07
3.19431e-07
-1.85476e-07
3.26518e-07
-7.38283e-07
1.43778e-06
-1.65444e-06
2.83699e-06
-2.92697e-06
4.39808e-06
-4.54479e-06
6.02835e-06
-6.49258e-06
7.65665e-06
-8.75112e-06
9.22996e-06
-1.12979e-05
1.07104e-05
-1.41077e-05
1.20723e-05
-1.71536e-05
1.3299e-05
-2.04074e-05
1.43814e-05
-2.38404e-05
1.53155e-05
-2.74235e-05
1.61008e-05
-3.11279e-05
1.67397e-05
-3.49252e-05
1.72359e-05
-3.87876e-05
1.75939e-05
-4.26877e-05
1.78184e-05
-4.65989e-05
1.79139e-05
-5.04951e-05
1.78845e-05
-5.43507e-05
1.77337e-05
-5.81406e-05
1.74644e-05
-6.18402e-05
1.70788e-05
-6.54249e-05
1.65788e-05
-6.88708e-05
1.59658e-05
-7.21543e-05
1.5241e-05
-7.52521e-05
1.44058e-05
-7.81412e-05
1.34618e-05
-8.07996e-05
1.2411e-05
-8.32057e-05
1.12561e-05
-8.53388e-05
1.00007e-05
-8.71796e-05
8.64946e-06
-8.87099e-05
7.20819e-06
-8.99132e-05
5.68408e-06
-9.07749e-05
4.08577e-06
-9.12825e-05
2.42335e-06
-9.14258e-05
7.08457e-07
-9.11977e-05
-1.04577e-06
-9.05937e-05
-2.82476e-06
-8.96125e-05
-4.61257e-06
-8.82565e-05
-6.39207e-06
-8.65315e-05
-8.14509e-06
-8.44469e-05
-9.85267e-06
-8.20163e-05
-1.14953e-05
-7.92568e-05
-1.30532e-05
-7.61897e-05
-1.45066e-05
-7.28397e-05
-1.58364e-05
-6.92355e-05
-1.70239e-05
-6.5409e-05
-1.8052e-05
-6.13951e-05
-1.89049e-05
-5.72319e-05
-1.95687e-05
-5.29593e-05
-2.00318e-05
-4.86195e-05
-2.02856e-05
-4.42555e-05
-2.03239e-05
-3.99115e-05
-2.01441e-05
-3.56311e-05
-1.97469e-05
-3.14575e-05
-1.91368e-05
-2.74324e-05
-1.83219e-05
-2.35951e-05
-1.73144e-05
-1.9982e-05
-1.61301e-05
-1.66255e-05
-1.47893e-05
-1.35536e-05
-1.33158e-05
-1.07889e-05
-1.17379e-05
-8.34798e-06
-1.00877e-05
-6.24067e-06
-8.40185e-06
-4.4696e-06
-6.72127e-06
-3.02958e-06
-5.09178e-06
-1.9073e-06
-3.56443e-06
-1.08097e-06
-2.19617e-06
-5.20191e-07
-1.05068e-06
-1.86001e-07
-1.99084e-07
-3.1038e-08
2.78953e-07
2.88392e-07
-2.32215e-07
5.58733e-07
-9.08116e-07
2.11368e-06
-2.0091e-06
3.93797e-06
-3.51609e-06
5.90508e-06
-5.40822e-06
7.92048e-06
-7.66234e-06
9.91076e-06
-1.0253e-05
1.18206e-05
-1.31527e-05
1.36101e-05
-1.63323e-05
1.52519e-05
-1.97616e-05
1.67284e-05
-2.34097e-05
1.80295e-05
-2.72452e-05
1.9151e-05
-3.12371e-05
2.00927e-05
-3.53545e-05
2.08571e-05
-3.95668e-05
2.14483e-05
-4.38444e-05
2.18715e-05
-4.8158e-05
2.2132e-05
-5.2479e-05
2.22349e-05
-5.67793e-05
2.21848e-05
-6.10313e-05
2.19858e-05
-6.5208e-05
2.16412e-05
-6.92828e-05
2.11536e-05
-7.32291e-05
2.05252e-05
-7.70212e-05
1.97578e-05
-8.06333e-05
1.88531e-05
-8.40403e-05
1.78129e-05
-8.72176e-05
1.66391e-05
-9.01412e-05
1.53346e-05
-9.27878e-05
1.39028e-05
-9.51355e-05
1.23483e-05
-9.7163e-05
1.0677e-05
-9.88511e-05
8.89625e-06
-0.000100182
7.01489e-06
-0.00010114
5.04357e-06
-0.000101711
2.99472e-06
-0.000101885
8.82551e-07
-0.000101654
-1.27693e-06
-0.000101013
-3.466e-06
-9.996e-05
-5.66533e-06
-9.84979e-05
-7.85417e-06
-9.66325e-05
-1.00105e-05
-9.43736e-05
-1.21115e-05
-9.17355e-05
-1.41334e-05
-8.87362e-05
-1.60525e-05
-8.5398e-05
-1.78448e-05
-8.17473e-05
-1.94871e-05
-7.78144e-05
-2.09569e-05
-7.3633e-05
-2.22333e-05
-6.92407e-05
-2.32972e-05
-6.46778e-05
-2.41316e-05
-5.99872e-05
-2.47224e-05
-5.5214e-05
-2.50588e-05
-5.04047e-05
-2.51332e-05
-4.56067e-05
-2.49421e-05
-4.08674e-05
-2.44863e-05
-3.62335e-05
-2.37707e-05
-3.17506e-05
-2.28049e-05
-2.74616e-05
-2.16034e-05
-2.34065e-05
-2.01852e-05
-1.96216e-05
-1.85743e-05
-1.61379e-05
-1.67994e-05
-1.29815e-05
-1.48943e-05
-1.01719e-05
-1.28973e-05
-7.72179e-06
-1.0852e-05
-5.63644e-06
-8.80662e-06
-3.91326e-06
-6.81496e-06
-2.54143e-06
-4.93625e-06
-1.5018e-06
-3.2358e-06
-7.66908e-07
-1.78557e-06
-3.01275e-07
-6.64718e-07
-6.20186e-08
3.96941e-08
2.2637e-07
-2.77606e-07
8.3634e-07
-1.07442e-06
2.9105e-06
-2.35816e-06
5.2217e-06
-4.09798e-06
7.64491e-06
-6.26316e-06
1.00857e-05
-8.8224e-06
1.247e-05
-1.17437e-05
1.47419e-05
-1.49941e-05
1.68606e-05
-1.85403e-05
1.87981e-05
-2.23486e-05
2.05366e-05
-2.63849e-05
2.20658e-05
-3.06156e-05
2.33818e-05
-3.50074e-05
2.44845e-05
-3.95274e-05
2.5377e-05
-4.41432e-05
2.60642e-05
-4.88235e-05
2.65517e-05
-5.35371e-05
2.68456e-05
-5.82538e-05
2.69516e-05
-6.29438e-05
2.68748e-05
-6.75779e-05
2.66199e-05
-7.21273e-05
2.61905e-05
-7.65635e-05
2.55898e-05
-8.08586e-05
2.48202e-05
-8.49847e-05
2.3884e-05
-8.89148e-05
2.27832e-05
-9.26218e-05
2.15199e-05
-9.60797e-05
2.0097e-05
-9.92628e-05
1.85177e-05
-0.000102146
1.67864e-05
-0.000104707
1.49088e-05
-0.000106922
1.28921e-05
-0.000108771
1.07451e-05
-0.000110235
8.47862e-06
-0.000111296
6.10531e-06
-0.000111942
3.64003e-06
-0.000112159
1.09971e-06
-0.000111939
-1.49666e-06
-0.000111277
-4.12805e-06
-0.000110171
-6.77161e-06
-0.000108622
-9.40279e-06
-0.000106637
-1.19956e-05
-0.000104226
-1.45229e-05
-0.000101402
-1.69569e-05
-9.81853e-05
-1.92693e-05
-9.45982e-05
-2.14319e-05
-9.06682e-05
-2.3417e-05
-8.64271e-05
-2.51981e-05
-8.19102e-05
-2.67502e-05
-7.7157e-05
-2.80504e-05
-7.22101e-05
-2.90785e-05
-6.7115e-05
-2.98176e-05
-6.19195e-05
-3.02542e-05
-5.66733e-05
-3.03794e-05
-5.14271e-05
-3.01883e-05
-4.62318e-05
-2.96815e-05
-4.1138e-05
-2.88644e-05
-3.61949e-05
-2.7748e-05
-3.14494e-05
-2.63488e-05
-2.69455e-05
-2.46891e-05
-2.27229e-05
-2.27968e-05
-1.88168e-05
-2.07055e-05
-1.52568e-05
-1.84544e-05
-1.20657e-05
-1.60884e-05
-9.25975e-06
-1.36579e-05
-6.84734e-06
-1.1219e-05
-4.82897e-06
-8.83334e-06
-3.19689e-06
-6.56834e-06
-1.93508e-06
-4.49761e-06
-1.01942e-06
-2.70123e-06
-4.18182e-07
-1.26595e-06
-9.29344e-08
-2.85554e-07
1.33431e-07
-3.21537e-07
1.15788e-06
-1.23634e-06
3.8253e-06
-2.69938e-06
6.68474e-06
-4.66853e-06
9.61406e-06
-7.10331e-06
1.25204e-05
-9.96424e-06
1.53309e-05
-1.32125e-05
1.79901e-05
-1.68097e-05
2.04578e-05
-2.07178e-05
2.27063e-05
-2.48994e-05
2.47182e-05
-2.93175e-05
2.6484e-05
-3.39359e-05
2.80001e-05
-3.87189e-05
2.92675e-05
-4.36319e-05
3.029e-05
-4.86409e-05
3.10731e-05
-5.37126e-05
3.16234e-05
-5.88146e-05
3.19476e-05
-6.3915e-05
3.2052e-05
-6.89827e-05
3.19425e-05
-7.3987e-05
3.16241e-05
-7.88975e-05
3.1101e-05
-8.36844e-05
3.03767e-05
-8.83181e-05
2.9454e-05
-9.27696e-05
2.83355e-05
-9.70101e-05
2.70236e-05
-0.000101011
2.55211e-05
-0.000104746
2.38312e-05
-0.000108186
2.1958e-05
-0.000111306
1.99067e-05
-0.000114082
1.76842e-05
-0.000116488
1.52988e-05
-0.000118504
1.27612e-05
-0.00012011
1.00839e-05
-0.000121286
7.2818e-06
-0.000122018
4.37222e-06
-0.000122293
1.37486e-06
-0.000122102
-1.68819e-06
-0.000121437
-4.79254e-06
-0.000120297
-7.91167e-06
-0.000118683
-1.10171e-05
-0.0001166
-1.40787e-05
-0.000114058
-1.70651e-05
-0.000111071
-1.99438e-05
-0.000107658
-2.2682e-05
-0.000103843
-2.52469e-05
-9.96541e-05
-2.76062e-05
-9.51233e-05
-2.9729e-05
-9.02877e-05
-3.15858e-05
-8.51883e-05
-3.31498e-05
-7.98697e-05
-3.43971e-05
-7.43798e-05
-3.53074e-05
-6.87692e-05
-3.58649e-05
-6.30904e-05
-3.60581e-05
-5.73976e-05
-3.58812e-05
-5.17452e-05
-3.53339e-05
-4.61876e-05
-3.4422e-05
-4.07779e-05
-3.31577e-05
-3.55673e-05
-3.15594e-05
-3.06039e-05
-2.96526e-05
-2.59316e-05
-2.74691e-05
-2.15899e-05
-2.50472e-05
-1.76121e-05
-2.24321e-05
-1.40255e-05
-1.96751e-05
-1.08498e-05
-1.68336e-05
-8.09722e-06
-1.39716e-05
-5.77188e-06
-1.11587e-05
-3.86953e-06
-8.47069e-06
-2.37765e-06
-5.98949e-06
-1.27571e-06
-3.80317e-06
-5.35792e-07
-2.00587e-06
-1.23583e-07
-6.97762e-07
9.84547e-09
-3.63967e-07
1.52184e-06
-1.3934e-06
4.85474e-06
-3.03137e-06
8.32271e-06
-5.22496e-06
1.18077e-05
-7.92425e-06
1.52197e-05
-1.10817e-05
1.84883e-05
-1.46515e-05
2.15599e-05
-1.85897e-05
2.4396e-05
-2.28536e-05
2.69702e-05
-2.74019e-05
2.92665e-05
-3.21945e-05
3.12766e-05
-3.71926e-05
3.29982e-05
-4.23583e-05
3.44333e-05
-4.76551e-05
3.55868e-05
-5.30474e-05
3.64654e-05
-5.85004e-05
3.70764e-05
-6.39803e-05
3.74275e-05
-6.94541e-05
3.75258e-05
-7.48892e-05
3.73776e-05
-8.02536e-05
3.69886e-05
-8.55159e-05
3.63633e-05
-9.0645e-05
3.55057e-05
-9.56101e-05
3.4419e-05
-0.000100381
3.31061e-05
-0.000104927
3.15699e-05
-0.000109219
2.98134e-05
-0.000113229
2.78406e-05
-0.000116927
2.56562e-05
-0.000120287
2.32665e-05
-0.000123282
2.06792e-05
-0.000125887
1.79043e-05
-0.00012808
1.49538e-05
-0.000129838
1.18422e-05
-0.000131143
8.58662e-06
-0.000131977
5.20685e-06
-0.000132328
1.72539e-06
-0.000132184
-1.83253e-06
-0.000131537
-5.43909e-06
-0.000130385
-9.06404e-06
-0.000128727
-1.26749e-05
-0.000126568
-1.62372e-05
-0.000123918
-1.97151e-05
-0.000120791
-2.30715e-05
-0.000117204
-2.62688e-05
-0.000113182
-2.92692e-05
-0.000108752
-3.20356e-05
-0.000103949
-3.45322e-05
-9.88097e-05
-3.6725e-05
-9.33768e-05
-3.85827e-05
-8.76966e-05
-4.00773e-05
-8.18191e-05
-4.11849e-05
-7.57975e-05
-4.18864e-05
-6.96874e-05
-4.21682e-05
-6.35461e-05
-4.20225e-05
-5.74319e-05
-4.14481e-05
-5.14032e-05
-4.04508e-05
-4.55172e-05
-3.90436e-05
-3.98296e-05
-3.72471e-05
-3.43929e-05
-3.50893e-05
-2.9256e-05
-3.2606e-05
-2.44628e-05
-2.98405e-05
-2.00513e-05
-2.68436e-05
-1.60531e-05
-2.36732e-05
-1.24925e-05
-2.03942e-05
-9.38588e-06
-1.70782e-05
-6.74135e-06
-1.38032e-05
-4.55859e-06
-1.06535e-05
-2.82889e-06
-7.7192e-06
-1.53543e-06
-5.09663e-06
-6.53998e-07
-2.8873e-06
-1.53989e-07
-1.19777e-06
-1.44145e-07
-4.04881e-07
1.92673e-06
-1.5453e-06
5.99516e-06
-3.35316e-06
1.01306e-05
-5.76533e-06
1.42198e-05
-8.72277e-06
1.81772e-05
-1.217e-05
2.19355e-05
-1.60545e-05
2.54445e-05
-2.03266e-05
2.8668e-05
-2.49388e-05
3.15825e-05
-2.98461e-05
3.41737e-05
-3.50051e-05
3.64355e-05
-4.03742e-05
3.83674e-05
-4.59137e-05
3.99728e-05
-5.15851e-05
4.12582e-05
-5.73512e-05
4.22314e-05
-6.31759e-05
4.29012e-05
-6.90242e-05
4.32759e-05
-7.48619e-05
4.33635e-05
-8.06554e-05
4.31711e-05
-8.63717e-05
4.27049e-05
-9.19782e-05
4.19699e-05
-9.74428e-05
4.09704e-05
-0.000102734
3.971e-05
-0.00010782
3.81919e-05
-0.000112669
3.64194e-05
-0.000117252
3.43961e-05
-0.000121537
3.21263e-05
-0.000125497
2.96156e-05
-0.000129101
2.6871e-05
-0.000132324
2.39015e-05
-0.000135137
2.07182e-05
-0.000137518
1.73347e-05
-0.000139444
1.37675e-05
-0.000140893
1.00358e-05
-0.000141848
6.16184e-06
-0.000142293
2.17093e-06
-0.000142217
-1.90857e-06
-0.000141611
-6.04539e-06
-0.00014047
-1.02055e-05
-0.000138792
-1.43523e-05
-0.000136582
-1.84471e-05
-0.000133848
-2.24493e-05
-0.000130603
-2.6317e-05
-0.000126864
-3.00075e-05
-0.000122655
-3.3478e-05
-0.000118005
-3.66862e-05
-0.000112946
-3.95911e-05
-0.000107517
-4.21536e-05
-0.000101762
-4.43376e-05
-9.57291e-05
-4.61105e-05
-8.94695e-05
-4.74445e-05
-8.30392e-05
-4.83168e-05
-7.64966e-05
-4.87108e-05
-6.99026e-05
-4.86165e-05
-6.33192e-05
-4.80314e-05
-5.68091e-05
-4.69609e-05
-5.04342e-05
-4.54186e-05
-4.42548e-05
-4.34265e-05
-3.83285e-05
-4.10155e-05
-3.27094e-05
-3.82251e-05
-2.74464e-05
-3.51035e-05
-2.25828e-05
-3.17072e-05
-1.81553e-05
-2.81007e-05
-1.4193e-05
-2.43565e-05
-1.0717e-05
-2.05542e-05
-7.73997e-06
-1.67802e-05
-5.26589e-06
-1.31275e-05
-3.29003e-06
-9.69507e-06
-1.79939e-06
-6.58728e-06
-7.73266e-07
-3.91342e-06
-1.8433e-07
-1.78671e-06
-3.28474e-07
-4.44267e-07
2.37099e-06
-1.69182e-06
7.24271e-06
-3.66405e-06
1.21028e-05
-6.28814e-06
1.68439e-05
-9.49632e-06
2.13853e-05
-1.32254e-05
2.56646e-05
-1.74164e-05
2.96354e-05
-2.20139e-05
3.32655e-05
-2.69658e-05
3.65344e-05
-3.22231e-05
3.94311e-05
-3.77394e-05
4.19518e-05
-4.34705e-05
4.40984e-05
-4.93743e-05
4.58767e-05
-5.54108e-05
4.72946e-05
-6.15412e-05
4.83619e-05
-6.77284e-05
4.90883e-05
-7.3936e-05
4.94835e-05
-8.0129e-05
4.95564e-05
-8.62727e-05
4.93149e-05
-9.23335e-05
4.87656e-05
-9.82779e-05
4.79142e-05
-0.000104073
4.67653e-05
-0.000109686
4.53228e-05
-0.000115084
4.35904e-05
-0.000120236
4.15715e-05
-0.000125111
3.92703e-05
-0.000129676
3.66915e-05
-0.000133901
3.38414e-05
-0.000137758
3.07277e-05
-0.000141217
2.73606e-05
-0.000144251
2.37523e-05
-0.000146835
1.99181e-05
-0.000148943
1.5876e-05
-0.000150555
1.16475e-05
-0.00015165
7.25723e-06
-0.000152213
2.73319e-06
-0.000152228
-1.89318e-06
-0.000151686
-6.58718e-06
-0.000150581
-1.1311e-05
-0.000148909
-1.60239e-05
-0.000146673
-2.06828e-05
-0.00014388
-2.52424e-05
-0.000140542
-2.96557e-05
-0.000136674
-3.38749e-05
-0.0001323
-3.78517e-05
-0.000127448
-4.15384e-05
-0.000122151
-4.48883e-05
-0.000116447
-4.7857e-05
-0.000110382
-5.04031e-05
-0.000104004
-5.24889e-05
-9.73663e-05
-5.40818e-05
-9.05282e-05
-5.5155e-05
-8.35506e-05
-5.56884e-05
-7.64978e-05
-5.56692e-05
-6.9436e-05
-5.50932e-05
-6.24323e-05
-5.39647e-05
-5.55534e-05
-5.22974e-05
-4.8865e-05
-5.01149e-05
-4.24303e-05
-4.74502e-05
-3.63088e-05
-4.43466e-05
-3.05554e-05
-4.08569e-05
-2.52192e-05
-3.70435e-05
-2.03423e-05
-3.29776e-05
-1.59595e-05
-2.87393e-05
-1.20972e-05
-2.44165e-05
-8.77288e-06
-2.01045e-05
-5.99521e-06
-1.59052e-05
-3.76372e-06
-1.19266e-05
-2.06924e-06
-8.28176e-06
-8.94468e-07
-5.0882e-06
-2.14881e-07
-2.4663e-06
-5.43354e-07
-4.82105e-07
2.8531e-06
-1.83276e-06
8.59337e-06
-3.96344e-06
1.42335e-05
-6.79212e-06
1.96726e-05
-1.02428e-05
2.4836e-05
-1.42448e-05
2.96667e-05
-1.87328e-05
3.41235e-05
-2.36461e-05
3.81787e-05
-2.89278e-05
4.18162e-05
-3.45252e-05
4.50285e-05
-4.03887e-05
4.78153e-05
-4.64716e-05
5.01813e-05
-5.27299e-05
5.21349e-05
-5.91215e-05
5.36863e-05
-6.56066e-05
5.4847e-05
-7.21468e-05
5.56284e-05
-7.87048e-05
5.60415e-05
-8.52447e-05
5.60963e-05
-9.17312e-05
5.58014e-05
-9.81298e-05
5.51642e-05
-0.000104406
5.41909e-05
-0.000110527
5.28863e-05
-0.000116459
5.12549e-05
-0.00012217
4.93005e-05
-0.000127625
4.70269e-05
-0.000132793
4.44385e-05
-0.000137642
4.15407e-05
-0.000142141
3.83403e-05
-0.000146259
3.48456e-05
-0.000149966
3.10678e-05
-0.000153234
2.70203e-05
-0.000156036
2.27197e-05
-0.000158346
1.81857e-05
-0.00016014
1.34418e-05
-0.000161398
8.51492e-06
-0.0001621
3.4357e-06
-0.000162232
-1.76141e-06
-0.000161781
-7.03837e-06
-0.000160738
-1.23536e-05
-0.0001591
-1.76624e-05
-0.000156865
-2.29171e-05
-0.00015404
-2.80676e-05
-0.000150634
-3.30617e-05
-0.000146663
-3.78464e-05
-0.000142147
-4.23675e-05
-0.000137114
-4.65716e-05
-0.000131596
-5.0406e-05
-0.000125633
-5.38204e-05
-0.000119268
-5.67675e-05
-0.000112553
-5.9204e-05
-0.000105543
-6.10922e-05
-9.82972e-05
-6.24004e-05
-9.08814e-05
-6.31042e-05
-8.33629e-05
-6.31877e-05
-7.58121e-05
-6.2644e-05
-6.83009e-05
-6.14759e-05
-6.09014e-05
-5.96969e-05
-5.36849e-05
-5.73313e-05
-4.67207e-05
-5.44144e-05
-4.00746e-05
-5.09927e-05
-3.38078e-05
-4.71237e-05
-2.79759e-05
-4.28754e-05
-2.26275e-05
-3.83261e-05
-1.78032e-05
-3.35636e-05
-1.35354e-05
-2.86844e-05
-9.84707e-06
-2.37929e-05
-6.75178e-06
-1.90005e-05
-4.25361e-06
-1.44247e-05
-2.34729e-06
-1.01881e-05
-1.01876e-06
-6.41674e-06
-2.4599e-07
-3.23906e-06
-7.89344e-07
-5.18357e-07
3.37146e-06
-1.96789e-06
1.00429e-05
-4.2507e-06
1.65163e-05
-7.27609e-06
2.2698e-05
-1.09601e-05
2.852e-05
-1.52252e-05
3.39318e-05
-1.99999e-05
3.88981e-05
-2.5218e-05
4.33969e-05
-3.08186e-05
4.74168e-05
-3.67451e-05
5.09549e-05
-4.29448e-05
5.4015e-05
-4.93685e-05
5.66051e-05
-5.59704e-05
5.87367e-05
-6.27067e-05
6.04227e-05
-6.95363e-05
6.16766e-05
-7.64198e-05
6.25119e-05
-8.33191e-05
6.29409e-05
-9.01976e-05
6.29748e-05
-9.70194e-05
6.26232e-05
-0.000103749
6.18943e-05
-0.000110353
6.07946e-05
-0.000116797
5.93296e-05
-0.000123046
5.75039e-05
-0.000129067
5.53216e-05
-0.000134827
5.27869e-05
-0.000140293
4.99043e-05
-0.000145432
4.66797e-05
-0.000150211
4.31201e-05
-0.000154601
3.92349e-05
-0.000158568
3.50356e-05
-0.000162085
3.05369e-05
-0.000165122
2.57565e-05
-0.000167652
2.07159e-05
-0.00016965
1.54401e-05
-0.000171094
9.95829e-06
-0.000171962
4.30362e-06
-0.000172236
-1.48664e-06
-0.000171904
-7.37119e-06
-0.000170952
-1.33048e-05
-0.000169376
-1.92388e-05
-0.000167172
-2.51208e-05
-0.000164344
-3.08961e-05
-0.000160898
-3.65072e-05
-0.000156849
-4.18954e-05
-0.000152216
-4.70006e-05
-0.000147025
-5.17633e-05
-0.000141306
-5.61244e-05
-0.000135099
-6.00271e-05
-0.000128449
-6.34177e-05
-0.000121406
-6.62468e-05
-0.000114028
-6.84706e-05
-0.000106377
-7.00518e-05
-9.85194e-05
-7.09614e-05
-9.0528e-05
-7.11791e-05
-8.24772e-05
-7.06948e-05
-7.44438e-05
-6.95093e-05
-6.65057e-05
-6.7635e-05
-5.87404e-05
-6.50966e-05
-5.12239e-05
-6.1931e-05
-4.40288e-05
-5.81878e-05
-3.72236e-05
-5.39289e-05
-3.08708e-05
-4.92281e-05
-2.50261e-05
-4.41708e-05
-1.97371e-05
-3.88526e-05
-1.50424e-05
-3.33791e-05
-1.0971e-05
-2.78643e-05
-7.54193e-06
-2.24295e-05
-4.76409e-06
-1.72026e-05
-2.63623e-06
-1.23159e-05
-1.14748e-06
-7.90549e-06
-2.78049e-07
-4.1085e-06
-1.06739e-06
-5.52971e-07
3.92443e-06
-2.09696e-06
1.15869e-05
-4.52521e-06
1.89445e-05
-7.73884e-06
2.59116e-05
-1.16464e-05
3.24276e-05
-1.61638e-05
3.84492e-05
-2.12137e-05
4.3948e-05
-2.67249e-05
4.89082e-05
-3.26323e-05
5.33241e-05
-3.88756e-05
5.71983e-05
-4.53994e-05
6.05387e-05
-5.21521e-05
6.33579e-05
-5.90858e-05
6.56704e-05
-6.61556e-05
6.74924e-05
-7.33189e-05
6.88399e-05
-8.05355e-05
6.97284e-05
-8.77666e-05
7.0172e-05
-9.49751e-05
7.01832e-05