/*--------------------------------*- C++ -*----------------------------------*\
  =========                 |
  \\      /  F ield         | OpenFOAM: The Open Source CFD Toolbox
   \\    /   O peration     | Website:  https://openfoam.org
    \\  /    A nd           | Version:  dev
     \\/     M anipulation  |
\*---------------------------------------------------------------------------*/
FoamFile
{
    format      ascii;
    class       volScalarField;
    location    "25.2";
    object      p;
}
// * * * * * * * * * * * * * * * * * * * * * * * * * * * * * * * * * * * * * //

dimensions      [0 2 -2 0 0 0 0];

internalField   nonuniform List<scalar> 
5184
(
2.74822e-08
-1.32364e-05
-0.000100165
-0.000253765
-0.000453664
-0.000682678
-0.000926608
-0.00117353
-0.00141431
-0.00164181
-0.00185063
-0.00203674
-0.00219722
-0.00232998
-0.00243353
-0.00250688
-0.00254936
-0.00256052
-0.00254011
-0.00248795
-0.00240395
-0.00228811
-0.00214048
-0.0019612
-0.00175049
-0.00150876
-0.00123652
-0.000934537
-0.000603803
-0.000245589
0.000138522
0.000546605
0.000976367
0.00142514
0.00188985
0.00236706
0.00285297
0.00334339
0.00383386
0.00431964
0.00479579
0.00525724
0.00569888
0.00611561
0.00650249
0.00685481
0.0071682
0.00743875
0.00766307
0.00783844
0.00796285
0.00803509
0.00805481
0.00802257
0.00793987
0.00780915
0.00763381
0.00741815
0.00716738
0.00688757
0.00658555
0.00626895
0.00594606
0.00562585
0.00531785
0.00503216
0.00477928
0.00456982
0.00441374
0.0043195
0.00429256
0.00431981
1.18652e-05
-1.34844e-06
-7.66386e-05
-0.000204959
-0.000370635
-0.000561229
-0.000765836
-0.000974868
-0.00118041
-0.00137609
-0.00155685
-0.00171881
-0.00185899
-0.00197517
-0.0020657
-0.0021294
-0.00216541
-0.00217312
-0.00215211
-0.0021021
-0.00202291
-0.00191445
-0.00177675
-0.0016099
-0.00141413
-0.0011898
-0.000937454
-0.000657811
-0.000351833
-2.07402e-05
0.000333963
0.000710459
0.0011066
0.00151989
0.0019475
0.00238623
0.00283258
0.00328273
0.00373257
0.0041778
0.00461392
0.00503632
0.00544037
0.00582149
0.00617523
0.00649735
0.00678396
0.00703157
0.00723721
0.00739849
0.00751368
0.00758181
0.00760266
0.00757686
0.00750588
0.00739205
0.00723854
0.00704937
0.00682934
0.00658398
0.00631955
0.00604292
0.00576153
0.0054833
0.00521653
0.00496979
0.00475176
0.00457081
0.00443422
0.00434794
0.00431938
0.00434697
9.74383e-05
7.2345e-05
-3.41985e-06
-0.000121358
-0.000269402
-0.000437923
-0.000618215
-0.000802451
-0.000983936
-0.00115712
-0.0013175
-0.0014615
-0.0015863
-0.00168974
-0.00177018
-0.00182637
-0.00185739
-0.00186256
-0.00184138
-0.00179349
-0.00171866
-0.00161673
-0.00148769
-0.00133158
-0.0011486
-0.000939074
-0.000703496
-0.000442544
-0.000157115
0.000151646
0.000482328
0.000833229
0.00120234
0.00158733
0.00198555
0.00239403
0.0028095
0.00322842
0.00364696
0.00406113
0.00446675
0.00485956
0.00523527
0.00558964
0.00591855
0.00621812
0.00648476
0.00671528
0.00690696
0.00705764
0.00716578
0.00723053
0.00725178
0.00723018
0.00716715
0.00706494
0.00692654
0.00675574
0.00655703
0.00633554
0.00609705
0.00584784
0.00559467
0.00534467
0.00510519
0.0048837
0.00468767
0.00452416
0.00439919
0.00431798
0.00429018
0.00432079
0.00025162
0.000200024
0.000111971
-7.24748e-06
-0.000149935
-0.000308298
-0.000475207
-0.000644295
-0.000810023
-0.000967707
-0.00111348
-0.00124421
-0.00135739
-0.00145106
-0.00152369
-0.00157411
-0.00160141
-0.00160491
-0.00158407
-0.00153851
-0.00146795
-0.00137221
-0.00125119
-0.0011049
-0.000933497
-0.000737228
-0.000516522
-0.000271985
-4.43225e-06
0.00028509
0.00059528
0.000924562
0.00127106
0.00163261
0.00200672
0.00239062
0.00278123
0.00317522
0.00356899
0.00395879
0.00434066
0.0047106
0.00506454
0.00539849
0.00570855
0.00599106
0.00624262
0.00646024
0.00664136
0.00678395
0.00688657
0.00694847
0.00696954
0.00695045
0.00689259
0.00679809
0.00666983
0.0065114
0.00632702
0.00612155
0.00590035
0.00566926
0.0054345
0.00520255
0.00498006
0.00477372
0.00459012
0.00443555
0.00431544
0.00423482
0.00420377
0.00422899
0.000455683
0.000366991
0.000258255
0.000130385
-1.41446e-05
-0.000169153
-0.000328863
-0.000488272
-0.000642966
-0.000789149
-0.000923645
-0.00104384
-0.00114762
-0.00123332
-0.00129958
-0.00134537
-0.00136986
-0.0013724
-0.00135248
-0.0013097
-0.00124374
-0.00115438
-0.00104149
-0.000905012
-0.000745016
-0.000561692
-0.000355379
-0.000126589
0.000123967
0.000395358
0.000686407
0.000995672
0.00132143
0.00166166
0.00201405
0.00237599
0.0027446
0.00311673
0.00348898
0.00385776
0.00421933
0.00456985
0.00490546
0.00522232
0.00551672
0.00578511
0.00602426
0.00623128
0.0064037
0.00653959
0.00663758
0.0066969
0.0067175
0.00670001
0.00664576
0.0065568
0.00643589
0.00628642
0.00611243
0.00591848
0.00570963
0.00549132
0.00526929
0.00504949
0.00483798
0.00464079
0.00446381
0.00431268
0.00419235
0.00410759
0.00406719
0.00407698
0.00069339
0.000561339
0.000426107
0.00028397
0.000131933
-2.52186e-05
-0.000182867
-0.000337272
-0.000485094
-0.000623407
-0.000749741
-0.000862046
-0.000958652
-0.00103821
-0.00109963
-0.00114205
-0.00116477
-0.00116719
-0.00114886
-0.00110938
-0.00104842
-0.000965712
-0.000861077
-0.000734398
-0.000585662
-0.000414969
-0.000222558
-8.82897e-06
0.000225628
0.000480008
0.00075327
0.00104412
0.00135098
0.00167199
0.00200501
0.00234758
0.00269698
0.00305022
0.00340407
0.00375509
0.00409969
0.00443417
0.00475478
0.0050578
0.00533962
0.00559679
0.00582614
0.00602484
0.00619048
0.00632113
0.00641544
0.00647266
0.00649268
0.0064761
0.00642418
0.0063389
0.00622289
0.00607939
0.00591225
0.0057258
0.00552484
0.00531446
0.00510003
0.00488706
0.0046811
0.00448763
0.00431198
0.00415921
0.00403387
0.00394037
0.00388518
0.00387207
0.000950912
0.000772176
0.000606625
0.000446044
0.000282073
0.000118324
-4.15674e-05
-0.000194999
-0.000339634
-0.000473385
-0.000594478
-0.000701439
-0.000793062
-0.000868364
-0.000926543
-0.000966944
-0.000989009
-0.000992261
-0.000976287
-0.000940713
-0.000885205
-0.000809469
-0.00071326
-0.000596396
-0.000458774
-0.000300392
-0.000121376
7.79981e-05
0.000297272
0.000535783
0.000792638
0.00106669
0.00135652
0.00166043
0.00197641
0.00230217
0.00263515
0.00297247
0.00331103
0.00364753
0.00397846
0.00430022
0.00460915
0.00490157
0.00517392
0.0054228
0.00564502
0.00583778
0.00599863
0.00612565
0.00621743
0.00627318
0.00629274
0.00627664
0.00622607
0.0061429
0.00602966
0.00588947
0.00572601
0.00554342
0.00534627
0.0051394
0.00492786
0.0047168
0.00451137
0.00431663
0.00413743
0.00397834
0.00384359
0.00373723
0.00366292
0.00362188
0.00121611
0.000989355
0.00079122
0.000609326
0.000430205
0.000256499
9.10063e-05
-6.46989e-05
-0.000209204
-0.000341211
-0.000459623
-0.000563534
-0.000652211
-0.000725052
-0.000781555
-0.000821294
-0.000843882
-0.000848961
-0.000836186
-0.000805214
-0.000755708
-0.000687344
-0.000599821
-0.000492879
-0.000366317
-0.000220024
-5.39999e-05
0.000131614
0.000336505
0.000560161
0.000801844
0.00106057
0.00133506
0.00162378
0.00192488
0.00223621
0.00255531
0.00287945
0.00320562
0.0035306
0.00385097
0.00416316
0.00446354
0.00474846
0.00501434
0.00525774
0.00547548
0.00566466
0.00582279
0.00594787
0.00603842
0.00609356
0.00611305
0.00609732
0.00604747
0.00596526
0.00585313
0.00571407
0.00555162
0.0053698
0.00517295
0.00496575
0.00475298
0.00453953
0.00433025
0.00412985
0.00394279
0.00377325
0.00362525
0.0035025
0.00340575
0.00333356
0.00147872
0.00120372
0.000971829
0.000766786
0.000570286
0.000384165
0.000210513
4.99741e-05
-9.68897e-05
-0.000229518
-0.00034746
-0.000450364
-0.000537961
-0.000610027
-0.000666368
-0.000706796
-0.000731104
-0.000739057
-0.000730386
-0.000704785
-0.000661914
-0.000601417
-0.000522933
-0.000426118
-0.000310669
-0.000176352
-2.30314e-05
0.000149296
0.000340471
0.000550145
0.00077774
0.00102243
0.00128312
0.0015584
0.00184657
0.00214562
0.00245321
0.0027667
0.00308318
0.00339947
0.00371219
0.00401779
0.00431263
0.00459303
0.00485535
0.00509609
0.00531197
0.00549999
0.00565757
0.00578256
0.00587338
0.00592901
0.0059491
0.00593396
0.00588457
0.00580261
0.00569036
0.00555073
0.00538715
0.0052035
0.005004
0.00479315
0.0045756
0.00435602
0.00413902
0.00392909
0.0037304
0.00354682
0.00338224
0.00324018
0.00311845
0.00301312
0.00172976
0.00140702
0.00114096
0.000911696
0.000696349
0.000496076
0.000312358
0.000144996
-6.2327e-06
-0.000141457
-0.000260832
-0.000364538
-0.00045275
-0.000525621
-0.000583258
-0.000625709
-0.000652946
-0.000664858
-0.000661254
-0.000641862
-0.000606339
-0.000554293
-0.000485298
-0.000398919
-0.00029474
-0.000172398
-3.16137e-05
0.000127772
0.000305766
0.000502186
0.000716627
0.000948431
0.00119666
0.00146007
0.0017371
0.00202586
0.00232412
0.00262933
0.00293864
0.00324891
0.00355677
0.00385866
0.00415088
0.00442968
0.00469135
0.00493225
0.00514897
0.00533837
0.00549769
0.00562465
0.00571746
0.00577498
0.00579667
0.0057827
0.00573391
0.00565186
0.00553871
0.00539727
0.00523087
0.00504329
0.00483866
0.00462136
0.00439593
0.00416692
0.00393883
0.00371594
0.00350229
0.00330152
0.0031175
0.00295366
0.00280505
0.00266535
0.0019613
0.00159174
0.00129163
0.00103765
0.000802576
0.000586983
0.000391822
0.000216123
5.8936e-05
-8.05102e-05
-0.000202943
-0.000309042
-0.000399411
-0.00047456
-0.000534886
-0.000580668
-0.000612048
-0.000629037
-0.000631513
-0.000619237
-0.000591857
-0.000548939
-0.000489983
-0.000414457
-0.000321824
-0.000211583
-8.32997e-05
6.335e-05
0.000228547
0.000412288
0.000614345
0.000834235
0.00107119
0.00132412
0.00159161
0.00187188
0.00216283
0.00246197
0.00276649
0.00307329
0.00337896
0.00367992
0.00397239
0.00425251
0.00451644
0.00476038
0.00498075
0.0051742
0.00533778
0.00546898
0.0055658
0.00562689
0.00565153
0.00563968
0.00559204
0.00551
0.00539561
0.00525157
0.00508112
0.00488795
0.00467615
0.00445003
0.00421409
0.00397281
0.00373063
0.00349178
0.00326019
0.00303944
0.00283346
0.00264575
0.00246872
0.00229384
0.00216618
0.00175101
0.00141734
0.00113856
0.000883325
0.000651691
0.000444137
0.000258977
9.4585e-05
-5.04139e-05
-0.000177285
-0.000287176
-0.000381095
-0.000459892
-0.00052424
-0.000574632
-0.000611374
-0.000634583
-0.000644204
-0.000640018
-0.000621659
-0.000588642
-0.000540384
-0.000476248
-0.000395567
-0.00029769
-0.000182022
-4.80599e-05
0.000104561
0.000276023
0.000466287
0.000675052
0.000901722
0.00114538
0.00140474
0.00167817
0.00196364
0.00225874
0.00256072
0.00286645
0.00317253
0.00347528
0.00377084
0.00405521
0.00432437
0.00457434
0.0048013
0.00500167
0.00517224
0.00531022
0.00541338
0.0054801
0.0055094
0.00550105
0.00545552
0.00537403
0.00525851
0.00511152
0.00493623
0.00473627
0.00451569
0.00427881
0.0040301
0.00377408
0.00351518
0.00325768
0.00300552
0.00276228
0.00253211
0.00231865
0.00211187
0.00190113
0.00233785
0.00187845
0.00151195
0.00120861
0.000933126
0.000685084
0.000464527
0.000269099
9.65369e-05
-5.50971e-05
-0.000187574
-0.000302486
-0.000401223
-0.000484949
-0.000554596
-0.000610854
-0.000654177
-0.00068478
-0.000702661
-0.000707611
-0.000699239
-0.000676997
-0.000640215
-0.000588137
-0.000519956
-0.000434863
-0.000332086
-0.000210937
-7.08577e-05
8.85341e-05
0.000267396
0.000465622
0.000682801
0.000918179
0.00117063
0.00143865
0.0017203
0.00201326
0.00231478
0.00262176
0.00293074
0.00323796
0.00353944
0.00383101
0.00410846
0.00436756
0.00460423
0.00481461
0.00499516
0.0051428
0.00525497
0.00532974
0.00536585
0.00536279
0.00532079
0.00524086
0.00512476
0.00497496
0.0047945
0.00458698
0.00435645
0.00410725
0.0038439
0.003571
0.00329309
0.00301454
0.00273941
0.0024714
0.00221495
0.00197401
0.00173621
0.00148888
0.00247025
0.0019681
0.00156969
0.00124226
0.000946695
0.000682144
0.000448241
0.00024199
6.05287e-05
-9.86178e-05
-0.000237698
-0.000358722
-0.000463434
-0.000553294
-0.000629469
-0.000692831
-0.000743965
-0.00078317
-0.000810481
-0.000825689
-0.000828364
-0.000817887
-0.000793484
-0.000754274
-0.000699299
-0.000627579
-0.000538156
-0.000430142
-0.000302773
-0.000155456
1.21782e-05
0.000200228
0.000408479
0.000636358
0.000882904
0.00114674
0.00142604
0.00171855
0.00202157
0.00233198
0.00264628
0.00296061
0.00327084
0.00357262
0.00386151
0.004133
0.0043827
0.00460642
0.00480026
0.00496078
0.00508502
0.0051707
0.00521621
0.00522071
0.00518414
0.00510728
0.00499168
0.00483964
0.00465415
0.00443876
0.00419751
0.00393482
0.00365531
0.00336372
0.00306476
0.00276302
0.00246272
0.0021678
0.00188311
0.00161299
0.00134282
0.00105802
0.00255763
0.00201434
0.00158509
0.0012342
0.000918927
0.000637977
0.000390592
0.000173164
-1.77449e-05
-0.00018512
-0.000331661
-0.000459773
-0.000571531
-0.000668668
-0.000752567
-0.000824265
-0.000884457
-0.000933511
-0.000971485
-0.000998156
-0.00101304
-0.00101544
-0.00100446
-0.000979088
-0.0009382
-0.000880632
-0.000805227
-0.000710886
-0.000596624
-0.000461623
-0.000305289
-0.000127303
7.23334e-05
0.000293242
0.000534637
0.000795287
0.00107349
0.00136708
0.00167338
0.00198929
0.00231123
0.00263526
0.00295708
0.00327214
0.00357572
0.00386303
0.00412932
0.00437
0.00458078
0.00475776
0.00489758
0.00499749
0.00505549
0.00507033
0.00504164
0.00496987
0.00485635
0.0047032
0.00451329
0.00429016
0.00403786
0.0037609
0.00346406
0.00315227
0.0028305
0.0025036
0.0021761
0.00185223
0.00153735
0.00123632
0.000932325
0.000608846
0.00259461
0.00201185
0.00155294
0.00117938
0.000844906
0.000547826
0.000286983
5.81779e-05
-0.000142584
-0.000318776
-0.000473529
-0.000609617
-0.000729427
-0.000834943
-0.000927744
-0.00100901
-0.00107954
-0.00113974
-0.00118968
-0.00122911
-0.00125748
-0.001274
-0.00127765
-0.00126726
-0.00124152
-0.0011991
-0.0011386
-0.00105871
-0.000958206
-0.000836028
-0.000691339
-0.000523581
-0.000332526
-0.000118336
0.000118396
0.000376607
0.000654735
0.000950698
0.00126189
0.0015852
0.00191702
0.00225327
0.00258952
0.00292097
0.00324263
0.00354937
0.00383603
0.00409762
0.00432933
0.0045268
0.00468615
0.00480413
0.00487825
0.0049068
0.00488899
0.00482493
0.00471565
0.00456305
0.00436988
0.00413962
0.00387638
0.00358478
0.00326978
0.00293659
0.00259046
0.00223663
0.00187999
0.00152518
0.00117818
0.000844428
0.000504923
0.000141225
0.00257603
0.00195557
0.00146827
0.00107293
0.000719907
0.000407089
0.000132935
-0.000107334
-0.000318248
-0.000503752
-0.000667386
-0.000812275
-0.000941098
-0.00105607
-0.00115894
-0.00125103
-0.0013332
-0.0014059
-0.0014692
-0.0015228
-0.00156606
-0.00159809
-0.00161773
-0.00162365
-0.00161436
-0.00158829
-0.00154384
-0.00147944
-0.00139363
-0.00128507
-0.00115268
-0.00099562
-0.000813424
-0.000606013
-0.000373761
-0.000117537
0.000161256
0.000460656
0.00077813
0.00111058
0.00145436
0.0018053
0.00215879
0.0025098
0.00285304
0.00318299
0.00349408
0.0037808
0.00403786
0.0042603
0.00444365
0.00458409
0.00467855
0.00472479
0.00472152
0.00466841
0.00456614
0.00441637
0.00422166
0.00398543
0.00371185
0.00340565
0.00307203
0.0027165
0.00234472
0.00196234
0.00157473
0.00118701
0.000805881
0.000437463
6.05282e-05
-0.000345338
0.002497
0.0018407
0.00132638
0.00091024
0.000539405
0.000211336
-7.58946e-05
-0.000327626
-0.000548914
-0.000744156
-0.000917284
-0.00107176
-0.00121053
-0.00133602
-0.00145015
-0.00155434
-0.00164952
-0.00173615
-0.00181428
-0.00188356
-0.00194325
-0.00199235
-0.00202954
-0.0020533
-0.00206196
-0.00205371
-0.00202671
-0.00197915
-0.00190926
-0.00181545
-0.00169633
-0.0015508
-0.00137809
-0.00117786
-0.00095025
-0.000695893
-0.000416006
-0.000112402
0.000212487
0.000555602
0.000913276
0.00128125
0.00165475
0.00202851
0.00239691
0.00275404
0.00309386
0.00341031
0.00369752
0.00394987
0.00416226
0.00433016
0.00444983
0.00451841
0.00453402
0.00449582
0.00440406
0.00426005
0.00406616
0.00382571
0.00354288
0.00322258
0.00287027
0.0024918
0.0020933
0.00168091
0.00126057
0.000837977
0.000420623
1.5427e-05
-0.000401143
-0.000851565
0.00235286
0.00166269
0.00112281
0.000686926
0.000299089
-4.36723e-05
-0.000343674
-0.000606808
-0.000838637
-0.001044
-0.0012272
-0.00139202
-0.00154166
-0.00167875
-0.00180535
-0.00192296
-0.00203256
-0.00213463
-0.00222918
-0.00231577
-0.0023936
-0.00246148
-0.00251796
-0.00256133
-0.00258969
-0.002601
-0.00259316
-0.00256407
-0.00251168
-0.00243409
-0.0023296
-0.00219678
-0.00203458
-0.00184234
-0.00161991
-0.00136768
-0.00108663
-0.000778386
-0.000445253
-9.02111e-05
0.000283077
0.000670289
0.00106649
0.00146617
0.00186339
0.00225181
0.0026249
0.00297601
0.00329859
0.00358632
0.00383333
0.00403433
0.0041848
0.00428113
0.00432074
0.00430218
0.00422516
0.0040906
0.00390059
0.0036583
0.00336794
0.00303455
0.0026639
0.00226223
0.00183618
0.0013925
0.000937739
0.000478273
2.25089e-05
-0.00042176
-0.00088048
-0.0013783
0.00213919
0.00141723
0.000853341
0.000398844
-5.12271e-06
-0.000361962
-0.000674382
-0.000948814
-0.00119132
-0.00140715
-0.00160099
-0.00177691
-0.00193836
-0.00208814
-0.00222843
-0.00236084
-0.00248636
-0.00260547
-0.00271812
-0.00282381
-0.0029216
-0.00301018
-0.00308791
-0.00315287
-0.00320295
-0.00323584
-0.00324917
-0.00324054
-0.00320758
-0.00314807
-0.00305995
-0.00294148
-0.00279122
-0.0026082
-0.00239193
-0.00214251
-0.00186063
-0.00154771
-0.00120586
-0.000837946
-0.000447594
-3.91605e-05
0.000382284
0.000811017
0.00124074
0.00166471
0.00207582
0.00246682
0.00283041
0.0031595
0.00344734
0.00368777
0.00387537
0.00400565
0.00407523
0.00408189
0.00402472
0.00390412
0.00372183
0.00348083
0.0031853
0.00284041
0.00245224
0.00202748
0.00157335
0.00109725
0.000606474
0.000108131
-0.00038834
-0.000874175
-0.00137788
-0.00192644
0.00185186
0.0011003
0.000514023
4.21065e-05
-0.000377064
-0.000747322
-0.00107177
-0.00135737
-0.00161066
-0.00183731
-0.00204235
-0.00223013
-0.00240432
-0.00256791
-0.00272319
-0.00287182
-0.00301482
-0.00315266
-0.00328523
-0.00341192
-0.00353169
-0.00364306
-0.0037442
-0.003833
-0.00390707
-0.00396387
-0.00400071
-0.00401487
-0.00400366
-0.00396449
-0.00389494
-0.00379287
-0.00365647
-0.00348437
-0.00327573
-0.00303027
-0.00274839
-0.00243119
-0.00208057
-0.00169923
-0.00129069
-0.000859323
-0.000410287
5.04874e-05
0.000516384
0.000980201
0.00143429
0.0018707
0.00228136
0.00265829
0.00299379
0.00328068
0.00351254
0.00368385
0.00379026
0.00382867
0.00379739
0.0036962
0.00352637
0.0032906
0.002993
0.00263885
0.00223454
0.00178726
0.00130483
0.000795416
0.000267103
-0.000272131
-0.000811718
-0.00134181
-0.00189368
-0.00249677
0.00148698
0.000708148
0.000101195
-0.000386891
-0.000820293
-0.00120328
-0.00153934
-0.00183596
-0.00210014
-0.00233795
-0.00255474
-0.00275515
-0.00294307
-0.00312162
-0.00329321
-0.00345955
-0.00362169
-0.00378004
-0.00393444
-0.0040842
-0.00422811
-0.00436456
-0.00449151
-0.00460662
-0.00470725
-0.00479058
-0.0048536
-0.00489328
-0.00490654
-0.0048904
-0.00484205
-0.00475892
-0.00463879
-0.00447985
-0.00428082
-0.00404103
-0.00376047
-0.00343992
-0.00308098
-0.0026861
-0.00225867
-0.001803
-0.00132431
-0.000828694
-0.000323071
0.000184919
0.000687043
0.00117464
0.00163878
0.00207053
0.00246113
0.00280227
0.00308634
0.00330668
0.00345778
0.00353549
0.0035372
0.00346189
0.00331023
0.00308458
0.00278885
0.00242844
0.00201001
0.00154126
0.0010307
0.000487314
-7.99127e-05
-0.000662046
-0.00124726
-0.00182451
-0.00242804
-0.00308998
0.00104101
0.000237332
-0.0003885
-0.000891449
-0.00133807
-0.00173306
-0.00208031
-0.00238779
-0.00266296
-0.00291227
-0.00314139
-0.00335522
-0.00355785
-0.00375255
-0.00394183
-0.00412744
-0.00431042
-0.00449117
-0.00466945
-0.00484445
-0.00501485
-0.00517884
-0.00533421
-0.00547835
-0.00560839
-0.00572119
-0.00581343
-0.0058817
-0.00592255
-0.00593259
-0.00590856
-0.00584744
-0.00574652
-0.00560351
-0.00541665
-0.0051848
-0.0049075
-0.0045851
-0.00421883
-0.00381085
-0.00336432
-0.00288343
-0.00237339
-0.00184042
-0.00129171
-0.00073531
-0.000180043
0.000364679
0.000889041
0.00138305
0.00183678
0.00224068
0.00258579
0.00286411
0.00306881
0.00319449
0.0032374
0.00319558
0.00306894
0.00285932
0.00257039
0.00220756
0.00177776
0.0012892
0.000751129
0.000173429
-0.000433923
-0.00106093
-0.00169436
-0.00232185
-0.00298087
-0.00370646
0.000510708
-0.000315246
-0.000958084
-0.00147454
-0.00193334
-0.00233959
-0.00269758
-0.00301576
-0.00330202
-0.00356317
-0.00380521
-0.00403327
-0.00425163
-0.0044637
-0.00467208
-0.00487855
-0.00508417
-0.00528929
-0.00549359
-0.00569615
-0.00589552
-0.00608971
-0.00627629
-0.00645244
-0.00661499
-0.00676051
-0.00688532
-0.00698566
-0.00705765
-0.00709746
-0.00710135
-0.00706581
-0.0069876
-0.00686389
-0.00669238
-0.00647137
-0.00619989
-0.00587779
-0.00550584
-0.00508582
-0.00462057
-0.00411408
-0.00357148
-0.00299904
-0.00240417
-0.00179531
-0.00118185
-0.000573971
1.75781e-05
0.000581682
0.00110715
0.00158302
0.00199885
0.00234509
0.00261339
0.00279688
0.00289046
0.00289099
0.00279745
0.00261097
0.00233486
0.00197443
0.00153684
0.00103084
0.000466415
-0.000145565
-0.00079403
-0.0014678
-0.0021521
-0.00283311
-0.00355178
-0.00434629
-0.000106767
-0.000952325
-0.00161022
-0.00213879
-0.00260868
-0.00302543
-0.00339371
-0.00372242
-0.00401986
-0.00429322
-0.00454876
-0.00479186
-0.00502698
-0.00525767
-0.0054866
-0.00571558
-0.00594568
-0.0061772
-0.00640974
-0.0066423
-0.00687325
-0.00710044
-0.00732124
-0.00753258
-0.00773101
-0.00791277
-0.00807387
-0.0082101
-0.00831718
-0.0083908
-0.00842671
-0.00842086
-0.00836942
-0.008269
-0.00811665
-0.00791006
-0.00764766
-0.00732871
-0.00695344
-0.00652312
-0.00604021
-0.00550838
-0.00493258
-0.00431908
-0.0036754
-0.00301035
-0.00233384
-0.00165681
-0.000990971
-0.000348631
0.000257651
0.00081537
0.00131243
0.00173755
0.00208059
0.00233298
0.00248801
0.00254112
0.00249009
0.00233519
0.00207913
0.00172705
0.00128626
0.00076598
0.000177005
-0.000468754
-0.00115903
-0.00188134
-0.00261918
-0.00335711
-0.0041399
-0.00500911
-0.000813869
-0.00167625
-0.00234719
-0.00288642
-0.00336631
-0.00379278
-0.00417088
-0.00450994
-0.00481867
-0.00510457
-0.0053742
-0.00563316
-0.00588609
-0.00613664
-0.00638757
-0.00664074
-0.00689719
-0.00715719
-0.00742028
-0.00768533
-0.00795059
-0.00821373
-0.0084719
-0.0087218
-0.0089597
-0.00918152
-0.00938288
-0.00955918
-0.00970569
-0.00981759
-0.0098901
-0.00991857
-0.00989856
-0.009826
-0.00969728
-0.00950939
-0.00926007
-0.00894787
-0.00857239
-0.00813432
-0.00763557
-0.00707941
-0.00647051
-0.00581498
-0.00512043
-0.0043959
-0.0036518
-0.00289979
-0.00215258
-0.00142368
-0.000727127
-7.70878e-05
0.000512507
0.0010284
0.00145847
0.00179214
0.0020208
0.00213817
0.00214057
0.00202711
0.00179975
0.00146324
0.00102493
0.000494501
-0.000116461
-0.000794931
-0.00152734
-0.00229977
-0.0030938
-0.00389221
-0.00474386
-0.00569403
-0.00161262
-0.00248894
-0.00317086
-0.00371929
-0.00420804
-0.00464344
-0.00503087
-0.0053801
-0.0057002
-0.00599898
-0.00628327
-0.00655889
-0.00683064
-0.0071023
-0.00737668
-0.00765569
-0.00794038
-0.00823096
-0.00852692
-0.00882702
-0.00912938
-0.0094315
-0.00973034
-0.0100223
-0.0103035
-0.0105694
-0.0108152
-0.0110361
-0.0112267
-0.0113818
-0.0114959
-0.0115639
-0.0115805
-0.011541
-0.011441
-0.0112768
-0.0110453
-0.0107443
-0.0103725
-0.00993007
-0.00941818
-0.00883955
-0.00819844
-0.00750072
-0.00675392
-0.00596724
-0.00515151
-0.00431905
-0.00348355
-0.00265975
-0.00186323
-0.00110994
-0.000415824
0.000203686
0.000734186
0.0011628
0.00147871
0.00167357
0.00174191
0.00168137
0.00149288
0.00118058
0.000751741
0.000216381
-0.000413108
-0.00112254
-0.00189694
-0.0027208
-0.0035736
-0.0044361
-0.00536166
-0.00639948
-0.00250456
-0.00339189
-0.00408266
-0.00463879
-0.00513527
-0.00557877
-0.00597505
-0.00633424
-0.00666576
-0.00697773
-0.00727722
-0.00757027
-0.00786182
-0.00815576
-0.00845501
-0.00876149
-0.00907626
-0.00939951
-0.00973065
-0.0100684
-0.0104107
-0.0107548
-0.0110977
-0.0114354
-0.0117637
-0.0120779
-0.0123727
-0.0126429
-0.0128827
-0.0130861
-0.0132473
-0.0133603
-0.0134192
-0.0134185
-0.0133531
-0.0132183
-0.0130101
-0.0127254
-0.0123623
-0.0119197
-0.0113983
-0.0108
-0.0101285
-0.00938934
-0.00858979
-0.00773908
-0.00684835
-0.00593051
-0.00500015
-0.00407328
-0.00316704
-0.00229927
-0.00148809
-0.000751327
-0.000105938
0.000432586
0.000850831
0.00113802
0.00128649
0.00129207
0.00115429
0.000876468
0.000465523
-6.8275e-05
-0.000711779
-0.00144961
-0.00226528
-0.00314154
-0.00405553
-0.0049858
-0.00599052
-0.00712316
-0.00349076
-0.0043861
-0.00508358
-0.00564589
-0.00614894
-0.00659973
-0.00700433
-0.00737325
-0.00771621
-0.00804163
-0.00835681
-0.00866797
-0.00898022
-0.00929757
-0.00962301
-0.00995851
-0.0103051
-0.0106631
-0.0110316
-0.0114095
-0.0117945
-0.0121838
-0.0125741
-0.0129612
-0.0133406
-0.0137073
-0.0140558
-0.0143802
-0.0146743
-0.0149317
-0.0151457
-0.0153097
-0.0154171
-0.0154616
-0.0154371
-0.015338
-0.0151593
-0.0148971
-0.0145482
-0.0141108
-0.0135844
-0.0129703
-0.0122713
-0.0114925
-0.0106407
-0.00972502
-0.00875678
-0.00774937
-0.00671819
-0.00568046
-0.00465491
-0.00366134
-0.00272018
-0.00185187
-0.00107619
-0.000411598
0.000125515
0.000521501
0.000766076
0.000852806
0.000779449
0.000548101
0.000165114
-0.000359189
-0.00101098
-0.00177368
-0.00262919
-0.00355836
-0.00453576
-0.00553743
-0.0066268
-0.00786184
-0.00457176
-0.0054721
-0.00617414
-0.00674112
-0.00724957
-0.00770679
-0.00811918
-0.00849755
-0.00885192
-0.00919097
-0.00952222
-0.00985209
-0.0101858
-0.0105276
-0.0108804
-0.0112464
-0.0116265
-0.012021
-0.0124292
-0.0128496
-0.01328
-0.0137174
-0.0141583
-0.0145985
-0.0150331
-0.0154567
-0.0158635
-0.0162471
-0.0166009
-0.0169179
-0.0171908
-0.0174121
-0.0175747
-0.0176711
-0.0176944
-0.0176379
-0.0174958
-0.0172627
-0.0169346
-0.0165085
-0.0159828
-0.0153577
-0.0146353
-0.0138197
-0.0129173
-0.0119369
-0.0108898
-0.00978957
-0.00865243
-0.0074967
-0.00634267
-0.00521214
-0.00412795
-0.00311334
-0.0021912
-0.0013833
-0.000709411
-0.000186533
0.000171923
0.00035676
0.000363478
0.000192544
-0.000150615
-0.00065586
-0.00130882
-0.00209172
-0.0029848
-0.00396681
-0.00500951
-0.00608617
-0.00726581
-0.00861125
-0.00574758
-0.00664992
-0.00735439
-0.00792453
-0.00843721
-0.00890001
-0.0093196
-0.00970708
-0.0100727
-0.0104255
-0.0107731
-0.0111222
-0.011478
-0.011845
-0.0122263
-0.0126239
-0.013039
-0.0134717
-0.0139214
-0.0143866
-0.0148649
-0.0153534
-0.0158482
-0.0163449
-0.0168385
-0.0173233
-0.017793
-0.0182409
-0.0186599
-0.0190423
-0.0193802
-0.0196655
-0.0198899
-0.0200454
-0.0201238
-0.0201175
-0.0200194
-0.0198231
-0.0195231
-0.0191153
-0.018597
-0.0179669
-0.0172263
-0.0163781
-0.0154281
-0.0143844
-0.0132582
-0.0120631
-0.010816
-0.00953603
-0.00824505
-0.00696685
-0.00572673
-0.00455089
-0.00346558
-0.00249622
-0.00166641
-0.000997005
-0.000505093
-0.000203218
-9.86955e-05
-0.000193207
-0.000482682
-0.000957485
-0.00160291
-0.00240004
-0.00332738
-0.00436149
-0.00547096
-0.00662602
-0.00790168
-0.0093659
-0.00701771
-0.0079191
-0.00862391
-0.00919572
-0.00971146
-0.010179
-0.0106051
-0.0110013
-0.011378
-0.0117445
-0.0121085
-0.012477
-0.0128555
-0.0132483
-0.0136588
-0.014089
-0.0145402
-0.0150127
-0.0155056
-0.0160176
-0.0165461
-0.0170881
-0.0176397
-0.0181963
-0.0187526
-0.0193026
-0.0198398
-0.020357
-0.0208465
-0.0213001
-0.0217093
-0.0220651
-0.0223585
-0.0225803
-0.0227216
-0.0227734
-0.0227274
-0.0225759
-0.0223122
-0.0219306
-0.0214271
-0.0207992
-0.0200466
-0.0191714
-0.018178
-0.017074
-0.0158699
-0.0145794
-0.0132195
-0.0118104
-0.010375
-0.0089392
-0.00753074
-0.00617888
-0.00491344
-0.00376382
-0.00275791
-0.00192092
-0.00127425
-0.000834417
-0.000612224
-0.000612109
-0.000831891
-0.00126286
-0.00189025
-0.00269415
-0.00365129
-0.00473588
-0.00591308
-0.00714972
-0.0085272
-0.0101189
-0.00838109
-0.0092787
-0.00998181
-0.0105539
-0.0110715
-0.0115428
-0.0119749
-0.0123792
-0.0127667
-0.0131466
-0.013527
-0.013915
-0.0143162
-0.0147351
-0.0151753
-0.0156388
-0.0161271
-0.0166403
-0.0171778
-0.0177381
-0.0183188
-0.0189166
-0.0195277
-0.0201471
-0.0207695
-0.0213886
-0.0219976
-0.0225887
-0.0231539
-0.0236844
-0.0241709
-0.0246038
-0.0249732
-0.0252689
-0.0254807
-0.0255988
-0.0256133
-0.0255153
-0.0252965
-0.0249499
-0.0244697
-0.023852
-0.0230951
-0.0221994
-0.0211684
-0.0200084
-0.0187293
-0.0173444
-0.0158706
-0.0143287
-0.0127429
-0.0111407
-0.00955236
-0.0080102
-0.00654778
-0.0051988
-0.00399583
-0.002969
-0.00214466
-0.00154404
-0.00118215
-0.00106691
-0.0011987
-0.00157026
-0.00216714
-0.00296862
-0.00394974
-0.00508219
-0.0063274
-0.00764846
-0.00913355
-0.0108617
-0.00983613
-0.0107273
-0.0114268
-0.0119977
-0.0125161
-0.0129903
-0.0134274
-0.0138394
-0.014237
-0.0146299
-0.0150264
-0.0154336
-0.0158573
-0.0163024
-0.0167723
-0.0172695
-0.0177952
-0.0183498
-0.0189329
-0.0195427
-0.020177
-0.0208325
-0.0215051
-0.02219
-0.0228815
-0.0235732
-0.0242577
-0.0249271
-0.0255729
-0.0261856
-0.0267554
-0.0272718
-0.027724
-0.0281009
-0.0283912
-0.0285837
-0.0286674
-0.0286318
-0.0284671
-0.0281646
-0.0277169
-0.0271185
-0.0263657
-0.0254576
-0.0243961
-0.0231861
-0.0218365
-0.0203599
-0.0187729
-0.0170965
-0.0153558
-0.0135799
-0.0118014
-0.0100555
-0.00837984
-0.00681245
-0.00539104
-0.00415121
-0.0031249
-0.00233885
-0.00181312
-0.00155996
-0.00158304
-0.00187726
-0.00242897
-0.00321696
-0.00421466
-0.00539117
-0.00670388
-0.00811174
-0.00971014
-0.0115841
-0.0113807
-0.0122629
-0.012957
-0.0135255
-0.0140436
-0.0145197
-0.0149612
-0.0153799
-0.015787
-0.0161922
-0.016604
-0.0170298
-0.0174756
-0.0179463
-0.0184456
-0.0189761
-0.0195392
-0.0201355
-0.0207644
-0.0214244
-0.0221133
-0.0228277
-0.0235636
-0.024316
-0.0250791
-0.0258461
-0.0266096
-0.0273612
-0.0280919
-0.0287918
-0.0294502
-0.0300561
-0.0305978
-0.031063
-0.0314394
-0.0317145
-0.031876
-0.0319118
-0.0318106
-0.0315619
-0.0311565
-0.030587
-0.029848
-0.0289366
-0.0278529
-0.0266005
-0.0251865
-0.0236227
-0.0219251
-0.0201144
-0.0182165
-0.0162615
-0.014284
-0.0123226
-0.0104182
-0.00861394
-0.00695273
-0.00547618
-0.00422254
-0.00322484
-0.00250911
-0.00209288
-0.00198408
-0.00218054
-0.00267006
-0.00343137
-0.00443648
-0.00565187
-0.00703061
-0.00852709
-0.0102443
-0.0122734
-0.0130123
-0.0138834
-0.0145705
-0.0151353
-0.0156521
-0.0161291
-0.0165739
-0.0169985
-0.0174141
-0.0178306
-0.0182568
-0.0187001
-0.0191669
-0.0196622
-0.02019
-0.020753
-0.0213529
-0.0219903
-0.0226648
-0.0233751
-0.0241188
-0.0248928