/*--------------------------------*- C++ -*----------------------------------*\
  =========                 |
  \\      /  F ield         | OpenFOAM: The Open Source CFD Toolbox
   \\    /   O peration     | Website:  https://openfoam.org
    \\  /    A nd           | Version:  dev
     \\/     M anipulation  |
\*---------------------------------------------------------------------------*/
FoamFile
{
    format      ascii;
    class       volScalarField;
    location    "25.2";
    object      Ux;
}
// * * * * * * * * * * * * * * * * * * * * * * * * * * * * * * * * * * * * * //

dimensions      [0 1 -1 0 0 0 0];

internalField   nonuniform List<scalar> 
5184
(
1.24803e-05
4.54589e-05
8.04715e-05
9.60644e-05
8.21946e-05
3.64785e-05
-4.05372e-05
-0.000146836
-0.000279628
-0.00043586
-0.00061241
-0.000806248
-0.00101451
-0.00123452
-0.00146383
-0.00170019
-0.00194151
-0.0021859
-0.00243155
-0.00267679
-0.00292002
-0.00315967
-0.00339422
-0.00362214
-0.00384191
-0.00405198
-0.00425081
-0.00443682
-0.00460843
-0.00476406
-0.00490216
-0.0050212
-0.00511973
-0.00519636
-0.00524983
-0.00527904
-0.00528304
-0.0052611
-0.00521272
-0.00513767
-0.00503601
-0.00490812
-0.00475471
-0.00457682
-0.00437586
-0.00415358
-0.00391208
-0.00365378
-0.0033814
-0.00309796
-0.00280667
-0.00251098
-0.00221445
-0.00192072
-0.00163347
-0.00135635
-0.00109288
-0.000846436
-0.000620165
-0.000416917
-0.000239189
-8.90563e-05
3.1891e-05
0.000122638
0.000182851
0.000213034
0.000214771
0.00019111
0.000147076
9.07602e-05
3.662e-05
6.22824e-06
2.08869e-05
6.57302e-05
9.47772e-05
7.28324e-05
-1.89237e-05
-0.000187296
-0.000432866
-0.000752417
-0.00114041
-0.00159005
-0.00209402
-0.00264486
-0.00323526
-0.00385824
-0.00450719
-0.00517593
-0.00585864
-0.0065499
-0.00724456
-0.00793775
-0.00862477
-0.00930107
-0.00996217
-0.0106037
-0.0112211
-0.0118102
-0.0123664
-0.0128854
-0.0133627
-0.0137941
-0.0141753
-0.0145022
-0.0147709
-0.0149778
-0.0151196
-0.0151935
-0.0151971
-0.0151286
-0.0149869
-0.0147716
-0.0144832
-0.0141228
-0.0136926
-0.0131955
-0.0126356
-0.0120177
-0.0113476
-0.0106318
-0.00987778
-0.00909358
-0.00828792
-0.00746996
-0.00664924
-0.00583549
-0.00503849
-0.0042679
-0.0035331
-0.002843
-0.00220589
-0.00162924
-0.00111952
-0.000682034
-0.000320695
-3.77877e-05
0.000166319
0.000293543
0.00034863
0.000339843
0.000279666
0.000185943
8.63296e-05
1.96745e-05
1.76476e-05
4.13654e-05
1.9616e-05
-8.39895e-05
-0.000290215
-0.000607795
-0.00103799
-0.00157698
-0.00221761
-0.0029507
-0.00376596
-0.00465269
-0.00560018
-0.00659797
-0.007636
-0.00870473
-0.00979507
-0.0108984
-0.0120066
-0.0131117
-0.0142062
-0.0152828
-0.0163342
-0.0173532
-0.0183328
-0.0192659
-0.0201456
-0.0209649
-0.0217168
-0.0223947
-0.0229919
-0.0235022
-0.0239197
-0.0242389
-0.0244548
-0.0245633
-0.024561
-0.0244454
-0.0242149
-0.0238692
-0.0234093
-0.0228371
-0.0221562
-0.0213713
-0.0204889
-0.0195164
-0.0184628
-0.0173383
-0.0161543
-0.0149232
-0.0136583
-0.0123736
-0.0110838
-0.00980348
-0.00854769
-0.00733109
-0.00616791
-0.00507169
-0.00405495
-0.00312897
-0.00230348
-0.00158638
-0.000983411
-0.000497794
-0.000129852
0.000123483
0.000269299
0.000319435
0.000291013
0.000207249
0.00010239
2.4965e-05
8.84323e-06
-6.99269e-06
-0.000107553
-0.000322293
-0.000669439
-0.00115739
-0.00178688
-0.00255315
-0.00344765
-0.00445937
-0.00557581
-0.0067838
-0.00806992
-0.00942092
-0.0108239
-0.0122665
-0.0137367
-0.0152232
-0.016715
-0.0182016
-0.0196727
-0.0211185
-0.0225292
-0.023895
-0.0252065
-0.0264543
-0.0276289
-0.0287211
-0.0297219
-0.0306222
-0.0314136
-0.0320878
-0.0326373
-0.033055
-0.0333347
-0.0334712
-0.0334601
-0.0332986
-0.0329849
-0.0325187
-0.0319016
-0.0311364
-0.0302279
-0.0291826
-0.0280088
-0.0267164
-0.0253173
-0.0238246
-0.0222532
-0.0206192
-0.0189398
-0.0172331
-0.015518
-0.0138135
-0.0121389
-0.0105131
-0.00895443
-0.00748035
-0.00610699
-0.00484883
-0.00371836
-0.0027257
-0.00187817
-0.00117991
-0.000631382
-0.000228897
3.6016e-05
0.000177242
0.000214495
0.000173926
9.29566e-05
2.40127e-05
-2.12147e-06
-6.72642e-05
-0.000264031
-0.000609585
-0.00111641
-0.00179071
-0.00263148
-0.00363236
-0.00478322
-0.00607135
-0.00748241
-0.00900114
-0.010612
-0.0122994
-0.014048
-0.0158431
-0.0176702
-0.0195157
-0.021366
-0.0232082
-0.0250298
-0.0268185
-0.0285621
-0.0302488
-0.0318667
-0.0334043
-0.0348501
-0.0361927
-0.0374211
-0.0385245
-0.0394926
-0.0403156
-0.0409843
-0.0414906
-0.0418271
-0.0419877
-0.0419674
-0.041763
-0.0413725
-0.0407962
-0.0400357
-0.0390949
-0.0379797
-0.036698
-0.0352599
-0.0336774
-0.0319646
-0.0301376
-0.028214
-0.026213
-0.0241554
-0.0220626
-0.0199571
-0.0178617
-0.0157992
-0.0137924
-0.0118631
-0.010032
-0.00831852
-0.00673986
-0.00531101
-0.00404408
-0.00294796
-0.00202778
-0.00128449
-0.000714337
-0.000308331
-5.17167e-05
7.63717e-05
0.000103421
6.74316e-05
1.96498e-05
-1.36885e-05
-0.000132784
-0.000435674
-0.000924313
-0.00160332
-0.00247525
-0.00353627
-0.00477767
-0.00618736
-0.00775084
-0.00945198
-0.0112737
-0.0131986
-0.0152091
-0.0172879
-0.0194181
-0.0215833
-0.0237675
-0.0259553
-0.0281315
-0.0302815
-0.0323908
-0.0344453
-0.036431
-0.0383342
-0.0401411
-0.0418386
-0.0434133
-0.0448525
-0.0461438
-0.0472753
-0.0482358
-0.049015
-0.0496033
-0.0499927
-0.0501762
-0.0501485
-0.0499058
-0.0494464
-0.0487704
-0.0478801
-0.0467801
-0.0454772
-0.0439805
-0.0423017
-0.0404546
-0.0384554
-0.0363222
-0.0340753
-0.0317367
-0.0293297
-0.0268791
-0.0244104
-0.0219496
-0.0195228
-0.0171558
-0.0148736
-0.0127002
-0.0106574
-0.00876533
-0.00704116
-0.00549898
-0.00414929
-0.00299843
-0.0020482
-0.00129533
-0.000731049
-0.000340642
-0.000103164
8.99926e-06
3.24272e-05
1.36059e-05
-2.51749e-05
-0.000199931
-0.000613839
-0.00125241
-0.00211117
-0.00318796
-0.00447522
-0.00596124
-0.00763152
-0.00946952
-0.0114573
-0.0135759
-0.0158064
-0.0181293
-0.0205256
-0.0229767
-0.0254644
-0.0279707
-0.0304784
-0.0329705
-0.0354304
-0.0378419
-0.0401889
-0.0424557
-0.0446267
-0.0466865
-0.0486201
-0.0504126
-0.0520497
-0.0535176
-0.0548029
-0.0558933
-0.0567773
-0.0574444
-0.0578857
-0.0580936
-0.0580623
-0.0577877
-0.0572681
-0.0565037
-0.0554971
-0.0542534
-0.0527804
-0.0510882
-0.0491896
-0.0471
-0.0448372
-0.0424214
-0.0398749
-0.0372221
-0.0344888
-0.0317024
-0.028891
-0.0260837
-0.0233094
-0.0205969
-0.0179739
-0.0154672
-0.0131015
-0.0108991
-0.00887963
-0.00705921
-0.00545006
-0.00406003
-0.00289213
-0.00194408
-0.00120794
-0.000669779
-0.0003094
-9.99866e-05
-7.7739e-06
6.84741e-06
-3.63234e-05
-0.000266824
-0.000793406
-0.00158494
-0.00262727
-0.00391284
-0.00542968
-0.0071625
-0.009094
-0.0112053
-0.0134765
-0.015887
-0.0184159
-0.0210424
-0.0237458
-0.026506
-0.029303
-0.0321175
-0.0349305
-0.0377234
-0.040478
-0.0431764
-0.045801
-0.0483343
-0.0507592
-0.0530587
-0.0552164
-0.057216
-0.0590416
-0.0606782
-0.0621113
-0.0633272
-0.0643136
-0.0650591
-0.065554
-0.0657901
-0.065761
-0.0654626
-0.0648927
-0.0640517
-0.0629424
-0.0615704
-0.0599439
-0.0580739
-0.0559742
-0.0536614
-0.0511548
-0.0484761
-0.0456495
-0.0427012
-0.0396595
-0.0365539
-0.0334151
-0.0302748
-0.0271645
-0.0241157
-0.021159
-0.0183236
-0.0156371
-0.0131242
-0.0108068
-0.00870331
-0.0068279
-0.0051902
-0.00379482
-0.00264092
-0.00172193
-0.00102529
-0.000532197
-0.0002173
-5.05056e-05
-9.49748e-08
-4.70382e-05
-0.000332481
-0.000971383
-0.0019163
-0.00314323
-0.00463882
-0.00638626
-0.00836627
-0.0105584
-0.0129411
-0.0154925
-0.0181899
-0.021011
-0.0239334
-0.026935
-0.0299942
-0.0330896
-0.0362006
-0.0393067
-0.0423879
-0.0454246
-0.0483975
-0.0512875
-0.0540757
-0.0567437
-0.0592731
-0.0616461
-0.063845
-0.065853
-0.0676536
-0.0692312
-0.0705714
-0.0716607
-0.0724869
-0.0730396
-0.0733098
-0.0732909
-0.0729781
-0.0723691
-0.0714642
-0.0702663
-0.0687811
-0.0670171
-0.064986
-0.0627024
-0.0601837
-0.0574503
-0.0545253
-0.0514345
-0.0482059
-0.0448694
-0.041457
-0.0380016
-0.0345371
-0.0310977
-0.0277176
-0.0244299
-0.0212667
-0.018258
-0.0154313
-0.0128111
-0.010418
-0.00826845
-0.0063743
-0.00474206
-0.00337277
-0.00226167
-0.00139806
-0.000764986
-0.000339038
-9.42101e-05
-6.9516e-06
-5.73072e-05
-0.000396422
-0.00114603
-0.00224297
-0.00365349
-0.00535828
-0.00733541
-0.00956134
-0.0120121
-0.0146636
-0.0174913
-0.020471
-0.0235784
-0.0267898
-0.0300817
-0.0334311
-0.0368156
-0.0402131
-0.0436021
-0.0469612
-0.0502697
-0.053507
-0.0566528
-0.059687
-0.0625898
-0.0653419
-0.067924
-0.0703176
-0.0725044
-0.0744671
-0.0761892
-0.077655
-0.0788502
-0.0797619
-0.0803787
-0.0806913
-0.0806921
-0.0803761
-0.0797405
-0.0787854
-0.0775133
-0.0759302
-0.0740446
-0.0718685
-0.0694169
-0.066708
-0.063763
-0.0606062
-0.0572645
-0.0537675
-0.0501469
-0.0464365
-0.0426714
-0.0388878
-0.0351226
-0.0314122
-0.0277928
-0.0242992
-0.020964
-0.0178178
-0.0148875
-0.0121965
-0.00976395
-0.00760397
-0.00572549
-0.00413179
-0.00282032
-0.00178261
-0.0010039
-0.000462988
-0.000138071
-1.36068e-05
-6.71478e-05
-0.000458419
-0.00131636
-0.00256273
-0.00415433
-0.00606587
-0.00827021
-0.0107393
-0.0134457
-0.0163622
-0.0194621
-0.0227189
-0.0261069
-0.0296007
-0.0331756
-0.0368075
-0.0404728
-0.0441483
-0.0478114
-0.0514399
-0.0550117
-0.0585053
-0.0618994
-0.0651728
-0.0683046
-0.0712745
-0.0740621
-0.0766479
-0.0790128
-0.0811382
-0.0830068
-0.0846019
-0.0859085
-0.0869126
-0.0876023
-0.0879672
-0.0879993
-0.0876927
-0.0870443
-0.0860535
-0.0847227
-0.0830573
-0.081066
-0.0787607
-0.0761566
-0.0732723
-0.0701296
-0.0667537
-0.0631724
-0.0594167
-0.05552
-0.0515177
-0.0474471
-0.0433466
-0.0392555
-0.0352132
-0.0312583
-0.0274287
-0.0237602
-0.0202861
-0.0170365
-0.0140378
-0.011312
-0.008876
-0.00674148
-0.00491434
-0.00339458
-0.00217627
-0.00124709
-0.00058814
-0.000181762
-2.00338e-05
-7.65847e-05
-0.00051837
-0.00148176
-0.00287415
-0.00464322
-0.00675781
-0.00918553
-0.0118939
-0.0148517
-0.0180286
-0.0213956
-0.0249241
-0.0285866
-0.0323565
-0.0362076
-0.0401148
-0.0440534
-0.0479994
-0.0519292
-0.0558196
-0.0596478
-0.0633914
-0.067028
-0.0705356
-0.0738925
-0.0770773
-0.080069
-0.0828468
-0.0853909
-0.0876818
-0.0897012
-0.0914317
-0.092857
-0.0939627
-0.0947357
-0.0951648
-0.0952413
-0.0949584
-0.0943122
-0.0933015
-0.0919281
-0.0901969
-0.0881162
-0.0856976
-0.0829562
-0.0799109
-0.0765837
-0.0730003
-0.0691895
-0.0651834
-0.0610167
-0.0567266
-0.0523524
-0.0479348
-0.0435155
-0.0391367
-0.0348402
-0.0306668
-0.0266556
-0.0228433
-0.0192632
-0.0159453
-0.0129145
-0.0101912
-0.00779013
-0.00572005
-0.0039839
-0.00257851
-0.00149418
-0.000714338
-0.000225285
-2.6259e-05
-8.56393e-05
-0.000576224
-0.00164185
-0.00317625
-0.00511834
-0.00743125
-0.0100775
-0.01302
-0.0162239
-0.0196559
-0.0232843
-0.0270785
-0.0310093
-0.0350486
-0.0391692
-0.0433448
-0.0475499
-0.0517596
-0.0559494
-0.0600955
-0.0641743
-0.0681626
-0.0720374
-0.0757758
-0.0793555
-0.0827541
-0.0859499
-0.0889214
-0.0916477
-0.0941087
-0.0962851
-0.0981586
-0.0997122
-0.10093
-0.101799
-0.102306
-0.102441
-0.102198
-0.10157
-0.100557
-0.0991578
-0.0973781
-0.0952249
-0.0927094
-0.0898463
-0.0866543
-0.0831555
-0.0793759
-0.075345
-0.0710957
-0.0666641
-0.0620889
-0.0574114
-0.0526747
-0.047923
-0.0432015
-0.0385551
-0.0340279
-0.0296627
-0.0254998
-0.0215763
-0.0179257
-0.014577
-0.0115538
-0.0088745
-0.00655115
-0.00458984
-0.00299041
-0.0017459
-0.00084203
-0.00026886
-3.2341e-05
-9.43269e-05
-0.000631944
-0.00179636
-0.00346828
-0.00557827
-0.00808399
-0.0109429
-0.0141136
-0.0175575
-0.0212382
-0.0251215
-0.0291748
-0.0333673
-0.0376693
-0.0420525
-0.0464898
-0.0509547
-0.0554216
-0.0598654
-0.0642616
-0.0685861
-0.072815
-0.0769246
-0.0808916
-0.0846928
-0.0883054
-0.0917069
-0.094875
-0.0977882
-0.100425
-0.102767
-0.104792
-0.106485
-0.107828
-0.108806
-0.109405
-0.109616
-0.109429
-0.108838
-0.10784
-0.106434
-0.104624
-0.102417
-0.0998213
-0.0968527
-0.0935289
-0.0898717
-0.0859073
-0.0816655
-0.07718
-0.072488
-0.0676297
-0.0626484
-0.0575894
-0.0524998
-0.0474276
-0.0424213
-0.0375288
-0.0327965
-0.0282688
-0.0239872
-0.0199891
-0.0163076
-0.0129705
-0.00999999
-0.00741183
-0.00521555
-0.00341425
-0.00200375
-0.000972094
-0.000312859
-3.83582e-05
-0.000102655
-0.000685489
-0.00194504
-0.00374962
-0.00602184
-0.00871412
-0.0117791
-0.0151712
-0.018848
-0.0227703
-0.0269013
-0.0312065
-0.0356533
-0.0402108
-0.0448497
-0.0495417
-0.0542598
-0.0589777
-0.0636698
-0.0683111
-0.0728768
-0.0773426
-0.0816846
-0.0858787
-0.0899013
-0.093729
-0.0973387
-0.100708
-0.103813
-0.106634
-0.109149
-0.111338
-0.113182
-0.114663
-0.115765
-0.116474
-0.116777
-0.116665
-0.11613
-0.115166
-0.113774
-0.111953
-0.10971
-0.107053
-0.103996
-0.100556
-0.0967548
-0.0926176
-0.0881746
-0.0834601
-0.0785122
-0.0733727
-0.0680865
-0.0627015
-0.0572676
-0.051836
-0.0464588
-0.0411878
-0.0360739
-0.0311658
-0.0265095
-0.0221473
-0.0181167
-0.01445
-0.0111738
-0.0083078
-0.00586542
-0.00385318
-0.00226985
-0.00110571
-0.000357754
-4.44008e-05
-0.000110625
-0.000736795
-0.00208764
-0.00401966
-0.00644794
-0.00931992
-0.0125836
-0.0161893
-0.0200913
-0.0242472
-0.028618
-0.0331672
-0.0378605
-0.0426659
-0.0475529
-0.0524926
-0.0574572
-0.0624198
-0.0673545
-0.0722358
-0.0770386
-0.0817382
-0.0863103
-0.0907306
-0.0949749
-0.0990195
-0.102841
-0.106415
-0.10972
-0.112732
-0.115431
-0.117794
-0.119802
-0.121436
-0.122679
-0.123515
-0.12393
-0.123912
-0.123453
-0.122545
-0.121186
-0.119376
-0.117117
-0.114419
-0.111292
-0.107753
-0.103823
-0.0995255
-0.094892
-0.0899566
-0.0847581
-0.0793395
-0.0737479
-0.0680332
-0.0622482
-0.0564478
-0.0506879
-0.0450245
-0.0395131
-0.0342075
-0.0291587
-0.024414
-0.0200162
-0.0160026
-0.0124043
-0.00924592
-0.00654474
-0.00431104
-0.0025467
-0.00124428
-0.000404086
-5.05662e-05
-0.000118229
-0.000785782
-0.00222386
-0.00427777
-0.00685548
-0.00989971
-0.0133541
-0.0171651
-0.0212835
-0.0256643
-0.0302662
-0.0350507
-0.0399821
-0.0450271
-0.0501543
-0.055334
-0.060538
-0.0657389
-0.0709103
-0.0760265
-0.0810622
-0.0859925
-0.0907927
-0.0954383
-0.0999049
-0.104168
-0.108205
-0.11199
-0.1155
-0.118713
-0.121605
-0.124155
-0.126341
-0.128144
-0.129545
-0.130526
-0.131071
-0.131169
-0.130807
-0.129977
-0.128674
-0.126896
-0.124645
-0.121926
-0.11875
-0.11513
-0.111087
-0.106645
-0.101833
-0.0966863
-0.0912436
-0.0855494
-0.0796522
-0.0736046
-0.0674623
-0.0612837
-0.0551288
-0.0490584
-0.043133
-0.0374116
-0.0319509
-0.026804
-0.0220192
-0.0176395
-0.0137012
-0.0102339
-0.00725944
-0.00479213
-0.00283712
-0.00138934
-0.000452446
-5.69566e-05
-0.000125455
-0.000832346
-0.00235337
-0.00452329
-0.00724332
-0.0104518
-0.0140882
-0.0180953
-0.0224208
-0.0270171
-0.0318405
-0.0368508
-0.0420111
-0.0472867
-0.0526456
-0.0580573
-0.063493
-0.0689251
-0.074327
-0.0796727
-0.0849368
-0.0900944
-0.0951204
-0.0999904
-0.10468
-0.109164
-0.113419
-0.11742
-0.121143
-0.124565
-0.127661
-0.13041
-0.132789
-0.134776
-0.136351
-0.137496
-0.138194
-0.138428
-0.138186
-0.137457
-0.136234
-0.134513
-0.132292
-0.129575
-0.126371
-0.122692
-0.118555
-0.113985
-0.109009
-0.103661
-0.0979827
-0.0920177
-0.0858165
-0.0794339
-0.0729288
-0.0663631
-0.0598013
-0.0533091
-0.0469523
-0.0407961
-0.0349031
-0.0293327
-0.0241396
-0.0193728
-0.0150746
-0.01128
-0.00801594
-0.00530108
-0.00314414
-0.00154254
-0.000503454
-6.36771e-05
-0.000132286
-0.000876361
-0.00247583
-0.00475548
-0.00761028
-0.0109744
-0.0147835
-0.0189769
-0.0234993
-0.0283007
-0.0333354
-0.0385614
-0.0439405
-0.0494372
-0.0550183
-0.0606531
-0.0663123
-0.071968
-0.0775935
-0.0831628
-0.0886503
-0.0940311
-0.0992803
-0.104373
-0.109285
-0.113992
-0.118468
-0.12269
-0.126633
-0.130272
-0.133583
-0.136543
-0.139127
-0.141315
-0.143083
-0.144411
-0.145281
-0.145674
-0.145575
-0.144972
-0.143853
-0.142213
-0.140048
-0.137359
-0.134151
-0.130434
-0.126225
-0.121546
-0.116422
-0.110888
-0.104984
-0.0987557
-0.092254
-0.0855362
-0.0786641
-0.0717035
-0.0647235
-0.0577949
-0.0509896
-0.0443789
-0.0380323
-0.0320159
-0.0263915
-0.021215
-0.0165351
-0.0123929
-0.00882096
-0.00584275
-0.00347091
-0.00170561
-0.000557751
-7.08345e-05
-0.000138699
-0.000917683
-0.0025908
-0.00497358
-0.0079551
-0.0114657
-0.0154376
-0.0198067
-0.0245152
-0.0295106
-0.0347454
-0.0401761
-0.0457632
-0.0514703
-0.0572636
-0.0631118
-0.0689854
-0.0748563
-0.0806977
-0.0864837
-0.0921887
-0.097788
-0.103257
-0.10857
-0.113704
-0.118634
-0.123334
-0.127781
-0.131948
-0.135812
-0.139348
-0.14253
-0.145335
-0.147738
-0.149716
-0.151247
-0.152309
-0.152884
-0.152952
-0.152499
-0.151511
-0.149979
-0.147897
-0.145261
-0.142076
-0.138347
-0.13409
-0.129323
-0.124071
-0.118368
-0.112252
-0.105769
-0.0989733
-0.0919224
-0.0846813
-0.0773198
-0.0699115
-0.0625329
-0.055262
-0.0481771
-0.0413549
-0.0348692
-0.0287893
-0.0231787
-0.0180935
-0.0135815
-0.00968143
-0.00642214
-0.0038207
-0.00188031
-0.000615993
-7.85364e-05
-0.00014467
-0.000956154
-0.00269787
-0.00517674
-0.00827647
-0.0119239
-0.0160479
-0.0205815
-0.0254644
-0.0306419
-0.0360649
-0.0416884
-0.0474717
-0.0533778
-0.0593721
-0.0654231
-0.071501
-0.0775777
-0.0836264
-0.0896212
-0.095537
-0.101349
-0.107033
-0.112563
-0.117917
-0.123069
-0.127995
-0.132669
-0.137066
-0.141162
-0.14493
-0.148345
-0.151382
-0.154015
-0.15622
-0.157972
-0.159248
-0.160027
-0.160286
-0.160009
-0.159179
-0.157783
-0.155811
-0.153258
-0.150124
-0.146411
-0.142132
-0.137302
-0.131945
-0.126092
-0.119782
-0.113059
-0.105978
-0.0985989
-0.0909896
-0.0832233
-0.0753786
-0.0675377
-0.0597852
-0.0522066
-0.0448868
-0.0379076
-0.031347
-0.0252766
-0.0197608
-0.0148548
-0.0106043
-0.00704436
-0.00419682
-0.00206843
-0.000678843
-8.6891e-05
-0.000150169
-0.000991604
-0.00279658
-0.00536413
-0.00857305
-0.012347
-0.0166119
-0.0212981
-0.0263429
-0.0316899
-0.0372882
-0.0430917
-0.0490586
-0.0551512
-0.0613345
-0.0675767
-0.0738477
-0.0801196
-0.0863657
-0.0925603
-0.0986786
-0.104696
-0.110588
-0.116332
-0.121902
-0.127274
-0.132424
-0.137327
-0.141958
-0.14629
-0.150298
-0.153955
-0.157235
-0.160112
-0.162559
-0.16455
-0.16606
-0.167064
-0.167539
-0.167464
-0.166818
-0.165587
-0.163756
-0.161316
-0.158263
-0.154597
-0.150325
-0.145461
-0.140026
-0.134047
-0.127563
-0.120617
-0.113264
-0.105566
-0.0975928
-0.0894212
-0.0811346
-0.0728211
-0.0645724
-0.0564817
-0.0486424
-0.0411454
-0.0340779
-0.0275208
-0.0215475
-0.0162216
-0.0115967
-0.00771448
-0.0046026
-0.00227178
-0.00074697
-9.60072e-05
-0.000155167
-0.00102386
-0.00288645
-0.00553487
-0.00884349
-0.0127331
-0.0171271
-0.0219532
-0.0271468
-0.0326498
-0.0384097
-0.0443794
-0.0505163
-0.0567819
-0.063141
-0.0695615
-0.0760133
-0.0824686
-0.0889008
-0.0952847
-0.101596
-0.10781
-0.113904
-0.119853
-0.125634
-0.131223
-0.136595
-0.141726
-0.146591
-0.151162
-0.155415
-0.159321
-0.162854
-0.165986
-0.168689
-0.170936
-0.172698
-0.173949
-0.174663
-0.174815
-0.174382
-0.173344
-0.171685
-0.16939
-0.166451
-0.162865
-0.158634
-0.153768
-0.148284
-0.142208
-0.135575
-0.128429
-0.120822
-0.112818
-0.104489
-0.0959154
-0.0871848
-0.0783913
-0.069634
-0.0610142
-0.0526345
-0.0445956
-0.0369947
-0.0299231
-0.023464
-0.0176907
-0.0126654
-0.00843758
-0.00504136
-0.00249217
-0.000821045
-0.000105995
-0.000159634
-0.00105275
-0.00296702
-0.0056881
-0.00908646
-0.0130804
-0.0175909
-0.0225436
-0.0278721
-0.0335167
-0.0394237
-0.045545
-0.0518372
-0.0582614
-0.0647819
-0.0713666
-0.0779854
-0.0846108
-0.0912165
-0.0977776
-0.10427
-0.110671
-0.116956
-0.123102
-0.129087
-0.134887
-0.140477
-0.145833
-0.150929
-0.155741
-0.160241
-0.164401
-0.168194
-0.17159
-0.174561
-0.177078
-0.179109
-0.180627
-0.181602
-0.182006
-0.181813
-0.180999
-0.179543
-0.177427
-0.174637
-0.171166
-0.167011
-0.162179
-0.156681
-0.150541
-0.14379
-0.136469
-0.128632
-0.120341
-0.11167
-0.102702
-0.0935293
-0.0842522
-0.0749767
-0.0658132
-0.0568736
-0.0482693
-0.0401087
-0.0324942
-0.0255201
-0.0192704
-0.0138171
-0.00921866
-0.0055164
-0.0027314
-0.000901741
-0.000116964
-0.000163543
-0.00107809
-0.00303785
-0.00582302
-0.0093007
-0.0133871
-0.018001
-0.0230664
-0.0285152
-0.0342862
-0.0403249
-0.0465822
-0.053014
-0.059581
-0.0662474
-0.0729809
-0.0797517
-0.0865324
-0.0932972
-0.100022
-0.106682
-0.113256
-0.119721
-0.126054
-0.132233
-0.138234
-0.144035
-0.14961
-0.154935
-0.159985
-0.164731
-0.169147
-0.173204
-0.176871
-0.18012
-0.182917
-0.185233
-0.187035
-0.188292
-0.188972
-0.189046
-0.188485
-0.187265
-0.185361
-0.182757
-0.179439
-0.1754
-0.170641
-0.165168
-0.159001
-0.152168
-0.144706
-0.136667
-0.128113
-0.119119
-0.10977
-0.100162
-0.0904024
-0.0806032
-0.0708842
-0.0613675
-0.052176
-0.0434298
-0.0352439
-0.027725
-0.0209688
-0.0150585
-0.0100626
-0.00603097
-0.00299125
-0.00098973
-0.000129028
-0.000166864
-0.00109975
-0.00309854
-0.00593886
-0.00948502
-0.0136514
-0.0183552
-0.0235187
-0.0290724
-0.0349541
-0.0411082
-0.0474849
-0.0540397
-0.0607327
-0.0675282
-0.0743937
-0.0812998
-0.0882194
-0.0951271
-0.101999
-0.108813
-0.115545
-0.122176
-0.128682
-0.135042
-0.141234
-0.147235
-0.153021
-0.158567
-0.163849
-0.168838
-0.173508
-0.17783
-0.181772
-0.185303
-0.188392
-0.191003
-0.193105
-0.194662
-0.19564
-0.196006
-0.195727
-0.194774
-0.193119
-0.190738
-0.187614
-0.183732
-0.179088
-0.173684
-0.167533
-0.160657
-0.153094
-0.144888
-0.136103
-0.126811
-0.117101
-0.107071
-0.0968345
-0.0865108
-0.0762286
-0.0661208
-0.0563222
-0.0469661
-0.0381808
-0.0300868
-0.0227932
-0.0163955
-0.010974
-0.00658825
-0.00327351
-0.00108568
-0.000142298
-0.000169574
-0.00111757
-0.00314871
-0.00603496
-0.00963843
-0.013872
-0.0186515
-0.023898
-0.0295407
-0.0355166
-0.041769
-0.0482476
-0.0549075
-0.0617087
-0.0686151
-0.0755946
-0.0826178
-0.0896582
-0.0966908
-0.103693
-0.110641
-0.117516
-0.124295
-0.130959
-0.137485
-0.143853
-0.150041
-0.156025
-0.161782
-0.167286
-0.172512
-0.177431
-0.182014
-0.18623
-0.190047
-0.193431
-0.196348
-0.198761
-0.200634
-0.201929
-0.20261
-0.202641
-0.201987
-0.200615
-0.198496
-0.195606
-0.191925
-0.187443
-0.182154
-0.176067
-0.169197
-0.161576
-0.153247
-0.144268
-0.134712
-0.124667
-0.114236
-0.103535
-0.0926914
-0.0818432
-0.0711341
-0.0607117
-0.0507232
-0.0413117
-0.0326127
-0.0247503
-0.0178341
-0.0119575
-0.00719131
-0.00357991
-0.00119027
-0.000156891
-0.000171652
-0.00113144
-0.00318807
-0.0061108
-0.00976008
-0.0140478
-0.0188885
-0.0242023
-0.0299175
-0.0359702
-0.0423031
-0.0488654
-0.0556117
-0.0625019
-0.0694999
-0.0765737
-0.0836944
-0.0908356
-0.0979733
-0.105085
-0.112149
-0.119146
-0.126055
-0.132857
-0.139531
-0.146058
-0.152415
-0.158582
-0.164535
-0.170249
-0.1757
-0.180858
-0.185695
-0.190181
-0.194281
-0.197963
-0.201189
-0.203922
-0.206123
-0.207752
-0.20877
-0.209135
-0.208809
-0.207754
-0.205935
-0.203322
-0.19989
-0.195618
-0.190496
-0.184524
-0.177713
-0.170086
-0.161682
-0.152555
-0.142775
-0.132431
-0.121626
-0.110481
-0.09913
-0.0877191
-0.0764037
-0.0653447
-0.0547042
-0.0446415
-0.0353085
-0.0268459
-0.0193795
-0.0130172
-0.00784312
-0.00391215
-0.00130415
-0.000172923
-0.000173084
-0.0011413
-0.00321644
-0.00616601
-0.00984941
-0.0141777
-0.0190649
-0.02443
-0.0302007
-0.0363124
-0.0427073
-0.0493341
-0.0561472
-0.0631062
-0.0701752
-0.0773223
-0.084519
-0.0917395
-0.0989604
-0.10616
-0.113318
-0.120414
-0.127431
-0.134349
-0.14115
-0.147814
-0.154321
-0.160651
-0.166782
-0.172689
-0.178348
-0.183732
-0.188812
-0.193557
-0.197935
-0.201911
-0.205446
-0.208503
-0.21104
-0.213016
-0.214387
-0.215109
-0.215139
-0.214434
-0.212954
-0.210661
-0.207522
-0.203512
-0.198612
-0.192813
-0.186118
-0.178543
-0.170121
-0.1609
-0.150946
-0.140346
-0.129205
-0.117644
-0.105805
-0.0938413
-0.0819208
-0.0702174
-0.0589093
-0.0481729
-0.0381784
-0.029085
-0.0210362
-0.0141571
-0.00854649
-0.00427188
-0.00142799
-0.000190514
-0.000173862
-0.00114709
-0.0032337
-0.00620042
-0.00990613
-0.0142616
-0.01918
-0.0245802
-0.0303891
-0.0365415
-0.0429793
-0.0496507
-0.0565099
-0.0635165
-0.0706347
-0.0778328
-0.0850826
-0.092359
-0.0996391
-0.106902
-0.114129
-0.121301
-0.1284
-0.13541
-0.142312
-0.149089
-0.155723
-0.162192
-0.168477
-0.174556
-0.180404
-0.185995
-0.191302
-0.196293
-0.200936
-0.205197
-0.209037
-0.212417
-0.215294
-0.217625
-0.219362
-0.22046
-0.22087
-0.220545
-0.219439
-0.217508
-0.214712
-0.211016
-0.206394
-0.200828
-0.194313
-0.186855
-0.178478
-0.169225
-0.159157
-0.148354
-0.136922
-0.124984
-0.112685
-0.100188
-0.0876706
-0.0753214
-0.0633348
-0.0519059
-0.0412249
-0.0314711
-0.0228082
-0.0153805
-0.00930402
-0.00466068
-0.00156243
-0.000209785
-0.000173984
-0.00114883
-0.0032399
-0.00621409
-0.00993033
-0.0142993
-0.019234
-0.0246528
-0.0304822
-0.0366567
-0.0431177
-0.0498133
-0.0566973
-0.0637293
-0.0708737
-0.078099
-0.0853774
-0.0926845
-0.0999982
-0.107299
-0.114567
-0.121787
-0.128942
-0.136015
-0.142991
-0.149853
-0.156584
-0.163166
-0.169579
-0.175804
-0.181815
-0.187591
-0.193102
-0.19832
-0.203212
-0.207744
-0.211879
-0.215576
-0.218791
-0.221479
-0.223592
-0.225079
-0.22589
-0.225972
-0.225274
-0.223745
-0.221337
-0.218009
-0.213725
-0.208456
-0.202187
-0.194916
-0.186657
-0.177443
-0.167326
-0.156385
-0.144718
-0.132451
-0.119732
-0.106729
-0.0936323
-0.080643
-0.0679732
-0.0558377
-0.0444481
-0.0340063
-0.0246985
-0.0166905
-0.0101181
-0.00508005
-0.00170812
-0.000230861
-0.00017346
-0.00114657
-0.00323521
-0.00620734
-0.00992248
-0.0142915
-0.0192275
-0.0246484
-0.0304807
-0.0366585
-0.0431227
-0.0498213
-0.0567081
-0.0637424
-0.070889
-0.0781165
-0.0853977
-0.0927087
-0.100028
-0.107338
-0.114619
-0.121857
-0.129036
-0.136142
-0.143161
-0.150076
-0.156874
-0.163536
-0.170047
-0.176386
-0.182533
-0.188464
-0.194153
-0.199573
-0.204692
-0.209477
-0.21389
-0.217891
-0.221436
-0.224479
-0.22697
-0.228857
-0.230084
-0.230596
-0.230335
-0.229246
-0.227272
-0.224365
-0.220477
-0.215571
-0.209621
-0.202612
-0.194548
-0.18545
-0.175363
-0.164355
-0.152523
-0.139986
-0.126896
-0.113428
-0.0997777
-0.0861629
-0.0728123
-0.0599618
-0.0478459
-0.0366912
-0.026709
-0.0180895
-0.0109909
-0.0055314
-0.00186566
-0.000253868
-0.000172309
-0.00114045
-0.00321999
-0.00618082
-0.00988356
-0.0142395
-0.0191619
-0.0245689
-0.0303864
-0.0365484
-0.0429958
-0.049676
-0.0565429
-0.0635558
-0.0706795
-0.077883
-0.0851397
-0.0924263
-0.0997223
-0.10701
-0.114273
-0.121497
-0.128667
-0.135772
-0.142799
-0.149733
-0.156562
-0.16327
-0.169843
-0.176262
-0.18251
-0.188563
-0.194399
-0.199991
-0.205309
-0.210321
-0.21499
-0.219278
-0.223139
-0.226529
-0.229395
-0.231683
-0.233336
-0.234295
-0.234498
-0.233882
-0.232385
-0.229948
-0.226516
-0.222041
-0.216482
-0.209815
-0.202029
-0.193134
-0.183163
-0.172173
-0.160253
-0.147519
-0.134121
-0.120236
-0.106071
-0.0918551
-0.077835
-0.0642678
-0.0514133
-0.0395245
-0.0288406
-0.0195791
-0.0119241
-0.00601601
-0.00203565
-0.000278934
-0.000170562
-0.00113067
-0.00319476
-0.00613552
-0.00981506
-0.0141453
-0.0190399
-0.024417
-0.0302024
-0.03633
-0.0427402
-0.0493804
-0.0562043
-0.0631713
-0.0702463
-0.0773987
-0.0846024
-0.0918346
-0.0990759
-0.106309
-0.11352
-0.120695
-0.127822
-0.134889
-0.141886
-0.148801
-0.155622
-0.162338
-0.168934
-0.175395
-0.181704
-0.187843
-0.193788
-0.199517
-0.205001
-0.210209
-0.215107
-0.219656
-0.223814
-0.227534
-0.230765
-0.233452
-0.235535
-0.236953
-0.237638
-0.237524
-0.236542
-0.234623
-0.231704
-0.227725
-0.222633
-0.21639
-0.208971
-0.200372
-0.19061
-0.179731
-0.167814
-0.154967
-0.141335
-0.127098
-0.112468
-0.097687
-0.0830182
-0.0687413
-0.055142
-0.0425026
-0.0310926
-0.0211605
-0.0129191
-0.00653499
-0.00221865
-0.000306189
-0.000168262
-0.00111749
-0.0031603
-0.00607282
-0.00971906
-0.0140118
-0.0188649
-0.0241968
-0.0299334
-0.0360079
-0.0423609
-0.0489394
-0.0556971
-0.0625933
-0.069593
-0.0766662
-0.0837871
-0.0909338
-0.0980878
-0.105233
-0.112356
-0.119446
-0.12649
-0.133481
-0.140408
-0.147263
-0.154035
-0.160715
-0.167292
-0.173752
-0.180081
-0.186262
-0.192276
-0.198101
-0.203712
-0.20908
-0.214172
-0.218953
-0.22338
-0.227409
-0.230988
-0.234063
-0.236573
-0.238453
-0.239634
-0.240044
-0.239608
-0.238251
-0.235899
-0.232479
-0.227929
-0.222194
-0.215234
-0.207027
-0.197577
-0.186914
-0.1751
-0.162236
-0.148459
-0.133947
-0.118916
-0.103618
-0.0883331
-0.0733628
-0.0590204
-0.0456194
-0.0334629
-0.0228335
-0.013977
-0.00708931
-0.0024152
-0.000335764
-0.000165468
-0.0011013
-0.00311757
-0.00599454
-0.00959831
-0.0138425
-0.0186416
-0.023914
-0.0295855
-0.0355891
-0.0418652
-0.0483605
-0.0550284
-0.0618286
-0.0687261
-0.0756911
-0.0826986
-0.0897275
-0.09676
-0.103782
-0.11078
-0.117745
-0.124667
-0.13154
-0.138355
-0.145105
-0.151784
-0.158384
-0.164895
-0.171307
-0.177609
-0.183787
-0.189824
-0.1957
-0.201394
-0.20688
-0.212128
-0.217103
-0.221766
-0.226075
-0.229979
-0.233423
-0.236348
-0.238687
-0.24037
-0.241319
-0.241456
-0.240697
-0.238959
-0.236161
-0.232224
-0.227079
-0.220671
-0.21296
-0.203929
-0.193592
-0.181995
-0.169222
-0.155402
-0.140707
-0.125353
-0.1096
-0.093744
-0.0781078
-0.063033
-0.0488664
-0.0359476
-0.0245973
-0.015098
-0.00767971
-0.00262577
-0.000367789
-0.000162253
-0.00108254
-0.00306785
-0.00590296
-0.00945631
-0.0136424
-0.018376
-0.0235756
-0.0291668
-0.0350825
-0.0412624
-0.0476533
-0.0542083
-0.060887
-0.0676547
-0.0744822
-0.0813448
-0.0882223
-0.0950981
-0.101959
-0.108793
-0.115593
-0.122352
-0.129063
-0.135721
-0.142322
-0.14886
-0.155331
-0.161728
-0.168043
-0.174269
-0.180393
-0.186402
-0.192281
-0.198011
-0.203567
-0.208925
-0.214052
-0.218912
-0.223464
-0.227662
-0.231451
-0.234772
-0.237559
-0.23974
-0.241236
-0.241962
-0.24183
-0.240749
-0.238625
-0.235369
-0.230897
-0.225133
-0.218021
-0.209523
-0.199631
-0.188371
-0.175811
-0.162062
-0.14729
-0.131707
-0.115577
-0.0992082
-0.0829458
-0.0671598
-0.0522317
-0.0385408
-0.0264496
-0.0162821
-0.00830669
-0.00285077
-0.000402394
-0.000158711
-0.00106178
-0.00301266
-0.00580093
-0.00929734
-0.0134171
-0.0180753
-0.0231903
-0.0286874
-0.034499
-0.0405645
-0.0468302
-0.0532492
-0.0597811
-0.0663914
-0.0730513
-0.0797369
-0.0864288
-0.0931116
-0.099773
-0.106404
-0.112997
-0.119548
-0.126052
-0.132507
-0.13891
-0.145258
-0.15155
-0.157781
-0.163948
-0.170044
-0.176062
-0.181992
-0.18782
-0.193533
-0.199109
-0.204526
-0.209757