/*--------------------------------*- C++ -*----------------------------------*\
  =========                 |
  \\      /  F ield         | OpenFOAM: The Open Source CFD Toolbox
   \\    /   O peration     | Website:  https://openfoam.org
    \\  /    A nd           | Version:  dev
     \\/     M anipulation  |
\*---------------------------------------------------------------------------*/
FoamFile
{
    format      ascii;
    class       volScalarField;
    location    "25.2";
    object      Uy;
}
// * * * * * * * * * * * * * * * * * * * * * * * * * * * * * * * * * * * * * //

dimensions      [0 1 -1 0 0 0 0];

internalField   nonuniform List<scalar> 
5184
(
-1.25446e-05
-2.08255e-05
-1.72107e-05
-8.17121e-06
2.68482e-06
1.36255e-05
2.38482e-05
3.3045e-05
4.10973e-05
4.80113e-05
5.38484e-05
5.86933e-05
6.26384e-05
6.5775e-05
6.81879e-05
6.9952e-05
7.11319e-05
7.17801e-05
7.19369e-05
7.16324e-05
7.08862e-05
6.9708e-05
6.8101e-05
6.60624e-05
6.35849e-05
6.06587e-05
5.72734e-05
5.34196e-05
4.90899e-05
4.42813e-05
3.89963e-05
3.32444e-05
2.70426e-05
2.04168e-05
1.34027e-05
6.04601e-06
-1.59701e-06
-9.4601e-06
-1.74669e-05
-2.55317e-05
-3.356e-05
-4.14501e-05
-4.9095e-05
-5.63839e-05
-6.32043e-05
-6.94443e-05
-7.49951e-05
-7.97536e-05
-8.36255e-05
-8.6527e-05
-8.83878e-05
-8.91524e-05
-8.87827e-05
-8.72588e-05
-8.45803e-05
-8.07666e-05
-7.58571e-05
-6.99107e-05
-6.30046e-05
-5.52342e-05
-4.67135e-05
-3.75763e-05
-2.79779e-05
-1.80997e-05
-8.16637e-06
1.52654e-06
1.05555e-05
1.8284e-05
2.37005e-05
2.51138e-05
1.98393e-05
6.2425e-06
-4.55482e-05
-6.55187e-05
-4.04375e-05
7.71129e-06
6.57186e-05
0.000125996
0.000184268
0.000238285
0.000286906
0.000329691
0.000366599
0.000397822
0.000423669
0.000444507
0.000460714
0.000472647
0.00048063
0.000484938
0.000485793
0.000483368
0.000477783
0.000469116
0.000457405
0.000442658
0.000424864
0.000404001
0.000380042
0.000352973
0.000322792
0.000289527
0.000253239
0.000214029
0.000172048
0.000127498
8.06398e-05
3.17909e-05
-1.86697e-05
-7.0304e-05
-0.000122618
-0.000175063
-0.000227048
-0.000277939
-0.000327075
-0.000373779
-0.000417366
-0.000457162
-0.000492513
-0.000522807
-0.000547481
-0.000566042
-0.000578076
-0.000583265
-0.000581393
-0.000572356
-0.00055617
-0.000532974
-0.00050303
-0.000466729
-0.000424585
-0.000377237
-0.000325451
-0.000270133
-0.000212345
-0.000153337
-9.46173e-05
-3.80657e-05
1.38603e-05
5.78565e-05
8.93331e-05
0.000101796
8.64778e-05
3.6477e-05
-8.10699e-05
-9.48102e-05
-1.89745e-05
0.000106022
0.000254669
0.000410527
0.000563284
0.000706809
0.000837653
0.00095411
0.00105559
0.00114218
0.00121439
0.00127296
0.0013187
0.00135244
0.00137495
0.00138689
0.00138884
0.00138124
0.0013644
0.00133857
0.00130386
0.00126033
0.00120801
0.00114688
0.00107693
0.000998166
0.000910663
0.000814558
0.000710081
0.000597576
0.000477517
0.00035052
0.000217348
7.89244e-05
-6.36715e-05
-0.000209205
-0.000356294
-0.000503422
-0.000648954
-0.000791158
-0.000928235
-0.00105834
-0.00117963
-0.00129027
-0.00138852
-0.00147274
-0.00154142
-0.00159325
-0.00162713
-0.00164222
-0.00163796
-0.00161409
-0.00157067
-0.00150812
-0.00142718
-0.00132894
-0.00121486
-0.00108673
-0.000946739
-0.000797437
-0.000641837
-0.000483468
-0.000326526
-0.000176097
-3.84954e-05
7.82661e-05
0.000163895
0.000205232
0.00018617
9.03542e-05
-9.75241e-05
-7.29081e-05
8.49491e-05
0.000318422
0.000590026
0.000874146
0.00115376
0.00141808
0.00166065
0.00187793
0.00206837
0.00223172
0.00236853
0.00247985
0.00256693
0.00263113
0.0026737
0.00269582
0.00269845
0.00268239
0.00264823
0.00259639
0.00252716
0.00244069
0.00233706
0.00221631
0.00207849
0.00192372
0.00175221
0.0015643
0.00136052
0.00114161
0.000908527
0.000662522
0.000405105
0.000138075
-0.000136479
-0.00041619
-0.000698424
-0.000980304
-0.00125875
-0.0015305
-0.00179218
-0.00204036
-0.00227158
-0.00248247
-0.00266977
-0.00283044
-0.0029617
-0.00306113
-0.00312672
-0.0031569
-0.00315067
-0.00310758
-0.00302777
-0.00291202
-0.00276177
-0.00257911
-0.0023668
-0.0021283
-0.00186774
-0.00159002
-0.00130085
-0.0010069
-0.000715987
-0.000437372
-0.000182196
3.5935e-05
0.000200312
0.00029055
0.000282359
0.000147205
-8.42051e-05
2.11204e-05
0.000295575
0.000667993
0.00109059
0.00152947
0.00196121
0.00237034
0.00274714
0.00308598
0.0033841
0.00364067
0.00385615
0.00403178
0.00416923
0.00427031
0.00433681
0.00437039
0.00437246
0.00434419
0.0042865
0.00420004
0.00408527
0.0039425
0.0037719
0.00357364
0.00334791
0.00309497
0.00281527
0.00250948
0.00217854
0.00182373
0.00144668
0.00104946
0.00063453
0.000204822
-0.000236311
-0.000685084
-0.00113731
-0.00158844
-0.0020336
-0.00246769
-0.0028854
-0.00328137
-0.0036502
-0.00398665
-0.00428563
-0.00454242
-0.00475272
-0.00491276
-0.00501941
-0.0050703
-0.00506384
-0.00499936
-0.00487711
-0.00469835
-0.00446535
-0.00418144
-0.00385097
-0.00347942
-0.00307336
-0.00264051
-0.00218986
-0.00173182
-0.00127844
-0.000843748
-0.000444232
-9.94434e-05
0.000167289
0.000328244
0.000350693
0.000194018
-3.7342e-05
0.000197545
0.000626933
0.00117014
0.00177126
0.00238943
0.00299563
0.00357007
0.00409991
0.00457738
0.00499842
0.00536153
0.00566696
0.00591607
0.00611085
0.00625355
0.00634646
0.00639171
0.00639117
0.0063464
0.00625864
0.00612882
0.00595761
0.00574548
0.00549278
0.00519984
0.00486704
0.0044949
0.00408418
0.00363599
0.0031518
0.00263357
0.00208379
0.00150548
0.000902303
0.000278503
-0.000361058
-0.00101093
-0.00166511
-0.0023171
-0.00295998
-0.00358647
-0.00418909
-0.00476021
-0.00529226
-0.00577779
-0.00620967
-0.00658124
-0.00688643
-0.00711995
-0.00727741
-0.00735544
-0.00735183
-0.00726564
-0.00709723
-0.0068484
-0.00652238
-0.00612389
-0.00565916
-0.00513596
-0.00456363
-0.00395314
-0.00331719
-0.00267036
-0.00202938
-0.00141343
-0.000844627
-0.000348651
4.45342e-05
0.000300002
0.000376951
0.000224357
4.42535e-05
0.000461364
0.00108693
0.00183426
0.00264153
0.00346253
0.00426364
0.00502143
0.00572029
0.00635055
0.00690688
0.00738713
0.00779132
0.00812086
0.00837804
0.00856551
0.008686
0.00874213
0.00873618
0.00867012
0.00854552
0.00836358
0.00812522
0.00783111
0.00748181
0.00707786
0.0066199
0.00610878
0.00554567
0.0049322
0.0042705
0.00356335
0.00281421
0.00202727
0.00120751
0.000360705
-0.000506574
-0.001387
-0.00227254
-0.00315451
-0.00402368
-0.00487039
-0.0056847
-0.00645652
-0.00717578
-0.00783267
-0.00841773
-0.00892216
-0.00933794
-0.00965805
-0.00987667
-0.00998934
-0.00999312
-0.00988673
-0.00967065
-0.00934723
-0.00892074
-0.00839744
-0.00778559
-0.00709549
-0.00633953
-0.00553221
-0.00469026
-0.00383277
-0.00298142
-0.00216079
-0.0013988
-0.000727292
-0.000182735
0.000193076
0.000352038
0.000234793
0.000160573
0.000814444
0.00167934
0.00266535
0.00370681
0.0047537
0.00576901
0.00672648
0.00760832
0.00840326
0.00910498
0.00971075
0.0102204
0.0106354
0.0109584
0.0111924
0.0113405
0.0114058
0.011391
0.0112985
0.0111301
0.0108874
0.0105715
0.0101833
0.00972366
0.00919331
0.00859324
0.00792467
0.00718929
0.00638933
0.00552769
0.00460806
0.00363502
0.00261405
0.00155162
0.000455187
-0.000666813
-0.001805
-0.00294909
-0.00408805
-0.00521014
-0.0063031
-0.00735432
-0.00835101
-0.00928046
-0.0101302
-0.0108883
-0.0115436
-0.0120858
-0.0125062
-0.0127973
-0.0129533
-0.0129706
-0.0128474
-0.0125842
-0.012184
-0.0116522
-0.0109965
-0.0102274
-0.00935786
-0.00840356
-0.00738273
-0.00631635
-0.00522825
-0.00414527
-0.00309753
-0.00211882
-0.0012471
-0.000525136
-1.13233e-06
0.00027039
0.000223623
0.000310978
0.00125669
0.00240514
0.00366528
0.00496939
0.00626517
0.00751338
0.00868584
0.00976323
0.0107332
0.0115887
0.0123266
0.0129468
0.0134509
0.0138418
0.0141228
0.0142976
0.0143697
0.0143422
0.0142177
0.0139986
0.0136866
0.0132832
0.0127894
0.0122064
0.0115352
0.0107773
0.00993411
0.00900804
0.00800197
0.00691967
0.00576584
0.00454626
0.00326782
0.0019386
0.000567857
-0.000833947
-0.00225523
-0.00368334
-0.0051047
-0.00650488
-0.00786887
-0.00918119
-0.0104262
-0.0115883
-0.0126521
-0.0136032
-0.0144276
-0.0151129
-0.0156482
-0.0160242
-0.0162338
-0.0162723
-0.0161375
-0.0158299
-0.0153529
-0.0147129
-0.0139195
-0.0129852
-0.0119258
-0.0107604
-0.00951114
-0.00820336
-0.00686581
-0.00553063
-0.00423358
-0.00301435
-0.00191691
-0.000990127
-0.000288142
0.000128901
0.000190195
0.000494564
0.00178687
0.00326343
0.00483365
0.00642926
0.00799698
0.0094965
0.0108986
0.0121832
0.0133374
0.0143539
0.0152294
0.015964
0.0165595
0.0170193
0.0173471
0.017547
0.0176229
0.0175784
0.0174165
0.0171398
0.0167503
0.0162498
0.0156396
0.0149211
0.0140958
0.0131652
0.0121317
0.010998
0.00976774
0.00844571
0.00703766
0.00555064
0.00399305
0.00237466
0.00070665
-0.000998413
-0.00272662
-0.00446283
-0.00619077
-0.00789322
-0.00955222
-0.0111493
-0.0126657
-0.0140828
-0.0153823
-0.0165467
-0.0175594
-0.0184054
-0.0190714
-0.0195462
-0.0198213
-0.0198906
-0.0197514
-0.0194039
-0.018852
-0.0181032
-0.0171685
-0.0160628
-0.0148048
-0.0134169
-0.0119253
-0.01036
-0.00875459
-0.00714671
-0.00557782
-0.00409348
-0.00274366
-0.00158308
-0.000671494
-7.40419e-05
0.00013443
0.000710297
0.00240306
0.00425213
0.00616851
0.00808461
0.00994738
0.0117165
0.0133626
0.0148655
0.0162124
0.0173961
0.0184138
0.0192657
0.0199542
0.0204831
0.0208567
0.0210796
0.0211562
0.0210903
0.0208855
0.0205445
0.0200697
0.0194632
0.0187265
0.0178614
0.0168695
0.015753
0.0145146
0.0131577
0.0116869
0.0101076
0.00842697
0.00665328
0.0047965
0.00286816
0.000881415
-0.00114896
-0.00320667
-0.00527396
-0.00733178
-0.00935998
-0.0113375
-0.0132428
-0.0150538
-0.0167487
-0.018306
-0.019705
-0.0209262
-0.0219517
-0.0227659
-0.0233553
-0.0237094
-0.0238211
-0.0236865
-0.0233056
-0.0226827
-0.0218261
-0.0207484
-0.0194667
-0.0180025
-0.0163817
-0.0146346
-0.0127959
-0.0109042
-0.00900273
-0.00713865
-0.00536351
-0.00373319
-0.0023082
-0.00115363
-0.000339276
5.64965e-05
0.000957101
0.00310298
0.00536835
0.00766675
0.00993231
0.0121132
0.01417
0.0160741
0.0178061
0.0193538
0.0207106
0.0218742
0.0228458
0.0236283
0.0242261
0.0246443
0.0248878
0.0249616
0.02487
0.0246168
0.0242053
0.0236381
0.0229173
0.0220449
0.0210229
0.0198534
0.0185388
0.0170824
0.0154883
0.0137619
0.0119095
0.0099395
0.00786148
0.005687
0.00342938
0.00110381
-0.00127272
-0.00368144
-0.00610192
-0.00851227
-0.0108893
-0.0132088
-0.0154458
-0.017575
-0.0195712
-0.0214093
-0.0230653
-0.0245166
-0.0257423
-0.0267239
-0.0274454
-0.0278943
-0.0280618
-0.027943
-0.0275374
-0.0268493
-0.0258877
-0.0246667
-0.0232055
-0.0215286
-0.0196652
-0.0176498
-0.0155218
-0.0133251
-0.0111083
-0.00892461
-0.00683156
-0.00489101
-0.00316921
-0.00173655
-0.000667364
-4.33889e-05
0.00123388
0.00388408
0.00660867
0.00932447
0.0119682
0.01449
0.0168525
0.0190286
0.0210003
0.0227564
0.0242916
0.0256048
0.0266981
0.0275752
0.0282415
0.0287026
0.0289643
0.029032
0.0289105
0.0286041
0.0281163
0.0274499
0.0266074
0.0255912
0.0244032
0.023046
0.0215226
0.0198366
0.0179928
0.0159973
0.0138576
0.0115829
0.00918447
0.00667526
0.00407043
0.00138717
-0.00135524
-0.00413556
-0.00693066
-0.00971573
-0.0124645
-0.0151493
-0.017742
-0.0202137
-0.0225353
-0.0246785
-0.0266156
-0.0283203
-0.0297686
-0.0309388
-0.0318121
-0.0323738
-0.032613
-0.0325234
-0.0321037
-0.0313581
-0.0302961
-0.0289331
-0.0272903
-0.0253949
-0.0232797
-0.0209833
-0.0185499
-0.0160286
-0.0134738
-0.0109448
-0.0085051
-0.00622278
-0.00416993
-0.00242233
-0.00105895
-0.000165093
0.00153955
0.00474366
0.00796929
0.0111371
0.0141872
0.0170727
0.0197587
0.0222205
0.024442
0.0264141
0.0281331
0.0295993
0.0308159
0.0317882
0.0325224
0.033025
0.0333025
0.033361
0.0332059
0.0328418
0.0322724
0.0315011
0.0305305
0.0293631
0.0280013
0.0264478
0.0247061
0.0227803
0.0206758
0.0183994
0.0159596
0.0133667
0.0106332
0.00777365
0.004805
0.00174642
-0.00138058
-0.00455227
-0.00774281
-0.0109244
-0.0140676
-0.0171416
-0.0201144
-0.0229535
-0.0256261
-0.0281
-0.0303437
-0.0323271
-0.0340225
-0.0354048
-0.0364522
-0.037147
-0.0374761
-0.0374315
-0.0370107
-0.0362173
-0.0350613
-0.0335591
-0.0317337
-0.029615
-0.0272392
-0.0246491
-0.0218936
-0.0190275
-0.0161109
-0.0132092
-0.0103924
-0.00773482
-0.0053147
-0.00321346
-0.00151501
-0.000308652
0.001873
0.00567887
0.00944606
0.0130997
0.0165838
0.0198551
0.0228821
0.0256432
0.0281248
0.0303203
0.0322282
0.0338506
0.0351924
0.0362604
0.037062
0.0376047
0.037896
0.0379427
0.0377506
0.0373248
0.0366696
0.0357884
0.0346841
0.0333594
0.0318171
0.0300602
0.0280922
0.025918
0.0235433
0.0209758
0.0182247
0.0153016
0.0122199
0.00899597
0.00564823
0.00219788
-0.00133141
-0.00491345
-0.00851969
-0.0121194
-0.0156799
-0.0191669
-0.0225448
-0.0257773
-0.0288277
-0.0316595
-0.0342371
-0.0365265
-0.0384959
-0.0401163
-0.0413625
-0.0422135
-0.0426534
-0.0426721
-0.0422656
-0.0414366
-0.040195
-0.038558
-0.0365503
-0.0342042
-0.0315595
-0.0286629
-0.0255684
-0.0223361
-0.0190325
-0.0157291
-0.0125028
-0.00943445
-0.00660874
-0.00411317
-0.00203706
-0.000474333
0.0022331
0.00668676
0.0110346
0.0152067
0.0191516
0.0228305
0.0262157
0.0292893
0.0320411
0.0344674
0.0365693
0.0383512
0.0398202
0.0409845
0.0418532
0.0424351
0.0427385
0.042771
0.0425392
0.0420487
0.041304
0.0403089
0.0390665
0.0375798
0.0358517
0.0338853
0.0316847
0.0292549
0.0266024
0.0237351
0.0206634
0.0173995
0.0139583
0.0103572
0.00661649
0.0027591
-0.00118915
-0.0051997
-0.00924134
-0.0132804
-0.017281
-0.0212053
-0.025014
-0.0286668
-0.0321229
-0.0353414
-0.0382824
-0.0409073
-0.04318
-0.0450672
-0.0465396
-0.0475727
-0.0481473
-0.0482505
-0.0478763
-0.0470262
-0.0457096
-0.0439441
-0.0417558
-0.0391794
-0.0362578
-0.033042
-0.0295909
-0.0259704
-0.0222531
-0.0185175
-0.0148472
-0.0113303
-0.00805838
-0.00512557
-0.00262722
-0.000662671
0.0026187
0.00776421
0.0127302
0.0174522
0.0218839
0.0259913
0.0297515
0.0331507
0.0361826
0.038847
0.0411481
0.043093
0.0446911
0.0459528
0.0468886
0.0475089
0.0478232
0.04784
0.0475665
0.0470089
0.046172
0.0450601
0.0436764
0.0420241
0.0401061
0.037926
0.0354879
0.0327971
0.0298605
0.0266867
0.0232865
0.0196732
0.0158625
0.0118733
0.00772709
0.00344871
-0.000934078
-0.00539042
-0.00988652
-0.0143858
-0.0188492
-0.0232354
-0.0275012
-0.0316023
-0.0354933
-0.039129
-0.0424647
-0.045457
-0.0480648
-0.0502503
-0.0519795
-0.0532237
-0.0539598
-0.0541718
-0.053851
-0.052997
-0.0516184
-0.0497328
-0.0473673
-0.0445587
-0.041353
-0.0378054
-0.0339798
-0.0299479
-0.0257891
-0.0215887
-0.0174379
-0.0134324
-0.00967124
-0.00625586
-0.00328839
-0.000874499
0.00302859
0.00890798
0.014528
0.01983
0.0247734
0.0293296
0.033481
0.0372185
0.0405403
0.0434501
0.0459555
0.048067
0.0497965
0.0511567
0.0521601
0.0528187
0.0531432
0.0531432
0.0528268
0.0522006
0.05127
0.0500394
0.0485123
0.0466921
0.0445818
0.0421851
0.0395061
0.0365506
0.0333256
0.0298401
0.0261055
0.0221358
0.0179475
0.0135606
0.00899806
0.0042861
-0.00054559
-0.005464
-0.0104329
-0.0154128
-0.0203616
-0.0252343
-0.029984
-0.0345621
-0.0389187
-0.0430037
-0.0467674
-0.0501612
-0.0531387
-0.0556569
-0.0576766
-0.0591641
-0.0600921
-0.0604404
-0.0601973
-0.0593598
-0.057935
-0.05594
-0.0534027
-0.0503615
-0.0468654
-0.0429738
-0.0387554
-0.0342884
-0.0296586
-0.0249592
-0.0202892
-0.0157525
-0.0114564
-0.00751037
-0.00402422
-0.00111096
0.00346152
0.0101146
0.0164227
0.0223334
0.0278122
0.0328368
0.0373949
0.0414831
0.0451043
0.0482666
0.0509817
0.0532635
0.0551269
0.0565872
0.057659
0.0583562
0.058691
0.0586739
0.058314
0.0576187
0.0565936
0.0552436
0.0535725
0.0515834
0.0492798
0.0466651
0.0437438
0.0405215
0.0370054
0.033205
0.0291319
0.0248005
0.0202284
0.0154361
0.0104478
0.00529119
-2.40192e-06
-0.005398
-0.010857
-0.0163373
-0.0217937
-0.0271776
-0.0324384
-0.0375229
-0.0423767
-0.0469447
-0.0511717
-0.0550034
-0.0583879
-0.0612761
-0.0636232
-0.0653899
-0.0665436
-0.0670595
-0.0669219
-0.0661246
-0.0646726
-0.0625818
-0.0598804
-0.056608
-0.0528165
-0.048569
-0.0439398
-0.0390129
-0.0338818
-0.0286473
-0.0234172
-0.0183041
-0.0134245
-0.00889672
-0.00483924
-0.00137353
0.00391616
0.0113806
0.0184088
0.0249553
0.0309921
0.0365035
0.0414834
0.0459341
0.049864
0.053286
0.0562161
0.058672
0.0606721
0.0622343
0.0633759
0.0641126
0.0644581
0.0644244
0.0640214
0.0632573
0.0621382
0.0606693
0.0588544
0.056697
0.0542004
0.0513681
0.0482044
0.044715
0.0409072
0.0367904
0.0323765
0.0276803
0.0227198
0.0175163
0.0120948
0.00648412
0.000717151
-0.00516939
-0.0111348
-0.0171343
-0.0231198
-0.0290394
-0.0348383
-0.0404593
-0.0458429
-0.0509288
-0.0556561
-0.0599645
-0.0637958
-0.0670944
-0.0698092
-0.0718944
-0.0733116
-0.0740304
-0.07403
-0.0733005
-0.0718437
-0.069674
-0.0668188
-0.0633189
-0.0592285
-0.0546146
-0.0495564
-0.0441448
-0.0384806
-0.0326733
-0.0268398
-0.0211024
-0.0155877
-0.0104238
-0.00573884
-0.00166401
0.0043911
0.0127019
0.0204803
0.027688
0.0343042
0.0403199
0.0457358
0.0505605
0.054808
0.0584967
0.0616471
0.0642812
0.0664209
0.0680874
0.0693004
0.0700779
0.0704354
0.0703862
0.0699413
0.0691096
0.0678979
0.0663116
0.0643548
0.0620309
0.0593431
0.056295
0.0528907
0.0491357
0.0450372
0.0406045
0.0358495
0.0307873
0.0254359
0.0198173
0.013957
0.00788482
0.00163477
-0.00475485
-0.0112414
-0.0177779
-0.0243131
-0.0307921
-0.0371562
-0.0433437
-0.0492904
-0.0549302
-0.0601964
-0.0650223
-0.0693427
-0.0730952
-0.0762213
-0.0786683
-0.0803907
-0.0813516
-0.0815245
-0.0808946
-0.0794596
-0.0772314
-0.0742363
-0.0705152
-0.0661245
-0.0611347
-0.0556303
-0.0497088
-0.0434789
-0.0370594
-0.030577
-0.0241647
-0.0179599
-0.0121017
-0.00672927
-0.00198454
0.00488486
0.0140746
0.0226312
0.0305238
0.0377391
0.0442755
0.0501409
0.0553504
0.0599242
0.0638863
0.0672624
0.0700787
0.0723613
0.0741346
0.0754212
0.0762413
0.0766125
0.0765497
0.0760648
0.0751677
0.0738658
0.0721647
0.0700688
0.0675816
0.064706
0.0614455
0.0578039
0.0537865
0.0494002
0.0446541
0.0395599
0.0341324
0.0283899
0.0223543
0.0160518
0.00951266
0.00277181
-0.00413115
-0.0111519
-0.0182414
-0.0253459
-0.0324071
-0.0393628
-0.0461467
-0.0526898
-0.0589202
-0.0647652
-0.070151
-0.0750054
-0.079258
-0.0828425
-0.0856982
-0.0877717
-0.0890186
-0.0894056
-0.0889116
-0.0875295
-0.0852676
-0.08215
-0.0782175
-0.0735277
-0.0681545
-0.0621876
-0.0557311
-0.0489024
-0.0418297
-0.0346507
-0.0275099
-0.0205565
-0.0139421
-0.0078177
-0.0023376
0.00539585
0.0154944
0.0248547
0.0334541
0.0412869
0.0483594
0.0546868
0.0602913
0.0651996
0.0694417
0.0730486
0.0760515
0.0784802
0.0803631
0.0817257
0.0825909
0.0829782
0.082904
0.0823819
0.0814223
0.0800335
0.0782213
0.0759904
0.0733442
0.0702856
0.0668175
0.0629437
0.0586688
0.0539995
0.0489443
0.0435146
0.0377249
0.0315931
0.0251412
0.0183952
0.0113859
0.00414883
-0.00327555
-0.0108416
-0.0184983
-0.0261897
-0.0338546
-0.0414271
-0.0488367
-0.0560093
-0.0628675
-0.0693318
-0.0753216
-0.0807566
-0.0855582
-0.0896515
-0.0929667
-0.0954415
-0.097023
-0.0976696
-0.0973529
-0.0960599
-0.0937938
-0.0905758
-0.0864454
-0.081461
-0.0756993
-0.0692551
-0.0622393
-0.0547781
-0.0470102
-0.0390847
-0.0311587
-0.0233948
-0.0159578
-0.00901221
-0.00272602
0.0059224
0.0169568
0.0271441
0.03647
0.0449372
0.0525598
0.0593608
0.0653699
0.0706206
0.075149
0.0789918
0.0821852
0.0847636
0.0867591
0.0882005
0.0891134
0.0895194
0.089437
0.0888808
0.0878625
0.0863909
0.0844723
0.0821115
0.0793119
0.0760761
0.0724068
0.0683073
0.0637817
0.0588359
0.053478
0.0477187
0.0415719
0.035055
0.0281895
0.0210014
0.0135214
0.0057851
-0.00216629
-0.0102861
-0.018522
-0.0268159
-0.035104
-0.0433169
-0.0513802
-0.0592148
-0.0667375
-0.0738622
-0.0805008
-0.0865648
-0.0919668
-0.0966221
-0.100451
-0.103382
-0.105351
-0.106308
-0.106216
-0.105054
-0.102819
-0.0995273
-0.0952172
-0.0899465
-0.0837944
-0.0768602
-0.069262
-0.0611348
-0.0526284
-0.0439044
-0.0351338
-0.0264934
-0.0181629
-0.0103218
-0.00315297
0.00646276
0.018457
0.0294921
0.0395624
0.048679
0.0568645
0.0641499
0.0705723
0.0761725
0.0809931
0.0850767
0.0884648
0.0911964
0.0933076
0.0948307
0.0957942
0.0962222
0.0961349
0.0955485
0.0944758
0.0929261
0.0909066
0.0884219
0.0854755
0.0820697
0.0782069
0.0738897
0.0691216
0.0639077
0.0582554
0.0521744
0.0456778
0.0387824
0.0315088
0.0238825
0.0159337
0.00769808
-0.000783083
-0.00946251
-0.0182868
-0.0271961
-0.0361244
-0.0449992
-0.0537424
-0.0622699
-0.070493
-0.0783188
-0.0856516
-0.0923942
-0.0984496
-0.103723
-0.108124
-0.11157
-0.113985
-0.115309
-0.115494
-0.11451
-0.112347
-0.109015
-0.104549
-0.099005
-0.0924644
-0.0850304
-0.0768281
-0.0680019
-0.0587132
-0.0491371
-0.0394593
-0.0298726
-0.020573
-0.0117562
-0.00362196
0.00701508
0.0199901
0.0318911
0.0427215
0.052501
0.0612607
0.06904
0.0758838
0.0818402
0.0869585
0.0912875
0.094874
0.0977622
0.0999923
0.1016
0.102617
0.103071
0.102982
0.10237
0.101247
0.0996253
0.0975109
0.0949092
0.0918235
0.088256
0.0842085
0.079683
0.0746821
0.0692102
0.0632735
0.0568809
0.0500442
0.0427791
0.0351054
0.0270475
0.0186349
0.00990284
0.000892255
-0.00834936
-0.0177679
-0.0273025
-0.036885
-0.0464406
-0.0558872
-0.0651366
-0.0740943
-0.0826609
-0.0907328
-0.098204
-0.104967
-0.110917
-0.115952
-0.119975
-0.1229
-0.124652
-0.125173
-0.124422
-0.122378
-0.119046
-0.114453
-0.108655
-0.101732
-0.0937925
-0.0849671
-0.07541
-0.065295
-0.0548114
-0.0441612
-0.0335543
-0.0232048
-0.0133263
-0.00413684
0.00757745
0.0215508
0.0343333
0.0459373
0.0563913
0.0657353
0.0740169
0.0812892
0.0876077
0.0930287
0.0976072
0.101396
0.104444
0.106796
0.108492
0.109566
0.110048
0.109962
0.109328
0.108161
0.106472
0.10427
0.101558
0.0983418
0.0946217
0.0903994
0.085676
0.0804536
0.0747353
0.0685262
0.0618338
0.0546688
0.0470455
0.0389822
0.0305023
0.0216339
0.0124115
0.00287525
-0.00692758
-0.0169428
-0.0271087
-0.037356
-0.0476074
-0.057778
-0.0677752
-0.0774995
-0.0868447
-0.0956997
-0.103949
-0.111476
-0.118162
-0.123893
-0.12856
-0.132063
-0.134311
-0.135234
-0.134776
-0.132908
-0.129621
-0.124939
-0.118912
-0.11162
-0.103172
-0.0937077
-0.0833897
-0.0724046
-0.0609571
-0.0492665
-0.0375617
-0.0260763
-0.0150436
-0.00470182
0.00814786
0.023134
0.0368107
0.0491994
0.0603378
0.0702745
0.0790658
0.0867727
0.0934585
0.0991865
0.104018
0.108012
0.111223
0.1137
0.115486
0.11662
0.117134
0.117055
0.116404
0.115198
0.113448
0.111165
0.108352
0.105013
0.10115
0.0967639
0.0918545
0.0864229
0.0804713
0.0740033
0.067025
0.0595456
0.0515778
0.0431382
0.0342486
0.0249358
0.0152325
0.00517814
-0.00518105
-0.0157912
-0.0265905
-0.0375087
-0.0484671
-0.0593781
-0.0701455
-0.0806648
-0.0908238
-0.100504
-0.10958
-0.117924
-0.125408
-0.131902
-0.137283
-0.141435
-0.144253
-0.145649
-0.145554
-0.143923
-0.140738
-0.136011
-0.129787
-0.122144
-0.113193
-0.103078
-0.0919716
-0.0800737
-0.0676051
-0.0548039
-0.0419194
-0.0292067
-0.0169207
-0.00532143
0.00872428
0.0247341
0.0393149
0.0524973
0.064328
0.0748644
0.0841713
0.0923179
0.0993753
0.105414
0.110502
0.114704
0.11808
0.120684
0.122563
0.12376
0.124309
0.124241
0.123577
0.122337
0.120533
0.118175
0.115269
0.111817
0.107822
0.103283
0.0982003
0.092573
0.0864023
0.0796904
0.0724419
0.0646641
0.0563678
0.0475679
0.0382841
0.0285412
0.0183704
0.00780922
-0.00309727
-0.0142962
-0.0257262
-0.0373168
-0.0489884
-0.0606514
-0.0722067
-0.0835454
-0.0945496
-0.105093
-0.115042
-0.124259
-0.1326
-0.139924
-0.146092
-0.150969
-0.154435
-0.156383
-0.156727
-0.155404
-0.152384
-0.147666
-0.141287
-0.13332
-0.123876
-0.113104
-0.101186
-0.0883339
-0.0747869
-0.0608028
-0.0466532
-0.0326163
-0.0189708
-0.00600056
0.00930465
0.0263457
0.0418376
0.0558203
0.0683493
0.0794907
0.0893178
0.0979082
0.105341
0.111693
0.11704
0.121452
0.124995
0.127727
0.129702
0.130963
0.131551
0.131496
0.130824
0.129555
0.127703
0.125278
0.122286
0.118732
0.114615
0.109935
0.104692
0.0988829
0.0925085
0.0855692
0.0780677
0.0700093
0.0614029
0.0522611
0.0426013
0.0324463
0.0218247
0.0107723
-0.000667989
-0.0124447
-0.0244976
-0.0367569
-0.0491424
-0.0615636
-0.0739191
-0.0860963
-0.0979723
-0.109414
-0.120279
-0.130419
-0.139678
-0.147899
-0.154927
-0.16061
-0.164807
-0.167391
-0.168257
-0.167324
-0.164541
-0.159895
-0.153411
-0.145156
-0.135238
-0.123809
-0.11106
-0.0972162
-0.0825343
-0.0672936
-0.0517896
-0.0363264
-0.021208
-0.00674444
0.00988688
0.0279631
0.0443704
0.0591577
0.0723889
0.084139
0.0944897
0.103527
0.111336
0.118004
0.123611
0.128235
0.131946
0.134808
0.136879
0.138207
0.138835
0.138797
0.13812
0.136826
0.134931
0.132446
0.129378
0.125729
0.121501
0.116693
0.111303
0.105328
0.0987658
0.0916165
0.0838806
0.0755613
0.0666652
0.0572024
0.0471879
0.0366417
0.0255901
0.014066
0.0021101
-0.0102284
-0.022891
-0.0358091
-0.0489033
-0.0620827
-0.0752443
-0.0882731
-0.101042
-0.113411
-0.12523
-0.13634
-0.146574
-0.155759
-0.163722
-0.170292
-0.175307
-0.178619
-0.180098
-0.179642
-0.177181
-0.172681
-0.166154
-0.157656
-0.147292
-0.135214
-0.121621
-0.106751
-0.0908789
-0.0743069
-0.0573566
-0.0403592
-0.0236472
-0.00755862
0.0104689
0.029581
0.0469051
0.0624987
0.0764342
0.088795
0.0996711
0.109156
0.117344
0.124328
0.130196
0.135031
0.138911
0.141903
0.144071
0.145467
0.146136
0.146116
0.145438
0.144124
0.142191
0.139652
0.136514
0.13278
0.128452
0.123528
0.118004
0.111878
0.105146
0.0978047
0.0898542
0.0812952
0.0721316
0.0623711
0.0520258
0.0411128
0.0296554
0.0176835
0.00523485
-0.00764415
-0.0208975
-0.0344587
-0.0482496
-0.0621801
-0.0761468
-0.0900329
-0.103708
-0.117027
-0.129833
-0.141956
-0.153218
-0.16343
-0.172401
-0.179941
-0.185865
-0.19
-0.192191
-0.192311
-0.190264
-0.185996
-0.179499
-0.170816
-0.160044
-0.147335
-0.132892
-0.116966
-0.0998517
-0.0818739
-0.0633821
-0.0447378
-0.0263039
-0.00844898
0.0110487
0.031194
0.0494334
0.0658329
0.0804729
0.0934447
0.104846
0.11478
0.123346
0.130646
0.136774
0.14182
0.145866
0.148989
0.151253
0.152716
0.153427
0.153427
0.152748
0.151417
0.149451
0.146863
0.143663
0.139853
0.135435
0.130406
0.124762
0.118501
0.111615
0.104102
0.0959574
0.087181
0.0777739
0.067741
0.0570914
0.045839
0.0340037
0.0216119
0.00869812
-0.00469479
-0.018514
-0.0326958
-0.0471646
-0.0618318
-0.0765946
-0.0913358
-0.105922
-0.120206
-0.134024
-0.147197
-0.159533
-0.170832
-0.180884
-0.189477
-0.196402
-0.20146
-0.204468
-0.205269
-0.20374
-0.199801
-0.19342
-0.184623
-0.173494
-0.160182
-0.144892
-0.127888
-0.109482
-0.0900251
-0.069895
-0.0494861
-0.0291944
-0.00942174
0.0116243
0.0327969
0.0519477
0.0691503
0.0844927
0.0980741
0.11
0.12038
0.129324
0.136937
0.143323
0.148578
0.15279
0.15604
0.158398
0.159927
0.160679
0.160699
0.160021
0.158674
0.156677
0.154046
0.150789
0.146911
0.142412
0.13729
0.131541
0.125159
0.118137
0.110471
0.102154
0.0931839
0.0835587
0.0732806
0.0623554
0.0507937
0.0386117
0.0258322
0.0124854
-0.00138952
-0.0157437
-0.0305172
-0.0456376
-0.061019
-0.0765606
-0.0921459
-0.107641
-0.122896
-0.137741
-0.151991
-0.165443
-0.177883
-0.189082
-0.198809
-0.206827
-0.212911
-0.216846
-0.218444
-0.217548
-0.214047
-0.207881
-0.199054
-0.187633
-0.173758
-0.157636
-0.13954
-0.119799
-0.0987904
-0.0769239
-0.0546282
-0.0323355
-0.0104834
0.012194
0.0343849
0.0544405
0.0724413
0.0884825
0.10267
0.115118
0.125942
0.135259
0.143183
0.149824
0.155283
0.159657
0.16303
0.16548
0.167072
0.167863
0.1679
0.167223
0.165861
0.163836
0.161165
0.157856
0.153917
0.149346
0.144142
0.138299
0.131812
0.124672
0.116872
0.108404
0.0992644
0.0894475
0.0789528
0.0677829
0.0559447
0.0434504
0.0303187
0.0165757
0.00225572
-0.0125967
-0.0279261
-0.0436644
-0.0597295
-0.0760237
-0.0924325
-0.108823
-0.125044
-0.140923
-0.156268
-0.170868
-0.184494
-0.196903
-0.207839
-0.217043
-0.224257
-0.229234
-0.231749
-0.23161
-0.228669
-0.222833
-0.214075
-0.202442
-0.18806
-0.171132
-0.151939
-0.130827
-0.108199
-0.0844972
-0.0601888
-0.0357445
-0.0116408
0.012756
0.0359537
0.0569052
0.0756973
0.0924315
0.107221
0.120185
0.131448
0.141134
0.149364
0.156254
0.161914
0.166444
0.169935
0.172471
0.174121
0.174946
0.174999
0.17432
0.172942
0.170889
0.16818
0.164824
0.160828
0.156194
0.150917
0.144993
0.138415
0.131173
0.123259
0.114664
0.105378
0.0953972
0.0847159
0.0733336
0.0612537
0.0484843
0.0350397
0.020941
0.00621802
-0.00909017
-0.0249333
-0.0412483
-0.0579582
-0.0749696
-0.0921716
-0.109434
-0.126606
-0.143513
-0.15996
-0.175729
-0.190579
-0.204249
-0.216466
-0.226942
-0.235389
-0.241526
-0.245087
-0.245838
-0.243591
-0.238212
-0.229639
-0.21789
-0.203073
-0.185381
-0.165099
-0.142588
-0.118276
-0.0926427
-0.0661925
-0.0394391
-0.012901
0.0133089
0.0374994
0.0593359
0.0789105
0.0963303
0.111714
0.125189
0.136885
0.146934
0.155462
0.162595
0.168446
0.173125
0.176728
0.179342
0.181044
0.181899
0.181961
0.181277
0.17988
0.177799
0.175052
0.171651
0.167604
0.162911
0.157571
0.151577
0.144922
0.137595
0.129586
0.120883
0.111478
0.10136
0.0905231
0.0789623
0.0666774
0.0536724
0.0399569
0.0255472
0.0104675
-0.00524873
-0.021557
-0.0384005
-0.055708
-0.073392
-0.0913467
-0.109446
-0.127541
-0.14546
-0.163004
-0.17995
-0.196047
-0.211023
-0.224581
-0.236411
-0.246192
-0.253605
-0.258344
-0.260128
-0.25872
-0.253941
-0.245686
-0.233937
-0.218773
-0.200375
-0.179026
-0.155099
-0.129048
-0.101387
-0.0726639
-0.0434373
-0.0142713
0.0138515
0.0390189
0.0617278
0.0820745
0.100171
0.116141
0.130118
0.142239
0.152641
0.16146
0.168825
0.174859
0.179677
0.183381
0.186065
0.18781
0.188686
0.188752
0.188056
0.186637
0.184524
0.181738
0.178293
0.174197
0.169452
0.164056
0.158002
0.151282
0.143885
0.1358
0.127013
0.117512
0.107285
0.0963236
0.0846191
0.0721674
0.0589682
0.0450265
0.0303533
0.0149673
-0.00110429
-0.0178235
-0.0351403
-0.0529904
-0.0712933
-0.0899498
-0.10884
-0.127819
-0.146718
-0.16534
-0.183458
-0.200815
-0.217125
-0.232076
-0.245332
-0.256542
-0.265347
-0.271397
-0.274361
-0.273949
-0.269927
-0.26214
-0.250524
-0.235124
-0.216097
-0.19372
-0.168373
-0.140536
-0.110756
-0.079627
-0.0477573
-0.0157594
0.014383
0.0405099
0.0640772
0.0851842
0.103946
0.120493
0.134962
0.147497
0.158242
0.167339
0.174926
0.181131
0.186076
0.18987
0.192612
0.194389
0.195276
0.195336
0.19462
0.193172
0.191023
0.188195
0.184705
0.180562
0.175768
0.170322
0.164217
0.157444
0.149992
0.141848
0.132997
0.123425
0.113118
0.102063
0.0902503
0.0776708
0.0643204
0.0501991
0.0353128
0.0196742
0.00330409
-0.0137666
-0.0314953
-0.0498257
-0.0686852
-0.0879828