/*--------------------------------*- C++ -*----------------------------------*\
  =========                 |
  \\      /  F ield         | OpenFOAM: The Open Source CFD Toolbox
   \\    /   O peration     | Website:  https://openfoam.org
    \\  /    A nd           | Version:  dev
     \\/     M anipulation  |
\*---------------------------------------------------------------------------*/
FoamFile
{
    format      ascii;
    class       volScalarField;
    location    "0.9";
    object      p;
}
// * * * * * * * * * * * * * * * * * * * * * * * * * * * * * * * * * * * * * //

dimensions      [0 2 -2 0 0 0 0];

internalField   nonuniform List<scalar> 
400
(
-1.56151e-08
-0.000390556
-0.000622997
-0.000588906
-0.000254278
0.000373969
0.00127007
0.00239984
0.003723
0.00519181
0.00674928
0.00832837
0.00985245
0.0112376
0.0123972
0.0132507
0.013738
0.0138423
0.0136143
0.0131936
0.000365506
-3.41558e-05
-0.000200479
-0.000113117
0.000224862
0.000814663
0.00164294
0.00268468
0.00390605
0.00526404
0.0067057
0.00816833
0.0095803
0.0108643
0.0119428
0.0127464
0.0132292
0.0133823
0.0132182
0.0127877
0.000583985
8.33764e-05
-9.67954e-05
-1.22197e-07
0.000334483
0.000906303
0.00170597
0.00271283
0.00389733
0.00522006
0.00663086
0.00806878
0.00946333
0.0107373
0.0118123
0.0126178
0.0131064
0.0132647
0.0130712
0.0125219
0.000542621
-7.77631e-05
-0.00030275
-0.000216085
0.000115599
0.000687043
0.00148942
0.00250423
0.00370479
0.00505429
0.0065041
0.0079932
0.00944866
0.0107883
0.0119259
0.0127807
0.0132952
0.0134463
0.0131888
0.0124929
0.000178638
-0.000551784
-0.000823781
-0.000747894
-0.000411378
0.000176876
0.00100831
0.00206617
0.00332633
0.00475422
0.00630206
0.00790744
0.00949255
0.0109663
0.0122288
0.0131826
0.013754
0.0139073
0.0135807
0.0127366
-0.000549903
-0.00138944
-0.00170811
-0.00163824
-0.00128515
-0.00066074
0.000226928
0.00136307
0.00272644
0.00428502
0.00599189
0.00778285
0.00957327
0.0112594
0.012722
0.0138387
0.0145108
0.0146852
0.0142837
0.0132689
-0.00168042
-0.00264172
-0.00300922
-0.00293889
-0.00255611
-0.00187608
-0.000906017
0.00034199
0.00185062
0.00359164
0.00552016
0.00757139
0.00965283
0.0116453
0.0134034
0.014769
0.015606
0.0158316
0.0153429
0.0141043
-0.00326081
-0.00436826
-0.00478963
-0.00471198
-0.00428672
-0.00353353
-0.00245842
-0.00106952
0.000621619
0.00259309
0.00480522
0.00719445
0.00966317
0.0120752
0.0142525
0.0159874
0.0170861
0.0174143
0.0168213
0.0152672
-0.00535824
-0.0066472
-0.00712998
-0.00703768
-0.00655796
-0.00571724
-0.0045198
-0.00296822
-0.00106568
0.00117604
0.00372783
0.00653148
0.00949174
0.0124582
0.0152159
0.0174915
0.0190039
0.019528
0.0188165
0.0168022
-0.00806575
-0.00958325
-0.0101355
-0.0100184
-0.00947192
-0.00853248
-0.00720214
-0.00547599
-0.00334592
-0.000809331
0.00212136
0.00540573
0.00896035
0.0126328
0.0161757
0.0192363
0.0214062
0.0223037
0.0214862
0.0187935
-0.0115121
-0.0133181
-0.0139431
-0.0137825
-0.0131525
-0.0121044
-0.010637
-0.00873617
-0.00637991
-0.00354725
-0.000226307
0.00357323
0.0078009
0.0123286
0.0168999
0.0210838
0.0243023
0.0259131
0.0250892
0.0214146
-0.0158809
-0.0180472
-0.0187314
-0.0184871
-0.0177441
-0.0165728
-0.0149668
-0.0129012
-0.0103398
-0.00724165
-0.00356506
0.000725497
0.00564087
0.0111241
0.0169691
0.0227124
0.0275889
0.0305504
0.0300444
0.0250462
-0.0214501
-0.0240491
-0.0247331
-0.0243186
-0.0234034
-0.0220772
-0.0203225
-0.0181029
-0.0153708
-0.0120702
-0.0081306
-0.00346232
0.002035
0.00844197
0.0157141
0.0234942
0.030912
0.0363621
0.0370058
0.0305469
-0.0286763
-0.0317344
-0.0322467
-0.0314814
-0.0302747
-0.0287203
-0.0267748
-0.0243891
-0.0215123
-0.0180855
-0.0140242
-0.00919211
-0.00338137
0.00368469
0.0122826
0.0224412
0.0335011
0.043292
0.0469355
0.0397992
-0.0383804
-0.0417265
-0.0416262
-0.0401447
-0.0384167
-0.0364789
-0.0342298
-0.0316036
-0.0285567
-0.0250472
-0.0210023
-0.0162648
-0.0105288
-0.00333098
0.00609658
0.0185536
0.0342452
0.0509088
0.0610821
0.0564346
-0.0521533
-0.0549752
-0.0531821
-0.0502765
-0.0476118
-0.045
-0.0422211
-0.0391815
-0.0358496
-0.0322139
-0.0282339
-0.0237606
-0.0184118
-0.0116433
-0.00208464
0.0121172
0.0328465
0.0589739
0.081116
0.0861462
-0.0732723
-0.0728344
-0.0669096
-0.0613055
-0.0570003
-0.0532458
-0.0496035
-0.0459147
-0.0421342
-0.0382581
-0.0342597
-0.0300109
-0.0251572
-0.0186859
-0.00905648
0.00672254
0.032678
0.0703823
0.111323
0.1382
-0.109585
-0.0965159
-0.081621
-0.0713262
-0.0643671
-0.0589621
-0.0542593
-0.0498899
-0.0456887
-0.0415813
-0.0374843
-0.0331899
-0.0281916
-0.0213225
-0.0103752
0.0086312
0.0417345
0.0943182
0.163803
0.236538
-0.1851
-0.123582
-0.0895277
-0.0730283
-0.063689
-0.0573829
-0.0525831
-0.0484783
-0.044638
-0.0408656
-0.0370014
-0.0327326
-0.0273639
-0.0193368
-0.00581718
0.0185047
0.0623364
0.137108
0.254628
0.427231
-0.352494
-0.144934
-0.0708819
-0.0531927
-0.0469436
-0.0434581
-0.0414298
-0.0398389
-0.0380376
-0.0358092
-0.0330427
-0.0294477
-0.0243171
-0.0161678
-0.00165321
0.0254865
0.0773075
0.17729
0.365434
0.693497
)
;

boundaryField
{
    movingWall
    {
        type            zeroGradient;
    }
    fixedWalls
    {
        type            zeroGradient;
    }
    frontAndBack
    {
        type            empty;
    }
}


// ************************************************************************* //
