/*--------------------------------*- C++ -*----------------------------------*\
  =========                 |
  \\      /  F ield         | OpenFOAM: The Open Source CFD Toolbox
   \\    /   O peration     | Website:  https://openfoam.org
    \\  /    A nd           | Version:  dev
     \\/     M anipulation  |
\*---------------------------------------------------------------------------*/
FoamFile
{
    format      ascii;
    class       surfaceScalarField;
    location    "0.9";
    object      phi;
}
// * * * * * * * * * * * * * * * * * * * * * * * * * * * * * * * * * * * * * //

dimensions      [0 3 -1 0 0 0 0];

internalField   nonuniform List<scalar> 
760
(
-5.68545e-07
5.68613e-07
-5.02837e-06
4.45981e-06
-1.22148e-05
7.18636e-06
-2.04645e-05
8.24972e-06
-2.86828e-05
8.21833e-06
-3.62185e-05
7.53566e-06
-4.26732e-05
6.45467e-06
-4.77729e-05
5.09962e-06
-5.12987e-05
3.52579e-06
-5.3062e-05
1.76334e-06
-5.29054e-05
-1.56639e-07
-5.07186e-05
-2.18682e-06
-4.64674e-05
-4.25115e-06
-4.02366e-05
-6.23075e-06
-3.22935e-05
-7.94318e-06
-2.3178e-05
-9.11547e-06
-1.38184e-05
-9.35963e-06
-5.65472e-06
-8.16367e-06
-6.32006e-07
-5.02269e-06
-6.32008e-07
-4.5213e-06
5.0899e-06
-1.65377e-05
1.64761e-05
-3.31876e-05
2.38362e-05
-5.175e-05
2.6812e-05
-7.0156e-05
2.66244e-05
-8.70112e-05
2.43908e-05
-0.00010139
2.0833e-05
-0.00011264
1.63498e-05
-0.000120265
1.11509e-05
-0.000123869
5.36774e-06
-0.000123154
-8.71603e-07
-0.000117943
-7.39848e-06
-0.000108235
-1.39584e-05
-9.42935e-05
-2.01726e-05
-7.67566e-05
-2.54801e-05
-5.6797e-05
-2.90751e-05
-3.6285e-05
-2.98716e-05
-1.78748e-05
-2.65739e-05
-4.77694e-06
-1.81206e-05
-5.40896e-06
-7.68104e-06
1.27709e-05
-2.53605e-05
3.41556e-05
-4.86769e-05
4.71526e-05
-7.41259e-05
5.22609e-05
-9.91263e-05
5.16248e-05
-0.000121909
4.71736e-05
-0.000141272
4.01955e-05
-0.000156357
3.14348e-05
-0.000166513
2.13072e-05
-0.000171232
1.00864e-05
-0.000170135
-1.96801e-06
-0.000163008
-1.45251e-05
-0.000149866
-2.71013e-05
-0.000131056
-3.89826e-05
-0.000107413
-4.91232e-05
-8.04426e-05
-5.6045e-05
-5.25179e-05
-5.77964e-05
-2.69766e-05
-5.21152e-05
-7.9629e-06
-3.71343e-05
-1.33719e-05
-9.75402e-06
2.25249e-05
-3.16383e-05
5.60398e-05
-5.9959e-05
7.54734e-05
-9.04781e-05
8.278e-05
-0.000120229
8.13762e-05
-0.000147227
7.41715e-05
-0.000170132
6.30998e-05
-0.000187985
4.92887e-05
-0.000200056
3.33779e-05
-0.00020576
1.57901e-05
-0.000204646
-3.08188e-06
-0.000196429
-2.27419e-05
-0.00018107
-4.2461e-05
-0.000158902
-6.11504e-05
-0.000130824
-7.72007e-05
-9.85391e-05
-8.83302e-05
-6.48024e-05
-9.15331e-05
-3.35886e-05
-8.3329e-05
-1.00166e-05
-6.07063e-05
-2.33885e-05
-1.13072e-05
3.38321e-05
-3.66618e-05
8.13945e-05
-6.92458e-05
0.000108057
-0.000104111
0.000117645
-0.000137928
0.000115194
-0.000168546
0.000104789
-0.000194547
8.91009e-05
-0.000214928
6.96696e-05
-0.000228908
4.73577e-05
-0.000235835
2.27171e-05
-0.000235163
-3.75418e-06
-0.000226478
-3.14265e-05
-0.0002096
-5.93392e-05
-0.000184743
-8.60078e-05
-0.000152769
-0.000109174
-0.000115521
-0.000125578
-7.61727e-05
-0.000130882
-3.94713e-05
-0.00012003
-1.16784e-05
-8.84991e-05
-3.50668e-05
-1.2803e-05
4.66351e-05
-4.15941e-05
0.000110186
-7.84697e-05
0.000144933
-0.000117745
0.00015692
-0.000155711
0.00015316
-0.000190062
0.00013914
-0.000219332
0.000118371
-0.000242504
9.28414e-05
-0.000258768
6.36219e-05
-0.000267403
3.13522e-05
-0.000267733
-3.42391e-06
-0.000259145
-4.00144e-05
-0.00024121
-7.72744e-05
-0.00021389
-0.000113328
-0.000177891
-0.000145173
-0.000135144
-0.000168325
-8.93213e-05
-0.000176705
-4.61979e-05
-0.000163154
-1.35234e-05
-0.000121174
-4.85903e-05
-1.45451e-05
6.11802e-05
-4.72706e-05
0.000142911
-8.9031e-05
0.000186693
-0.000133306
0.000201195
-0.000175967
0.000195822
-0.000214561
0.000177734
-0.000247608
0.000151418
-0.000274113
0.000119347
-0.000293268
8.27775e-05
-0.000304288
4.23725e-05
-0.000306344
-1.36871e-06
-0.000298535
-4.78235e-05
-0.000280052
-9.57568e-05
-0.000250421
-0.000142959
-0.000209994
-0.0001856
-0.000160661
-0.000217658
-0.000106659
-0.000230708
-5.51482e-05
-0.000214664
-1.59915e-05
-0.00016033
-6.45817e-05
-1.67432e-05
7.79234e-05
-5.42935e-05
0.000180461
-0.000101929
0.000234329
-0.000152119
0.000251385
-0.000200267
0.00024397
-0.000243791
0.000221258
-0.000281257
0.000188884
-0.000311759
0.000149849
-0.000334548
0.000105566
-0.000348807
5.66314e-05
-0.000353548
3.37228e-06
-0.000347506
-5.38654e-05
-0.000329331
-0.000113932
-0.00029784
-0.000174451
-0.000252693
-0.000230746
-0.000195444
-0.000274907
-0.00013084
-0.000295312
-6.78752e-05
-0.000277628
-1.95548e-05
-0.000208651
-8.41365e-05
-1.95834e-05
9.75068e-05
-6.31861e-05
0.000224064
-0.000117991
0.000289134
-0.000175204
0.000308598
-0.000229709
0.000298475
-0.000278861
0.000270409
-0.000321364
0.000231387
-0.000356513
0.000184998
-0.000383723
0.000132777
-0.000402237
7.51451e-05
-0.000410904
1.20395e-05
-0.000408117
-5.6652e-05
-0.000391762
-0.000130287
-0.000359592
-0.000206621
-0.000310033
-0.000280306
-0.000243687
-0.000341252
-0.000165468
-0.000373531
-8.66371e-05
-0.00035646
-2.49377e-05
-0.00027035
-0.000109074
-2.33001e-05
0.000120807
-7.45541e-05
0.000275318
-0.000138087
0.000352666
-0.000203514
0.000374026
-0.000265178
0.000360139
-0.00032048
0.000325712
-0.000368428
0.000279334
-0.000408684
0.000225253
-0.000440993
0.000165086
-0.000464808
9.89598e-05
-0.000478974
2.62061e-05
-0.000481514
-5.41129e-05
-0.000469444
-0.000142357
-0.000439024
-0.00023704
-0.000386643
-0.000332687
-0.00031086
-0.000417035
-0.000215786
-0.000468604
-0.000115067
-0.000457179
-3.34372e-05
-0.000351979
-0.000142511
-2.82608e-05
0.000149068
-8.92496e-05
0.000336307
-0.000163314
0.00042673
-0.000238086
0.000448799
-0.000307417
0.00042947
-0.000368963
0.000387258
-0.00042227
0.000332641
-0.000467604
0.000270587
-0.00050528
0.000202762
-0.000535209
0.000128889
-0.000556474
4.74714e-05
-0.00056691
-4.3677e-05
-0.000562674
-0.000146593
-0.000538164
-0.000261551
-0.000486747
-0.000384104
-0.000403226
-0.000500556
-0.000288884
-0.000582947
-0.000158833
-0.00058723
-4.73916e-05
-0.000463421
-0.000189903
-3.50906e-05
0.000184158
-0.000108557
0.000409774
-0.000195111
0.000513284
-0.000280007
0.000533694
-0.000356819
0.000506281
-0.000423815
0.000454254
-0.000481408
0.000390235
-0.00053077
0.000319948
-0.000573086
0.000245078
-0.000609063
0.000164866
-0.000638409
7.6817e-05
-0.000659186
-2.28995e-05
-0.000667013
-0.000138766
-0.000654384
-0.000274181
-0.000610782
-0.000427706
-0.000525076
-0.000586261
-0.000392238
-0.000715786
-0.000225681
-0.000753786
-7.07576e-05
-0.000618344
-0.000260661
-4.48787e-05
0.000229037
-0.000134399
0.000499295
-0.000235209
0.000614094
-0.000329979
0.000628464
-0.000412588
0.000588891
-0.000482505
0.000524171
-0.000541456
0.000449186
-0.000591862
0.000370354
-0.000636107
0.000289323
-0.000676064
0.000204823
-0.000712557
0.00011331
-0.000744535
9.07866e-06
-0.000767888
-0.000115413
-0.000773897
-0.000268172
-0.00074811
-0.000453493
-0.000671613
-0.000662758
-0.000528387
-0.000859012
-0.000323283
-0.00095889
-0.000109435
-0.000832192
-0.000370095
-5.95359e-05
0.000288573
-0.000169476
0.000609235
-0.00028504
0.000729657
-0.000386858
0.000730283
-0.000470448
0.00067248
-0.000537455
0.000591178
-0.000591518
0.000503249
-0.000636677
0.000415513
-0.000676767
0.000329413
-0.000715095
0.000243151
-0.000754027
0.000152243
-0.000794168
4.92194e-05
-0.000832952
-7.66297e-05
-0.00086228
-0.000238843
-0.000865532
-0.000450241
-0.000816237
-0.000712053
-0.000683314
-0.000991936
-0.000452172
-0.00119003
-0.000170157
-0.00111421
-0.000540252
-8.24012e-05
0.000370974
-0.000217005
0.000743839
-0.000343617
0.000856269
-0.000443619
0.000830285
-0.000517033
0.000745894
-0.000569307
0.000643452
-0.000606788
0.00054073
-0.000635453
0.000444178
-0.000660619
0.00035458
-0.000686938
0.00026947
-0.000718339
0.000183644
-0.000757579
8.846e-05
-0.000804808
-2.9401e-05
-0.000855687
-0.000187964
-0.000895642
-0.000410286
-0.000895261
-0.000712433
-0.000808879
-0.00107832
-0.000590883
-0.00140803
-0.00025502
-0.00145007
-0.000795272
-0.000119075
0.000490049
-0.000278759
0.000903522
-0.000401058
0.000978568
-0.000477166
0.000906394
-0.000517352
0.00078608
-0.000533319
0.00065942
-0.000534942
0.000542353
-0.000530099
0.000439335
-0.000525058
0.000349538
-0.000525022
0.000269433
-0.00053467
0.000193292
-0.000558592
0.000112382
-0.000599764
1.17703e-05
-0.000661008
-0.00012672
-0.000735584
-0.000335711
-0.000801373
-0.000646645
-0.000807962
-0.00107173
-0.000675293
-0.0015407
-0.00034747
-0.00177789
-0.00114274
-0.000177593
0.000667642
-0.000345516
0.00107144
-0.000419239
0.00105229
-0.000423794
0.000910949
-0.00038913
0.000751415
-0.000335357
0.000605646
-0.000275234
0.000482231
-0.000217048
0.000381148
-0.000166221
0.000298711
-0.000126673
0.000229886
-0.000102015
0.000168635
-9.65873e-05
0.000106954
-0.000117441
3.26239e-05
-0.000171387
-7.27738e-05
-0.0002667
-0.000240397
-0.000400901
-0.000512444
-0.000540104
-0.000932525
-0.000587124
-0.00149368
-0.000394928
-0.00197009
-0.00153767
-0.000262264
0.000929906
-0.000352609
0.00116179
-0.000271987
0.000971669
-0.000121762
0.000760724
4.37266e-05
0.000585927
0.000202224
0.000447149
0.000344248
0.000340206
0.000466251
0.000259146
0.000567419
0.000197543
0.000647844
0.00014946
0.000707105
0.000109374
0.00074282
7.12388e-05
0.000748493
2.69512e-05
0.000712457
-3.67383e-05
0.000614273
-0.000142213
0.000428902
-0.000327073
0.000148141
-0.000651764
-0.000160689
-0.00118485
-0.000286746
-0.00184403
-0.00182442
-0.000243435
0.00117334
2.01866e-05
0.000898169
0.000431582
0.000560274
0.000804769
0.000387537
0.00111513
0.00027557
0.00136713
0.000195142
0.00156875
0.000138587
0.00172834
9.95561e-05
0.00185353
7.23497e-05
0.00195029
5.27015e-05
0.00202229
3.73798e-05
0.00207003
2.35002e-05
0.00208886
8.12194e-06
0.0020677
-1.55802e-05
0.00198073
-5.52429e-05
0.00178273
-0.000129077
0.00141135
-0.000280383
0.000836214
-0.000609712
0.00021765
-0.00122547
-0.00160677
0.00117334
0.00207151
0.00263178
0.00301932
0.00329489
0.00349003
0.00362862
0.00372818
0.00380053
0.00385323
0.00389061
0.00391411
0.00392223
0.00390665
0.00385141
0.00372233
0.00344195
0.00283224
0.00160677
)
;

boundaryField
{
    movingWall
    {
        type            calculated;
        value           uniform 0;
    }
    fixedWalls
    {
        type            calculated;
        value           uniform 0;
    }
    frontAndBack
    {
        type            empty;
    }
}


// ************************************************************************* //
