/*--------------------------------*- C++ -*----------------------------------*\
  =========                 |
  \\      /  F ield         | OpenFOAM: The Open Source CFD Toolbox
   \\    /   O peration     | Website:  https://openfoam.org
    \\  /    A nd           | Version:  dev
     \\/     M anipulation  |
\*---------------------------------------------------------------------------*/
FoamFile
{
    format      ascii;
    class       volVectorField;
    location    "0.9";
    object      U;
}
// * * * * * * * * * * * * * * * * * * * * * * * * * * * * * * * * * * * * * //

dimensions      [0 1 -1 0 0 0 0];

internalField   nonuniform List<vector> 
400
(
(3.3249e-05 -3.76374e-05 0)
(-0.000412481 0.000278027 0)
(-0.00165103 0.00051247 0)
(-0.0032498 0.000603867 0)
(-0.00493128 0.000604704 0)
(-0.00652828 0.000555792 0)
(-0.00794152 0.000478476 0)
(-0.00910716 0.000381997 0)
(-0.00997772 0.000269592 0)
(-0.0105131 0.000142544 0)
(-0.0106783 2.40285e-06 0)
(-0.0104459 -0.000147866 0)
(-0.00980022 -0.000302865 0)
(-0.00874428 -0.000453725 0)
(-0.00731056 -0.000586264 0)
(-0.00557645 -0.000678353 0)
(-0.00368449 -0.000696843 0)
(-0.00186449 -0.000594931 0)
(-0.000463357 -0.000326175 0)
(4.02431e-05 3.28158e-05 0)
(-0.000286003 0.000409696 0)
(-0.00181675 0.00178504 0)
(-0.00480996 0.00271988 0)
(-0.00846136 0.0030992 0)
(-0.0122381 0.00308817 0)
(-0.0158149 0.00283413 0)
(-0.0189729 0.0024272 0)
(-0.0215608 0.0019143 0)
(-0.0234674 0.00131814 0)
(-0.0246049 0.000652059 0)
(-0.0249034 -7.06659e-05 0)
(-0.0243138 -0.000831108 0)
(-0.0228155 -0.00160009 0)
(-0.0204307 -0.00233296 0)
(-0.0172437 -0.00296244 0)
(-0.0134294 -0.00338991 0)
(-0.00928157 -0.00347882 0)
(-0.00523623 -0.00305902 0)
(-0.00194235 -0.00198653 0)
(-0.000290825 -0.000441719 0)
(-0.00054519 0.00168001 0)
(-0.00292062 0.00482857 0)
(-0.00719598 0.00680785 0)
(-0.0122497 0.00760415 0)
(-0.0173993 0.00753611 0)
(-0.0222443 0.0068987 0)
(-0.0265053 0.00588738 0)
(-0.0299837 0.00461331 0)
(-0.0325332 0.00313711 0)
(-0.0340398 0.00149803 0)
(-0.0344144 -0.000266384 0)
(-0.0335957 -0.00210706 0)
(-0.0315599 -0.00395238 0)
(-0.0283378 -0.00569611 0)
(-0.0240405 -0.00718244 0)
(-0.0188943 -0.00819014 0)
(-0.0132723 -0.00842516 0)
(-0.00771818 -0.00754426 0)
(-0.00306723 -0.0052712 0)
(-0.000548696 -0.00176889 0)
(-0.000705548 0.00345731 0)
(-0.0036815 0.00885281 0)
(-0.00892233 0.0120551 0)
(-0.0150199 0.0132912 0)
(-0.0211676 0.0131006 0)
(-0.0269177 0.011958 0)
(-0.0319603 0.0101812 0)
(-0.0360742 0.00795569 0)
(-0.0390957 0.00538649 0)
(-0.0408954 0.00254348 0)
(-0.0413698 -0.000507622 0)
(-0.040443 -0.00368333 0)
(-0.0380779 -0.00686281 0)
(-0.0342968 -0.00986723 0)
(-0.029214 -0.0124349 0)
(-0.0230795 -0.0141971 0)
(-0.0163197 -0.0146686 0)
(-0.00956996 -0.0132898 0)
(-0.00384443 -0.00958834 0)
(-0.000699182 -0.00359676 0)
(-0.000817409 0.00557254 0)
(-0.00427087 0.0135937 0)
(-0.0103267 0.0181634 0)
(-0.0173181 0.0198467 0)
(-0.0243203 0.0194733 0)
(-0.0308446 0.0177327 0)
(-0.0365619 0.0150801 0)
(-0.0412403 0.011781 0)
(-0.0447078 0.0079856 0)
(-0.0468243 0.00379278 0)
(-0.04747 -0.000706563 0)
(-0.0465465 -0.00539736 0)
(-0.0439886 -0.0101099 0)
(-0.0397903 -0.0145874 0)
(-0.0340469 -0.0184475 0)
(-0.0270147 -0.0211456 0)
(-0.0191698 -0.0219631 0)
(-0.0112575 -0.0200661 0)
(-0.0045044 -0.0147178 0)
(-0.000806754 -0.00576728 0)
(-0.000922714 0.00797875 0)
(-0.00484351 0.0189956 0)
(-0.0117142 0.0250926 0)
(-0.0196094 0.0272432 0)
(-0.0274807 0.0266352 0)
(-0.0347975 0.0242139 0)
(-0.0412161 0.0205913 0)
(-0.0465012 0.0161186 0)
(-0.0504782 0.0109897 0)
(-0.0529981 0.00532614 0)
(-0.053922 -0.000764813 0)
(-0.0531184 -0.00714604 0)
(-0.0504759 -0.0136048 0)
(-0.0459354 -0.0198042 0)
(-0.0395459 -0.0252229 0)
(-0.0315499 -0.0290996 0)
(-0.0224729 -0.0304157 0)
(-0.0132035 -0.0279791 0)
(-0.00524838 -0.0207115 0)
(-0.000920592 -0.00826839 0)
(-0.00104743 0.0106994 0)
(-0.005507 0.0251161 0)
(-0.0133072 0.0329198 0)
(-0.0222288 0.0355636 0)
(-0.0310837 0.0346677 0)
(-0.0392974 0.0314817 0)
(-0.0465172 0.0267983 0)
(-0.0525123 0.0210613 0)
(-0.0571125 0.0145046 0)
(-0.0601646 0.00726183 0)
(-0.061509 -0.000558755 0)
(-0.0609706 -0.00881519 0)
(-0.0583701 -0.0172671 0)
(-0.0535626 -0.0255009 0)
(-0.0465101 -0.0328371 0)
(-0.0374043 -0.0382415 0)
(-0.0268073 -0.040297 0)
(-0.015788 -0.0373256 0)
(-0.00624395 -0.0277989 0)
(-0.001074 -0.0111824 0)
(-0.00120877 0.0138066 0)
(-0.00633789 0.0320978 0)
(-0.0152667 0.0418085 0)
(-0.0254127 0.0449647 0)
(-0.0354224 0.0437117 0)
(-0.0446788 0.0396635 0)
(-0.0528299 0.0338231 0)
(-0.0596624 0.0267351 0)
(-0.0650241 0.0186682 0)
(-0.0687672 0.0097526 0)
(-0.070715 7.42358e-05 0)
(-0.0706418 -0.0102464 0)
(-0.0682774 -0.020973 0)
(-0.0633474 -0.0316334 0)
(-0.0556635 -0.0413758 0)
(-0.0452963 -0.0488246 0)
(-0.0327975 -0.0520214 0)
(-0.0194408 -0.0486 0)
(-0.00767813 -0.0363954 0)
(-0.00130039 -0.0146753 0)
(-0.00142235 0.0174098 0)
(-0.00740426 0.0401532 0)
(-0.0177307 0.0519899 0)
(-0.0293511 0.0556539 0)
(-0.0407136 0.05394 0)
(-0.0511653 0.0489048 0)
(-0.0603738 0.0417985 0)
(-0.0681653 0.0332773 0)
(-0.0744279 0.0236377 0)
(-0.079039 0.0129871 0)
(-0.0818158 0.00135715 0)
(-0.0824854 -0.0111997 0)
(-0.0806688 -0.0245005 0)
(-0.0759063 -0.0380588 0)
(-0.0677672 -0.0508609 0)
(-0.0560773 -0.0611191 0)
(-0.0412605 -0.0661376 0)
(-0.0247716 -0.0625344 0)
(-0.00983466 -0.0471633 0)
(-0.00165379 -0.0190237 0)
(-0.00170959 0.021658 0)
(-0.00878959 0.0495625 0)
(-0.0208531 0.0637507 0)
(-0.0342351 0.0678667 0)
(-0.0471474 0.0655281 0)
(-0.0589199 0.0593368 0)
(-0.069271 0.0508367 0)
(-0.0781 0.040808 0)
(-0.0853694 0.029568 0)
(-0.0910146 0.0171779 0)
(-0.0948783 0.00357408 0)
(-0.0966568 -0.0113234 0)
(-0.0958537 -0.0274647 0)
(-0.0917743 -0.0444405 0)
(-0.083625 -0.0611367 0)
(-0.0707895 -0.0753128 0)
(-0.0533257 -0.0832913 0)
(-0.0327193 -0.0801594 0)
(-0.013203 -0.0611359 0)
(-0.00224156 -0.0246926 0)
(-0.00210724 0.0267575 0)
(-0.0106196 0.0606892 0)
(-0.0248409 0.0774298 0)
(-0.0402912 0.0818442 0)
(-0.0549111 0.0786195 0)
(-0.0680531 0.071036 0)
(-0.0795357 0.0609855 0)
(-0.0893794 0.0493866 0)
(-0.097668 0.0365698 0)
(-0.104444 0.0225263 0)
(-0.109626 0.00705051 0)
(-0.112926 -0.0101459 0)
(-0.113755 -0.0292679 0)
(-0.111158 -0.0501411 0)
(-0.103851 -0.0717091 0)
(-0.0905064 -0.0913319 0)
(-0.0704044 -0.104108 0)
(-0.044657 -0.102841 0)
(-0.0186224 -0.0799117 0)
(-0.0032813 -0.0324956 0)
(-0.00268315 0.0330097 0)
(-0.0130985 0.0740109 0)
(-0.0299885 0.0934118 0)
(-0.0477928 0.0977963 0)
(-0.0641658 0.0932708 0)
(-0.0785616 0.0839583 0)
(-0.0909733 0.072156 0)
(-0.101605 0.0589328 0)
(-0.11072 0.0446268 0)
(-0.118531 0.0291388 0)
(-0.125106 0.0120789 0)
(-0.130254 -0.00713432 0)
(-0.133376 -0.0291116 0)
(-0.133298 -0.0541506 0)
(-0.128176 -0.0815578 0)
(-0.115685 -0.108547 0)
(-0.0937323 -0.128891 0)
(-0.0622534 -0.132162 0)
(-0.0274127 -0.105858 0)
(-0.00519282 -0.0438741 0)
(-0.00356547 0.0408834 0)
(-0.0165615 0.0901604 0)
(-0.0367018 0.112096 0)
(-0.0570153 0.115818 0)
(-0.07492 0.109342 0)
(-0.0901211 0.0978179 0)
(-0.102896 0.0839929 0)
(-0.113707 0.0690876 0)
(-0.123063 0.0534411 0)
(-0.131413 0.036853 0)
(-0.139056 0.0187227 0)
(-0.146015 -0.00189291 0)
(-0.151832 -0.0261661 0)
(-0.15528 -0.0551607 0)
(-0.154053 -0.0890234 0)
(-0.144673 -0.12539 0)
(-0.123038 -0.156998 0)
(-0.08667 -0.169357 0)
(-0.041301 -0.142079 0)
(-0.00871103 -0.0612869 0)
(-0.00499838 0.0511436 0)
(-0.0215505 0.109955 0)
(-0.0454684 0.133776 0)
(-0.0680345 0.135691 0)
(-0.0866499 0.126271 0)
(-0.101549 0.111858 0)
(-0.113454 0.0956461 0)
(-0.123175 0.0789822 0)
(-0.131523 0.0621885 0)
(-0.139227 0.044961 0)
(-0.146883 0.026491 0)
(-0.154838 0.00545228 0)
(-0.162976 -0.0199929 0)
(-0.170341 -0.0519392 0)
(-0.174558 -0.0919692 0)
(-0.171247 -0.139067 0)
(-0.153983 -0.185922 0)
(-0.116521 -0.213956 0)
(-0.0616504 -0.191576 0)
(-0.0149037 -0.0884926 0)
(-0.00744444 0.0650822 0)
(-0.0289023 0.134346 0)
(-0.0566455 0.158306 0)
(-0.0801068 0.156435 0)
(-0.0973167 0.142622 0)
(-0.109549 0.124432 0)
(-0.118201 0.105402 0)
(-0.12453 0.0869132 0)
(-0.129669 0.0692169 0)
(-0.134617 0.0518948 0)
(-0.140245 0.0339614 0)
(-0.147259 0.013768 0)
(-0.156032 -0.0111557 0)
(-0.166307 -0.0440426 0)
(-0.176395 -0.0884094 0)
(-0.181949 -0.14572 0)
(-0.174831 -0.210472 0)
(-0.144392 -0.26177 0)
(-0.0871061 -0.255054 0)
(-0.0246588 -0.13035 0)
(-0.0117406 0.0849397 0)
(-0.0397447 0.16406 0)
(-0.0696457 0.184241 0)
(-0.0899548 0.175372 0)
(-0.101024 0.155249 0)
(-0.106036 0.132349 0)
(-0.10733 0.110221 0)
(-0.106652 0.09005 0)
(-0.105387 0.0718804 0)
(-0.104657 0.0551236 0)
(-0.105437 0.0386635 0)
(-0.108647 0.0206977 0)
(-0.115106 -0.00160619 0)
(-0.125562 -0.0325298 0)
(-0.139888 -0.0774042 0)
(-0.155434 -0.141101 0)
(-0.16447 -0.222503 0)
(-0.153242 -0.302808 0)
(-0.109214 -0.327314 0)
(-0.0367091 -0.192219 0)
(-0.0191667 0.11493 0)
(-0.05477 0.198123 0)
(-0.0799735 0.206468 0)
(-0.0871452 0.186013 0)
(-0.0828225 0.157809 0)
(-0.0730726 0.130022 0)
(-0.0611368 0.105407 0)
(-0.0489655 0.0844984 0)
(-0.0378468 0.0668709 0)
(-0.0286543 0.0516661 0)
(-0.0220901 0.0376809 0)
(-0.0189225 0.0231778 0)
(-0.0202636 0.00543782 0)
(-0.0275972 -0.01998 0)
(-0.0426599 -0.0594972 0)
(-0.0663892 -0.121241 0)
(-0.0950112 -0.210861 0)
(-0.116085 -0.318817 0)
(-0.108717 -0.391016 0)
(-0.0437869 -0.276464 0)
(-0.030155 0.163549 0)
(-0.0693055 0.228848 0)
(-0.067967 0.209555 0)
(-0.0416528 0.173761 0)
(-0.00809503 0.138958 0)
(0.0251646 0.109214 0)
(0.0555502 0.0851982 0)
(0.0820706 0.0662867 0)
(0.104395 0.051408 0)
(0.122527 0.0394244 0)
(0.136493 0.0291541 0)
(0.146063 0.0191726 0)
(0.150399 0.00741834 0)
(0.147745 -0.00943831 0)
(0.134912 -0.0370767 0)
(0.107185 -0.0845634 0)
(0.0610177 -0.164141 0)
(-0.000458697 -0.283116 0)
(-0.0563394 -0.407337 0)
(-0.0277021 -0.361109 0)
(-0.0261804 0.23289 0)
(-0.0372079 0.230133 0)
(0.0415143 0.167115 0)
(0.124913 0.122431 0)
(0.194495 0.0904358 0)
(0.250671 0.0665018 0)
(0.295732 0.0489093 0)
(0.331532 0.0362021 0)
(0.359698 0.0269914 0)
(0.381627 0.0201328 0)
(0.398314 0.0146857 0)
(0.410208 0.00974207 0)
(0.416909 0.00419497 0)
(0.416985 -0.00352921 0)
(0.406928 -0.0164575 0)
(0.380021 -0.0403104 0)
(0.325859 -0.0869771 0)
(0.231088 -0.178812 0)
(0.0955529 -0.320231 0)
(0.0553805 -0.360653 0)
(0.262636 0.139837 0)
(0.328697 0.121383 0)
(0.463046 0.079635 0)
(0.567673 0.0525125 0)
(0.635764 0.0352966 0)
(0.681588 0.0237034 0)
(0.713955 0.0158891 0)
(0.737195 0.0107208 0)
(0.753983 0.00732339 0)
(0.766184 0.00505319 0)
(0.774979 0.00344789 0)
(0.78094 0.00214459 0)
(0.78401 0.000779994 0)
(0.783284 -0.000977463 0)
(0.77633 -0.00388719 0)
(0.75824 -0.00937184 0)
(0.718926 -0.0205891 0)
(0.637923 -0.046679 0)
(0.469577 -0.108592 0)
(0.339207 -0.155282 0)
)
;

boundaryField
{
    movingWall
    {
        type            fixedValue;
        value           uniform (1 0 0);
    }
    fixedWalls
    {
        type            noSlip;
    }
    frontAndBack
    {
        type            empty;
    }
}


// ************************************************************************* //
