/*--------------------------------*- C++ -*----------------------------------*\
  =========                 |
  \\      /  F ield         | OpenFOAM: The Open Source CFD Toolbox
   \\    /   O peration     | Website:  https://openfoam.org
    \\  /    A nd           | Version:  dev
     \\/     M anipulation  |
\*---------------------------------------------------------------------------*/
FoamFile
{
    format      ascii;
    class       volScalarField;
    location    "0.9";
    object      Ux;
}
// * * * * * * * * * * * * * * * * * * * * * * * * * * * * * * * * * * * * * //

dimensions      [0 1 -1 0 0 0 0];

internalField   nonuniform List<scalar> 
400
(
3.3249e-05
-0.000412481
-0.00165103
-0.0032498
-0.00493128
-0.00652828
-0.00794152
-0.00910716
-0.00997772
-0.0105131
-0.0106783
-0.0104459
-0.00980022
-0.00874428
-0.00731056
-0.00557645
-0.00368449
-0.00186449
-0.000463357
4.02431e-05
-0.000286003
-0.00181675
-0.00480996
-0.00846136
-0.0122381
-0.0158149
-0.0189729
-0.0215608
-0.0234674
-0.0246049
-0.0249034
-0.0243138
-0.0228155
-0.0204307
-0.0172437
-0.0134294
-0.00928157
-0.00523623
-0.00194235
-0.000290825
-0.00054519
-0.00292062
-0.00719598
-0.0122497
-0.0173993
-0.0222443
-0.0265053
-0.0299837
-0.0325332
-0.0340398
-0.0344144
-0.0335957
-0.0315599
-0.0283378
-0.0240405
-0.0188943
-0.0132723
-0.00771818
-0.00306723
-0.000548696
-0.000705548
-0.0036815
-0.00892233
-0.0150199
-0.0211676
-0.0269177
-0.0319603
-0.0360742
-0.0390957
-0.0408954
-0.0413698
-0.040443
-0.0380779
-0.0342968
-0.029214
-0.0230795
-0.0163197
-0.00956996
-0.00384443
-0.000699182
-0.000817409
-0.00427087
-0.0103267
-0.0173181
-0.0243203
-0.0308446
-0.0365619
-0.0412403
-0.0447078
-0.0468243
-0.04747
-0.0465465
-0.0439886
-0.0397903
-0.0340469
-0.0270147
-0.0191698
-0.0112575
-0.0045044
-0.000806754
-0.000922714
-0.00484351
-0.0117142
-0.0196094
-0.0274807
-0.0347975
-0.0412161
-0.0465012
-0.0504782
-0.0529981
-0.053922
-0.0531184
-0.0504759
-0.0459354
-0.0395459
-0.0315499
-0.0224729
-0.0132035
-0.00524838
-0.000920592
-0.00104743
-0.005507
-0.0133072
-0.0222288
-0.0310837
-0.0392974
-0.0465172
-0.0525123
-0.0571125
-0.0601646
-0.061509
-0.0609706
-0.0583701
-0.0535626
-0.0465101
-0.0374043
-0.0268073
-0.015788
-0.00624395
-0.001074
-0.00120877
-0.00633789
-0.0152667
-0.0254127
-0.0354224
-0.0446788
-0.0528299
-0.0596624
-0.0650241
-0.0687672
-0.070715
-0.0706418
-0.0682774
-0.0633474
-0.0556635
-0.0452963
-0.0327975
-0.0194408
-0.00767813
-0.00130039
-0.00142235
-0.00740426
-0.0177307
-0.0293511
-0.0407136
-0.0511653
-0.0603738
-0.0681653
-0.0744279
-0.079039
-0.0818158
-0.0824854
-0.0806688
-0.0759063
-0.0677672
-0.0560773
-0.0412605
-0.0247716
-0.00983466
-0.00165379
-0.00170959
-0.00878959
-0.0208531
-0.0342351
-0.0471474
-0.0589199
-0.069271
-0.0781
-0.0853694
-0.0910146
-0.0948783
-0.0966568
-0.0958537
-0.0917743
-0.083625
-0.0707895
-0.0533257
-0.0327193
-0.013203
-0.00224156
-0.00210724
-0.0106196
-0.0248409
-0.0402912
-0.0549111
-0.0680531
-0.0795357
-0.0893794
-0.097668
-0.104444
-0.109626
-0.112926
-0.113755
-0.111158
-0.103851
-0.0905064
-0.0704044
-0.044657
-0.0186224
-0.0032813
-0.00268315
-0.0130985
-0.0299885
-0.0477928
-0.0641658
-0.0785616
-0.0909733
-0.101605
-0.11072
-0.118531
-0.125106
-0.130254
-0.133376
-0.133298
-0.128176
-0.115685
-0.0937323
-0.0622534
-0.0274127
-0.00519282
-0.00356547
-0.0165615
-0.0367018
-0.0570153
-0.07492
-0.0901211
-0.102896
-0.113707
-0.123063
-0.131413
-0.139056
-0.146015
-0.151832
-0.15528
-0.154053
-0.144673
-0.123038
-0.08667
-0.041301
-0.00871103
-0.00499838
-0.0215505
-0.0454684
-0.0680345
-0.0866499
-0.101549
-0.113454
-0.123175
-0.131523
-0.139227
-0.146883
-0.154838
-0.162976
-0.170341
-0.174558
-0.171247
-0.153983
-0.116521
-0.0616504
-0.0149037
-0.00744444
-0.0289023
-0.0566455
-0.0801068
-0.0973167
-0.109549
-0.118201
-0.12453
-0.129669
-0.134617
-0.140245
-0.147259
-0.156032
-0.166307
-0.176395
-0.181949
-0.174831
-0.144392
-0.0871061
-0.0246588
-0.0117406
-0.0397447
-0.0696457
-0.0899548
-0.101024
-0.106036
-0.10733
-0.106652
-0.105387
-0.104657
-0.105437
-0.108647
-0.115106
-0.125562
-0.139888
-0.155434
-0.16447
-0.153242
-0.109214
-0.0367091
-0.0191667
-0.05477
-0.0799735
-0.0871452
-0.0828225
-0.0730726
-0.0611368
-0.0489655
-0.0378468
-0.0286543
-0.0220901
-0.0189225
-0.0202636
-0.0275972
-0.0426599
-0.0663892
-0.0950112
-0.116085
-0.108717
-0.0437869
-0.030155
-0.0693055
-0.067967
-0.0416528
-0.00809503
0.0251646
0.0555502
0.0820706
0.104395
0.122527
0.136493
0.146063
0.150399
0.147745
0.134912
0.107185
0.0610177
-0.000458697
-0.0563394
-0.0277021
-0.0261804
-0.0372079
0.0415143
0.124913
0.194495
0.250671
0.295732
0.331532
0.359698
0.381627
0.398314
0.410208
0.416909
0.416985
0.406928
0.380021
0.325859
0.231088
0.0955529
0.0553805
0.262636
0.328697
0.463046
0.567673
0.635764
0.681588
0.713955
0.737195
0.753983
0.766184
0.774979
0.78094
0.78401
0.783284
0.77633
0.75824
0.718926
0.637923
0.469577
0.339207
)
;

boundaryField
{
    movingWall
    {
        type            calculated;
        value           uniform 1;
    }
    fixedWalls
    {
        type            calculated;
        value           uniform 0;
    }
    frontAndBack
    {
        type            empty;
    }
}


// ************************************************************************* //
