/*--------------------------------*- C++ -*----------------------------------*\
  =========                 |
  \\      /  F ield         | OpenFOAM: The Open Source CFD Toolbox
   \\    /   O peration     | Website:  https://openfoam.org
    \\  /    A nd           | Version:  dev
     \\/     M anipulation  |
\*---------------------------------------------------------------------------*/
FoamFile
{
    format      ascii;
    class       volScalarField;
    location    "0.9";
    object      Uy;
}
// * * * * * * * * * * * * * * * * * * * * * * * * * * * * * * * * * * * * * //

dimensions      [0 1 -1 0 0 0 0];

internalField   nonuniform List<scalar> 
400
(
-3.76374e-05
0.000278027
0.00051247
0.000603867
0.000604704
0.000555792
0.000478476
0.000381997
0.000269592
0.000142544
2.40285e-06
-0.000147866
-0.000302865
-0.000453725
-0.000586264
-0.000678353
-0.000696843
-0.000594931
-0.000326175
3.28158e-05
0.000409696
0.00178504
0.00271988
0.0030992
0.00308817
0.00283413
0.0024272
0.0019143
0.00131814
0.000652059
-7.06659e-05
-0.000831108
-0.00160009
-0.00233296
-0.00296244
-0.00338991
-0.00347882
-0.00305902
-0.00198653
-0.000441719
0.00168001
0.00482857
0.00680785
0.00760415
0.00753611
0.0068987
0.00588738
0.00461331
0.00313711
0.00149803
-0.000266384
-0.00210706
-0.00395238
-0.00569611
-0.00718244
-0.00819014
-0.00842516
-0.00754426
-0.0052712
-0.00176889
0.00345731
0.00885281
0.0120551
0.0132912
0.0131006
0.011958
0.0101812
0.00795569
0.00538649
0.00254348
-0.000507622
-0.00368333
-0.00686281
-0.00986723
-0.0124349
-0.0141971
-0.0146686
-0.0132898
-0.00958834
-0.00359676
0.00557254
0.0135937
0.0181634
0.0198467
0.0194733
0.0177327
0.0150801
0.011781
0.0079856
0.00379278
-0.000706563
-0.00539736
-0.0101099
-0.0145874
-0.0184475
-0.0211456
-0.0219631
-0.0200661
-0.0147178
-0.00576728
0.00797875
0.0189956
0.0250926
0.0272432
0.0266352
0.0242139
0.0205913
0.0161186
0.0109897
0.00532614
-0.000764813
-0.00714604
-0.0136048
-0.0198042
-0.0252229
-0.0290996
-0.0304157
-0.0279791
-0.0207115
-0.00826839
0.0106994
0.0251161
0.0329198
0.0355636
0.0346677
0.0314817
0.0267983
0.0210613
0.0145046
0.00726183
-0.000558755
-0.00881519
-0.0172671
-0.0255009
-0.0328371
-0.0382415
-0.040297
-0.0373256
-0.0277989
-0.0111824
0.0138066
0.0320978
0.0418085
0.0449647
0.0437117
0.0396635
0.0338231
0.0267351
0.0186682
0.0097526
7.42358e-05
-0.0102464
-0.020973
-0.0316334
-0.0413758
-0.0488246
-0.0520214
-0.0486
-0.0363954
-0.0146753
0.0174098
0.0401532
0.0519899
0.0556539
0.05394
0.0489048
0.0417985
0.0332773
0.0236377
0.0129871
0.00135715
-0.0111997
-0.0245005
-0.0380588
-0.0508609
-0.0611191
-0.0661376
-0.0625344
-0.0471633
-0.0190237
0.021658
0.0495625
0.0637507
0.0678667
0.0655281
0.0593368
0.0508367
0.040808
0.029568
0.0171779
0.00357408
-0.0113234
-0.0274647
-0.0444405
-0.0611367
-0.0753128
-0.0832913
-0.0801594
-0.0611359
-0.0246926
0.0267575
0.0606892
0.0774298
0.0818442
0.0786195
0.071036
0.0609855
0.0493866
0.0365698
0.0225263
0.00705051
-0.0101459
-0.0292679
-0.0501411
-0.0717091
-0.0913319
-0.104108
-0.102841
-0.0799117
-0.0324956
0.0330097
0.0740109
0.0934118
0.0977963
0.0932708
0.0839583
0.072156
0.0589328
0.0446268
0.0291388
0.0120789
-0.00713432
-0.0291116
-0.0541506
-0.0815578
-0.108547
-0.128891
-0.132162
-0.105858
-0.0438741
0.0408834
0.0901604
0.112096
0.115818
0.109342
0.0978179
0.0839929
0.0690876
0.0534411
0.036853
0.0187227
-0.00189291
-0.0261661
-0.0551607
-0.0890234
-0.12539
-0.156998
-0.169357
-0.142079
-0.0612869
0.0511436
0.109955
0.133776
0.135691
0.126271
0.111858
0.0956461
0.0789822
0.0621885
0.044961
0.026491
0.00545228
-0.0199929
-0.0519392
-0.0919692
-0.139067
-0.185922
-0.213956
-0.191576
-0.0884926
0.0650822
0.134346
0.158306
0.156435
0.142622
0.124432
0.105402
0.0869132
0.0692169
0.0518948
0.0339614
0.013768
-0.0111557
-0.0440426
-0.0884094
-0.14572
-0.210472
-0.26177
-0.255054
-0.13035
0.0849397
0.16406
0.184241
0.175372
0.155249
0.132349
0.110221
0.09005
0.0718804
0.0551236
0.0386635
0.0206977
-0.00160619
-0.0325298
-0.0774042
-0.141101
-0.222503
-0.302808
-0.327314
-0.192219
0.11493
0.198123
0.206468
0.186013
0.157809
0.130022
0.105407
0.0844984
0.0668709
0.0516661
0.0376809
0.0231778
0.00543782
-0.01998
-0.0594972
-0.121241
-0.210861
-0.318817
-0.391016
-0.276464
0.163549
0.228848
0.209555
0.173761
0.138958
0.109214
0.0851982
0.0662867
0.051408
0.0394244
0.0291541
0.0191726
0.00741834
-0.00943831
-0.0370767
-0.0845634
-0.164141
-0.283116
-0.407337
-0.361109
0.23289
0.230133
0.167115
0.122431
0.0904358
0.0665018
0.0489093
0.0362021
0.0269914
0.0201328
0.0146857
0.00974207
0.00419497
-0.00352921
-0.0164575
-0.0403104
-0.0869771
-0.178812
-0.320231
-0.360653
0.139837
0.121383
0.079635
0.0525125
0.0352966
0.0237034
0.0158891
0.0107208
0.00732339
0.00505319
0.00344789
0.00214459
0.000779994
-0.000977463
-0.00388719
-0.00937184
-0.0205891
-0.046679
-0.108592
-0.155282
)
;

boundaryField
{
    movingWall
    {
        type            calculated;
        value           uniform 0;
    }
    fixedWalls
    {
        type            calculated;
        value           uniform 0;
    }
    frontAndBack
    {
        type            empty;
    }
}


// ************************************************************************* //
