/*--------------------------------*- C++ -*----------------------------------*\
  =========                 |
  \\      /  F ield         | OpenFOAM: The Open Source CFD Toolbox
   \\    /   O peration     | Website:  https://openfoam.org
    \\  /    A nd           | Version:  dev
     \\/     M anipulation  |
\*---------------------------------------------------------------------------*/
FoamFile
{
    format      ascii;
    class       surfaceScalarField;
    location    "28.35";
    object      phi;
}
// * * * * * * * * * * * * * * * * * * * * * * * * * * * * * * * * * * * * * //

dimensions      [0 3 -1 0 0 0 0];

internalField   nonuniform List<scalar> 
10224
(
3.36078e-08
-3.50563e-08
8.77478e-08
-5.41374e-08
1.24333e-07
-3.65819e-08
1.25306e-07
-9.69991e-10
8.36833e-08
4.16215e-08
-1.79855e-09
8.5479e-08
-1.2931e-07
1.27509e-07
-2.95548e-07
1.66235e-07
-4.96449e-07
2.00901e-07
-7.27713e-07
2.31266e-07
-9.85071e-07
2.57361e-07
-1.26443e-06
2.79363e-07
-1.56196e-06
2.97526e-07
-1.8741e-06
3.12136e-07
-2.19758e-06
3.23477e-07
-2.52939e-06
3.31815e-07
-2.86677e-06
3.37384e-07
-3.20716e-06
3.40386e-07
-3.54815e-06
3.40984e-07
-3.88745e-06
3.393e-07
-4.22287e-06
3.35418e-07
-4.55226e-06
3.29393e-07
-4.8735e-06
3.21247e-07
-5.18449e-06
3.10984e-07
-5.48308e-06
2.98592e-07
-5.76713e-06
2.8405e-07
-6.03447e-06
2.67337e-07
-6.2829e-06
2.48435e-07
-6.51024e-06
2.2734e-07
-6.71431e-06
2.04065e-07
-6.89296e-06
1.7865e-07
-7.04412e-06
1.51162e-07
-7.16582e-06
1.21702e-07
-7.25623e-06
9.04109e-08
-7.3137e-06
5.74679e-08
-7.3368e-06
2.30959e-08
-7.32436e-06
-1.24392e-08
-7.27553e-06
-4.88292e-08
-7.18981e-06
-8.57249e-08
-7.06707e-06
-1.22739e-07
-6.90762e-06
-1.59451e-07
-6.7122e-06
-1.95412e-07
-6.48205e-06
-2.30152e-07
-6.21886e-06
-2.63187e-07
-5.92483e-06
-2.94031e-07
-5.60263e-06
-3.22202e-07
-5.2554e-06
-3.47233e-07
-4.88671e-06
-3.68687e-07
-4.50055e-06
-3.8616e-07
-4.10125e-06
-3.993e-07
-3.69345e-06
-4.07808e-07
-3.28199e-06
-4.11458e-07
-2.87189e-06
-4.10093e-07
-2.46825e-06
-4.03639e-07
-2.07615e-06
-3.92104e-07
-1.70056e-06
-3.75584e-07
-1.3463e-06
-3.54265e-07
-1.01789e-06
-3.28419e-07
-7.19479e-07
-2.98408e-07
-4.54797e-07
-2.64682e-07
-2.27016e-07
-2.27779e-07
-3.86838e-08
-1.88331e-07
1.08393e-07
-1.47077e-07
2.13279e-07
-1.04885e-07
2.76086e-07
-6.28056e-08
2.98246e-07
-2.2158e-08
2.82934e-07
1.53112e-08
2.35745e-07
4.71849e-08
1.6574e-07
6.99997e-08
8.72127e-08
7.85242e-08
2.25403e-08
6.46727e-08
2.25411e-08
5.37991e-08
-8.88559e-08
1.12301e-07
-1.12633e-07
1.18109e-07
-4.23931e-08
3.88145e-08
7.83209e-08
-1.41986e-07
2.22419e-07
-4.29613e-07
3.73104e-07
-8.22296e-07
5.20195e-07
-1.31389e-06
6.57836e-07
-1.89584e-06
7.82851e-07
-2.55833e-06
8.93753e-07
-3.29109e-06
9.90113e-07
-4.08386e-06
1.07214e-06
-4.92673e-06
1.1404e-06
-5.81025e-06
1.19567e-06
-6.72555e-06
1.23878e-06
-7.6643e-06
1.27056e-06
-8.61868e-06
1.29177e-06
-9.58136e-06
1.30307e-06
-1.05454e-05
1.30501e-06
-1.15041e-05
1.29802e-06
-1.24511e-05
1.28241e-06
-1.33801e-05
1.25838e-06
-1.42849e-05
1.22606e-06
-1.51594e-05
1.1855e-06
-1.59975e-05
1.13669e-06
-1.67931e-05
1.0796e-06
-1.754e-05
1.01422e-06
-1.82321e-05
9.40547e-07
-1.88633e-05
8.58617e-07
-1.94278e-05
7.68549e-07
-1.99197e-05
6.70545e-07
-2.03335e-05
5.64916e-07
-2.06639e-05
4.52096e-07
-2.09061e-05
3.32654e-07
-2.10559e-05
2.07303e-07
-2.11098e-05
7.69064e-08
-2.10647e-05
-5.75192e-08
-2.09187e-05
-1.9481e-07
-2.06708e-05
-3.33658e-07
-2.03209e-05
-4.72627e-07
-1.98702e-05
-6.10165e-07
-1.9321e-05
-7.44625e-07
-1.86768e-05
-8.74293e-07
-1.79426e-05
-9.97413e-07
-1.71244e-05
-1.11222e-06
-1.62296e-05
-1.21698e-06
-1.52668e-05
-1.31001e-06
-1.42458e-05
-1.38974e-06
-1.31772e-05
-1.45474e-06
-1.20728e-05
-1.50375e-06
-1.09449e-05
-1.53571e-06
-9.80651e-06
-1.54981e-06
-8.67109e-06
-1.54552e-06
-7.55214e-06
-1.52258e-06
-6.46319e-06
-1.48106e-06
-5.41745e-06
-1.42132e-06
-4.42764e-06
-1.34408e-06
-3.50569e-06
-1.25036e-06
-2.66256e-06
-1.14154e-06
-1.90794e-06
-1.01931e-06
-1.24999e-06
-8.85728e-07
-6.95119e-07
-7.432e-07
-2.47635e-07
-5.9456e-07
9.0617e-08
-4.43137e-07
3.20713e-07
-2.92903e-07
4.47252e-07
-1.48699e-07
4.79227e-07
-1.66651e-08
4.31112e-07
9.52996e-08
3.2435e-07
1.76765e-07
1.88949e-07
2.13926e-07
6.43686e-08
1.89252e-07
8.69108e-08
3.72938e-08
-1.26147e-07
4.32352e-08
-1.18573e-07
-4.33719e-08
4.42116e-08
-2.58811e-07
2.93757e-07
-6.22699e-07
5.86306e-07
-1.14215e-06
8.92556e-07
-1.81543e-06
1.19348e-06
-2.63489e-06
1.47729e-06
-3.58916e-06
1.73712e-06
-4.66472e-06
1.96931e-06
-5.84699e-06
2.17239e-06
-7.1211e-06
2.34625e-06
-8.47234e-06
2.49164e-06
-9.88647e-06
2.60979e-06
-1.13499e-05
2.70217e-06
-1.28496e-05
2.77028e-06
-1.43734e-05
2.81554e-06
-1.59095e-05
2.83922e-06
-1.74469e-05
2.84241e-06
-1.89748e-05
2.82594e-06
-2.04829e-05
2.79048e-06
-2.1961e-05
2.73647e-06
-2.33991e-05
2.66419e-06
-2.47874e-05
2.5738e-06
-2.61161e-05
2.46534e-06
-2.73754e-05
2.33886e-06
-2.85555e-05
2.19437e-06
-2.96469e-05
2.03196e-06
-3.06401e-05
1.85183e-06
-3.15259e-05
1.6543e-06
-3.22952e-05
1.43991e-06
-3.29397e-05
1.20941e-06
-3.34514e-05
9.63798e-07
-3.38231e-05
7.04367e-07
-3.40485e-05
4.32699e-07
-3.41223e-05
1.50689e-07
-3.40404e-05
-1.3946e-07
-3.38e-05
-4.35242e-07
-3.33998e-05
-7.33863e-07
-3.28401e-05
-1.03227e-06
-3.21231e-05
-1.32717e-06
-3.12526e-05
-1.61511e-06
-3.02344e-05
-1.89248e-06
-2.90762e-05
-2.1556e-06
-2.77877e-05
-2.40079e-06
-2.63802e-05
-2.62443e-06
-2.48672e-05
-2.82305e-06
-2.32636e-05
-2.99337e-06
-2.15859e-05
-3.13243e-06
-1.9852e-05
-3.23761e-06
-1.8081e-05
-3.30676e-06
-1.62925e-05
-3.33822e-06
-1.45072e-05
-3.33088e-06
-1.27455e-05
-3.28425e-06
-1.10281e-05
-3.19848e-06
-9.37502e-06
-3.0744e-06
-7.80557e-06
-2.91353e-06
-6.33786e-06
-2.71808e-06
-4.98842e-06
-2.49098e-06
-3.77185e-06
-2.23589e-06
-2.70038e-06
-1.95719e-06
-1.78349e-06
-1.66009e-06
-1.02741e-06
-1.35064e-06
-4.34603e-07
-1.03594e-06
-3.16808e-09
-7.24336e-07
2.73969e-07
-4.25835e-07
4.09875e-07
-1.52572e-07
4.24789e-07
8.03841e-08
3.47335e-07
2.54217e-07
2.15711e-07
3.45548e-07
7.86334e-08
3.2633e-07
1.65542e-07
1.88371e-09
-1.2803e-07
-7.89947e-08
-3.76975e-08
-2.97688e-07
2.62901e-07
-6.87918e-07
6.83982e-07
-1.268e-06
1.16639e-06
-2.04421e-06
1.66877e-06
-3.01376e-06
2.16303e-06
-4.1674e-06
2.63093e-06
-5.49152e-06
3.06124e-06
-6.96981e-06
3.4476e-06
-8.58442e-06
3.787e-06
-1.03169e-05
4.07871e-06
-1.21487e-05
4.32343e-06
-1.40616e-05
4.52276e-06
-1.60382e-05
4.67873e-06
-1.80615e-05
4.79354e-06
-2.01152e-05
4.86931e-06
-2.2184e-05
4.90799e-06
-2.42528e-05
4.91126e-06
-2.63074e-05
4.88046e-06
-2.83336e-05
4.81666e-06
-3.03177e-05
4.72061e-06
-3.22463e-05
4.59281e-06
-3.41061e-05
4.43357e-06
-3.58838e-05
4.24309e-06
-3.75665e-05
4.02151e-06
-3.91411e-05
3.76898e-06
-4.05949e-05
3.48578e-06
-4.19155e-05
3.17236e-06
-4.30906e-05
2.82943e-06
-4.41087e-05
2.45799e-06
-4.49587e-05
2.05946e-06
-4.56306e-05
1.63564e-06
-4.6115e-05
1.18882e-06
-4.64041e-05
7.21779e-07
-4.64912e-05
2.3779e-07
-4.63713e-05
-2.59364e-07
-4.60411e-05
-7.65406e-07
-4.54994e-05
-1.2756e-06
-4.47469e-05
-1.78478e-06
-4.37866e-05
-2.28744e-06
-4.2624e-05
-2.77774e-06
-4.12668e-05
-3.24968e-06
-3.97253e-05
-3.69712e-06
-3.80121e-05
-4.11394e-06
-3.61424e-05
-4.49412e-06
-3.41336e-05
-4.83189e-06
-3.20051e-05
-5.12185e-06
-2.97784e-05
-5.35908e-06
-2.74768e-05
-5.53928e-06
-2.51247e-05
-5.65887e-06
-2.27477e-05
-5.71514e-06
-2.03724e-05
-5.70627e-06
-1.80251e-05
-5.63148e-06
-1.57326e-05
-5.49105e-06
-1.35206e-05
-5.28641e-06
-1.1414e-05
-5.02012e-06
-9.43609e-06
-4.69595e-06
-7.60822e-06
-4.31885e-06
-5.9491e-06
-3.89501e-06
-4.47441e-06
-3.43188e-06
-3.19627e-06
-2.93823e-06
-2.12264e-06
-2.42427e-06
-1.25673e-06
-1.90186e-06
-5.9627e-07
-1.3848e-06
-1.32841e-07
-8.8927e-07
1.49061e-07
-4.34476e-07
2.72897e-07
-4.3449e-08
2.71123e-07
2.55994e-07
1.86233e-07
4.30437e-07
7.21988e-08
4.40367e-07
2.37735e-07
-4.20609e-08
-8.59693e-08
-2.30037e-07
1.50277e-07
-6.06526e-07
6.39389e-07
-1.1981e-06
1.27556e-06
-2.01852e-06
1.9868e-06
-3.07095e-06
2.72119e-06
-4.35019e-06
3.44228e-06
-5.84484e-06
4.12558e-06
-7.53901e-06
4.75542e-06
-9.41392e-06
5.32251e-06
-1.1449e-05
5.82209e-06
-1.36229e-05
6.25257e-06
-1.59139e-05
6.61443e-06
-1.83006e-05
6.90948e-06
-2.07621e-05
7.14026e-06
-2.32782e-05
7.30961e-06
-2.58292e-05
7.42035e-06
-2.83963e-05
7.47511e-06
-3.09613e-05
7.47617e-06
-3.35062e-05
7.42545e-06
-3.6014e-05
7.32442e-06
-3.84676e-05
7.1742e-06
-4.08503e-05
6.97556e-06
-4.31458e-05
6.72904e-06
-4.53377e-05
6.43502e-06
-4.74101e-05
6.09383e-06
-4.93469e-05
5.70586e-06
-5.11328e-05
5.27166e-06
-5.27525e-05
4.79209e-06
-5.41915e-05
4.26835e-06
-5.54356e-05
3.70213e-06
-5.64718e-05
3.09569e-06
-5.72881e-05
2.45187e-06
-5.78735e-05
1.77423e-06
-5.82187e-05
1.06701e-06
-5.83161e-05
3.35203e-07
-5.816e-05
-4.15491e-07
-5.77467e-05
-1.17865e-06
-5.70751e-05
-1.94721e-06
-5.61465e-05
-2.71347e-06
-5.49646e-05
-3.46926e-06
-5.35364e-05
-4.20596e-06
-5.18714e-05
-4.91471e-06
-4.9982e-05
-5.58646e-06
-4.78838e-05
-6.21222e-06
-4.55947e-05
-6.78316e-06
-4.31358e-05
-7.2908e-06
-4.05304e-05
-7.72723e-06
-3.78043e-05
-8.08525e-06
-3.4985e-05
-8.35857e-06
-3.21019e-05
-8.54196e-06
-2.91856e-05
-8.63144e-06
-2.62675e-05
-8.62437e-06
-2.33793e-05
-8.51962e-06
-2.05527e-05
-8.31764e-06
-1.78186e-05
-8.02054e-06
-1.52066e-05
-7.63214e-06
-1.27445e-05
-7.15804e-06
-1.04578e-05
-6.60559e-06
-8.36876e-06
-5.984e-06
-6.49633e-06
-5.30432e-06
-4.85504e-06
-4.57952e-06
-3.45462e-06
-3.82469e-06
-2.29929e-06
-3.05719e-06
-1.38711e-06
-2.29698e-06
-7.09223e-07
-1.56716e-06
-2.49162e-07
-8.94538e-07
1.79234e-08
-3.10533e-07
1.26079e-07
1.4784e-07
1.19442e-07
4.37074e-07
5.36439e-08
5.06168e-07
2.91374e-07
-8.94333e-08
3.46225e-09
-3.95311e-07
4.56154e-07
-9.45005e-07
1.18908e-06
-1.75509e-06
2.08565e-06
-2.83236e-06
3.06408e-06
-4.17506e-06
4.06389e-06
-5.77435e-06
5.04156e-06
-7.61584e-06
5.96706e-06
-9.68106e-06
6.82064e-06
-1.19487e-05
7.59017e-06
-1.43958e-05
8.26915e-06
-1.69982e-05
8.85502e-06
-1.97318e-05
9.34798e-06
-2.25723e-05
9.74996e-06
-2.54959e-05
1.00639e-05
-2.84796e-05
1.02933e-05
-3.15008e-05
1.04416e-05
-3.45377e-05
1.0512e-05
-3.7569e-05
1.05075e-05
-4.05741e-05
1.04305e-05
-4.35327e-05
1.0283e-05
-4.64249e-05
1.00665e-05
-4.92313e-05
9.78197e-06
-5.19326e-05
9.43032e-06
-5.45098e-05
9.01216e-06
-5.6944e-05
8.52808e-06
-5.92169e-05
7.97878e-06
-6.13105e-05
7.36523e-06
-6.32072e-05
6.68877e-06
-6.48901e-05
5.95128e-06
-6.63433e-05
5.15529e-06
-6.75516e-05
4.30407e-06
-6.85015e-05
3.40176e-06
-6.91807e-05
2.45338e-06
-6.95786e-05
1.46492e-06
-6.96867e-05
4.43361e-07
-6.94989e-05
-6.03375e-07
-6.90111e-05
-1.66641e-06
-6.82223e-05
-2.73597e-06
-6.71343e-05
-3.80154e-06
-6.57517e-05
-4.85187e-06
-6.40824e-05
-5.87521e-06
-6.21377e-05
-6.85946e-06
-5.99318e-05
-7.7923e-06
-5.74826e-05
-8.66149e-06
-5.48107e-05
-9.45501e-06
-5.19401e-05
-1.01614e-05
-4.88975e-05
-1.07698e-05
-4.57122e-05
-1.12706e-05
-4.24157e-05
-1.16551e-05
-3.90415e-05
-1.19162e-05
-3.56244e-05
-1.20486e-05
-3.22001e-05
-1.20486e-05
-2.88051e-05
-1.19147e-05
-2.54752e-05
-1.16475e-05
-2.22458e-05
-1.12499e-05
-1.91509e-05
-1.07271e-05
-1.62223e-05
-1.00866e-05
-1.34892e-05
-9.33871e-06
-1.09774e-05
-8.49582e-06
-8.70862e-06
-7.57306e-06
-6.70002e-06
-6.58812e-06
-4.96326e-06
-5.56146e-06
-3.50398e-06
-4.51646e-06
-2.32116e-06
-3.4798e-06
-1.40642e-06
-2.48189e-06
-7.43479e-07
-1.55748e-06
-3.07485e-07
-7.46528e-07
-6.44744e-08
-9.51735e-08
2.93021e-08
3.43296e-07
2.82961e-08
5.07175e-07
3.19669e-07
-1.37628e-07
1.41088e-07
-5.66242e-07
8.84769e-07
-1.2973e-06
1.92014e-06
-2.33589e-06
3.12424e-06
-3.68031e-06
4.4085e-06
-5.3225e-06
5.70608e-06
-7.24885e-06
6.96792e-06
-9.44126e-06
8.15947e-06
-1.18782e-05
9.25755e-06
-1.45356e-05
1.02476e-05
-1.7388e-05
1.11215e-05
-2.04089e-05
1.1876e-05
-2.35718e-05
1.25108e-05
-2.68498e-05
1.3028e-05
-3.0217e-05
1.34311e-05
-3.36475e-05
1.37238e-05
-3.71164e-05
1.39104e-05
-4.05993e-05
1.39948e-05
-4.40722e-05
1.39804e-05
-4.7512e-05
1.38703e-05
-5.08958e-05
1.36668e-05
-5.42011e-05
1.33718e-05
-5.7406e-05
1.29868e-05
-6.04885e-05
1.25129e-05
-6.34273e-05
1.19509e-05
-6.62012e-05
1.1302e-05
-6.87894e-05
1.0567e-05
-7.11718e-05
9.74754e-06
-7.33285e-05
8.84555e-06
-7.5241e-05
7.8637e-06
-7.68912e-05
6.80551e-06
-7.82626e-05
5.67547e-06
-7.934e-05
4.47915e-06
-8.01099e-05
3.22327e-06
-8.05608e-05
1.91581e-06
-8.06833e-05
5.65932e-07
-8.04708e-05
-8.15922e-07
-7.9919e-05
-2.21815e-06
-7.9027e-05
-3.62802e-06
-7.77967e-05
-5.03184e-06
-7.62335e-05
-6.41504e-06
-7.43463e-05
-7.7624e-06
-7.21475e-05
-9.05824e-06
-6.96532e-05
-1.02867e-05
-6.68828e-05
-1.14319e-05
-6.38594e-05
-1.24784e-05
-6.06094e-05
-1.34113e-05
-5.71624e-05
-1.42168e-05
-5.35508e-05
-1.48822e-05
-4.98094e-05
-1.53965e-05
-4.59752e-05
-1.57504e-05
-4.20868e-05
-1.5937e-05
-3.81839e-05
-1.59514e-05
-3.43068e-05
-1.57918e-05
-3.04955e-05
-1.54588e-05
-2.67894e-05
-1.4956e-05
-2.32263e-05
-1.42902e-05
-1.98419e-05
-1.34711e-05
-1.66689e-05
-1.25117e-05
-1.37364e-05
-1.14283e-05
-1.10693e-05
-1.02402e-05
-8.68725e-06
-8.9702e-06
-6.60415e-06
-7.64455e-06
-4.82757e-06
-6.29305e-06
-3.35799e-06
-4.94938e-06
-2.18832e-06
-3.65156e-06
-1.30336e-06
-2.44244e-06
-6.7938e-07
-1.37051e-06
-2.83753e-07
-4.90805e-07
-7.46242e-08
1.34167e-07
-5.97007e-10
4.33147e-07
3.19073e-07
-1.85396e-07
3.26484e-07
-7.3794e-07
1.43731e-06
-1.65363e-06
2.83583e-06
-2.9255e-06
4.3961e-06
-4.54244e-06
6.02545e-06
-6.48915e-06
7.6528e-06
-8.74642e-06
9.22518e-06
-1.12917e-05
1.07048e-05
-1.40999e-05
1.20658e-05
-1.71441e-05
1.32918e-05
-2.03961e-05
1.43735e-05
-2.3827e-05
1.53069e-05
-2.7408e-05
1.60918e-05
-3.11103e-05
1.67303e-05
-3.49054e-05
1.72262e-05
-3.87656e-05
1.7584e-05
-4.26634e-05
1.78083e-05
-4.65724e-05
1.79038e-05
-5.04663e-05
1.78744e-05
-5.43198e-05
1.77237e-05
-5.81075e-05
1.74546e-05
-6.1805e-05
1.70693e-05
-6.53877e-05
1.65696e-05
-6.88318e-05
1.59569e-05
-7.21135e-05
1.52327e-05
-7.52096e-05
1.43981e-05
-7.80973e-05
1.34547e-05
-8.07543e-05
1.24046e-05
-8.31592e-05
1.12505e-05
-8.52914e-05
9.9959e-06
-8.71315e-05
8.64554e-06
-8.86612e-05
7.20522e-06
-8.98642e-05
5.68211e-06
-9.07257e-05
4.08482e-06
-9.12334e-05
2.42346e-06
-9.13771e-05
7.09642e-07
-9.11495e-05
-1.04351e-06
-9.05462e-05
-2.82142e-06
-8.95661e-05
-4.60818e-06
-8.82112e-05
-6.38667e-06
-8.64876e-05
-8.13871e-06
-8.44046e-05
-9.84537e-06
-8.19757e-05
-1.14871e-05
-7.92181e-05
-1.30442e-05
-7.6153e-05
-1.4497e-05
-7.28052e-05
-1.58262e-05
-6.92032e-05
-1.70133e-05
-6.5379e-05
-1.8041e-05
-6.13676e-05
-1.88937e-05
-5.72067e-05
-1.95573e-05
-5.29365e-05
-2.00206e-05
-4.8599e-05
-2.02744e-05
-4.42374e-05
-2.0313e-05
-3.98956e-05
-2.01337e-05
-3.56174e-05
-1.9737e-05
-3.14459e-05
-1.91275e-05
-2.74227e-05
-1.83134e-05
-2.35871e-05
-1.73066e-05
-1.99756e-05
-1.61233e-05
-1.66205e-05
-1.47833e-05
-1.35499e-05
-1.33108e-05
-1.07863e-05
-1.17338e-05
-8.34621e-06
-1.00846e-05
-6.2396e-06
-8.39966e-06
-4.46904e-06
-6.71994e-06
-3.02939e-06
-5.09121e-06
-1.90733e-06
-3.5645e-06
-1.0811e-06
-2.19674e-06
-5.20342e-07
-1.05157e-06
-1.86105e-07
-2.00069e-07
-3.10784e-08
2.78117e-07
2.87997e-07
-2.32097e-07
5.58583e-07
-9.07644e-07
2.11286e-06
-2.00802e-06
3.93622e-06
-3.51418e-06
5.90225e-06
-5.40525e-06
7.91651e-06
-7.65807e-06
9.90562e-06
-1.02472e-05
1.18143e-05
-1.31452e-05
1.36028e-05
-1.6323e-05
1.52435e-05
-1.97503e-05
1.67191e-05
-2.33962e-05
1.80194e-05
-2.72295e-05
1.91403e-05
-3.12191e-05
2.00814e-05
-3.5334e-05
2.08452e-05
-3.95439e-05
2.14361e-05
-4.3819e-05
2.18591e-05
-4.81301e-05
2.21194e-05
-5.24486e-05
2.22222e-05
-5.67464e-05
2.21722e-05
-6.09961e-05
2.19734e-05
-6.51704e-05
2.1629e-05
-6.92429e-05
2.11417e-05
-7.31871e-05
2.05138e-05
-7.69771e-05
1.97469e-05
-8.05873e-05
1.88429e-05
-8.39925e-05
1.78033e-05
-8.71682e-05
1.66304e-05
-9.00904e-05
1.53267e-05
-9.27358e-05
1.38959e-05
-9.50824e-05
1.23425e-05
-9.71092e-05
1.06723e-05
-9.87966e-05
8.8927e-06
-0.000100127
7.01256e-06
-0.000101085
5.04251e-06
-0.000101656
2.99496e-06
-0.000101831
8.84104e-07
-0.0001016
-1.27406e-06
-0.00010096
-3.46182e-06
-9.99081e-05
-5.65987e-06
-9.84473e-05
-7.84747e-06
-9.65834e-05
-1.00026e-05
-9.43263e-05
-1.21025e-05
-9.169e-05
-1.41234e-05
-8.86928e-05
-1.60415e-05
-8.53568e-05
-1.7833e-05
-8.17084e-05
-1.94746e-05
-7.77779e-05
-2.09438e-05
-7.35991e-05
-2.22198e-05
-6.92094e-05
-2.32834e-05
-6.4649e-05
-2.41177e-05
-5.99611e-05
-2.47085e-05
-5.51905e-05
-2.5045e-05
-5.03837e-05
-2.51198e-05
-4.55882e-05
-2.49292e-05
-4.08512e-05
-2.4474e-05
-3.62197e-05
-2.37591e-05
-3.17388e-05
-2.27942e-05
-2.74518e-05
-2.15936e-05
-2.33986e-05
-2.01765e-05
-1.96152e-05
-1.85667e-05
-1.61331e-05
-1.6793e-05
-1.29779e-05
-1.4889e-05
-1.01693e-05
-1.28932e-05
-7.72003e-06
-1.08489e-05
-5.63535e-06
-8.80462e-06
-3.91266e-06
-6.8139e-06
-2.54117e-06
-4.93599e-06
-1.50174e-06
-3.23617e-06
-7.66944e-07
-1.78636e-06
-3.01326e-07
-6.65686e-07
-6.20459e-08
3.88345e-08
2.25953e-07
-2.77453e-07
8.36039e-07
-1.07382e-06
2.90922e-06
-2.35682e-06
5.21922e-06
-4.09564e-06
7.64108e-06
-6.25955e-06
1.00804e-05
-8.81728e-06
1.24634e-05
-1.17368e-05
1.47338e-05
-1.49853e-05
1.68513e-05
-1.85295e-05
1.87877e-05
-2.23354e-05
2.0525e-05
-2.63694e-05
2.20534e-05
-3.05976e-05
2.33685e-05
-3.49868e-05
2.44705e-05
-3.95041e-05
2.53625e-05
-4.41173e-05
2.60493e-05
-4.87948e-05
2.65366e-05
-5.35057e-05
2.68303e-05
-5.82197e-05
2.69362e-05
-6.2907e-05
2.68596e-05
-6.75385e-05
2.66048e-05
-7.20853e-05
2.61758e-05
-7.65191e-05
2.55755e-05
-8.08118e-05
2.48065e-05
-8.49358e-05
2.38709e-05
-8.88637e-05
2.27708e-05
-9.25689e-05
2.15085e-05
-9.60251e-05
2.00865e-05
-9.92066e-05
1.85083e-05
-0.000102089
1.67782e-05
-0.000104648
1.49019e-05
-0.000106863
1.28865e-05
-0.000108711
1.0741e-05
-0.000110174
8.47593e-06
-0.000111236
6.10414e-06
-0.000111881
3.64042e-06
-0.000112099
1.10167e-06
-0.00011188
-1.49312e-06
-0.000111219
-4.12296e-06
-0.000110114
-6.76499e-06
-0.000108566
-9.39469e-06
-0.000106583
-1.19861e-05
-0.000104173
-1.45121e-05
-0.000101352
-1.69449e-05
-9.81372e-05
-1.92561e-05
-9.45525e-05
-2.14177e-05
-9.06251e-05
-2.3402e-05
-8.63865e-05
-2.51824e-05
-8.18724e-05
-2.6734e-05
-7.71219e-05
-2.80338e-05
-7.21778e-05
-2.90618e-05
-6.70855e-05
-2.98009e-05
-6.18928e-05
-3.02377e-05
-5.66493e-05
-3.03632e-05
-5.14058e-05
-3.01727e-05
-4.62132e-05
-2.96666e-05
-4.11219e-05
-2.88504e-05
-3.61811e-05
-2.7735e-05
-3.14378e-05
-2.63369e-05
-2.69358e-05
-2.46784e-05
-2.27151e-05
-2.27874e-05
-1.88107e-05
-2.06974e-05
-1.5252e-05
-1.84477e-05
-1.20622e-05
-1.6083e-05
-9.25727e-06
-1.36539e-05
-6.84568e-06
-1.12162e-05
-4.82794e-06
-8.83164e-06
-3.19631e-06
-6.56761e-06
-1.93481e-06
-4.49767e-06
-1.01932e-06
-2.70184e-06
-4.18175e-07
-1.26684e-06
-9.29463e-08
-2.86396e-07
1.33007e-07
-3.21351e-07
1.15739e-06
-1.23562e-06
3.82349e-06
-2.69779e-06
6.68139e-06
-4.66576e-06
9.60905e-06
-7.09907e-06
1.25137e-05
-9.95829e-06
1.53226e-05
-1.32046e-05
1.79801e-05
-1.67996e-05
2.04463e-05
-2.07054e-05
2.26934e-05
-2.48844e-05
2.47041e-05
-2.92999e-05
2.64688e-05
-3.39155e-05
2.79841e-05
-3.86958e-05
2.92508e-05
-4.36059e-05
3.02726e-05
-4.86119e-05
3.10553e-05
-5.36806e-05
3.16053e-05
-5.87797e-05
3.19293e-05
-6.38772e-05
3.20338e-05
-6.89421e-05
3.19244e-05
-7.39435e-05
3.16063e-05
-7.88513e-05
3.10836e-05
-8.36356e-05
3.03598e-05
-8.82668e-05
2.94377e-05
-9.2716e-05
2.83201e-05
-9.69543e-05
2.70091e-05
-0.000100954
2.55077e-05
-0.000104686
2.3819e-05
-0.000108125
2.1947e-05
-0.000111244
1.98972e-05
-0.000114018
1.76761e-05
-0.000116424
1.52924e-05
-0.000118439
1.27564e-05
-0.000120044
1.00809e-05
-0.00012122
7.28055e-06
-0.000121953
4.37279e-06
-0.000122228
1.37727e-06
-0.000122038
-1.68394e-06
-0.000121374
-4.78647e-06
-0.000120235
-7.90381e-06
-0.000118622
-1.10075e-05
-0.000116541
-1.40675e-05
-0.000114001
-1.70523e-05
-0.000111016
-1.99296e-05
-0.000107606
-2.26665e-05
-0.000103793
-2.52302e-05
-9.96068e-05
-2.75886e-05
-9.50787e-05
-2.97105e-05
-9.02459e-05
-3.15667e-05
-8.51494e-05
-3.31303e-05
-7.98338e-05
-3.43774e-05
-7.4347e-05
-3.52877e-05
-6.87393e-05
-3.58454e-05
-6.30635e-05
-3.6039e-05
-5.73736e-05
-3.58627e-05
-5.1724e-05
-3.53162e-05
-4.61691e-05
-3.44053e-05
-4.0762e-05
-3.31421e-05
-3.55538e-05
-3.15451e-05
-3.05925e-05
-2.96397e-05
-2.59223e-05
-2.74576e-05
-2.15824e-05
-2.50373e-05
-1.76063e-05
-2.24238e-05
-1.4021e-05
-1.96683e-05
-1.08465e-05
-1.68284e-05
-8.09495e-06
-1.39678e-05
-5.77039e-06
-1.11562e-05
-3.86862e-06
-8.46938e-06
-2.37716e-06
-5.98914e-06
-1.27549e-06
-3.80351e-06
-5.35724e-07
-2.0066e-06
-1.23578e-07
-6.98543e-07
9.42909e-09
-3.63747e-07
1.52113e-06
-1.39255e-06
4.8523e-06
-3.02952e-06
8.31835e-06
-5.22177e-06
1.18013e-05
-7.91941e-06
1.52114e-05
-1.10749e-05
1.8478e-05
-1.46425e-05
2.15478e-05
-1.85783e-05
2.43821e-05
-2.28397e-05
2.69548e-05
-2.73852e-05
2.92497e-05
-3.2175e-05
3.12586e-05
-3.717e-05
3.29792e-05
-4.23327e-05
3.44134e-05
-4.76264e-05
3.55663e-05
-5.30155e-05
3.64444e-05
-5.84653e-05
3.70552e-05
-6.39421e-05
3.74061e-05
-6.94128e-05
3.75044e-05
-7.48448e-05
3.73564e-05
-8.02063e-05
3.69678e-05
-8.54657e-05
3.6343e-05
-9.0592e-05
3.54861e-05
-9.55545e-05
3.44002e-05
-0.000100323
3.30882e-05
-0.000104867
3.15531e-05
-0.000109157
2.97979e-05
-0.000113164
2.78265e-05
-0.000116861
2.56436e-05
-0.000120219
2.32555e-05
-0.000123213
2.067e-05
-0.000125818
1.78969e-05
-0.00012801
1.49484e-05
-0.000129768
1.18388e-05
-0.000131072
8.58528e-06
-0.000131907
5.20761e-06
-0.000132258
1.72828e-06
-0.000132115
-1.82752e-06
-0.000131469
-5.432e-06
-0.000130318
-9.0549e-06
-0.000128662
-1.26638e-05
-0.000126505
-1.62242e-05
-0.000123857
-1.97003e-05
-0.000120731
-2.30551e-05
-0.000117147
-2.62508e-05
-0.000113127
-2.92499e-05
-0.000108701
-3.20152e-05
-0.0001039
-3.45109e-05
-9.87641e-05
-3.6703e-05
-9.33343e-05
-3.85601e-05
-8.76572e-05
-4.00545e-05
-8.17829e-05
-4.1162e-05
-7.57645e-05
-4.18638e-05
-6.96576e-05
-4.2146e-05
-6.35194e-05
-4.20009e-05
-5.74082e-05
-4.14274e-05
-5.13823e-05
-4.04312e-05
-4.54991e-05
-3.90253e-05
-3.98141e-05
-3.72301e-05
-3.43798e-05
-3.50739e-05
-2.92452e-05
-3.25923e-05
-2.44539e-05
-2.98286e-05
-2.00443e-05
-2.68335e-05
-1.60477e-05
-2.36649e-05
-1.24885e-05
-2.03876e-05
-9.38298e-06
-1.70733e-05
-6.73937e-06
-1.37998e-05
-4.55734e-06
-1.06514e-05
-2.82817e-06
-7.71831e-06
-1.53508e-06
-5.0966e-06
-6.53867e-07
-2.88781e-06
-1.53966e-07
-1.19844e-06
-1.44537e-07
-4.04628e-07
1.92576e-06
-1.54434e-06
5.992e-06
-3.35107e-06
1.01251e-05
-5.76173e-06
1.4212e-05
-8.71733e-06
1.8167e-05
-1.21624e-05
2.19231e-05
-1.60445e-05
2.54299e-05
-2.0314e-05
2.86516e-05
-2.49234e-05
3.15642e-05
-2.98277e-05
3.4154e-05
-3.49836e-05
3.64145e-05
-4.03496e-05
3.83451e-05
-4.58858e-05
3.99497e-05
-5.15538e-05
4.12343e-05
-5.73165e-05
4.22071e-05
-6.31379e-05
4.28766e-05
-6.89829e-05
4.32511e-05
-7.48173e-05
4.33388e-05
-8.06076e-05
4.31467e-05
-8.63207e-05
4.26809e-05
-9.19242e-05
4.19465e-05
-9.73859e-05
4.09478e-05
-0.000102674
3.96884e-05
-0.000107757
3.81714e-05
-0.000112604
3.64002e-05
-0.000117185
3.43784e-05
-0.000121469
3.21102e-05
-0.000125426
2.96013e-05
-0.000129029
2.68586e-05
-0.000132251
2.38911e-05
-0.000135063
2.07099e-05
-0.000137444
1.73287e-05
-0.000139369
1.37638e-05
-0.000140818
1.00344e-05
-0.000141773
6.16281e-06
-0.000142219
2.17431e-06
-0.000142144
-1.90278e-06
-0.000141539
-6.03724e-06
-0.000140398
-1.0195e-05
-0.000138723
-1.43396e-05
-0.000136515
-1.84322e-05
-0.000133782
-2.24324e-05
-0.000130539
-2.62982e-05
-0.000126803
-2.9987e-05
-0.000122597
-3.3456e-05
-0.000117949
-3.66629e-05
-0.000112893
-3.95667e-05
-0.000107468
-4.21284e-05
-0.000101716
-4.43118e-05
-9.56864e-05
-4.60844e-05
-8.94301e-05
-4.74183e-05
-8.30031e-05
-4.82908e-05
-7.64638e-05
-4.86852e-05
-6.98731e-05
-4.85917e-05
-6.32929e-05
-4.80076e-05
-5.67859e-05
-4.69382e-05
-5.04139e-05
-4.53973e-05
-4.42373e-05
-4.34067e-05
-3.83137e-05
-4.09975e-05
-3.2697e-05
-3.8209e-05
-2.74362e-05
-3.50893e-05
-2.25746e-05
-3.1695e-05
-1.81489e-05
-2.80906e-05
-1.41881e-05
-2.43484e-05
-1.07134e-05
-2.05479e-05
-7.73751e-06
-1.67757e-05
-5.26429e-06
-1.31246e-05
-3.28908e-06
-9.69352e-06
-1.7989e-06
-6.58678e-06
-7.73072e-07
-3.91364e-06
-1.84288e-07
-1.78722e-06
-3.28825e-07
-4.43983e-07
2.36974e-06
-1.69075e-06
7.23876e-06
-3.66173e-06
1.20961e-05
-6.28416e-06
1.68344e-05
-9.49032e-06
2.13731e-05
-1.32171e-05
2.56499e-05
-1.74055e-05
2.96183e-05
-2.20001e-05
3.32462e-05
-2.6949e-05
3.65132e-05
-3.22032e-05
3.94081e-05
-3.77161e-05
4.19274e-05
-4.34438e-05
4.40728e-05
-4.93442e-05
4.585e-05
-5.53771e-05
4.72673e-05
-6.1504e-05
4.8334e-05
-6.76876e-05
4.90601e-05
-7.38917e-05
4.94553e-05
-8.00812e-05
4.95283e-05
-8.62216e-05
4.92871e-05
-9.22791e-05
4.87384e-05
-9.82203e-05
4.78877e-05
-0.000104012
4.67398e-05
-0.000109622
4.52984e-05
-0.000115018
4.35673e-05
-0.000120168
4.15499e-05
-0.00012504
3.92503e-05
-0.000129603
3.66734e-05
-0.000133827
3.38253e-05
-0.000137682
3.07138e-05
-0.00014114
2.73489e-05
-0.000144173
2.37431e-05
-0.000146756
1.99114e-05
-0.000148864
1.58719e-05
-0.000150476
1.1646e-05
-0.000151571
7.25841e-06
-0.000152134
2.73707e-06
-0.00015215
-1.88661e-06
-0.00015161
-6.57794e-06
-0.000150505
-1.12992e-05
-0.000148835
-1.60096e-05
-0.000146602
-2.06661e-05
-0.000143811
-2.52234e-05
-0.000140474
-2.96346e-05
-0.000136609
-3.38519e-05
-0.000132238
-3.7827e-05
-0.000127389
-4.15122e-05
-0.000122095
-4.48609e-05
-0.000116395
-4.78286e-05
-0.000110332
-5.0374e-05
-0.000103958
-5.24593e-05
-9.73237e-05
-5.40521e-05
-9.0489e-05
-5.51255e-05
-8.35149e-05
-5.56594e-05
-7.64656e-05
-5.5641e-05
-6.94071e-05
-5.5066e-05
-6.24067e-05
-5.39387e-05
-5.55309e-05
-5.2273e-05
-4.88456e-05
-5.00921e-05
-4.24137e-05
-4.74294e-05
-3.62948e-05
-4.43278e-05
-3.05439e-05
-4.08403e-05
-2.52098e-05
-3.70291e-05
-2.03349e-05
-3.29655e-05
-1.59539e-05
-2.87294e-05
-1.2093e-05
-2.44088e-05
-8.76992e-06
-2.00988e-05
-5.99325e-06
-1.59013e-05
-3.76253e-06
-1.19242e-05
-2.06862e-06
-8.2807e-06
-8.9421e-07
-5.08805e-06
-2.14822e-07
-2.46661e-06
-5.43647e-07
-4.81792e-07
2.85154e-06
-1.83158e-06
8.58855e-06
-3.96089e-06
1.42254e-05
-6.78778e-06
1.96613e-05
-1.02362e-05
2.48216e-05
-1.42358e-05
2.96494e-05
-1.8721e-05
3.41035e-05
-2.36312e-05
3.81564e-05
-2.89097e-05
4.17917e-05
-3.45038e-05
4.50022e-05
-4.03638e-05
4.77874e-05
-4.64431e-05
5.01521e-05
-5.26976e-05
5.21046e-05
-5.90856e-05
5.36552e-05
-6.5567e-05
5.48154e-05
-7.21034e-05
5.55966e-05
-7.86578e-05
5.60096e-05
-8.51941e-05
5.60646e-05
-9.16771e-05
5.57702e-05
-9.80723e-05
5.51336e-05
-0.000104346
5.41611e-05
-0.000110464
5.28577e-05
-0.000116393
5.12275e-05
-0.0001221
4.92746e-05
-0.000127553
4.70027e-05
-0.000132719
4.44163e-05
-0.000137566
4.15206e-05
-0.000142063
3.83224e-05
-0.000146179
3.48302e-05
-0.000149885
3.10549e-05
-0.000153152
2.70101e-05
-0.000155953
2.27122e-05
-0.000158263
1.81812e-05
-0.000160057
1.34402e-05
-0.000161315
8.5163e-06
-0.000162018
3.44008e-06
-0.00016215
-1.75405e-06
-0.0001617
-7.02806e-06
-0.000160659
-1.23404e-05
-0.000159022
-1.76465e-05
-0.00015679
-2.28985e-05
-0.000153967
-2.80464e-05
-0.000150563
-3.30383e-05
-0.000146594
-3.78207e-05
-0.000142081
-4.234e-05
-0.000137051
-4.65424e-05
-0.000131536
-5.03754e-05
-0.000125576
-5.37887e-05
-0.000119215
-5.67349e-05
-0.000112504
-5.9171e-05
-0.000105497
-6.1059e-05
-9.82551e-05
-6.23673e-05
-9.08428e-05
-6.30716e-05
-8.33279e-05
-6.31559e-05
-7.57807e-05
-6.26132e-05
-6.82729e-05
-6.14465e-05
-6.08767e-05
-5.96691e-05
-5.36635e-05
-5.73054e-05
-4.67023e-05
-5.43906e-05
-4.0059e-05
-5.09711e-05
-3.37949e-05
-4.71044e-05
-2.79654e-05
-4.28586e-05
-2.26191e-05
-3.83118e-05
-1.77967e-05
-3.35518e-05
-1.35306e-05
-2.8675e-05
-9.84361e-06
-2.37858e-05
-6.74946e-06
-1.89955e-05
-4.25218e-06
-1.44215e-05
-2.34652e-06
-1.01864e-05
-1.01843e-06
-6.41614e-06
-2.45914e-07
-3.23913e-06
-7.89562e-07
-5.18019e-07
3.36956e-06
-1.96661e-06
1.00371e-05
-4.24796e-06
1.65067e-05
-7.27141e-06
2.26847e-05
-1.09531e-05
2.85033e-05
-1.52155e-05
3.39118e-05
-1.99872e-05
3.88752e-05
-2.52022e-05
4.33713e-05
-3.07994e-05
4.73889e-05
-3.67223e-05
5.0925e-05
-4.29183e-05
5.39834e-05
-4.93383e-05
5.65721e-05
-5.59362e-05
5.87026e-05
-6.26687e-05
6.03877e-05
-6.94945e-05
6.16412e-05
-7.63741e-05
6.24762e-05
-8.32697e-05
6.29052e-05
-9.01444e-05
6.29394e-05
-9.69626e-05
6.25884e-05
-0.000103689
6.18602e-05
-0.00011029
6.07615e-05
-0.00011673
5.92978e-05
-0.000122976
5.74736e-05
-0.000128994
5.5293e-05
-0.000134752
5.27602e-05
-0.000140215
4.98798e-05
-0.000145352
4.66574e-05
-0.00015013
4.31004e-05
-0.000154518
3.92178e-05
-0.000158484
3.50214e-05
-0.000162
3.05257e-05
-0.000165036
2.57484e-05
-0.000167566
2.07109e-05
-0.000169564
1.54384e-05
-0.000171007
9.95986e-06
-0.000171876
4.30849e-06
-0.000172151
-1.47849e-06
-0.00017182
-7.3598e-06
-0.00017087
-1.32903e-05
-0.000169295
-1.92211e-05
-0.000167093
-2.51003e-05
-0.000164267
-3.08728e-05
-0.000160824
-3.64813e-05
-0.000156777
-4.18671e-05
-0.000152147
-4.69703e-05
-0.000146958
-5.1731e-05
-0.000141243
-5.60906e-05
-0.00013504
-5.9992e-05
-0.000128393
-6.33817e-05
-0.000121354
-6.62102e-05
-0.000113979
-6.84337e-05
-0.000106332
-7.00151e-05
-9.84781e-05
-7.09251e-05
-9.04904e-05
-7.11435e-05
-8.24433e-05
-7.06603e-05
-7.44135e-05
-6.94763e-05
-6.64789e-05
-6.76037e-05
-5.8717e-05
-6.50673e-05
-5.12037e-05
-6.19039e-05
-4.40117e-05
-5.81631e-05
-3.72093e-05
-5.39068e-05
-3.08591e-05
-4.92088e-05
-2.50167e-05
-4.41541e-05
-1.97298e-05
-3.88387e-05
-1.50369e-05
-3.33679e-05
-1.0967e-05
-2.78556e-05
-7.53925e-06
-2.24232e-05
-4.76244e-06
-1.71983e-05
-2.63533e-06
-1.23135e-05
-1.1471e-06
-7.90437e-06
-2.77957e-07
-4.10827e-06
-1.06752e-06
-5.52608e-07
3.92216e-06
-2.09559e-06
1.15801e-05
-4.52229e-06
1.89334e-05
-7.73386e-06
2.58963e-05
-1.1639e-05
3.24084e-05
-1.61536e-05
3.84264e-05
-2.12003e-05
4.39219e-05
-2.67082e-05
4.88792e-05
-3.2612e-05
5.32927e-05
-3.88516e-05
5.71646e-05
-4.53715e-05
6.05033e-05
-5.21203e-05
6.33209e-05
-5.90501e-05
6.56323e-05
-6.61158e-05
6.74535e-05
-7.32752e-05
6.88005e-05
-8.04878e-05
6.96888e-05
-8.7715e-05
7.01325e-05
-9.49197e-05
7.0144e-05
-0.000102065