/*--------------------------------*- C++ -*----------------------------------*\
  =========                 |
  \\      /  F ield         | OpenFOAM: The Open Source CFD Toolbox
   \\    /   O peration     | Website:  https://openfoam.org
    \\  /    A nd           | Version:  dev
     \\/     M anipulation  |
\*---------------------------------------------------------------------------*/
FoamFile
{
    format      ascii;
    class       volVectorField;
    location    "28.35";
    object      U;
}
// * * * * * * * * * * * * * * * * * * * * * * * * * * * * * * * * * * * * * //

dimensions      [0 1 -1 0 0 0 0];

internalField   nonuniform List<vector> 
5184
(
(1.22488e-05 -1.27808e-05 0)
(4.50436e-05 -2.0927e-05 0)
(8.02543e-05 -1.72596e-05 0)
(9.59331e-05 -8.19852e-06 0)
(8.21103e-05 2.66854e-06 0)
(3.6419e-05 1.36163e-05 0)
(-4.05874e-05 2.38431e-05 0)
(-0.000146889 3.30436e-05 0)
(-0.000279694 4.10994e-05 0)
(-0.000435944 4.80165e-05 0)
(-0.000612521 5.3856e-05 0)
(-0.00080639 5.87026e-05 0)
(-0.00101469 6.26489e-05 0)
(-0.00123474 6.57866e-05 0)
(-0.0014641 6.82007e-05 0)
(-0.0017005 6.99661e-05 0)
(-0.00194188 7.11468e-05 0)
(-0.00218631 7.17952e-05 0)
(-0.00243202 7.19525e-05 0)
(-0.00267732 7.16483e-05 0)
(-0.00292061 7.0902e-05 0)
(-0.00316031 6.9724e-05 0)
(-0.00339492 6.8117e-05 0)
(-0.00362289 6.60781e-05 0)
(-0.00384272 6.36002e-05 0)
(-0.00405284 6.06735e-05 0)
(-0.00425172 5.72877e-05 0)
(-0.00443778 5.34329e-05 0)
(-0.00460943 4.91022e-05 0)
(-0.0047651 4.42924e-05 0)
(-0.00490324 3.90061e-05 0)
(-0.00502231 3.32527e-05 0)
(-0.00512086 2.70492e-05 0)
(-0.00519751 2.04217e-05 0)
(-0.00525099 1.34057e-05 0)
(-0.00528021 6.04698e-06 0)
(-0.0052842 -1.59828e-06 0)
(-0.00526225 -9.46367e-06 0)
(-0.00521385 -1.74727e-05 0)
(-0.00513878 -2.55397e-05 0)
(-0.00503709 -3.35701e-05 0)
(-0.00490916 -4.14624e-05 0)
(-0.0047557 -4.91094e-05 0)
(-0.00457776 -5.64001e-05 0)
(-0.00437675 -6.3222e-05 0)
(-0.00415441 -6.94633e-05 0)
(-0.00391284 -7.50154e-05 0)
(-0.00365447 -7.97751e-05 0)
(-0.00338202 -8.36479e-05 0)
(-0.0030985 -8.65497e-05 0)
(-0.00280714 -8.84102e-05 0)
(-0.00251137 -8.91741e-05 0)
(-0.00221477 -8.88034e-05 0)
(-0.00192097 -8.72785e-05 0)
(-0.00163365 -8.45989e-05 0)
(-0.00135647 -8.0784e-05 0)
(-0.00109294 -7.58729e-05 0)
(-0.000846455 -6.9924e-05 0)
(-0.000620143 -6.30151e-05 0)
(-0.00041686 -5.52421e-05 0)
(-0.000239104 -4.67195e-05 0)
(-8.89525e-05 -3.75801e-05 0)
(3.20054e-05 -2.79788e-05 0)
(0.000122756 -1.80978e-05 0)
(0.000182966 -8.16224e-06 0)
(0.00021314 1.53255e-06 0)
(0.000214861 1.05629e-05 0)
(0.000191179 1.8292e-05 0)
(0.000147122 2.37082e-05 0)
(9.07828e-05 2.51207e-05 0)
(3.6625e-05 1.98443e-05 0)
(6.22734e-06 6.24337e-06 0)
(2.07973e-05 -4.59875e-05 0)
(6.55268e-05 -6.57703e-05 0)
(9.46262e-05 -4.058e-05 0)
(7.27312e-05 7.62545e-06 0)
(-1.89946e-05 6.5669e-05 0)
(-0.000187361 0.000125974 0)
(-0.000432947 0.000184268 0)
(-0.000752535 0.000238303 0)
(-0.00114058 0.000286941 0)
(-0.00159031 0.000329741 0)
(-0.00209437 0.000366662 0)
(-0.00264531 0.000397895 0)
(-0.00323583 0.000423751 0)
(-0.00385894 0.000444597 0)
(-0.00450803 0.00046081 0)
(-0.00517691 0.000472749 0)
(-0.00585978 0.000480736 0)
(-0.00655119 0.000485046 0)
(-0.00724602 0.000485904 0)
(-0.00793937 0.00048348 0)
(-0.00862656 0.000477896 0)
(-0.00930302 0.000469228 0)
(-0.00996429 0.000457515 0)
(-0.0106059 0.000442766 0)
(-0.0112236 0.000424969 0)
(-0.0118128 0.000404101 0)
(-0.0123691 0.000380138 0)
(-0.0128882 0.000353062 0)
(-0.0133657 0.000322873 0)
(-0.0137972 0.0002896 0)
(-0.0141785 0.000253302 0)
(-0.0145055 0.000214082 0)
(-0.0147743 0.000172089 0)
(-0.0149812 0.000127527 0)
(-0.015123 8.06557e-05 0)
(-0.0151969 3.1793e-05 0)
(-0.0152005 -1.86817e-05 0)
(-0.015132 -7.03306e-05 0)
(-0.0149902 -0.000122659 0)
(-0.0147749 -0.000175119 0)
(-0.0144864 -0.000227117 0)
(-0.0141259 -0.000278022 0)
(-0.0136955 -0.000327171 0)
(-0.0131983 -0.000373887 0)
(-0.0126383 -0.000417484 0)
(-0.0120202 -0.000457289 0)
(-0.0113499 -0.000492648 0)
(-0.0106339 -0.000522948 0)
(-0.00987964 -0.000547626 0)
(-0.00909524 -0.000566188 0)
(-0.00828937 -0.000578222 0)
(-0.0074712 -0.000583409 0)
(-0.00665028 -0.000581532 0)
(-0.00583634 -0.000572489 0)
(-0.00503915 -0.000556296 0)
(-0.00426839 -0.00053309 0)
(-0.00353343 -0.000503135 0)
(-0.0028432 -0.000466821 0)
(-0.00220597 -0.000424662 0)
(-0.00162921 -0.000377298 0)
(-0.00111941 -0.000325497 0)
(-0.000681864 -0.000270165 0)
(-0.000320483 -0.000212361 0)
(-3.75534e-05 -0.000153338 0)
(0.000166556 -9.4606e-05 0)
(0.000293766 -3.80432e-05 0)
(0.000348824 1.38916e-05 0)
(0.000339996 5.78935e-05 0)
(0.000279774 8.93715e-05 0)
(0.000186005 0.000101831 0)
(8.63531e-05 8.65012e-05 0)
(1.9678e-05 3.64839e-05 0)
(1.76128e-05 -8.13422e-05 0)
(4.1273e-05 -9.50577e-05 0)
(1.9529e-05 -1.91491e-05 0)
(-8.40655e-05 0.00010591 0)
(-0.000290294 0.000254615 0)
(-0.000607903 0.000410524 0)
(-0.00103815 0.000563331 0)
(-0.00157723 0.0007069 0)
(-0.00221798 0.000837784 0)
(-0.0029512 0.000954278 0)
(-0.00376662 0.00105579 0)
(-0.00465354 0.0011424 0)
(-0.00560123 0.00121464 0)
(-0.00659923 0.00127323 0)
(-0.0076375 0.00131899 0)
(-0.00870647 0.00135275 0)
(-0.00979706 0.00137526 0)
(-0.0109007 0.00138721 0)
(-0.0120091 0.00138917 0)
(-0.0131145 0.00138156 0)
(-0.0142093 0.00136473 0)
(-0.0152861 0.00133889 0)
(-0.0163377 0.00130418 0)
(-0.017357 0.00126065 0)
(-0.0183369 0.00120831 0)
(-0.0192702 0.00114717 0)
(-0.0201501 0.0010772 0)
(-0.0209696 0.000998418 0)
(-0.0217217 0.000910894 0)
(-0.0223998 0.000814763 0)
(-0.0229972 0.000710257 0)
(-0.0235076 0.000597722 0)
(-0.0239252 0.00047763 0)
(-0.0242444 0.000350597 0)
(-0.0244604 0.000217387 0)
(-0.0245689 7.89248e-05 0)
(-0.0245666 -6.37111e-05 0)
(-0.0244509 -0.000209285 0)
(-0.0242203 -0.000356415 0)
(-0.0238746 -0.000503583 0)
(-0.0234144 -0.000649154 0)
(-0.0228421 -0.000791397 0)
(-0.022161 -0.000928508 0)
(-0.0213759 -0.00105865 0)
(-0.0204932 -0.00117996 0)
(-0.0195204 -0.00129063 0)
(-0.0184665 -0.00138891 0)
(-0.0173417 -0.00147314 0)
(-0.0161574 -0.00154183 0)
(-0.014926 -0.00159366 0)
(-0.0136608 -0.00162754 0)
(-0.0123758 -0.00164263 0)
(-0.0110856 -0.00163835 0)
(-0.00980501 -0.00161446 0)
(-0.00854893 -0.00157103 0)
(-0.00733206 -0.00150845 0)
(-0.00616863 -0.00142748 0)
(-0.00507218 -0.00132921 0)
(-0.00405524 -0.00121509 0)
(-0.00312909 -0.00108692 0)
(-0.00230346 -0.000946883 0)
(-0.00158626 -0.00079754 0)
(-0.000983205 -0.000641898 0)
(-0.000497541 -0.00048349 0)
(-0.000129578 -0.000326512 0)
(0.000123752 -0.000176053 0)
(0.000269541 -3.8427e-05 0)
(0.000319632 7.8351e-05 0)
(0.000291156 0.000163986 0)
(0.000207333 0.000205315 0)
(0.000102426 0.000186229 0)
(2.49724e-05 9.03764e-05 0)
(8.82767e-06 -9.77369e-05 0)
(-7.04227e-06 -7.31413e-05 0)
(-0.000107618 8.47722e-05 0)
(-0.000322381 0.000318318 0)
(-0.00066957 0.000590003 0)
(-0.00115759 0.000874205 0)
(-0.00178718 0.0011539 0)
(-0.0025536 0.0014183 0)
(-0.00344827 0.00166094 0)
(-0.00446019 0.00187829 0)
(-0.00557688 0.00206879 0)
(-0.00678512 0.00223218 0)
(-0.00807153 0.00236904 0)
(-0.00942283 0.00248039 0)
(-0.0108261 0.00256751 0)
(-0.012269 0.00263173 0)
(-0.0137396 0.00267432 0)
(-0.0152264 0.00269645 0)
(-0.0167186 0.00269909 0)
(-0.0182056 0.00268303 0)
(-0.0196771 0.00264887 0)
(-0.0211232 0.00259703 0)
(-0.0225342 0.00252779 0)
(-0.0239004 0.0024413 0)
(-0.0252123 0.00233764 0)
(-0.0264604 0.00221686 0)
(-0.0276353 0.00207902 0)
(-0.0287278 0.00192421 0)
(-0.0297287 0.00175265 0)
(-0.0306293 0.00156469 0)
(-0.0314209 0.00136086 0)
(-0.0320953 0.00114188 0)
(-0.0326449 0.000908737 0)
(-0.0330627 0.000662663 0)
(-0.0333425 0.000405173 0)
(-0.0334789 0.000138068 0)
(-0.0334678 -0.000136564 0)
(-0.0333062 -0.000416352 0)
(-0.0329924 -0.000698664 0)
(-0.0325261 -0.000980621 0)
(-0.0319087 -0.00125914 0)
(-0.0311433 -0.00153096 0)
(-0.0302345 -0.00179271 0)
(-0.029189 -0.00204095 0)
(-0.0280148 -0.00227223 0)
(-0.0267221 -0.00248317 0)
(-0.0253225 -0.00267051 0)
(-0.0238294 -0.00283121 0)
(-0.0222576 -0.00296249 0)
(-0.0206231 -0.00306193 0)
(-0.0189433 -0.00312751 0)
(-0.0172362 -0.00315769 0)
(-0.0155207 -0.00315144 0)
(-0.0138158 -0.00310831 0)
(-0.0121408 -0.00302846 0)
(-0.0105146 -0.00291266 0)
(-0.00895561 -0.00276235 0)
(-0.00748123 -0.00257963 0)
(-0.00610759 -0.00236725 0)
(-0.00484919 -0.00212867 0)
(-0.00371853 -0.00186803 0)
(-0.0027257 -0.00159024 0)
(-0.00187805 -0.00130099 0)
(-0.00117971 -0.00100697 0)
(-0.000631137 -0.00071599 0)
(-0.000228639 -0.000437316 0)
(3.62586e-05 -0.000182095 0)
(0.000177448 3.60685e-05 0)
(0.000214648 0.000200459 0)
(0.000174019 0.000290688 0)
(9.29978e-05 0.000282463 0)
(2.4022e-05 0.000147247 0)
(-2.13078e-06 -8.43853e-05 0)
(-6.73025e-05 2.09115e-05 0)
(-0.000264105 0.000295425 0)
(-0.000609715 0.000667935 0)
(-0.00111663 0.00109064 0)
(-0.00179105 0.00152964 0)
(-0.00263198 0.0019615 0)
(-0.00363306 0.00237074 0)
(-0.00478416 0.00274765 0)
(-0.00607257 0.00308659 0)
(-0.00748393 0.0033848 0)
(-0.00900301 0.00364145 0)
(-0.0106142 0.00385699 0)
(-0.012302 0.00403269 0)
(-0.014051 0.00417018 0)
(-0.0158465 0.0042713 0)
(-0.0176741 0.00433783 0)
(-0.01952 0.00437143 0)
(-0.0213708 0.00437351 0)
(-0.0232135 0.00434524 0)
(-0.0250355 0.00428755 0)
(-0.0268246 0.00420108 0)
(-0.0285687 0.00408629 0)
(-0.0302558 0.00394348 0)
(-0.0318741 0.00377285 0)
(-0.0334121 0.00357454 0)
(-0.0348583 0.00334875 0)
(-0.0362012 0.00309575 0)
(-0.0374299 0.00281598 0)
(-0.0385336 0.00251011 0)
(-0.0395019 0.00217908 0)
(-0.0403251 0.00182416 0)
(-0.040994 0.00144701 0)
(-0.0415004 0.00104967 0)
(-0.0418369 0.000634627 0)
(-0.0419975 0.000204797 0)
(-0.0419772 -0.00023646 0)
(-0.0417726 -0.000685358 0)
(-0.0413821 -0.00113771 0)
(-0.0408055 -0.00158896 0)
(-0.0400447 -0.00203424 0)
(-0.0391037 -0.00246844 0)
(-0.0379881 -0.00288626 0)
(-0.036706 -0.00328232 0)
(-0.0352675 -0.00365125 0)
(-0.0336846 -0.00398776 0)
(-0.0319713 -0.00428681 0)
(-0.0301438 -0.00454365 0)
(-0.0282197 -0.00475398 0)
(-0.0262182 -0.00491403 0)
(-0.02416 -0.00502069 0)
(-0.0220667 -0.00507156 0)
(-0.0199606 -0.00506507 0)
(-0.0178647 -0.00500054 0)
(-0.0158018 -0.00487823 0)
(-0.0137946 -0.00469939 0)
(-0.0118648 -0.0044663 0)
(-0.0100334 -0.00418229 0)
(-0.0083195 -0.00385171 0)
(-0.00674054 -0.00348005 0)
(-0.00531143 -0.00307387 0)
(-0.00404429 -0.00264089 0)
(-0.002948 -0.00219013 0)
(-0.0020277 -0.00173198 0)
(-0.00128433 -0.00127849 0)
(-0.000714135 -0.000843704 0)
(-0.000308123 -0.000444112 0)
(-5.15305e-05 -9.92703e-05 0)
(7.65158e-05 0.000167489 0)
(0.000103512 0.000328436 0)
(6.7473e-05 0.000350843 0)
(1.96592e-05 0.00019408 0)
(-1.36966e-05 -3.74987e-05 0)
(-0.000132825 0.000197373 0)
(-0.000435775 0.000626839 0)
(-0.000924507 0.00117017 0)
(-0.00160365 0.00177143 0)
(-0.00247575 0.00238977 0)
(-0.00353699 0.00299613 0)
(-0.00477866 0.00357073 0)
(-0.00618866 0.00410071 0)
(-0.0077525 0.00457832 0)
(-0.00945403 0.00499948 0)
(-0.0112762 0.0053627 0)
(-0.0132015 0.00566823 0)
(-0.0152125 0.00591742 0)
(-0.0172918 0.00611226 0)
(-0.0194225 0.00625502 0)
(-0.0215882 0.00634797 0)
(-0.023773 0.00639325 0)
(-0.0259613 0.00639272 0)
(-0.0281381 0.00634795 0)
(-0.0302886 0.00626018 0)
(-0.0323985 0.00613034 0)
(-0.0344535 0.00595909 0)
(-0.0364397 0.00574692 0)
(-0.0383433 0.00549416 0)
(-0.0401507 0.00520115 0)
(-0.0418486 0.00486826 0)
(-0.0434237 0.00449602 0)
(-0.0448633 0.0040852 0)
(-0.0461549 0.00363688 0)
(-0.0472866 0.00315256 0)
(-0.0482474 0.00263419 0)
(-0.0490267 0.00208424 0)
(-0.0496152 0.00150578 0)
(-0.0500046 0.000902426 0)
(-0.0501881 0.00027845 0)
(-0.0501603 -0.00036129 0)
(-0.0499175 -0.00101134 0)
(-0.0494579 -0.0016657 0)
(-0.0487816 -0.00231787 0)
(-0.0478911 -0.00296092 0)
(-0.0467907 -0.00358757 0)
(-0.0454873 -0.00419034 0)
(-0.0439903 -0.00476161 0)
(-0.042311 -0.00529378 0)
(-0.0404634 -0.00577941 0)
(-0.0384636 -0.00621138 0)
(-0.0363298 -0.00658302 0)
(-0.0340823 -0.00688826 0)
(-0.0317431 -0.0071218 0)
(-0.0293355 -0.00727926 0)
(-0.0268843 -0.00735727 0)
(-0.0244149 -0.00735362 0)
(-0.0219535 -0.00726735 0)
(-0.0195261 -0.00709886 0)
(-0.0171586 -0.00684992 0)
(-0.014876 -0.00652377 0)
(-0.012702 -0.00612514 0)
(-0.0106588 -0.00566026 0)
(-0.00876639 -0.0051369 0)
(-0.00704189 -0.0045644 0)
(-0.00549945 -0.00395374 0)
(-0.00414954 -0.00331762 0)
(-0.00299852 -0.00267064 0)
(-0.00204817 -0.00202951 0)
(-0.00129522 -0.00141342 0)
(-0.000730905 -0.000844511 0)
(-0.000340497 -0.000348455 0)
(-0.000103045 4.47747e-05 0)
(9.07819e-06 0.000300242 0)
(3.24643e-05 0.000377142 0)
(1.36143e-05 0.000224439 0)
(-2.51841e-05 4.4121e-05 0)
(-0.000199984 0.000461249 0)
(-0.000613978 0.00108693 0)
(-0.00125268 0.00183442 0)
(-0.00211162 0.00264189 0)
(-0.00318865 0.0034631 0)
(-0.0044762 0.00426442 0)
(-0.00596255 0.00502241 0)
(-0.00763322 0.00572146 0)
(-0.00947165 0.0063519 0)
(-0.0114599 0.00690839 0)
(-0.013579 0.00738879 0)
(-0.01581 0.00779309 0)
(-0.0181335 0.00812275 0)
(-0.0205304 0.00838001 0)
(-0.0229821 0.00856754 0)
(-0.0254704 0.00868809 0)
(-0.0279773 0.00874424 0)
(-0.0304857 0.00873831 0)
(-0.0329784 0.00867226 0)
(-0.0354389 0.00854763 0)
(-0.037851 0.00836566 0)
(-0.0401986 0.00812725 0)
(-0.042466 0.00783307 0)
(-0.0446375 0.00748369 0)
(-0.0466978 0.00707964 0)
(-0.0486319 0.00662156 0)
(-0.0504248 0.0061103 0)
(-0.0520624 0.00554704 0)
(-0.0535306 0.00493339 0)
(-0.0548162 0.00427151 0)
(-0.0559069 0.00356417 0)
(-0.056791 0.00281481 0)
(-0.0574582 0.00202764 0)
(-0.0578996 0.00120765 0)
(-0.0581075 0.00036061 0)
(-0.058076 -0.000506912 0)
(-0.0578013 -0.00138758 0)
(-0.0572815 -0.00227336 0)
(-0.0565168 -0.00315557 0)
(-0.0555098 -0.00402496 0)
(-0.0542658 -0.00487189 0)
(-0.0527923 -0.00568641 0)
(-0.0510996 -0.00645841 0)
(-0.0492004 -0.00717784 0)
(-0.0471102 -0.00783487 0)
(-0.0448468 -0.00842006 0)
(-0.0424303 -0.00892458 0)
(-0.0398832 -0.00934042 0)
(-0.0372297 -0.00966056 0)
(-0.0344957 -0.00987918 0)
(-0.0317085 -0.00999183 0)
(-0.0288965 -0.00999555 0)
(-0.0260885 -0.00988907 0)
(-0.0233136 -0.00967288 0)
(-0.0206004 -0.00934931 0)
(-0.0179769 -0.00892266 0)
(-0.0154696 -0.00839918 0)
(-0.0131034 -0.00778712 0)
(-0.0109006 -0.00709682 0)
(-0.00888072 -0.00634063 0)
(-0.00705997 -0.00553309 0)
(-0.00545056 -0.00469092 0)
(-0.00406032 -0.00383321 0)
(-0.00289226 -0.00298166 0)
(-0.00194409 -0.00216086 0)
(-0.00120788 -0.00139872 0)
(-0.000669692 -0.000727097 0)
(-0.000309316 -0.000182473 0)
(-9.99262e-05 0.000193351 0)
(-7.74424e-06 0.000352262 0)
(6.85399e-06 0.000234893 0)
(-3.63343e-05 0.00016047 0)
(-0.000266892 0.000814406 0)
(-0.000793591 0.00167947 0)
(-0.0015853 0.0026657 0)
(-0.00262787 0.0037074 0)
(-0.00391373 0.00475456 0)
(-0.00543092 0.00577013 0)
(-0.00716416 0.00672786 0)
(-0.00909612 0.00760994 0)
(-0.011208 0.0084051 0)
(-0.0134797 0.00910702 0)
(-0.0158908 0.00971297 0)
(-0.0184203 0.0102228 0)
(-0.0210474 0.0106379 0)
(-0.0237515 0.010961 0)
(-0.0265124 0.0111951 0)
(-0.0293101 0.0113432 0)
(-0.0321253 0.0114086 0)
(-0.034939 0.0113938 0)
(-0.0377326 0.0113013 0)
(-0.0404879 0.0111329 0)
(-0.043187 0.0108901 0)
(-0.0458122 0.0105741 0)
(-0.0483461 0.0101859 0)
(-0.0507716 0.00972609 0)
(-0.0530718 0.00919561 0)
(-0.05523 0.00859537 0)
(-0.05723 0.00792663 0)
(-0.0590561 0.00719105 0)
(-0.0606931 0.00639086 0)
(-0.0621264 0.00552897 0)
(-0.0633427 0.00460909 0)
(-0.0643292 0.00363577 0)
(-0.0650749 0.00261451 0)
(-0.0655698 0.00155178 0)
(-0.0658058 0.000455037 0)
(-0.0657767 -0.000667276 0)
(-0.0654781 -0.00180577 0)
(-0.0649079 -0.00295018 0)
(-0.0640666 -0.00408944 0)
(-0.062957 -0.00521182 0)
(-0.0615845 -0.00630506 0)
(-0.0599575 -0.00735654 0)
(-0.0580869 -0.00835347 0)
(-0.0559866 -0.00928313 0)
(-0.0536732 -0.0101331 0)
(-0.0511658 -0.0108913 0)
(-0.0484864 -0.0115467 0)
(-0.045659 -0.012089 0)
(-0.04271 -0.0125095 0)
(-0.0396675 -0.0128005 0)
(-0.0365611 -0.0129566 0)
(-0.0334216 -0.0129738 0)
(-0.0302805 -0.0128504 0)
(-0.0271695 -0.0125871 0)
(-0.02412 -0.0121868 0)
(-0.0211626 -0.0116547 0)
(-0.0183267 -0.0109988 0)
(-0.0156395 -0.0102294 0)
(-0.0131261 -0.00935963 0)
(-0.0108083 -0.00840505 0)
(-0.00870441 -0.00738393 0)
(-0.00682868 -0.00631728 0)
(-0.00519071 -0.0052289 0)
(-0.00379512 -0.00414567 0)
(-0.00264107 -0.00309771 0)
(-0.00172198 -0.00211881 0)
(-0.00102528 -0.00124693 0)
(-0.000532156 -0.000524875 0)
(-0.000217262 -8.39792e-07 0)
(-5.04848e-05 0.000270636 0)
(-9.02151e-08 0.000223735 0)
(-4.70508e-05 0.000310914 0)
(-0.000332565 0.00125676 0)
(-0.000971618 0.00240543 0)
(-0.00191676 0.00366585 0)
(-0.00314398 0.00497028 0)
(-0.00463993 0.00626638 0)
(-0.0063878 0.00751492 0)
(-0.00836829 0.00868769 0)
(-0.0105609 0.00976537 0)
(-0.0129443 0.0107356 0)
(-0.0154962 0.0115913 0)
(-0.0181944 0.0123295 0)
(-0.0210162 0.0129499 0)
(-0.0239393 0.0134541 0)
(-0.0269417 0.0138451 0)
(-0.0300016 0.0141262 0)
(-0.0330978 0.0143011 0)
(-0.0362096 0.0143732 0)
(-0.0393165 0.0143457 0)
(-0.0423985 0.0142213 0)
(-0.0454359 0.0140021 0)
(-0.0484096 0.0136901 0)
(-0.0513003 0.0132865 0)
(-0.0540892 0.0127926 0)
(-0.0567578 0.0122095 0)
(-0.0592879 0.0115381 0)
(-0.0616614 0.0107799 0)
(-0.0638608 0.00993654 0)
(-0.0658692 0.00901021 0)
(-0.0676702 0.00800386 0)
(-0.0692483 0.00692125 0)
(-0.0705887 0.00576709 0)
(-0.0716782 0.00454716 0)
(-0.0725045 0.00326836 0)
(-0.0730572 0.00193876 0)
(-0.0733274 0.000567637 0)
(-0.0733084 -0.000834555 0)
(-0.0729954 -0.00225623 0)
(-0.0723862 -0.00368472 0)
(-0.0714809 -0.00510645 0)
(-0.0702826 -0.006507 0)
(-0.0687968 -0.00787133 0)
(-0.0670323 -0.00918397 0)
(-0.0650006 -0.0104293 0)
(-0.0627163 -0.0115916 0)
(-0.0601969 -0.0126557 0)
(-0.0574627 -0.0136069 0)
(-0.054537 -0.0144315 0)
(-0.0514454 -0.0151169 0)
(-0.0482159 -0.0156522 0)
(-0.0448786 -0.0160282 0)
(-0.0414653 -0.0162379 0)
(-0.038009 -0.0162763 0)
(-0.0345437 -0.0161414 0)
(-0.0311035 -0.0158336 0)
(-0.0277226 -0.0153564 0)
(-0.0244342 -0.0147161 0)
(-0.0212703 -0.0139224 0)
(-0.018261 -0.0129878 0)
(-0.0154337 -0.0119281 0)
(-0.012813 -0.0107624 0)
(-0.0104194 -0.00951273 0)
(-0.00826954 -0.00820461 0)
(-0.00637506 -0.00686673 0)
(-0.00474256 -0.00553124 0)
(-0.00337307 -0.00423391 0)
(-0.00226183 -0.00301443 0)
(-0.00139812 -0.0019168 0)
(-0.000764996 -0.00098989 0)
(-0.000339026 -0.000287851 0)
(-9.41988e-05 0.000129158 0)
(-6.94828e-06 0.000190317 0)
(-5.7322e-05 0.000494548 0)
(-0.000396523 0.00178706 0)
(-0.00114632 0.00326393 0)
(-0.00224353 0.00483451 0)
(-0.0036544 0.0064305 0)
(-0.00535961 0.00799862 0)
(-0.00733724 0.00949853 0)
(-0.00956373 0.010901 0)
(-0.0120151 0.012186 0)
(-0.0146673 0.0133405 0)
(-0.0174957 0.0143572 0)
(-0.0204761 0.015233 0)
(-0.0235844 0.0159678 0)
(-0.0267966 0.0165635 0)
(-0.0300893 0.0170234 0)
(-0.0334396 0.0173513 0)
(-0.0368249 0.0175513 0)
(-0.0402233 0.0176273 0)
(-0.0436131 0.0175828 0)
(-0.0469731 0.0174208 0)
(-0.0502824 0.0171441 0)
(-0.0535205 0.0167545 0)
(-0.0566671 0.0162538 0)
(-0.059702 0.0156435 0)
(-0.0626056 0.0149248 0)
(-0.0653583 0.0140992 0)
(-0.067941 0.0131684 0)
(-0.0703351 0.0121346 0)
(-0.0725224 0.0110006 0)
(-0.0744856 0.00977001 0)
(-0.076208 0.0084476 0)
(-0.077674 0.00703914 0)
(-0.0788694 0.0055517 0)
(-0.0797812 0.00399367 0)
(-0.0803981 0.00237482 0)
(-0.0807107 0.000706348 0)
(-0.0807114 -0.000999185 0)
(-0.0803952 -0.00272786 0)
(-0.0797593 -0.00446453 0)
(-0.0788037 -0.00619292 0)
(-0.0775313 -0.00789581 0)
(-0.0759476 -0.00955522 0)
(-0.0740614 -0.0111527 0)
(-0.0718846 -0.0126694 0)
(-0.0694323 -0.0140869 0)
(-0.0667227 -0.0153867 0)
(-0.0637769 -0.0165512 0)
(-0.0606192 -0.0175641 0)
(-0.0572766 -0.0184102 0)
(-0.0537787 -0.0190763 0)
(-0.0501572 -0.0195512 0)
(-0.0464458 -0.0198262 0)
(-0.0426798 -0.0198955 0)
(-0.0388954 -0.019756 0)
(-0.0351292 -0.0194084 0)
(-0.0314181 -0.0188562 0)
(-0.0277979 -0.0181071 0)
(-0.0243035 -0.0171721 0)
(-0.0209676 -0.016066 0)
(-0.0178207 -0.0148077 0)
(-0.0148898 -0.0134194 0)
(-0.0121984 -0.0119274 0)
(-0.00976536 -0.0103616 0)
(-0.007605 -0.00875583 0)
(-0.00572621 -0.00714758 0)
(-0.00413226 -0.00557834 0)
(-0.0028206 -0.0040937 0)
(-0.00178276 -0.00274364 0)
(-0.00100396 -0.0015829 0)
(-0.000463004 -0.000671224 0)
(-0.00013807 -7.37884e-05 0)
(-1.36046e-05 0.000134556 0)
(-6.71659e-05 0.000710339 0)
(-0.000458539 0.00240341 0)
(-0.0013167 0.00425288 0)
(-0.00256339 0.0061697 0)
(-0.0041554 0.00808627 0)
(-0.00606743 0.00994951 0)
(-0.00827233 0.011719 0)
(-0.0107421 0.0133656 0)
(-0.0134492 0.0148689 0)
(-0.0163664 0.0162162 0)
(-0.0194671 0.0174003 0)
(-0.0227247 0.0184182 0)
(-0.0261136 0.0192703 0)
(-0.0296083 0.0199591 0)
(-0.0331841 0.0204881 0)
(-0.036817 0.0208619 0)
(-0.0404832 0.0210849 0)
(-0.0441596 0.0211614 0)
(-0.0478236 0.0210956 0)
(-0.051453 0.0208907 0)
(-0.0550257 0.0205496 0)
(-0.0585202 0.0200748 0)
(-0.0619151 0.0194681 0)
(-0.0651893 0.0187312 0)
(-0.0683219 0.0178658 0)
(-0.0712924 0.0168736 0)
(-0.0740807 0.0157568 0)
(-0.0766671 0.0145181 0)
(-0.0790325 0.0131608 0)
(-0.0811584 0.0116895 0)
(-0.0830273 0.0101098 0)
(-0.0846227 0.0084287 0)
(-0.0859295 0.00665451 0)
(-0.0869337 0.0047972 0)
(-0.0876234 0.00286831 0)
(-0.0879883 0.000881019 0)
(-0.0880202 -0.00114992 0)
(-0.0877135 -0.00320818 0)
(-0.0870647 -0.00527601 0)
(-0.0860735 -0.00733436 0)
(-0.0847422 -0.00936308 0)
(-0.0830763 -0.0113411 0)
(-0.0810843 -0.0132468 0)
(-0.0787783 -0.0150583 0)
(-0.0761735 -0.0167535 0)
(-0.0732883 -0.0183112 0)
(-0.0701448 -0.0197104 0)
(-0.0667679 -0.0209318 0)
(-0.0631857 -0.0219575 0)
(-0.0594291 -0.0227718 0)
(-0.0555314 -0.0233612 0)
(-0.0515281 -0.0237153 0)
(-0.0474565 -0.0238268 0)
(-0.0433551 -0.023692 0)
(-0.0392631 -0.023311 0)
(-0.0352198 -0.0226878 0)
(-0.0312641 -0.0218308 0)
(-0.0274337 -0.0207527 0)
(-0.0237644 -0.0194706 0)
(-0.0202896 -0.018006 0)
(-0.0170393 -0.0163847 0)
(-0.0140401 -0.0146372 0)
(-0.0113137 -0.0127979 0)
(-0.0088773 -0.0109058 0)
(-0.00674242 -0.0090039 0)
(-0.00491498 -0.00713941 0)
(-0.00339499 -0.00536391 0)
(-0.00217651 -0.0037333 0)
(-0.00124721 -0.0023081 0)
(-0.000588185 -0.0011534 0)
(-0.000181771 -0.000339039 0)
(-2.0033e-05 5.66203e-05 0)
(-7.66061e-05 0.000957209 0)
(-0.000518509 0.00310352 0)
(-0.00148215 0.00536939 0)
(-0.00287491 0.00766834 0)
(-0.00464445 0.00993445 0)
(-0.00675959 0.0121159 0)
(-0.00918795 0.0141732 0)
(-0.011897 0.0160778 0)
(-0.0148556 0.0178103 0)
(-0.0180334 0.0193584 0)
(-0.0214012 0.0207155 0)
(-0.0249306 0.0218795 0)
(-0.0285941 0.0228514 0)
(-0.0323649 0.0236341 0)
(-0.036217 0.0242321 0)
(-0.0401252 0.0246504 0)
(-0.0440648 0.024894 0)
(-0.0480118 0.0249678 0)
(-0.0519426 0.0248762 0)
(-0.055834 0.024623 0)
(-0.0596632 0.0242113 0)
(-0.0634076 0.0236439 0)
(-0.0670451 0.0229229 0)
(-0.0705535 0.0220504 0)
(-0.0739112 0.0210281 0)
(-0.0770968 0.0198582 0)
(-0.0800891 0.0185432 0)
(-0.0828676 0.0170864 0)
(-0.0854122 0.0154919 0)
(-0.0877036 0.0137649 0)
(-0.0897233 0.0119121 0)
(-0.0914541 0.00994148 0)
(-0.0928797 0.00786287 0)
(-0.0939854 0.00568777 0)
(-0.0947584 0.00342952 0)
(-0.0951875 0.00110331 0)
(-0.0952638 -0.00127387 0)
(-0.0949807 -0.00368323 0)
(-0.0943342 -0.00610435 0)
(-0.0933231 -0.00851531 0)
(-0.0919492 -0.0108929 0)
(-0.0902174 -0.013213 0)
(-0.088136 -0.0154505 0)
(-0.0857166 -0.0175803 0)
(-0.0829745 -0.0195768 0)
(-0.0799283 -0.0214153 0)
(-0.0766002 -0.0230716 0)
(-0.0730158 -0.0245232 0)
(-0.0692041 -0.0257491 0)
(-0.0651969 -0.0267307 0)
(-0.0610292 -0.0274523 0)
(-0.0567381 -0.0279012 0)
(-0.0523628 -0.0280686 0)
(-0.0479442 -0.0279496 0)
(-0.0435239 -0.0275437 0)
(-0.0391442 -0.0268553 0)
(-0.0348468 -0.0258933 0)
(-0.0306725 -0.0246719 0)
(-0.0266604 -0.0232102 0)
(-0.0228473 -0.0215328 0)
(-0.0192665 -0.0196689 0)
(-0.0159479 -0.017653 0)
(-0.0129166 -0.0155244 0)
(-0.0101928 -0.0133271 0)
(-0.00779129 -0.0111098 0)
(-0.00572088 -0.00892567 0)
(-0.00398444 -0.00683219 0)
(-0.00257884 -0.00489128 0)
(-0.00149436 -0.00316922 0)
(-0.000714413 -0.00173639 0)
(-0.000225305 -0.000667158 0)
(-2.62599e-05 -4.32722e-05 0)
(-8.56637e-05 0.00123407 0)
(-0.000576383 0.00388482 0)
(-0.0016423 0.00661004 0)
(-0.00317711 0.0093265 0)
(-0.00511972 0.0119708 0)
(-0.00743325 0.0144934 0)
(-0.0100802 0.0168565 0)
(-0.0130235 0.0190332 0)
(-0.0162283 0.0210053 0)
(-0.0196612 0.0227619 0)
(-0.0232905 0.0242975 0)
(-0.0270857 0.0256111 0)
(-0.0310175 0.0267046 0)
(-0.0350579 0.027582 0)
(-0.0391795 0.0282485 0)
(-0.0433562 0.0287097 0)
(-0.0475623 0.0289715 0)
(-0.051773 0.0290392 0)
(-0.0559639 0.0289177 0)
(-0.060111 0.0286112 0)
(-0.0641909 0.0281233 0)
(-0.0681801 0.0274567 0)
(-0.0720558 0.026614 0)
(-0.0757951 0.0255974 0)
(-0.0793756 0.0244091 0)
(-0.082775 0.0230516 0)
(-0.0859714 0.0215277 0)
(-0.0889436 0.0198412 0)
(-0.0916705 0.0179969 0)
(-0.094132 0.0160008 0)
(-0.0963088 0.0138605 0)
(-0.0981826 0.0115852 0)
(-0.0997363 0.00918602 0)
(-0.100954 0.00667611 0)
(-0.101823 0.00407055 0)
(-0.10233 0.00138656 0)
(-0.102465 -0.00135659 0)
(-0.102221 -0.00413764 0)
(-0.101594 -0.00693347 0)
(-0.10058 -0.00971924 0)
(-0.0991803 -0.0124686 0)
(-0.0973999 -0.0151542 0)
(-0.0952461 -0.0177475 0)
(-0.0927298 -0.0202197 0)
(-0.0898659 -0.0225418 0)
(-0.086673 -0.0246854 0)
(-0.0831733 -0.0266229 0)
(-0.0793927 -0.0283279 0)
(-0.0753607 -0.0297764 0)
(-0.0711104 -0.0309467 0)
(-0.0666777 -0.0318201 0)
(-0.0621014 -0.0323818 0)
(-0.0574229 -0.0326208 0)
(-0.052685 -0.032531 0)
(-0.0479323 -0.0321111 0)
(-0.0432098 -0.0313651 0)
(-0.0385623 -0.0303026 0)
(-0.0340342 -0.0289391 0)
(-0.0296681 -0.0272959 0)
(-0.0255043 -0.0253999 0)
(-0.0215801 -0.0232841 0)
(-0.0179288 -0.0209871 0)
(-0.0145794 -0.018553 0)
(-0.0115557 -0.0160311 0)
(-0.0088759 -0.0134758 0)
(-0.00655215 -0.0109462 0)
(-0.00459051 -0.008506 0)
(-0.00299083 -0.00622326 0)
(-0.00174613 -0.00417008 0)
(-0.000842135 -0.00242226 0)
(-0.000268891 -0.00105879 0)
(-3.23437e-05 -0.000164988 0)
(-9.43539e-05 0.00153982 0)
(-0.000632122 0.00474463 0)
(-0.00179686 0.00797102 0)
(-0.00346924 0.0111397 0)
(-0.0055798 0.0141905 0)
(-0.0080862 0.0170767 0)
(-0.0109459 0.0197634 0)
(-0.0141175 0.0222259 0)
(-0.0175623 0.024448 0)
(-0.021244 0.0264206 0)
(-0.0251283 0.02814 0)
(-0.0291826 0.0296066 0)
(-0.0333761 0.0308235 0)
(-0.0376792 0.0317961 0)
(-0.0420636 0.0325304 0)
(-0.046502 0.0330332 0)
(-0.050968 0.0333108 0)
(-0.055436 0.0333693 0)
(-0.059881 0.0332142 0)
(-0.0642783 0.0328499 0)
(-0.0686038 0.0322804 0)
(-0.0728336 0.0315089 0)
(-0.0769442 0.030538 0)
(-0.0809121 0.0293702 0)
(-0.0847142 0.028008 0)
(-0.0883276 0.0264541 0)
(-0.0917298 0.0247119 0)
(-0.0948986 0.0227855 0)
(-0.0978123 0.0206804 0)
(-0.10045 0.0184033 0)
(-0.102792 0.0159628 0)
(-0.104818 0.0133692 0)
(-0.106511 0.0106349 0)
(-0.107853 0.00777457 0)
(-0.108831 0.0048051 0)
(-0.109431 0.00174569 0)
(-0.109642 -0.00138214 0)
(-0.109454 -0.00455466 0)
(-0.108863 -0.00774602 0)
(-0.107864 -0.0109284 0)
(-0.106458 -0.0140724 0)
(-0.104647 -0.0171471 0)
(-0.102439 -0.0201206 0)
(-0.099843 -0.0229603 0)
(-0.0968736 -0.0256335 0)
(-0.0935488 -0.0281079 0)
(-0.0898907 -0.0303519 0)
(-0.0859253 -0.0323357 0)
(-0.0816824 -0.0340314 0)
(-0.0771958 -0.0354138 0)
(-0.0725026 -0.0364613 0)
(-0.0676432 -0.0371561 0)
(-0.0626608 -0.037485 0)
(-0.0576006 -0.0374402 0)
(-0.0525099 -0.0370191 0)
(-0.0474367 -0.0362254 0)
(-0.0424293 -0.0350689 0)
(-0.0375358 -0.0335662 0)
(-0.0328025 -0.0317402 0)
(-0.0282739 -0.0296208 0)
(-0.0239914 -0.0272444 0)
(-0.0199926 -0.0246536 0)
(-0.0163104 -0.0218974 0)
(-0.0129727 -0.0190306 0)
(-0.0100016 -0.0161133 0)
(-0.00741301 -0.013211 0)
(-0.00521636 -0.0103936 0)
(-0.00341476 -0.00773554 0)
(-0.00200404 -0.00531503 0)
(-0.000972229 -0.00321351 0)
(-0.000312899 -0.00151492 0)
(-3.83624e-05 -0.000308564 0)
(-0.000102685 0.00187336 0)
(-0.000685683 0.00568011 0)
(-0.00194559 0.00944821 0)
(-0.00375067 0.0131028 0)
(-0.00602352 0.0165877 0)
(-0.00871653 0.0198599 0)
(-0.0117824 0.0228877 0)
(-0.0151753 0.0256494 0)
(-0.0188531 0.0281317 0)
(-0.0227765 0.0303278 0)
(-0.0269086 0.0322362 0)
(-0.0312149 0.033859 0)
(-0.0356628 0.0352012 0)
(-0.0402215 0.0362695 0)
(-0.0448616 0.0370712 0)
(-0.0495548 0.0376141 0)
(-0.0542741 0.0379055 0)
(-0.0589931 0.0379521 0)
(-0.0636864 0.03776 0)
(-0.0683287 0.0373341 0)
(-0.0728955 0.0366786 0)
(-0.0773624 0.0357971 0)
(-0.0817053 0.0346925 0)
(-0.0859004 0.0333675 0)
(-0.0899239 0.0318247 0)
(-0.0937525 0.0300672 0)
(-0.0973629 0.0280987 0)
(-0.100732 0.0259238 0)
(-0.103839 0.0235485 0)
(-0.10666 0.0209802 0)
(-0.109175 0.0182283 0)
(-0.111364 0.0153043 0)
(-0.113208 0.0122218 0)
(-0.11469 0.00899696 0)
(-0.115792 0.00564831 0)
(-0.116501 0.00219702 0)
(-0.116804 -0.0013332 0)
(-0.116692 -0.00491616 0)
(-0.116156 -0.00852331 0)
(-0.115192 -0.0121239 0)
(-0.113799 -0.0156853 0)
(-0.111977 -0.0191731 0)
(-0.109734 -0.0225518 0)
(-0.107076 -0.0257849 0)
(-0.104018 -0.0288359 0)
(-0.100577 -0.0316683 0)
(-0.096775 -0.0342464 0)
(-0.0926367 -0.0365362 0)
(-0.0881926 -0.0385059 0)
(-0.0834769 -0.0401264 0)
(-0.0785279 -0.0413727 0)
(-0.0733872 -0.0422237 0)
(-0.0680999 -0.0426635 0)
(-0.0627137 -0.042682 0)
(-0.0572786 -0.0422751 0)
(-0.0518458 -0.0414457 0)
(-0.0464675 -0.0402036 0)
(-0.0411955 -0.038566 0)
(-0.0360805 -0.0365577 0)
(-0.0311715 -0.034211 0)
(-0.0265143 -0.0315655 0)
(-0.0221512 -0.0286681 0)
(-0.0181198 -0.0255728 0)
(-0.0144525 -0.0223398 0)
(-0.0111756 -0.0190354 0)
(-0.00830916 -0.0157314 0)
(-0.00586637 -0.0125044 0)
(-0.00385379 -0.00943545 0)
(-0.0022702 -0.00660927 0)
(-0.00110588 -0.00411335 0)
(-0.000357804 -0.00203704 0)
(-4.44062e-05 -0.000474268 0)
(-0.000110657 0.00223357 0)
(-0.000737007 0.00668828 0)
(-0.00208823 0.0110372 0)
(-0.00402079 0.0152103 0)
(-0.00644975 0.0191562 0)
(-0.00932252 0.022836 0)
(-0.0125871 0.0262222 0)
(-0.0161938 0.0292965 0)
(-0.0200968 0.0320491 0)
(-0.0242538 0.034476 0)
(-0.0286258 0.0365784 0)
(-0.0331761 0.0383608 0)
(-0.0378707 0.0398301 0)
(-0.0426773 0.0409948 0)
(-0.0475655 0.0418637 0)
(-0.0525064 0.0424456 0)
(-0.0574722 0.0427491 0)
(-0.0624361 0.0427816 0)
(-0.0673719 0.0425498 0)
(-0.0722544 0.0420591 0)
(-0.0770583 0.0413141 0)
(-0.081759 0.0403187 0)
(-0.0863321 0.0390759 0)
(-0.0907533 0.0375888 0)