/*--------------------------------*- C++ -*----------------------------------*\
  =========                 |
  \\      /  F ield         | OpenFOAM: The Open Source CFD Toolbox
   \\    /   O peration     | Website:  https://openfoam.org
    \\  /    A nd           | Version:  dev
     \\/     M anipulation  |
\*---------------------------------------------------------------------------*/
FoamFile
{
    format      ascii;
    class       volScalarField;
    location    "28.35";
    object      Uy;
}
// * * * * * * * * * * * * * * * * * * * * * * * * * * * * * * * * * * * * * //

dimensions      [0 1 -1 0 0 0 0];

internalField   nonuniform List<scalar> 
5184
(
-1.27808e-05
-2.0927e-05
-1.72596e-05
-8.19852e-06
2.66854e-06
1.36163e-05
2.38431e-05
3.30436e-05
4.10994e-05
4.80165e-05
5.3856e-05
5.87026e-05
6.26489e-05
6.57866e-05
6.82007e-05
6.99661e-05
7.11468e-05
7.17952e-05
7.19525e-05
7.16483e-05
7.0902e-05
6.9724e-05
6.8117e-05
6.60781e-05
6.36002e-05
6.06735e-05
5.72877e-05
5.34329e-05
4.91022e-05
4.42924e-05
3.90061e-05
3.32527e-05
2.70492e-05
2.04217e-05
1.34057e-05
6.04698e-06
-1.59828e-06
-9.46367e-06
-1.74727e-05
-2.55397e-05
-3.35701e-05
-4.14624e-05
-4.91094e-05
-5.64001e-05
-6.3222e-05
-6.94633e-05
-7.50154e-05
-7.97751e-05
-8.36479e-05
-8.65497e-05
-8.84102e-05
-8.91741e-05
-8.88034e-05
-8.72785e-05
-8.45989e-05
-8.0784e-05
-7.58729e-05
-6.9924e-05
-6.30151e-05
-5.52421e-05
-4.67195e-05
-3.75801e-05
-2.79788e-05
-1.80978e-05
-8.16224e-06
1.53255e-06
1.05629e-05
1.8292e-05
2.37082e-05
2.51207e-05
1.98443e-05
6.24337e-06
-4.59875e-05
-6.57703e-05
-4.058e-05
7.62545e-06
6.5669e-05
0.000125974
0.000184268
0.000238303
0.000286941
0.000329741
0.000366662
0.000397895
0.000423751
0.000444597
0.00046081
0.000472749
0.000480736
0.000485046
0.000485904
0.00048348
0.000477896
0.000469228
0.000457515
0.000442766
0.000424969
0.000404101
0.000380138
0.000353062
0.000322873
0.0002896
0.000253302
0.000214082
0.000172089
0.000127527
8.06557e-05
3.1793e-05
-1.86817e-05
-7.03306e-05
-0.000122659
-0.000175119
-0.000227117
-0.000278022
-0.000327171
-0.000373887
-0.000417484
-0.000457289
-0.000492648
-0.000522948
-0.000547626
-0.000566188
-0.000578222
-0.000583409
-0.000581532
-0.000572489
-0.000556296
-0.00053309
-0.000503135
-0.000466821
-0.000424662
-0.000377298
-0.000325497
-0.000270165
-0.000212361
-0.000153338
-9.4606e-05
-3.80432e-05
1.38916e-05
5.78935e-05
8.93715e-05
0.000101831
8.65012e-05
3.64839e-05
-8.13422e-05
-9.50577e-05
-1.91491e-05
0.00010591
0.000254615
0.000410524
0.000563331
0.0007069
0.000837784
0.000954278
0.00105579
0.0011424
0.00121464
0.00127323
0.00131899
0.00135275
0.00137526
0.00138721
0.00138917
0.00138156
0.00136473
0.00133889
0.00130418
0.00126065
0.00120831
0.00114717
0.0010772
0.000998418
0.000910894
0.000814763
0.000710257
0.000597722
0.00047763
0.000350597
0.000217387
7.89248e-05
-6.37111e-05
-0.000209285
-0.000356415
-0.000503583
-0.000649154
-0.000791397
-0.000928508
-0.00105865
-0.00117996
-0.00129063
-0.00138891
-0.00147314
-0.00154183
-0.00159366
-0.00162754
-0.00164263
-0.00163835
-0.00161446
-0.00157103
-0.00150845
-0.00142748
-0.00132921
-0.00121509
-0.00108692
-0.000946883
-0.00079754
-0.000641898
-0.00048349
-0.000326512
-0.000176053
-3.8427e-05
7.8351e-05
0.000163986
0.000205315
0.000186229
9.03764e-05
-9.77369e-05
-7.31413e-05
8.47722e-05
0.000318318
0.000590003
0.000874205
0.0011539
0.0014183
0.00166094
0.00187829
0.00206879
0.00223218
0.00236904
0.00248039
0.00256751
0.00263173
0.00267432
0.00269645
0.00269909
0.00268303
0.00264887
0.00259703
0.00252779
0.0024413
0.00233764
0.00221686
0.00207902
0.00192421
0.00175265
0.00156469
0.00136086
0.00114188
0.000908737
0.000662663
0.000405173
0.000138068
-0.000136564
-0.000416352
-0.000698664
-0.000980621
-0.00125914
-0.00153096
-0.00179271
-0.00204095
-0.00227223
-0.00248317
-0.00267051
-0.00283121
-0.00296249
-0.00306193
-0.00312751
-0.00315769
-0.00315144
-0.00310831
-0.00302846
-0.00291266
-0.00276235
-0.00257963
-0.00236725
-0.00212867
-0.00186803
-0.00159024
-0.00130099
-0.00100697
-0.00071599
-0.000437316
-0.000182095
3.60685e-05
0.000200459
0.000290688
0.000282463
0.000147247
-8.43853e-05
2.09115e-05
0.000295425
0.000667935
0.00109064
0.00152964
0.0019615
0.00237074
0.00274765
0.00308659
0.0033848
0.00364145
0.00385699
0.00403269
0.00417018
0.0042713
0.00433783
0.00437143
0.00437351
0.00434524
0.00428755
0.00420108
0.00408629
0.00394348
0.00377285
0.00357454
0.00334875
0.00309575
0.00281598
0.00251011
0.00217908
0.00182416
0.00144701
0.00104967
0.000634627
0.000204797
-0.00023646
-0.000685358
-0.00113771
-0.00158896
-0.00203424
-0.00246844
-0.00288626
-0.00328232
-0.00365125
-0.00398776
-0.00428681
-0.00454365
-0.00475398
-0.00491403
-0.00502069
-0.00507156
-0.00506507
-0.00500054
-0.00487823
-0.00469939
-0.0044663
-0.00418229
-0.00385171
-0.00348005
-0.00307387
-0.00264089
-0.00219013
-0.00173198
-0.00127849
-0.000843704
-0.000444112
-9.92703e-05
0.000167489
0.000328436
0.000350843
0.00019408
-3.74987e-05
0.000197373
0.000626839
0.00117017
0.00177143
0.00238977
0.00299613
0.00357073
0.00410071
0.00457832
0.00499948
0.0053627
0.00566823
0.00591742
0.00611226
0.00625502
0.00634797
0.00639325
0.00639272
0.00634795
0.00626018
0.00613034
0.00595909
0.00574692
0.00549416
0.00520115
0.00486826
0.00449602
0.0040852
0.00363688
0.00315256
0.00263419
0.00208424
0.00150578
0.000902426
0.00027845
-0.00036129
-0.00101134
-0.0016657
-0.00231787
-0.00296092
-0.00358757
-0.00419034
-0.00476161
-0.00529378
-0.00577941
-0.00621138
-0.00658302
-0.00688826
-0.0071218
-0.00727926
-0.00735727
-0.00735362
-0.00726735
-0.00709886
-0.00684992
-0.00652377
-0.00612514
-0.00566026
-0.0051369
-0.0045644
-0.00395374
-0.00331762
-0.00267064
-0.00202951
-0.00141342
-0.000844511
-0.000348455
4.47747e-05
0.000300242
0.000377142
0.000224439
4.4121e-05
0.000461249
0.00108693
0.00183442
0.00264189
0.0034631
0.00426442
0.00502241
0.00572146
0.0063519
0.00690839
0.00738879
0.00779309
0.00812275
0.00838001
0.00856754
0.00868809
0.00874424
0.00873831
0.00867226
0.00854763
0.00836566
0.00812725
0.00783307
0.00748369
0.00707964
0.00662156
0.0061103
0.00554704
0.00493339
0.00427151
0.00356417
0.00281481
0.00202764
0.00120765
0.00036061
-0.000506912
-0.00138758
-0.00227336
-0.00315557
-0.00402496
-0.00487189
-0.00568641
-0.00645841
-0.00717784
-0.00783487
-0.00842006
-0.00892458
-0.00934042
-0.00966056
-0.00987918
-0.00999183
-0.00999555
-0.00988907
-0.00967288
-0.00934931
-0.00892266
-0.00839918
-0.00778712
-0.00709682
-0.00634063
-0.00553309
-0.00469092
-0.00383321
-0.00298166
-0.00216086
-0.00139872
-0.000727097
-0.000182473
0.000193351
0.000352262
0.000234893
0.00016047
0.000814406
0.00167947
0.0026657
0.0037074
0.00475456
0.00577013
0.00672786
0.00760994
0.0084051
0.00910702
0.00971297
0.0102228
0.0106379
0.010961
0.0111951
0.0113432
0.0114086
0.0113938
0.0113013
0.0111329
0.0108901
0.0105741
0.0101859
0.00972609
0.00919561
0.00859537
0.00792663
0.00719105
0.00639086
0.00552897
0.00460909
0.00363577
0.00261451
0.00155178
0.000455037
-0.000667276
-0.00180577
-0.00295018
-0.00408944
-0.00521182
-0.00630506
-0.00735654
-0.00835347
-0.00928313
-0.0101331
-0.0108913
-0.0115467
-0.012089
-0.0125095
-0.0128005
-0.0129566
-0.0129738
-0.0128504
-0.0125871
-0.0121868
-0.0116547
-0.0109988
-0.0102294
-0.00935963
-0.00840505
-0.00738393
-0.00631728
-0.0052289
-0.00414567
-0.00309771
-0.00211881
-0.00124693
-0.000524875
-8.39792e-07
0.000270636
0.000223735
0.000310914
0.00125676
0.00240543
0.00366585
0.00497028
0.00626638
0.00751492
0.00868769
0.00976537
0.0107356
0.0115913
0.0123295
0.0129499
0.0134541
0.0138451
0.0141262
0.0143011
0.0143732
0.0143457
0.0142213
0.0140021
0.0136901
0.0132865
0.0127926
0.0122095
0.0115381
0.0107799
0.00993654
0.00901021
0.00800386
0.00692125
0.00576709
0.00454716
0.00326836
0.00193876
0.000567637
-0.000834555
-0.00225623
-0.00368472
-0.00510645
-0.006507
-0.00787133
-0.00918397
-0.0104293
-0.0115916
-0.0126557
-0.0136069
-0.0144315
-0.0151169
-0.0156522
-0.0160282
-0.0162379
-0.0162763
-0.0161414
-0.0158336
-0.0153564
-0.0147161
-0.0139224
-0.0129878
-0.0119281
-0.0107624
-0.00951273
-0.00820461
-0.00686673
-0.00553124
-0.00423391
-0.00301443
-0.0019168
-0.00098989
-0.000287851
0.000129158
0.000190317
0.000494548
0.00178706
0.00326393
0.00483451
0.0064305
0.00799862
0.00949853
0.010901
0.012186
0.0133405
0.0143572
0.015233
0.0159678
0.0165635
0.0170234
0.0173513
0.0175513
0.0176273
0.0175828
0.0174208
0.0171441
0.0167545
0.0162538
0.0156435
0.0149248
0.0140992
0.0131684
0.0121346
0.0110006
0.00977001
0.0084476
0.00703914
0.0055517
0.00399367
0.00237482
0.000706348
-0.000999185
-0.00272786
-0.00446453
-0.00619292
-0.00789581
-0.00955522
-0.0111527
-0.0126694
-0.0140869
-0.0153867
-0.0165512
-0.0175641
-0.0184102
-0.0190763
-0.0195512
-0.0198262
-0.0198955
-0.019756
-0.0194084
-0.0188562
-0.0181071
-0.0171721
-0.016066
-0.0148077
-0.0134194
-0.0119274
-0.0103616
-0.00875583
-0.00714758
-0.00557834
-0.0040937
-0.00274364
-0.0015829
-0.000671224
-7.37884e-05
0.000134556
0.000710339
0.00240341
0.00425288
0.0061697
0.00808627
0.00994951
0.011719
0.0133656
0.0148689
0.0162162
0.0174003
0.0184182
0.0192703
0.0199591
0.0204881
0.0208619
0.0210849
0.0211614
0.0210956
0.0208907
0.0205496
0.0200748
0.0194681
0.0187312
0.0178658
0.0168736
0.0157568
0.0145181
0.0131608
0.0116895
0.0101098
0.0084287
0.00665451
0.0047972
0.00286831
0.000881019
-0.00114992
-0.00320818
-0.00527601
-0.00733436
-0.00936308
-0.0113411
-0.0132468
-0.0150583
-0.0167535
-0.0183112
-0.0197104
-0.0209318
-0.0219575
-0.0227718
-0.0233612
-0.0237153
-0.0238268
-0.023692
-0.023311
-0.0226878
-0.0218308
-0.0207527
-0.0194706
-0.018006
-0.0163847
-0.0146372
-0.0127979
-0.0109058
-0.0090039
-0.00713941
-0.00536391
-0.0037333
-0.0023081
-0.0011534
-0.000339039
5.66203e-05
0.000957209
0.00310352
0.00536939
0.00766834
0.00993445
0.0121159
0.0141732
0.0160778
0.0178103
0.0193584
0.0207155
0.0218795
0.0228514
0.0236341
0.0242321
0.0246504
0.024894
0.0249678
0.0248762
0.024623
0.0242113
0.0236439
0.0229229
0.0220504
0.0210281
0.0198582
0.0185432
0.0170864
0.0154919
0.0137649
0.0119121
0.00994148
0.00786287
0.00568777
0.00342952
0.00110331
-0.00127387
-0.00368323
-0.00610435
-0.00851531
-0.0108929
-0.013213
-0.0154505
-0.0175803
-0.0195768
-0.0214153
-0.0230716
-0.0245232
-0.0257491
-0.0267307
-0.0274523
-0.0279012
-0.0280686
-0.0279496
-0.0275437
-0.0268553
-0.0258933
-0.0246719
-0.0232102
-0.0215328
-0.0196689
-0.017653
-0.0155244
-0.0133271
-0.0111098
-0.00892567
-0.00683219
-0.00489128
-0.00316922
-0.00173639
-0.000667158
-4.32722e-05
0.00123407
0.00388482
0.00661004
0.0093265
0.0119708
0.0144934
0.0168565
0.0190332
0.0210053
0.0227619
0.0242975
0.0256111
0.0267046
0.027582
0.0282485
0.0287097
0.0289715
0.0290392
0.0289177
0.0286112
0.0281233
0.0274567
0.026614
0.0255974
0.0244091
0.0230516
0.0215277
0.0198412
0.0179969
0.0160008
0.0138605
0.0115852
0.00918602
0.00667611
0.00407055
0.00138656
-0.00135659
-0.00413764
-0.00693347
-0.00971924
-0.0124686
-0.0151542
-0.0177475
-0.0202197
-0.0225418
-0.0246854
-0.0266229
-0.0283279
-0.0297764
-0.0309467
-0.0318201
-0.0323818
-0.0326208
-0.032531
-0.0321111
-0.0313651
-0.0303026
-0.0289391
-0.0272959
-0.0253999
-0.0232841
-0.0209871
-0.018553
-0.0160311
-0.0134758
-0.0109462
-0.008506
-0.00622326
-0.00417008
-0.00242226
-0.00105879
-0.000164988
0.00153982
0.00474463
0.00797102
0.0111397
0.0141905
0.0170767
0.0197634
0.0222259
0.024448
0.0264206
0.02814
0.0296066
0.0308235
0.0317961
0.0325304
0.0330332
0.0333108
0.0333693
0.0332142
0.0328499
0.0322804
0.0315089
0.030538
0.0293702
0.028008
0.0264541
0.0247119
0.0227855
0.0206804
0.0184033
0.0159628
0.0133692
0.0106349
0.00777457
0.0048051
0.00174569
-0.00138214
-0.00455466
-0.00774602
-0.0109284
-0.0140724
-0.0171471
-0.0201206
-0.0229603
-0.0256335
-0.0281079
-0.0303519
-0.0323357
-0.0340314
-0.0354138
-0.0364613
-0.0371561
-0.037485
-0.0374402
-0.0370191
-0.0362254
-0.0350689
-0.0335662
-0.0317402
-0.0296208
-0.0272444
-0.0246536
-0.0218974
-0.0190306
-0.0161133
-0.013211
-0.0103936
-0.00773554
-0.00531503
-0.00321351
-0.00151492
-0.000308564
0.00187336
0.00568011
0.00944821
0.0131028
0.0165877
0.0198599
0.0228877
0.0256494
0.0281317
0.0303278
0.0322362
0.033859
0.0352012
0.0362695
0.0370712
0.0376141
0.0379055
0.0379521
0.03776
0.0373341
0.0366786
0.0357971
0.0346925
0.0333675
0.0318247
0.0300672
0.0280987
0.0259238
0.0235485
0.0209802
0.0182283
0.0153043
0.0122218
0.00899696
0.00564831
0.00219702
-0.0013332
-0.00491616
-0.00852331
-0.0121239
-0.0156853
-0.0191731
-0.0225518
-0.0257849
-0.0288359
-0.0316683
-0.0342464
-0.0365362
-0.0385059
-0.0401264
-0.0413727
-0.0422237
-0.0426635
-0.042682
-0.0422751
-0.0414457
-0.0402036
-0.038566
-0.0365577
-0.034211
-0.0315655
-0.0286681
-0.0255728
-0.0223398
-0.0190354
-0.0157314
-0.0125044
-0.00943545
-0.00660927
-0.00411335
-0.00203704
-0.000474268
0.00223357
0.00668828
0.0110372
0.0152103
0.0191562
0.022836
0.0262222
0.0292965
0.0320491
0.034476
0.0365784
0.0383608
0.0398301
0.0409948
0.0418637
0.0424456
0.0427491
0.0427816
0.0425498
0.0420591
0.0413141
0.0403187
0.0390759
0.0375888
0.0358601
0.0338932
0.0316919
0.0292614
0.026608
0.02374
0.0206673
0.0174025
0.0139603
0.0103583
0.00661654
0.00275813
-0.00119115
-0.00520272
-0.00924537
-0.0132854
-0.0172869
-0.0212121
-0.0250217
-0.0286753
-0.0321321
-0.0353512
-0.0382927
-0.0409181
-0.0431911
-0.0450785
-0.046551
-0.0475841
-0.0481586
-0.0482616
-0.047887
-0.0470365
-0.0457194
-0.0439532
-0.0417643
-0.0391871
-0.0362647
-0.0330481
-0.0295961
-0.0259747
-0.0222566
-0.0185202
-0.0148491
-0.0113316
-0.00805914
-0.00512591
-0.00262729
-0.000662634
0.00261928
0.00776604
0.0127333
0.0174565
0.0218893
0.0259978
0.0297589
0.033159
0.0361917
0.0388568
0.0411584
0.0431038
0.0447023
0.0459642
0.0469003
0.0475207
0.0478351
0.0478518
0.0475782
0.0470204
0.0461833
0.045071
0.0436868
0.042034
0.0401154
0.0379346
0.0354958
0.0328042
0.0298667
0.026692
0.0232908
0.0196765
0.0158648
0.0118744
0.00772712
0.00344761
-0.0009363
-0.00539376
-0.00989096
-0.0143913
-0.0188558
-0.0232429
-0.0275097
-0.0316116
-0.0355034
-0.0391398
-0.042476
-0.0454688
-0.048077
-0.0502628
-0.0519921
-0.0532363
-0.0539724
-0.0541841
-0.0538629
-0.0530085
-0.0516294
-0.0497431
-0.0473769
-0.0445675
-0.0413609
-0.0378124
-0.0339858
-0.029953
-0.0257932
-0.0215919
-0.0174403
-0.013434
-0.00967228
-0.00625638
-0.00328856
-0.000874495
0.00302929
0.00891013
0.0145316
0.019835
0.0247796
0.029337
0.0334894
0.0372279
0.0405505
0.043461
0.0459671
0.048079
0.049809
0.0511695
0.0521731
0.0528318
0.0531564
0.0531563
0.0528397
0.0522133
0.0512823
0.0500513
0.0485238
0.046703
0.044592
0.0421945
0.0395148
0.0365584
0.0333324
0.0298459
0.0261102
0.0221393
0.01795
0.0135619
0.00899807
0.00428489
-0.000548027
-0.00546766
-0.0104377
-0.0154188
-0.0203687
-0.0252425
-0.0299932
-0.0345722
-0.0389297
-0.0430155
-0.0467798
-0.0501741
-0.0531521
-0.0556705
-0.0576904
-0.059178
-0.0601059
-0.060454
-0.0602105
-0.0593726
-0.0579472
-0.0559515
-0.0534134
-0.0503713
-0.0468743
-0.0429817
-0.0387623
-0.0342942
-0.0296634
-0.024963
-0.0202921
-0.0157546
-0.0114577
-0.00751111
-0.00402452
-0.001111
0.00346234
0.0101171
0.0164268
0.022339
0.0278193
0.0328451
0.0374044
0.0414936
0.0451157
0.0482788
0.0509946
0.0532769
0.0551407
0.0566013
0.0576734
0.0583707
0.0587054
0.0586883
0.0583282
0.0576325
0.0566071
0.0552567
0.0535849
0.0515953
0.0492909
0.0466754
0.0437532
0.0405299
0.0370128
0.0332112
0.029137
0.0248044
0.020231
0.0154374
0.0104478
0.00528988
-5.04461e-06
-0.00540196
-0.0108623
-0.0163439
-0.0218014
-0.0271865
-0.0324483
-0.0375339
-0.0423886
-0.0469574
-0.0511851
-0.0550175
-0.0584025
-0.061291
-0.0636383
-0.065405
-0.0665587
-0.0670744
-0.0669364
-0.0661387
-0.064686
-0.0625946
-0.0598923
-0.056619
-0.0528265
-0.0485779
-0.0439476
-0.0390196
-0.0338873
-0.0286518
-0.0234206
-0.0183066
-0.0134262
-0.00889769
-0.00483968
-0.00137361
0.00391711
0.0113834
0.0184134
0.0249616
0.031
0.0365128
0.041494
0.0459458
0.0498766
0.0532995
0.0562303
0.0586867
0.0606872
0.0622498
0.0633916
0.0641283
0.0644738
0.06444
0.0640369
0.0632723
0.0621529
0.0606834
0.0588679
0.0567098
0.0542124
0.0513792
0.0482145
0.0447241
0.0409151
0.0367971
0.032382
0.0276845
0.0227226
0.0175177
0.0120948
0.0064827
0.000714312
-0.00517364
-0.0111404
-0.0171413
-0.0231281
-0.0290489
-0.034849
-0.0404711
-0.0458557
-0.0509425
-0.0556706
-0.0599797
-0.0638115
-0.0671105
-0.0698255
-0.0719109
-0.073328
-0.0740466
-0.0740459
-0.0733159
-0.0718585
-0.069688
-0.066832
-0.0633311
-0.0592396
-0.0546245
-0.0495652
-0.0441524
-0.0384869
-0.0326784
-0.0268438
-0.0211054
-0.0155897
-0.010425
-0.00573942
-0.00166413
0.00439219
0.0127051
0.0204856
0.0276951
0.034313
0.0403302
0.0457475
0.0505733
0.0548219
0.0585115
0.0616626
0.0642973
0.0664374
0.0681042
0.0693175
0.070095
0.0704524
0.0704031
0.069958
0.0691259
0.0679137
0.0663268
0.0643693
0.0620446
0.059356
0.0563069
0.0529015
0.0491454
0.0450456
0.0406117
0.0358554
0.0307917
0.0254389
0.0198188
0.013957
0.00788331
0.00163175
-0.00475938
-0.0112474
-0.0177853
-0.024322
-0.0308023
-0.0371677
-0.0433563
-0.0493041
-0.0549448
-0.0602119
-0.0650385
-0.0693596
-0.0731125
-0.0762389
-0.0786861
-0.0804084
-0.0813692
-0.0815418
-0.0809113
-0.0794758
-0.0772468
-0.0742507
-0.0705287
-0.0661368
-0.0611458
-0.0556401
-0.0497173
-0.0434861
-0.0370653
-0.0305816
-0.0241682
-0.0179623
-0.0121032
-0.00673001
-0.00198472
0.00488609
0.0140782
0.022637
0.0305316
0.0377488
0.0442869
0.0501538
0.0553645
0.0599394
0.0639024
0.0672793
0.0700962
0.0723792
0.0741528
0.0754396
0.0762598
0.076631
0.0765679
0.0760828
0.0751852
0.0738827
0.072181
0.0700844
0.0675963
0.0647198
0.0614582
0.0578155
0.0537969
0.0494092
0.0446617
0.0395661
0.0341371
0.0283931
0.0223559
0.0160518
0.00951106
0.00276862
-0.00413594
-0.0111583
-0.0182493
-0.0253552
-0.0324179
-0.0393749
-0.0461601
-0.0527043
-0.0589358
-0.0647817
-0.0701684
-0.0750234
-0.0792765
-0.0828613
-0.0857172
-0.0877908
-0.0890376
-0.0894242
-0.0889297
-0.087547
-0.0852843
-0.0821657
-0.0782322
-0.0735412
-0.0681667
-0.0621984
-0.0557406
-0.0489104
-0.0418364
-0.034656
-0.0275139
-0.0205594
-0.0139439
-0.00781863
-0.00233784
0.00539722
0.0154984
0.0248612
0.0334627
0.0412975
0.0483718
0.0547008
0.0603066
0.0652162
0.0694592
0.0730669
0.0760703
0.0784996
0.0803828
0.0817456
0.0826107
0.0829979
0.0829235
0.082401
0.081441
0.0800516
0.0782387
0.076007
0.0733599
0.0703002
0.066831
0.062956
0.0586798
0.0540091
0.0489524
0.0435212
0.0377299
0.0315965
0.0251429
0.0183952
0.0113843
0.00414548
-0.00328058
-0.0108482
-0.0185066
-0.0261996
-0.0338659
-0.0414398
-0.0488508
-0.0560246
-0.0628839
-0.0693492
-0.0753399
-0.0807756
-0.0855778
-0.0896715
-0.092987
-0.0954619
-0.0970433
-0.0976895
-0.0973724
-0.0960788
-0.0938119
-0.0905929
-0.0864614
-0.0814757
-0.0757127
-0.0692671
-0.0622499
-0.0547871
-0.0470177
-0.0390907
-0.0311633
-0.0233981
-0.0159599
-0.00901333
-0.00272633
0.00592392
0.0169612
0.0271511
0.0364794
0.0449487
0.0525732
0.059376
0.0653865
0.0706384
0.0751678
0.0790114
0.0822055
0.0847844
0.0867802
0.0882217
0.0891346
0.0895405
0.0894578
0.0889013
0.0878824
0.0864101
0.0844908
0.0821291
0.0793284
0.0760916
0.0724211
0.0683203
0.0637933
0.058846
0.0534865
0.0477256
0.0415771
0.0350585
0.0281913
0.0210015
0.0135197
0.00578161
-0.00217154
-0.0102931
-0.0185307
-0.0268262
-0.0351158
-0.0433303
-0.051395
-0.0592308
-0.0667547
-0.0738805
-0.0805201
-0.0865849
-0.0919875
-0.0966433
-0.100473
-0.103404
-0.105373
-0.10633
-0.106237
-0.105074
-0.102838
-0.0995458
-0.0952345
-0.0899626
-0.0838091
-0.0768734
-0.0692736
-0.0611448
-0.0526367
-0.0439112
-0.035139
-0.0264971
-0.0181654
-0.0103231
-0.00315334
0.00646443
0.0184618
0.0294997
0.0395726
0.0486915
0.056879
0.0641662
0.0705901
0.0761916
0.0810133
0.0850977
0.0884864
0.0912185
0.09333
0.0948533
0.0958167
0.0962446
0.096157
0.0955701
0.0944968
0.0929465
0.0909261
0.0884405
0.085493
0.082086
0.078222
0.0739033
0.0691337
0.0639183
0.0582643
0.0521817
0.0456833
0.0387861
0.0315107
0.0238826
0.0159319
0.00769446
-0.000788537
-0.00946977
-0.0182958
-0.0272068
-0.0361367
-0.0450132
-0.0537578
-0.0622867
-0.070511
-0.078338
-0.0856718
-0.0924152
-0.0984714
-0.103745
-0.108147
-0.111593
-0.114008
-0.115332
-0.115516
-0.114532
-0.112367
-0.109035
-0.104567
-0.0990224
-0.0924803
-0.0850448
-0.0768408
-0.0680129
-0.0587225
-0.0491447
-0.0394652
-0.0298769
-0.0205758
-0.0117578
-0.0036224
0.00701689
0.0199952
0.0318993
0.0427325
0.0525144
0.0612763
0.0690575
0.0759028
0.0818606
0.08698
0.0913098
0.0948971
0.0977857
0.100016
0.101624
0.102641
0.103094
0.103006
0.102393
0.10127
0.0996467
0.0975314
0.0949287
0.0918419
0.0882731
0.0842243
0.0796972
0.0746948
0.0692213
0.0632829
0.0568885
0.05005
0.042783
0.0351074
0.0270476
0.0186331
0.00989909
0.000886617
-0.00835686
-0.0177773
-0.0273136
-0.0368978
-0.046455
-0.0559032
-0.065154
-0.0741131
-0.0826809
-0.0907539
-0.098226
-0.10499
-0.110941
-0.115975
-0.119999
-0.122924
-0.124676
-0.125197
-0.124445
-0.1224
-0.119067
-0.114473
-0.108674
-0.10175
-0.0938081
-0.0849809
-0.0754221
-0.0653052
-0.0548198
-0.0441677
-0.0335592
-0.023208
-0.0133281
-0.00413736
0.00757939
0.0215564
0.0343421
0.045949
0.0564056
0.0657519
0.0740355
0.0813094
0.0876293
0.0930514
0.0976309
0.10142
0.104469
0.106821
0.108517
0.109591
0.110073
0.109986
0.109352
0.108184
0.106495
0.104291
0.101579
0.0983609
0.0946395
0.0904157
0.0856909
0.0804669
0.0747469
0.0685359
0.0618417
0.0546748
0.0470495
0.0389843
0.0305024
0.0216321
0.0124076
0.00286945
-0.00693531
-0.0169524
-0.0271202
-0.0373692
-0.0476223
-0.0577945
-0.0677932
-0.0775189
-0.0868654
-0.0957215
-0.103972
-0.111499
-0.118186
-0.123918
-0.128586
-0.132088
-0.134337
-0.135259
-0.134801
-0.132931
-0.129644
-0.124961
-0.118932
-0.111638
-0.103189
-0.0937227
-0.0834028
-0.0724158
-0.0609663
-0.0492738
-0.0375672
-0.02608
-0.0150457
-0.00470242
0.00814994
0.0231399
0.03682
0.0492119
0.060353
0.0702921
0.0790854
0.0867941
0.0934813
0.0992105
0.104043
0.108038
0.111249
0.113726
0.115512
0.116646
0.11716
0.117081
0.116429
0.115222
0.113472
0.111187
0.108373
0.105033
0.101169
0.0967809
0.0918699
0.0864366
0.0804832
0.0740133
0.0670331
0.0595518
0.0515819
0.0431404
0.0342487
0.0249338
0.0152286
0.00517218
-0.00518898
-0.0158011
-0.0266022
-0.0375223
-0.0484824
-0.059395
-0.0701639
-0.0806847
-0.0908451
-0.100526
-0.109603
-0.117949
-0.125433
-0.131928
-0.137309
-0.141461
-0.144279
-0.145675
-0.14558
-0.143948
-0.140762
-0.136034
-0.129808
-0.122164
-0.113211
-0.103094
-0.0919858
-0.0800858
-0.0676152
-0.0548119
-0.0419254
-0.0292108
-0.016923
-0.00532213
0.00872649
0.0247404
0.0393248
0.0525105
0.0643441
0.0748829
0.084192
0.0923404
0.0993993
0.105439
0.110528
0.114731
0.118107
0.120711
0.122591
0.123787
0.124336
0.124267
0.123603
0.122362
0.120557
0.118198
0.115291
0.111838
0.107841
0.103301
0.0982162
0.0925871
0.0864146
0.0797008
0.0724503
0.0646705
0.0563721
0.0475701
0.0382842
0.0285392
0.0183663
0.00780312
-0.00310538
-0.0143063
-0.0257382
-0.0373307
-0.049004
-0.0606687
-0.0722256
-0.0835658
-0.0945714
-0.105116
-0.115067
-0.124284
-0.132626
-0.139951
-0.146119
-0.150997
-0.154463
-0.15641
-0.156753
-0.15543
-0.152409
-0.14769
-0.141309
-0.133341
-0.123895
-0.113121
-0.101201
-0.088347
-0.0747979
-0.0608116
-0.0466597
-0.0326208
-0.0189734
-0.00600135
0.00930698
0.0263522
0.041848
0.0558342
0.0683661
0.0795101
0.0893395
0.0979318
0.105366
0.111719
0.117067
0.12148
0.125023
0.127756
0.12973
0.130992
0.131579
0.131524
0.130851
0.129581
0.127728
0.125302
0.122309
0.118753
0.114634
0.109953
0.104708
0.0988974
0.0925211
0.0855798
0.0780762
0.0700158
0.0614073
0.0522634
0.0426014
0.0324442
0.0218206
0.010766
-0.000676268
-0.012455
-0.0245098
-0.036771
-0.0491583
-0.0615813
-0.0739383
-0.0861171
-0.0979945
-0.109438
-0.120304
-0.130444
-0.139704
-0.147926
-0.154955
-0.160638
-0.164835
-0.167419
-0.168285
-0.167351
-0.164567
-0.159921
-0.153435
-0.145178
-0.135259
-0.123828
-0.111076
-0.0972304
-0.0825462
-0.0673031
-0.0517969
-0.0363313
-0.0212109
-0.00674533
0.00988932
0.02797
0.0443813
0.0591721
0.0724065
0.0841593
0.0945123
0.103551
0.111363
0.118031
0.123639
0.128264
0.131975
0.134838
0.136909
0.138237
0.138864
0.138825
0.138148
0.136853
0.134957
0.132471
0.129401
0.125751
0.121521
0.116712
0.111319
0.105342
0.0987786
0.0916273
0.0838893
0.0755679
0.0666695
0.0572046
0.0471879
0.0366396
0.0255858
0.0140596
0.00210167
-0.0102388
-0.0229034
-0.0358235
-0.0489195
-0.0621006
-0.0752639
-0.0882941
-0.101064
-0.113435
-0.125255
-0.136367
-0.146601
-0.155787
-0.16375
-0.170321
-0.175336
-0.178648
-0.180127
-0.17967
-0.177208
-0.172707
-0.166179
-0.15768
-0.147314
-0.135234
-0.121638
-0.106766
-0.0908917
-0.0743173
-0.0573644
-0.0403646
-0.0236503
-0.00755961
0.0104714
0.0295882
0.0469164
0.0625137
0.0764525
0.0888161
0.0996946
0.109182
0.117371
0.124356
0.130225
0.135061
0.138941
0.141934
0.144102
0.145497
0.146166
0.146146
0.145466
0.144151
0.142217
0.139677
0.136538
0.132803
0.128473
0.123547
0.118021
0.111893
0.105159
0.0978156
0.089863
0.0813017
0.0721359
0.0623733
0.0520258
0.0411106
0.029651
0.017677
0.00522627
-0.00765476
-0.0209101
-0.0344731
-0.048266
-0.0621982
-0.0761665
-0.0900542
-0.10373
-0.117051
-0.129858
-0.141983
-0.153245
-0.163458
-0.17243
-0.179971
-0.185895
-0.19003
-0.192221
-0.19234
-0.190292
-0.186023
-0.179525
-0.170841
-0.160067
-0.147356
-0.13291
-0.116983
-0.0998654
-0.081885
-0.0633906
-0.0447438
-0.0263074
-0.00845009
0.0110513
0.0312014
0.0494452
0.0658484
0.0804917
0.0934664
0.104871
0.114806
0.123374
0.130675
0.136804
0.141851
0.145898
0.14902
0.151284
0.152747
0.153458
0.153457
0.152778
0.151445
0.149478
0.146889
0.143687
0.139876
0.135456
0.130425
0.12478
0.118516
0.111628
0.104113
0.0959662
0.0871875
0.0777782
0.0677431
0.0570912
0.0458366
0.0339991
0.0216053
0.00868939
-0.00470555
-0.0185267
-0.0327104
-0.0471811
-0.06185
-0.0766145
-0.0913572
-0.105945
-0.120231
-0.134049
-0.147223
-0.159561
-0.170861
-0.180913
-0.189507
-0.196432
-0.20149
-0.204498
-0.205299
-0.20377
-0.199829
-0.193447
-0.184648
-0.173518
-0.160204
-0.144912
-0.127906
-0.109497
-0.0900369
-0.0699042
-0.0494925
-0.0291982
-0.00942296
0.011627
0.0328045
0.0519598
0.0691663
0.0845122
0.0980965
0.110025
0.120407
0.129352
0.136967
0.143354
0.14861
0.152822
0.156072
0.15843
0.159959
0.160711
0.16073
0.160051
0.158703
0.156705
0.154072
0.150814
0.146934
0.142433
0.13731
0.131558
0.125174
0.118151
0.110482
0.102163
0.0931904
0.0835629
0.0732825
0.0623551
0.0507912
0.0386071
0.0258254
0.0124765
-0.00140041
-0.0157566
-0.0305319
-0.0456541
-0.0610372
-0.0765805
-0.0921673
-0.107664
-0.12292
-0.137766
-0.152017
-0.165471
-0.177911
-0.189112
-0.198839
-0.206858
-0.212942
-0.216877
-0.218474
-0.217578
-0.214076
-0.207909
-0.19908
-0.187658
-0.173781
-0.157657
-0.139558
-0.119815
-0.0988031
-0.0769337
-0.0546351
-0.0323396
-0.0104847
0.0121968
0.0343928
0.0544529
0.0724577
0.0885024
0.102693
0.115143
0.12597
0.135288
0.143214
0.149856
0.155316
0.15969
0.163064
0.165513
0.167104
0.167895
0.167932
0.167253
0.16589
0.163864
0.161191
0.157881
0.15394
0.149367
0.144161
0.138316
0.131827
0.124685
0.116883
0.108413
0.0992707
0.0894516
0.0789546
0.0677824
0.055942
0.0434455
0.0303118
0.0165666
0.0022447
-0.0126096
-0.0279409
-0.043681
-0.0597477
-0.0760436
-0.092454
-0.108846
-0.125068
-0.140948
-0.156295
-0.170896
-0.184523
-0.196933
-0.207869
-0.217074
-0.224288
-0.229265
-0.23178
-0.231641
-0.228699
-0.222861
-0.214102
-0.202467
-0.188083
-0.171154
-0.151958
-0.130843
-0.108212
-0.0845076
-0.0601962
-0.0357489
-0.0116422
0.0127588
0.0359617
0.0569178
0.075714
0.0924518
0.107244
0.120211
0.131477
0.141164
0.149396
0.156287
0.161947
0.166477
0.169969
0.172504
0.174154
0.174979
0.175031
0.174351
0.172972
0.170918
0.168207
0.164849
0.160852
0.156215
0.150936
0.145011
0.13843
0.131186
0.12327
0.114672
0.105385
0.095401
0.0847174
0.0733329
0.0612508
0.0484793
0.0350325
0.0209318
0.00620686
-0.00910322
-0.0249481
-0.0412649
-0.0579764
-0.0749894
-0.0921929
-0.109457
-0.12663
-0.143538
-0.159987
-0.175757
-0.190607
-0.204279
-0.216496
-0.226972
-0.23542
-0.241557
-0.245118
-0.245869
-0.243621
-0.238241
-0.229667
-0.217917
-0.203097
-0.185403
-0.165118
-0.142605
-0.118291
-0.0926538
-0.0662004
-0.0394438
-0.0129026
0.0133118
0.0375075
0.0593487
0.0789275
0.0963509
0.111738
0.125216
0.136914
0.146964
0.155494
0.162628
0.16848
0.173159
0.176762
0.179376
0.181077
0.181932
0.181993
0.181308
0.17991
0.177827
0.175078
0.171676
0.167627
0.162933
0.15759
0.151594
0.144937
0.137607
0.129596
0.120892
0.111484
0.101364
0.0905243
0.0789613
0.0666743
0.0536671
0.0399495
0.0255378
0.0104562
-0.00526187
-0.0215719
-0.0384171
-0.0557262
-0.0734117
-0.0913678
-0.109468
-0.127565
-0.145485
-0.16303
-0.179977
-0.196076
-0.211052
-0.224611
-0.236442
-0.246223
-0.253637
-0.258375
-0.260159
-0.258751
-0.253971
-0.245714
-0.233964
-0.218798
-0.200398
-0.179046
-0.155117
-0.129063
-0.101399
-0.0726723
-0.0434424
-0.014273
0.0138545
0.0390271
0.0617407
0.0820916
0.100192
0.116165
0.130145
0.142268
0.152672
0.161492
0.168858
0.174893
0.179711
0.183416
0.1861
0.187844
0.18872
0.188784
0.188087
0.186667
0.184552
0.181765
0.178318
0.17422
0.169473
0.164075
0.158019
0.151297
0.143898
0.13581
0.12702
0.117517
0.107289
0.0963246
0.0846178
0.0721639
0.0589626
0.0450189
0.0303438
0.0149558
-0.00111752
-0.0178384
-0.0351568
-0.0530085
-0.0713129
-0.0899707
-0.108862
-0.127842
-0.146743
-0.165366
-0.183485
-0.200843
-0.217154
-0.232106
-0.245363
-0.256573
-0.265378
-0.271428
-0.274392
-0.27398
-0.269957
-0.262169
-0.250552
-0.23515
-0.216121
-0.193741
-0.168392
-0.140551
-0.110768
-0.0796359
-0.0477627
-0.0157612
0.014386
0.0405182
0.0640902
0.0852014
0.103967
0.120517
0.134989
0.147526
0.158273
0.167372
0.174959
0.181165
0.18611
0.189905
0.192647
0.194423
0.195309
0.195368
0.194652
0.193202
0.191051
0.188222
0.184731
0.180585
0.175789
0.170341
0.164234
0.157459
0.150005
0.141858
0.133005
0.12343
0.113121
0.102064
0.0902487
0.077667
0.0643145
0.0501912
0.0353031
0.0196626
0.00329076
-0.0137816
-0.0315118
-0.0498437