/*--------------------------------*- C++ -*----------------------------------*\
  =========                 |
  \\      /  F ield         | OpenFOAM: The Open Source CFD Toolbox
   \\    /   O peration     | Website:  https://openfoam.org
    \\  /    A nd           | Version:  dev
     \\/     M anipulation  |
\*---------------------------------------------------------------------------*/
FoamFile
{
    format      ascii;
    class       volVectorField;
    location    "40.05";
    object      U;
}
// * * * * * * * * * * * * * * * * * * * * * * * * * * * * * * * * * * * * * //

dimensions      [0 1 -1 0 0 0 0];

internalField   nonuniform List<vector> 
5184
(
(1.23278e-05 -1.27129e-05 0)
(4.51802e-05 -2.0896e-05 0)
(8.03614e-05 -1.72548e-05 0)
(9.60352e-05 -8.20105e-06 0)
(8.22145e-05 2.66689e-06 0)
(3.65182e-05 1.36182e-05 0)
(-4.05069e-05 2.38485e-05 0)
(-0.000146842 3.30534e-05 0)
(-0.000279693 4.11131e-05 0)
(-0.000436002 4.80333e-05 0)
(-0.000612648 5.38757e-05 0)
(-0.000806596 5.87251e-05 0)
(-0.00101498 6.26741e-05 0)
(-0.00123513 6.58138e-05 0)
(-0.00146458 6.82291e-05 0)
(-0.00170109 6.99955e-05 0)
(-0.00194257 7.11771e-05 0)
(-0.00218711 7.18264e-05 0)
(-0.00243293 7.19844e-05 0)
(-0.00267834 7.16804e-05 0)
(-0.00292173 7.0934e-05 0)
(-0.00316155 6.97557e-05 0)
(-0.00339627 6.81482e-05 0)
(-0.00362435 6.61087e-05 0)
(-0.00384427 6.36299e-05 0)
(-0.0040545 6.0702e-05 0)
(-0.00425347 5.73146e-05 0)
(-0.00443961 5.34579e-05 0)
(-0.00461134 4.9125e-05 0)
(-0.00476708 4.43128e-05 0)
(-0.00490528 3.90239e-05 0)
(-0.0050244 3.32674e-05 0)
(-0.00512299 2.70606e-05 0)
(-0.00519967 2.04295e-05 0)
(-0.00525318 1.34097e-05 0)
(-0.00528239 6.04715e-06 0)
(-0.00528638 -1.60218e-06 0)
(-0.0052644 -9.47176e-06 0)
(-0.00521597 -1.7485e-05 0)
(-0.00514084 -2.5556e-05 0)
(-0.00503909 -3.35904e-05 0)
(-0.00491109 -4.14865e-05 0)
(-0.00475754 -4.91371e-05 0)
(-0.0045795 -5.64312e-05 0)
(-0.00437837 -6.32562e-05 0)
(-0.00415591 -6.95e-05 0)
(-0.00391421 -7.50539e-05 0)
(-0.00365571 -7.98149e-05 0)
(-0.00338312 -8.36884e-05 0)
(-0.00309946 -8.65907e-05 0)
(-0.00280797 -8.8451e-05 0)
(-0.00251207 -8.92143e-05 0)
(-0.00221532 -8.88424e-05 0)
(-0.0019214 -8.73154e-05 0)
(-0.00163397 -8.4633e-05 0)
(-0.00135667 -8.08146e-05 0)
(-0.00109305 -7.58996e-05 0)
(-0.000846468 -6.99467e-05 0)
(-0.00062008 -6.30336e-05 0)
(-0.000416736 -5.52565e-05 0)
(-0.000238933 -4.67293e-05 0)
(-8.87497e-05 -3.75852e-05 0)
(3.22259e-05 -2.79792e-05 0)
(0.00012298 -1.80938e-05 0)
(0.000183181 -8.15451e-06 0)
(0.000213332 1.54401e-06 0)
(0.000215021 1.05774e-05 0)
(0.000191301 1.83087e-05 0)
(0.000147204 2.37256e-05 0)
(9.08253e-05 2.51359e-05 0)
(3.66369e-05 1.98535e-05 0)
(6.22734e-06 6.24401e-06 0)
(2.08534e-05 -4.59002e-05 0)
(6.56546e-05 -6.57374e-05 0)
(9.47792e-05 -4.05835e-05 0)
(7.28959e-05 7.61892e-06 0)
(-1.88405e-05 6.56777e-05 0)
(-0.000187248 0.000126006 0)
(-0.000432911 0.000184324 0)
(-0.000752612 0.000238384 0)
(-0.00114081 0.000287047 0)
(-0.00159071 0.000329868 0)
(-0.00209498 0.000366809 0)
(-0.00264615 0.000398059 0)
(-0.00323692 0.000423929 0)
(-0.0038603 0.000444787 0)
(-0.00450968 0.00046101 0)
(-0.00517886 0.000472957 0)
(-0.00586204 0.00048095 0)
(-0.00655376 0.000485265 0)
(-0.00724891 0.000486125 0)
(-0.00794258 0.000483702 0)
(-0.00863008 0.000478116 0)
(-0.00930686 0.000469446 0)
(-0.00996843 0.000457728 0)
(-0.0106104 0.000442973 0)
(-0.0112283 0.000425168 0)
(-0.0118178 0.00040429 0)
(-0.0123744 0.000380315 0)
(-0.0128937 0.000353225 0)
(-0.0133714 0.000323021 0)
(-0.0138031 0.00028973 0)
(-0.0141846 0.000253413 0)
(-0.0145117 0.000214172 0)
(-0.0147806 0.000172156 0)
(-0.0149876 0.00012757 0)
(-0.0151295 8.06736e-05 0)
(-0.0152034 3.1785e-05 0)
(-0.0152069 -1.87166e-05 0)
(-0.0151383 -7.03925e-05 0)
(-0.0149964 -0.000122748 0)
(-0.014781 -0.000175234 0)
(-0.0144922 -0.000227258 0)
(-0.0141315 -0.000278187 0)
(-0.0137009 -0.000327359 0)
(-0.0132034 -0.000374096 0)
(-0.0126431 -0.000417712 0)
(-0.0120247 -0.000457532 0)
(-0.011354 -0.000492903 0)
(-0.0106376 -0.000523212 0)
(-0.00988301 -0.000547896 0)
(-0.00909822 -0.00056646 0)
(-0.00829196 -0.000578493 0)
(-0.00747342 -0.000583675 0)
(-0.00665213 -0.000581789 0)
(-0.00583783 -0.000572733 0)
(-0.00504031 -0.000556523 0)
(-0.00426923 -0.000533298 0)
(-0.00353399 -0.000503321 0)
(-0.0028435 -0.000466982 0)
(-0.00220605 -0.000424797 0)
(-0.00162911 -0.000377406 0)
(-0.00111916 -0.000325577 0)
(-0.000681509 -0.000270216 0)
(-0.00032006 -0.000212385 0)
(-3.70991e-05 -0.000153335 0)
(0.000167008 -9.4579e-05 0)
(0.000294186 -3.79941e-05 0)
(0.000349185 1.39572e-05 0)
(0.000340282 5.79696e-05 0)
(0.000279974 8.94497e-05 0)
(0.00018612 0.0001019 0)
(8.63965e-05 8.65484e-05 0)
(1.96851e-05 3.64968e-05 0)
(1.76448e-05 -8.134e-05 0)
(4.13629e-05 -9.5085e-05 0)
(1.96559e-05 -1.91775e-05 0)
(-8.39374e-05 0.000105912 0)
(-0.000290211 0.000254669 0)
(-0.000607917 0.000410643 0)
(-0.00103832 0.000563519 0)
(-0.0015776 0.000707157 0)
(-0.0022186 0.000838107 0)
(-0.00295212 0.00095466 0)
(-0.00376789 0.00105622 0)
(-0.0046552 0.00114289 0)
(-0.00560331 0.00121517 0)
(-0.00660176 0.00127379 0)
(-0.00764049 0.00131958 0)
(-0.00870995 0.00135335 0)
(-0.00980104 0.00137588 0)
(-0.0109052 0.00138785 0)
(-0.0120141 0.00138981 0)
(-0.01312 0.0013822 0)
(-0.0142153 0.00136537 0)
(-0.0152927 0.00133952 0)
(-0.0163448 0.00130479 0)
(-0.0173645 0.00126124 0)
(-0.0183448 0.00120888 0)
(-0.0192786 0.0011477 0)
(-0.020159 0.0010777 0)
(-0.0209788 0.000998877 0)
(-0.0217313 0.000911306 0)
(-0.0224096 0.000815124 0)
(-0.0230073 0.000710562 0)
(-0.0235179 0.000597966 0)
(-0.0239356 0.000477809 0)
(-0.024255 0.000350707 0)
(-0.024471 0.000217426 0)
(-0.0245795 7.88889e-05 0)
(-0.0245771 -6.38225e-05 0)
(-0.0244613 -0.000209472 0)
(-0.0242306 -0.000356678 0)
(-0.0238845 -0.00050392 0)
(-0.0234241 -0.000649562 0)
(-0.0228514 -0.000791873 0)
(-0.0221699 -0.000929047 0)
(-0.0213844 -0.00105924 0)
(-0.0205012 -0.00118061 0)
(-0.0195279 -0.00129132 0)
(-0.0184734 -0.00138963 0)
(-0.017348 -0.00147389 0)
(-0.0161631 -0.0015426 0)
(-0.0149311 -0.00159443 0)
(-0.0136652 -0.00162831 0)
(-0.0123796 -0.00164338 0)
(-0.0110889 -0.00163908 0)
(-0.00980772 -0.00161516 0)
(-0.00855111 -0.00157168 0)
(-0.00733373 -0.00150905 0)
(-0.00616985 -0.00142802 0)
(-0.00507298 -0.00132968 0)
(-0.00405568 -0.00121549 0)
(-0.00312923 -0.00108725 0)
(-0.00230335 -0.000947132 0)
(-0.00158596 -0.000797712 0)
(-0.000982772 -0.000641996 0)
(-0.00049703 -0.000483516 0)
(-0.00012904 -0.000326472 0)
(0.00012427 -0.000175956 0)
(0.00027 -3.82849e-05 0)
(0.000320005 7.85218e-05 0)
(0.000291424 0.000164165 0)
(0.000207494 0.000205476 0)
(0.000102492 0.000186345 0)
(2.4985e-05 9.0419e-05 0)
(8.84658e-06 -9.7788e-05 0)
(-6.98842e-06 -7.32133e-05 0)
(-0.000107553 8.4738e-05 0)
(-0.000322354 0.000318365 0)
(-0.000669644 0.000590158 0)
(-0.00115783 0.000874485 0)
(-0.00178767 0.00115431 0)
(-0.00255439 0.00141884 0)
(-0.00344944 0.00166161 0)
(-0.00446179 0.00187906 0)
(-0.00557897 0.00206966 0)
(-0.00678775 0.00223315 0)
(-0.00807474 0.00237008 0)
(-0.00942666 0.00248149 0)
(-0.0108306 0.00256866 0)
(-0.0122742 0.00263292 0)
(-0.0137454 0.00267555 0)
(-0.015233 0.0026977 0)
(-0.0167258 0.00270034 0)
(-0.0182135 0.00268428 0)
(-0.0196857 0.00265011 0)
(-0.0211325 0.00259825 0)
(-0.0225442 0.00252898 0)
(-0.023911 0.00244245 0)
(-0.0252235 0.00233874 0)
(-0.0264722 0.0022179 0)
(-0.0276476 0.00207998 0)
(-0.0287406 0.00192509 0)
(-0.0297421 0.00175344 0)
(-0.030643 0.00156538 0)
(-0.0314349 0.00136143 0)
(-0.0321096 0.00114234 0)
(-0.0326594 0.000909065 0)
(-0.0330773 0.000662857 0)
(-0.0333571 0.000405228 0)
(-0.0334936 0.00013798 0)
(-0.0334824 -0.000136797 0)
(-0.0333206 -0.000416731 0)
(-0.0330065 -0.000699187 0)
(-0.0325398 -0.000981286 0)
(-0.0319221 -0.00125994 0)
(-0.0311562 -0.00153189 0)
(-0.0302469 -0.00179376 0)
(-0.0292007 -0.00204211 0)
(-0.0280258 -0.00227348 0)
(-0.0267324 -0.0024845 0)
(-0.0253321 -0.0026719 0)
(-0.0238382 -0.00283265 0)
(-0.0222656 -0.00296396 0)
(-0.0206303 -0.00306342 0)
(-0.0189497 -0.00312899 0)
(-0.0172418 -0.00315914 0)
(-0.0155255 -0.00315284 0)
(-0.0138198 -0.00310965 0)
(-0.0121441 -0.00302972 0)
(-0.0105173 -0.00291382 0)
(-0.00895765 -0.00276341 0)
(-0.00748271 -0.00258056 0)
(-0.00610857 -0.00236805 0)
(-0.00484975 -0.00212933 0)
(-0.00371873 -0.00186855 0)
(-0.00272562 -0.00159061 0)
(-0.00187777 -0.00130123 0)
(-0.00117928 -0.00100707 0)
(-0.000630638 -0.000715967 0)
(-0.000228127 -0.000437188 0)
(3.67322e-05 -0.000181882 0)
(0.000177843 3.63387e-05 0)
(0.000214939 0.000200751 0)
(0.000174198 0.000290958 0)
(9.30737e-05 0.000282665 0)
(2.40371e-05 0.00014733 0)
(-2.12067e-06 -8.44591e-05 0)
(-6.7285e-05 2.08318e-05 0)
(-0.000264121 0.00029543 0)
(-0.000609831 0.000668084 0)
(-0.00111692 0.00109097 0)
(-0.0017916 0.00153017 0)
(-0.00263287 0.00196224 0)
(-0.00363438 0.00237168 0)
(-0.00478598 0.00274879 0)
(-0.00607496 0.00308791 0)
(-0.00748696 0.00338627 0)
(-0.00900674 0.00364305 0)
(-0.0106187 0.00385872 0)
(-0.0123072 0.00403451 0)
(-0.0140571 0.00417209 0)
(-0.0158535 0.00427327 0)
(-0.0176819 0.00433984 0)
(-0.0195287 0.00437346 0)
(-0.0213803 0.00437555 0)
(-0.0232239 0.00434729 0)
(-0.0250468 0.00428956 0)
(-0.0268368 0.00420306 0)
(-0.0285817 0.00408822 0)
(-0.0302695 0.00394534 0)
(-0.0318887 0.00377462 0)
(-0.0334274 0.00357621 0)
(-0.0348741 0.00335029 0)
(-0.0362177 0.00309715 0)
(-0.0374469 0.00281723 0)
(-0.0385511 0.00251119 0)
(-0.0395198 0.00217998 0)
(-0.0403433 0.00182487 0)
(-0.0410125 0.00144751 0)
(-0.041519 0.00104996 0)
(-0.0418556 0.000634689 0)
(-0.0420161 0.00020463 0)
(-0.0419956 -0.00023686 0)
(-0.0417908 -0.000685991 0)
(-0.0413999 -0.00113857 0)
(-0.0408229 -0.00159004 0)
(-0.0400617 -0.00203554 0)
(-0.03912 -0.00246995 0)
(-0.0380038 -0.00288796 0)
(-0.0367209 -0.00328419 0)
(-0.0352816 -0.00365327 0)
(-0.0336978 -0.00398991 0)
(-0.0319836 -0.00428906 0)
(-0.0301552 -0.00454598 0)
(-0.0282301 -0.00475635 0)
(-0.0262276 -0.00491643 0)
(-0.0241684 -0.00502307 0)
(-0.0220741 -0.0050739 0)
(-0.0199671 -0.00506734 0)
(-0.0178702 -0.00500271 0)
(-0.0158065 -0.00488027 0)
(-0.0137984 -0.00470128 0)
(-0.0118678 -0.00446803 0)
(-0.0100357 -0.00418382 0)
(-0.00832117 -0.00385304 0)
(-0.00674166 -0.00348116 0)
(-0.00531208 -0.00307475 0)
(-0.00404457 -0.00264155 0)
(-0.00294798 -0.00219057 0)
(-0.00202747 -0.00173221 0)
(-0.00128397 -0.00127853 0)
(-0.000713716 -0.000843578 0)
(-0.000307706 -0.000443852 0)
(-5.11651e-05 -9.89176e-05 0)
(7.6794e-05 0.000167884 0)
(0.000103687 0.000328815 0)
(6.75491e-05 0.000351134 0)
(1.9675e-05 0.000194207 0)
(-1.36942e-05 -3.75733e-05 0)
(-0.000132847 0.000197329 0)
(-0.000435886 0.000626942 0)
(-0.000924791 0.0011705 0)
(-0.0016042 0.00177203 0)
(-0.00247666 0.00239066 0)
(-0.00353836 0.00299731 0)
(-0.00478057 0.0035722 0)
(-0.00619122 0.00410245 0)
(-0.00775577 0.00458031 0)
(-0.00945809 0.0050017 0)
(-0.0112811 0.00536511 0)
(-0.0132073 0.0056708 0)
(-0.0152192 0.00592013 0)
(-0.0172995 0.00611509 0)
(-0.0194313 0.00625793 0)
(-0.0215981 0.00635094 0)
(-0.0237839 0.00639625 0)
(-0.0259732 0.00639573 0)
(-0.0281511 0.00635095 0)
(-0.0303026 0.00626314 0)
(-0.0324135 0.00613324 0)
(-0.0344694 0.00596191 0)
(-0.0364566 0.00574962 0)
(-0.0383611 0.00549673 0)
(-0.0401693 0.00520356 0)
(-0.041868 0.00487049 0)
(-0.0434438 0.00449805 0)
(-0.044884 0.004087 0)
(-0.0461761 0.00363843 0)
(-0.0473083 0.00315384 0)
(-0.0482694 0.00263518 0)
(-0.049049 0.00208494 0)
(-0.0496376 0.00150616 0)
(-0.0500271 0.000902481 0)
(-0.0502105 0.000278172 0)
(-0.0501825 -0.000361905 0)
(-0.0499394 -0.00101229 0)
(-0.0494794 -0.00166699 0)
(-0.0488027 -0.00231948 0)
(-0.0479115 -0.00296283 0)
(-0.0468104 -0.00358978 0)
(-0.0455063 -0.00419282 0)
(-0.0440083 -0.00476433 0)
(-0.0423281 -0.00529671 0)
(-0.0404794 -0.00578253 0)
(-0.0384786 -0.00621465 0)
(-0.0363437 -0.0065864 0)
(-0.0340951 -0.0068917 0)
(-0.0317547 -0.00712528 0)
(-0.0293459 -0.00728272 0)
(-0.0268935 -0.00736067 0)
(-0.0244231 -0.00735692 0)
(-0.0219606 -0.00727052 0)
(-0.0195321 -0.00710185 0)
(-0.0171636 -0.0068527 0)
(-0.01488 -0.00652631 0)
(-0.0127052 -0.00612741 0)
(-0.0106613 -0.00566224 0)
(-0.0087682 -0.00513857 0)
(-0.00704312 -0.00456576 0)
(-0.00550019 -0.00395479 0)
(-0.00414989 -0.00331836 0)
(-0.00299858 -0.00267108 0)
(-0.00204803 -0.00202967 0)
(-0.00129497 -0.00141335 0)
(-0.0007306 -0.000844243 0)
(-0.000340204 -0.000348048 0)
(-0.000102808 4.52547e-05 0)
(9.23295e-06 0.000300716 0)
(3.2534e-05 0.000377516 0)
(1.36294e-05 0.000224606 0)
(-2.51886e-05 4.40665e-05 0)
(-0.000200045 0.000461288 0)
(-0.000614192 0.0010872 0)
(-0.00125315 0.00183501 0)
(-0.00211246 0.00264285 0)
(-0.00318996 0.00346445 0)
(-0.00447809 0.00426616 0)
(-0.00596513 0.00502454 0)
(-0.00763657 0.00572395 0)
(-0.00947586 0.00635472 0)
(-0.011465 0.00691151 0)
(-0.0135852 0.00739216 0)
(-0.0158172 0.00779668 0)
(-0.0181418 0.00812652 0)
(-0.0205399 0.00838392 0)
(-0.0229928 0.00857156 0)
(-0.0254823 0.00869218 0)
(-0.0279904 0.00874838 0)
(-0.0305 0.00874246 0)
(-0.0329939 0.00867637 0)
(-0.0354556 0.00855169 0)
(-0.0378689 0.00836962 0)
(-0.0402176 0.00813108 0)
(-0.042486 0.00783675 0)
(-0.0446585 0.00748718 0)
(-0.0467198 0.00708291 0)
(-0.0486547 0.00662457 0)
(-0.0504485 0.00611303 0)
(-0.0520867 0.00554946 0)
(-0.0535555 0.00493547 0)
(-0.0548416 0.00427322 0)
(-0.0559326 0.00356548 0)
(-0.056817 0.00281571 0)
(-0.0574844 0.00202811 0)
(-0.0579258 0.00120768 0)
(-0.0581336 0.000360189 0)
(-0.0581019 -0.000507786 0)
(-0.0578269 -0.00138891 0)
(-0.0573066 -0.00227514 0)
(-0.0565413 -0.00315777 0)
(-0.0555336 -0.00402758 0)
(-0.0542888 -0.00487491 0)
(-0.0528144 -0.00568978 0)
(-0.0511207 -0.00646211 0)
(-0.0492204 -0.00718184 0)
(-0.0471291 -0.00783911 0)
(-0.0448645 -0.00842449 0)
(-0.0424468 -0.00892916 0)
(-0.0398983 -0.00934509 0)
(-0.0372435 -0.00966527 0)
(-0.0345082 -0.00988388 0)
(-0.0317197 -0.00999645 0)
(-0.0289064 -0.01 0)
(-0.0260972 -0.00989339 0)
(-0.023321 -0.00967696 0)
(-0.0206067 -0.00935312 0)
(-0.0179821 -0.00892615 0)
(-0.0154739 -0.00840231 0)
(-0.0131068 -0.00778988 0)
(-0.0109031 -0.00709917 0)
(-0.00888261 -0.00634258 0)
(-0.00706127 -0.00553462 0)
(-0.00545136 -0.00469203 0)
(-0.00406074 -0.00383394 0)
(-0.0028924 -0.00298202 0)
(-0.00194405 -0.0021609 0)
(-0.00120773 -0.00139849 0)
(-0.000669503 -0.000726675 0)
(-0.000309142 -0.000181938 0)
(-9.98041e-05 0.000193898 0)
(-7.68614e-06 0.000352705 0)
(6.86748e-06 0.000235095 0)
(-3.63461e-05 0.000160457 0)
(-0.000266994 0.000814582 0)
(-0.000793914 0.00167998 0)
(-0.00158597 0.00266664 0)
(-0.00262901 0.00370883 0)
(-0.00391546 0.00475649 0)
(-0.00543336 0.00577258 0)
(-0.00716742 0.00673079 0)
(-0.00910031 0.00761333 0)
(-0.0112132 0.00840891 0)
(-0.013486 0.00911119 0)
(-0.0158982 0.00971746 0)
(-0.018429 0.0102275 0)
(-0.0210574 0.0106429 0)
(-0.0237628 0.0109662 0)
(-0.026525 0.0112004 0)
(-0.0293241 0.0113486 0)
(-0.0321407 0.011414 0)
(-0.0349557 0.0113993 0)
(-0.0377507 0.0113067 0)
(-0.0405073 0.0111382 0)
(-0.0432077 0.0108953 0)
(-0.0458341 0.0105791 0)
(-0.0483692 0.0101906 0)
(-0.0507958 0.00973061 0)
(-0.053097 0.00919983 0)
(-0.0552562 0.00859926 0)
(-0.0572571 0.00793014 0)
(-0.0590839 0.00719414 0)
(-0.0607215 0.0063935 0)
(-0.0621554 0.00553113 0)
(-0.063372 0.00461074 0)
(-0.0643589 0.00363688 0)
(-0.0651047 0.00261507 0)
(-0.0655996 0.00155177 0)
(-0.0658355 0.000454442 0)
(-0.0658061 -0.000668455 0)
(-0.0655071 -0.00180753 0)
(-0.0649365 -0.00295251 0)
(-0.0640945 -0.00409233 0)
(-0.0629841 -0.00521524 0)
(-0.0616107 -0.00630897 0)
(-0.0599827 -0.00736092 0)
(-0.058111 -0.00835827 0)
(-0.0560095 -0.0092883 0)
(-0.0536948 -0.0101385 0)
(-0.0511861 -0.010897 0)
(-0.0485053 -0.0115526 0)
(-0.0456765 -0.0120951 0)
(-0.042726 -0.0125156 0)
(-0.0396821 -0.0128066 0)
(-0.0365742 -0.0129625 0)
(-0.0334333 -0.0129796 0)
(-0.0302908 -0.012856 0)
(-0.0271785 -0.0125925 0)
(-0.0241277 -0.0121917 0)
(-0.0211691 -0.0116593 0)
(-0.018332 -0.0110029 0)
(-0.0156439 -0.0102331 0)
(-0.0131295 -0.00936279 0)
(-0.0108109 -0.00840769 0)
(-0.00870632 -0.00738605 0)
(-0.00683 -0.00631887 0)
(-0.00519156 -0.00523001 0)
(-0.0037956 -0.00414631 0)
(-0.00264128 -0.00309793 0)
(-0.00172201 -0.00211868 0)
(-0.00102522 -0.00124654 0)
(-0.000532062 -0.000524325 0)
(-0.000217182 -2.48201e-07 0)
(-5.04421e-05 0.000271129 0)
(-7.9294e-08 0.000223965 0)
(-4.70699e-05 0.000310961 0)
(-0.000332709 0.00125712 0)
(-0.00097205 0.00240627 0)
(-0.00191763 0.00366725 0)
(-0.00314543 0.0049723 0)
(-0.0046421 0.00626904 0)
(-0.00639081 0.0075182 0)
(-0.00837227 0.00869157 0)
(-0.010566 0.0097698 0)
(-0.0129505 0.0107405 0)
(-0.0155037 0.0115967 0)
(-0.0182032 0.0123353 0)
(-0.0210264 0.012956 0)
(-0.0239509 0.0134605 0)
(-0.0269548 0.0138517 0)
(-0.0300162 0.0141329 0)
(-0.0331139 0.0143079 0)
(-0.0362272 0.0143801 0)
(-0.0393356 0.0143526 0)
(-0.0424191 0.014228 0)
(-0.045458 0.0140088 0)
(-0.048433 0.0136965 0)
(-0.0513251 0.0132928 0)
(-0.0541153 0.0127986 0)
(-0.0567851 0.0122151 0)
(-0.0593163 0.0115434 0)
(-0.0616908 0.0107847 0)
(-0.0638912 0.00994088 0)
(-0.0659004 0.00901403 0)
(-0.0677021 0.00800711 0)
(-0.0692807 0.0069239 0)
(-0.0706216 0.0057691 0)
(-0.0717113 0.0045485 0)
(-0.0725378 0.003269 0)
(-0.0730905 0.00193868 0)
(-0.0733606 0.000566839 0)
(-0.0733412 -0.00083608 0)
(-0.0730278 -0.00225847 0)
(-0.072418 -0.00368768 0)
(-0.0715121 -0.00511009 0)
(-0.0703129 -0.00651129 0)
(-0.0688261 -0.00787624 0)
(-0.0670606 -0.00918946 0)
(-0.0650277 -0.0104353 0)
(-0.0627421 -0.0115981 0)
(-0.0602212 -0.0126625 0)
(-0.0574856 -0.0136141 0)
(-0.0545584 -0.0144389 0)
(-0.0514652 -0.0151245 0)
(-0.0482341 -0.0156599 0)
(-0.0448953 -0.0160359 0)
(-0.0414804 -0.0162454 0)
(-0.0380226 -0.0162836 0)
(-0.0345557 -0.0161484 0)
(-0.0311141 -0.0158403 0)
(-0.0277317 -0.0153626 0)
(-0.024442 -0.0147219 0)
(-0.0212768 -0.0139277 0)
(-0.0182663 -0.0129925 0)
(-0.0154381 -0.0119322 0)
(-0.0128164 -0.0107658 0)
(-0.010422 -0.00951555 0)
(-0.00827142 -0.00820679 0)
(-0.00637636 -0.0068683 0)
(-0.00474341 -0.00553223 0)
(-0.00337357 -0.00423439 0)
(-0.00226208 -0.00301448 0)
(-0.00139821 -0.00191651 0)
(-0.000764992 -0.000989372 0)
(-0.000338994 -0.00028725 0)
(-9.41738e-05 0.000129678 0)
(-6.94041e-06 0.000190565 0)
(-5.73481e-05 0.000494677 0)
(-0.000396708 0.00178767 0)
(-0.00114686 0.00326517 0)
(-0.0022446 0.00483647 0)
(-0.00365616 0.00643323 0)
(-0.00536222 0.00800212 0)
(-0.00734083 0.00950278 0)
(-0.00956842 0.010906 0)
(-0.012021 0.0121916 0)
(-0.0146745 0.0133467 0)
(-0.0175044 0.014364 0)
(-0.0204863 0.0152402 0)
(-0.023596 0.0159754 0)
(-0.0268098 0.0165714 0)
(-0.0301042 0.0170315 0)
(-0.0334561 0.0173596 0)
(-0.0368431 0.0175597 0)
(-0.0402431 0.0176357 0)
(-0.0436345 0.0175912 0)
(-0.0469962 0.0174291 0)
(-0.0503071 0.0171522 0)
(-0.0535467 0.0167624 0)
(-0.0566947 0.0162615 0)
(-0.059731 0.0156508 0)
(-0.0626359 0.0149317 0)
(-0.0653898 0.0141056 0)
(-0.0679736 0.0131743 0)
(-0.0703687 0.0121398 0)
(-0.0725569 0.0110052 0)
(-0.0745207 0.00977391 0)
(-0.0762437 0.00845075 0)
(-0.0777102 0.00704151 0)
(-0.0789059 0.00555325 0)
(-0.0798179 0.00399438 0)
(-0.0804348 0.00237467 0)
(-0.0807471 0.000705317 0)
(-0.0807475 -0.00100109 0)
(-0.0804308 -0.00273064 0)
(-0.0797943 -0.00446816 0)
(-0.078838 -0.00619738 0)
(-0.0775646 -0.00790105 0)
(-0.0759799 -0.0095612 0)
(-0.0740925 -0.0111593 0)
(-0.0719145 -0.0126767 0)
(-0.0694608 -0.0140947 0)
(-0.0667497 -0.015395 0)
(-0.0638023 -0.0165599 0)
(-0.060643 -0.0175731 0)
(-0.0572988 -0.0184194 0)
(-0.0537991 -0.0190856 0)
(-0.0501759 -0.0195604 0)
(-0.0464629 -0.0198354 0)
(-0.0426952 -0.0199044 0)
(-0.0389091 -0.0197647 0)
(-0.0351414 -0.0194166 0)
(-0.0314286 -0.018864 0)
(-0.027807 -0.0181143 0)
(-0.0243112 -0.0171786 0)
(-0.0209741 -0.0160719 0)
(-0.017826 -0.0148128 0)
(-0.014894 -0.0134238 0)
(-0.0122016 -0.011931 0)
(-0.00976784 -0.0103645 0)
(-0.0076068 -0.00875797 0)
(-0.00572745 -0.00714902 0)
(-0.00413306 -0.00557916 0)
(-0.00282107 -0.00409399 0)
(-0.001783 -0.0027435 0)
(-0.00100406 -0.00158246 0)
(-0.000463024 -0.000670653 0)
(-0.000138064 -7.32654e-05 0)
(-1.36e-05 0.000134814 0)
(-6.71983e-05 0.000710571 0)
(-0.000458765 0.00240432 0)
(-0.00131735 0.0042546 0)
(-0.00256467 0.00617232 0)
(-0.00415748 0.00808983 0)
(-0.00607048 0.00995399 0)
(-0.00827649 0.0117244 0)
(-0.0107475 0.0133718 0)
(-0.0134559 0.0148759 0)
(-0.0163747 0.0162239 0)
(-0.0194769 0.0174085 0)
(-0.0227362 0.018427 0)
(-0.0261267 0.0192796 0)
(-0.0296231 0.0199687 0)
(-0.0332008 0.020498 0)
(-0.0368354 0.0208719 0)
(-0.0405034 0.021095 0)
(-0.0441816 0.0211716 0)
(-0.0478474 0.0211056 0)
(-0.0514785 0.0209006 0)
(-0.0550529 0.0205593 0)
(-0.058549 0.0200842 0)
(-0.0619454 0.0194771 0)
(-0.065221 0.0187398 0)
(-0.068355 0.0178739 0)
(-0.0713268 0.0168812 0)
(-0.0741163 0.0157637 0)
(-0.0767037 0.0145243 0)
(-0.07907 0.0131662 0)
(-0.0811966 0.0116941 0)
(-0.0830662 0.0101135 0)
(-0.0846621 0.00843145 0)
(-0.0859691 0.00665628 0)
(-0.0869735 0.00479797 0)
(-0.0876632 0.00286806 0)
(-0.0880279 0.000879733 0)
(-0.0880595 -0.00115224 0)
(-0.0877522 -0.00321152 0)
(-0.0871028 -0.00528036 0)
(-0.0861108 -0.00733969 0)
(-0.0847785 -0.00936933 0)
(-0.0831115 -0.0113482 0)
(-0.0811183 -0.0132548 0)
(-0.0788109 -0.0150669 0)
(-0.0762046 -0.0167629 0)
(-0.0733179 -0.018321 0)
(-0.0701728 -0.0197207 0)
(-0.0667942 -0.0209425 0)
(-0.0632102 -0.0219684 0)
(-0.0594518 -0.0227828 0)
(-0.0555523 -0.0233722 0)
(-0.0515471 -0.0237262 0)
(-0.0474737 -0.0238375 0)
(-0.0433706 -0.0237024 0)
(-0.0392768 -0.0233209 0)
(-0.0352319 -0.0226971 0)
(-0.0312746 -0.0218395 0)
(-0.0274426 -0.0207607 0)
(-0.0237719 -0.0194778 0)
(-0.0202958 -0.0180123 0)
(-0.0170444 -0.0163902 0)
(-0.0140441 -0.0146417 0)
(-0.0113168 -0.0128016 0)
(-0.00887962 -0.0109086 0)
(-0.00674407 -0.00900589 0)
(-0.0049161 -0.00714067 0)
(-0.0033957 -0.00536452 0)
(-0.00217691 -0.00373338 0)
(-0.00124741 -0.0023078 0)
(-0.000588259 -0.0011529 0)
(-0.000181785 -0.00033854 0)
(-2.00314e-05 5.68794e-05 0)
(-7.66446e-05 0.000957565 0)
(-0.000518774 0.00310478 0)
(-0.00148291 0.00537168 0)
(-0.00287639 0.00767172 0)
(-0.00464683 0.00993894 0)
(-0.00676306 0.0121215 0)
(-0.00919267 0.0141798 0)
(-0.0119031 0.0160854 0)
(-0.0148632 0.0178188 0)
(-0.0180426 0.0193677 0)
(-0.0214121 0.0207255 0)
(-0.0249433 0.0218901 0)
(-0.0286086 0.0228624 0)
(-0.0323813 0.0236455 0)
(-0.0362353 0.0242438 0)
(-0.0401454 0.0246622 0)
(-0.044087 0.0249059 0)
(-0.0480359 0.0249797 0)
(-0.0519685 0.0248881 0)
(-0.0558617 0.0246347 0)
(-0.0596927 0.0242228 0)
(-0.0634388 0.023655 0)
(-0.0670779 0.0229336 0)
(-0.0705879 0.0220605 0)
(-0.0739471 0.0210376 0)
(-0.077134 0.019867 0)
(-0.0801275 0.0185513 0)
(-0.0829071 0.0170936 0)
(-0.0854526 0.0154982 0)
(-0.0877448 0.0137702 0)
(-0.0897652 0.0119163 0)
(-0.0914964 0.00994461 0)
(-0.0929223 0.00786487 0)
(-0.0940282 0.0056886 0)
(-0.0948012 0.00342916 0)
(-0.0952301 0.00110175 0)
(-0.095306 -0.00127663 0)
(-0.0950223 -0.00368718 0)
(-0.0943751 -0.00610946 0)
(-0.0933632 -0.00852155 0)
(-0.0919882 -0.0109002 0)
(-0.0902553 -0.0132213 0)
(-0.0881726 -0.0154598 0)
(-0.0857519 -0.0175904 0)
(-0.0830082 -0.0195877 0)
(-0.0799604 -0.0214268 0)
(-0.0766305 -0.0230837 0)
(-0.0730444 -0.0245357 0)
(-0.0692308 -0.0257618 0)
(-0.0652218 -0.0267436 0)
(-0.0610521 -0.0274652 0)
(-0.0567591 -0.027914 0)
(-0.0523819 -0.0280811 0)
(-0.0479614 -0.0279617 0)
(-0.0435393 -0.0275554 0)
(-0.0391577 -0.0268663 0)
(-0.0348586 -0.0259036 0)
(-0.0306827 -0.0246813 0)
(-0.0266691 -0.0232188 0)
(-0.0228545 -0.0215404 0)
(-0.0192725 -0.0196755 0)
(-0.0159527 -0.0176586 0)
(-0.0129204 -0.0155289 0)
(-0.0101957 -0.0133307 0)
(-0.00779338 -0.0111124 0)
(-0.00572233 -0.00892743 0)
(-0.0039854 -0.00683319 0)
(-0.00257941 -0.00489165 0)
(-0.00149466 -0.00316911 0)
(-0.000714542 -0.001736 0)
(-0.000225337 -0.00066671 0)
(-2.62612e-05 -4.30225e-05 0)
(-8.57084e-05 0.00123457 0)
(-0.000576685 0.00388649 0)
(-0.00164316 0.00661298 0)
(-0.00317878 0.00933075 0)
(-0.0051224 0.0119764 0)
(-0.00743714 0.0145002 0)
(-0.0100855 0.0168645 0)
(-0.0130303 0.0190423 0)
(-0.0162367 0.0210154 0)
(-0.0196714 0.0227728 0)
(-0.0233025 0.0243093 0)
(-0.0270996 0.0256235 0)
(-0.0310334 0.0267176 0)
(-0.0350758 0.0275954 0)
(-0.0391995 0.0282621 0)
(-0.0433782 0.0287236 0)
(-0.0475863 0.0289854 0)
(-0.051799 0.0290531 0)
(-0.0559919 0.0289315 0)
(-0.060141 0.0286248 0)
(-0.0642227 0.0281365 0)
(-0.0682137 0.0274695 0)
(-0.0720911 0.0266263 0)
(-0.075832 0.0256091 0)
(-0.079414 0.0244201 0)
(-0.0828148 0.0230617 0)
(-0.0860125 0.0215369 0)
(-0.0889857 0.0198494 0)
(-0.0917136 0.018004 0)
(-0.0941759 0.0160068 0)
(-0.0963534 0.0138653 0)
(-0.0982277 0.0115887 0)
(-0.0997817 0.00918825 0)
(-0.101 0.00667699 0)
(-0.101868 0.00407007 0)
(-0.102375 0.00138471 0)
(-0.10251 -0.00135981 0)
(-0.102266 -0.00414222 0)
(-0.101637 -0.00693938 0)
(-0.100622 -0.00972643 0)
(-0.099222 -0.0124771 0)
(-0.0974405 -0.0151637 0)
(-0.0952853 -0.0177581 0)
(-0.0927675 -0.0202313 0)
(-0.0899021 -0.0225543 0)
(-0.0867075 -0.0246986 0)
(-0.083206 -0.0266367 0)
(-0.0794235 -0.0283422 0)
(-0.0753897 -0.029791 0)
(-0.0711373 -0.0309615 0)
(-0.0667026 -0.031835 0)
(-0.0621244 -0.0323965 0)
(-0.0574438 -0.0326353 0)
(-0.052704 -0.0325451 0)
(-0.0479493 -0.0321246 0)
(-0.0432248 -0.0313779 0)
(-0.0385755 -0.0303146 0)
(-0.0340457 -0.0289502 0)
(-0.0296779 -0.027306 0)
(-0.0255126 -0.0254089 0)
(-0.0215869 -0.023292 0)
(-0.0179344 -0.0209939 0)
(-0.0145838 -0.0185586 0)
(-0.0115591 -0.0160356 0)
(-0.00887842 -0.0134791 0)
(-0.00655395 -0.0109485 0)
(-0.00459172 -0.00850748 0)
(-0.00299158 -0.00622398 0)
(-0.00174654 -0.00417022 0)
(-0.00084232 -0.00242203 0)
(-0.000268943 -0.00105842 0)
(-3.23479e-05 -0.000164758 0)
(-9.44048e-05 0.00154048 0)
(-0.000632461 0.00474676 0)
(-0.00179782 0.00797468 0)
(-0.00347109 0.0111449 0)
(-0.00558277 0.0141972 0)
(-0.00809048 0.0170849 0)
(-0.0109517 0.0197729 0)
(-0.0141249 0.0222366 0)
(-0.0175715 0.0244598 0)
(-0.021255 0.0264334 0)
(-0.0251413 0.0281537 0)
(-0.0291977 0.029621 0)
(-0.0333933 0.0308385 0)
(-0.0376986 0.0318115 0)
(-0.0420851 0.0325462 0)
(-0.0465256 0.0330491 0)
(-0.0509938 0.0333268 0)
(-0.0554639 0.0333853 0)
(-0.0599109 0.03323 0)
(-0.0643102 0.0328654 0)
(-0.0686377 0.0322955 0)
(-0.0728694 0.0315235 0)
(-0.0769817 0.0305519 0)
(-0.0809513 0.0293834 0)
(-0.084755 0.0280204 0)
(-0.0883698 0.0264656 0)
(-0.0917733 0.0247223 0)
(-0.0949432 0.0227948 0)
(-0.0978579 0.0206885 0)
(-0.100497 0.0184101 0)
(-0.102839 0.0159682 0)
(-0.104865 0.0133731 0)
(-0.106559 0.0106374 0)
(-0.107902 0.00777551 0)
(-0.108879 0.0048045 0)
(-0.109479 0.00174354 0)
(-0.109689 -0.00138584 0)
(-0.109501 -0.00455989 0)
(-0.108909 -0.00775274 0)
(-0.10791 -0.0109366 0)
(-0.106502 -0.014082 0)
(-0.10469 -0.0171579 0)
(-0.102481 -0.0201326 0)
(-0.0998832 -0.0229734 0)
(-0.0969121 -0.0256476 0)
(-0.0935856 -0.0281229 0)
(-0.0899257 -0.0303676 0)
(-0.0859583 -0.032352 0)
(-0.0817135 -0.034048 0)
(-0.0772248 -0.0354306 0)
(-0.0725296 -0.0364782 0)
(-0.0676681 -0.0371729 0)
(-0.0626835 -0.0375016 0)
(-0.0576213 -0.0374563 0)
(-0.0525284 -0.0370346 0)
(-0.0474532 -0.0362401 0)
(-0.0424439 -0.0350828 0)
(-0.0375485 -0.033579 0)
(-0.0328134 -0.031752 0)
(-0.0282832 -0.0296314 0)
(-0.0239992 -0.0272537 0)
(-0.0199989 -0.0246616 0)
(-0.0163154 -0.0219042 0)
(-0.0129767 -0.019036 0)
(-0.0100046 -0.0161175 0)
(-0.00741515 -0.013214 0)
(-0.00521782 -0.0103956 0)
(-0.00341568 -0.00773669 0)
(-0.00200456 -0.00531548 0)
(-0.00097247 -0.00321348 0)
(-0.000312971 -0.00151466 0)
(-3.83696e-05 -0.000308364 0)
(-0.000102741 0.00187421 0)
(-0.000686057 0.00568274 0)
(-0.00194664 0.00945266 0)
(-0.00375269 0.013109 0)
(-0.00602675 0.0165957 0)
(-0.00872118 0.0198695 0)
(-0.0117886 0.0228988 0)
(-0.0151833 0.025662 0)
(-0.018863 0.0281455 0)
(-0.0227884 0.0303427 0)
(-0.0269226 0.0322519 0)
(-0.0312311 0.0338755 0)
(-0.0356812 0.0352184 0)
(-0.0402421 0.0362871 0)
(-0.0448844 0.0370892 0)
(-0.0495799 0.0376322 0)
(-0.0543014 0.0379237 0)
(-0.0590227 0.0379702 0)
(-0.0637181 0.0377779 0)
(-0.0683625 0.0373516 0)
(-0.0729313 0.0366957 0)
(-0.0774002 0.0358136 0)
(-0.0817449 0.0347082 0)
(-0.0859417 0.0333824 0)
(-0.0899668 0.0318386 0)
(-0.0937968 0.0300801 0)
(-0.0974086 0.0281104 0)
(-0.100779 0.0259342 0)
(-0.103887 0.0235574 0)
(-0.106709 0.0209877 0)
(-0.109225 0.0182343 0)
(-0.111414 0.0153087 0)
(-0.113259 0.0122245 0)
(-0.11474 0.00899796 0)
(-0.115842 0.00564759 0)
(-0.116551 0.00219457 0)
(-0.116854 -0.00133737 0)
(-0.116741 -0.00492204 0)
(-0.116204 -0.00853086 0)
(-0.11524 -0.0121331 0)
(-0.113845 -0.015696 0)
(-0.112023 -0.0191852 0)
(-0.109777 -0.0225652 0)
(-0.107119 -0.0257997 0)
(-0.104059 -0.0288517 0)
(-0.100616 -0.031685 0)
(-0.0968121 -0.0342639 0)
(-0.0926718 -0.0365544 0)
(-0.0882257 -0.0385245 0)
(-0.0835079 -0.0401454 0)
(-0.0785567 -0.0413917 0)
(-0.0734139 -0.0422426 0)
(-0.0681244 -0.0426822 0)
(-0.062736 -0.0427002 0)
(-0.0572987 -0.0422927 0)
(-0.0518639 -0.0414625 0)
(-0.0464835 -0.0402195 0)
(-0.0412095 -0.0385808 0)
(-0.0360926 -0.0365713 0)
(-0.0311817 -0.0342232 0)
(-0.0265229 -0.0315763 0)
(-0.0221583 -0.0286776 0)
(-0.0181255 -0.0255808 0)
(-0.014457 -0.0223464 0)
(-0.011179 -0.0190406 0)
(-0.00831165 -0.0157352 0)
(-0.00586809 -0.0125071 0)
(-0.00385489 -0.00943711 0)
(-0.00227083 -0.00661009 0)
(-0.00110617 -0.00411357 0)
(-0.000357896 -0.00203691 0)
(-4.44164e-05 -0.000474107 0)
(-0.000110719 0.00223461 0)
(-0.000737411 0.00669145 0)
(-0.00208937 0.0110425 0)
(-0.00402297 0.0152177 0)
(-0.00645323 0.0191656 0)
(-0.00932751 0.0228472 0)
(-0.0125938 0.026235 0)
(-0.0162024 0.0293109 0)
(-0.0201073 0.0320648 0)
(-0.0242665 0.0344929 0)
(-0.0286407 0.0365963 0)
(-0.0331933 0.0383795 0)
(-0.0378901 0.0398496 0)
(-0.0426991 0.0410147 0)
(-0.0475896 0.0418839 0)
(-0.0525329 0.0424661 0)
(-0.057501 0.0427696 0)
(-0.0624671 0.0428019 0)
(-0.0674052 0.0425698 0)
(-0.0722898 0.0420787 0)
(-0.0770958 0.0413332 0)
(-0.0817985 0.040337 0)
(-0.0863735 0.0390935 0)
(-0.0907965 0.0376053 0)
(-0.0950434 0.0358756 0)