/*--------------------------------*- C++ -*----------------------------------*\
  =========                 |
  \\      /  F ield         | OpenFOAM: The Open Source CFD Toolbox
   \\    /   O peration     | Website:  https://openfoam.org
    \\  /    A nd           | Version:  dev
     \\/     M anipulation  |
\*---------------------------------------------------------------------------*/
FoamFile
{
    format      ascii;
    class       volScalarField;
    location    "40.05";
    object      Uy;
}
// * * * * * * * * * * * * * * * * * * * * * * * * * * * * * * * * * * * * * //

dimensions      [0 1 -1 0 0 0 0];

internalField   nonuniform List<scalar> 
5184
(
-1.27129e-05
-2.0896e-05
-1.72548e-05
-8.20105e-06
2.66689e-06
1.36182e-05
2.38485e-05
3.30534e-05
4.11131e-05
4.80333e-05
5.38757e-05
5.87251e-05
6.26741e-05
6.58138e-05
6.82291e-05
6.99955e-05
7.11771e-05
7.18264e-05
7.19844e-05
7.16804e-05
7.0934e-05
6.97557e-05
6.81482e-05
6.61087e-05
6.36299e-05
6.0702e-05
5.73146e-05
5.34579e-05
4.9125e-05
4.43128e-05
3.90239e-05
3.32674e-05
2.70606e-05
2.04295e-05
1.34097e-05
6.04715e-06
-1.60218e-06
-9.47176e-06
-1.7485e-05
-2.5556e-05
-3.35904e-05
-4.14865e-05
-4.91371e-05
-5.64312e-05
-6.32562e-05
-6.95e-05
-7.50539e-05
-7.98149e-05
-8.36884e-05
-8.65907e-05
-8.8451e-05
-8.92143e-05
-8.88424e-05
-8.73154e-05
-8.4633e-05
-8.08146e-05
-7.58996e-05
-6.99467e-05
-6.30336e-05
-5.52565e-05
-4.67293e-05
-3.75852e-05
-2.79792e-05
-1.80938e-05
-8.15451e-06
1.54401e-06
1.05774e-05
1.83087e-05
2.37256e-05
2.51359e-05
1.98535e-05
6.24401e-06
-4.59002e-05
-6.57374e-05
-4.05835e-05
7.61892e-06
6.56777e-05
0.000126006
0.000184324
0.000238384
0.000287047
0.000329868
0.000366809
0.000398059
0.000423929
0.000444787
0.00046101
0.000472957
0.00048095
0.000485265
0.000486125
0.000483702
0.000478116
0.000469446
0.000457728
0.000442973
0.000425168
0.00040429
0.000380315
0.000353225
0.000323021
0.00028973
0.000253413
0.000214172
0.000172156
0.00012757
8.06736e-05
3.1785e-05
-1.87166e-05
-7.03925e-05
-0.000122748
-0.000175234
-0.000227258
-0.000278187
-0.000327359
-0.000374096
-0.000417712
-0.000457532
-0.000492903
-0.000523212
-0.000547896
-0.00056646
-0.000578493
-0.000583675
-0.000581789
-0.000572733
-0.000556523
-0.000533298
-0.000503321
-0.000466982
-0.000424797
-0.000377406
-0.000325577
-0.000270216
-0.000212385
-0.000153335
-9.4579e-05
-3.79941e-05
1.39572e-05
5.79696e-05
8.94497e-05
0.0001019
8.65484e-05
3.64968e-05
-8.134e-05
-9.5085e-05
-1.91775e-05
0.000105912
0.000254669
0.000410643
0.000563519
0.000707157
0.000838107
0.00095466
0.00105622
0.00114289
0.00121517
0.00127379
0.00131958
0.00135335
0.00137588
0.00138785
0.00138981
0.0013822
0.00136537
0.00133952
0.00130479
0.00126124
0.00120888
0.0011477
0.0010777
0.000998877
0.000911306
0.000815124
0.000710562
0.000597966
0.000477809
0.000350707
0.000217426
7.88889e-05
-6.38225e-05
-0.000209472
-0.000356678
-0.00050392
-0.000649562
-0.000791873
-0.000929047
-0.00105924
-0.00118061
-0.00129132
-0.00138963
-0.00147389
-0.0015426
-0.00159443
-0.00162831
-0.00164338
-0.00163908
-0.00161516
-0.00157168
-0.00150905
-0.00142802
-0.00132968
-0.00121549
-0.00108725
-0.000947132
-0.000797712
-0.000641996
-0.000483516
-0.000326472
-0.000175956
-3.82849e-05
7.85218e-05
0.000164165
0.000205476
0.000186345
9.0419e-05
-9.7788e-05
-7.32133e-05
8.4738e-05
0.000318365
0.000590158
0.000874485
0.00115431
0.00141884
0.00166161
0.00187906
0.00206966
0.00223315
0.00237008
0.00248149
0.00256866
0.00263292
0.00267555
0.0026977
0.00270034
0.00268428
0.00265011
0.00259825
0.00252898
0.00244245
0.00233874
0.0022179
0.00207998
0.00192509
0.00175344
0.00156538
0.00136143
0.00114234
0.000909065
0.000662857
0.000405228
0.00013798
-0.000136797
-0.000416731
-0.000699187
-0.000981286
-0.00125994
-0.00153189
-0.00179376
-0.00204211
-0.00227348
-0.0024845
-0.0026719
-0.00283265
-0.00296396
-0.00306342
-0.00312899
-0.00315914
-0.00315284
-0.00310965
-0.00302972
-0.00291382
-0.00276341
-0.00258056
-0.00236805
-0.00212933
-0.00186855
-0.00159061
-0.00130123
-0.00100707
-0.000715967
-0.000437188
-0.000181882
3.63387e-05
0.000200751
0.000290958
0.000282665
0.00014733
-8.44591e-05
2.08318e-05
0.00029543
0.000668084
0.00109097
0.00153017
0.00196224
0.00237168
0.00274879
0.00308791
0.00338627
0.00364305
0.00385872
0.00403451
0.00417209
0.00427327
0.00433984
0.00437346
0.00437555
0.00434729
0.00428956
0.00420306
0.00408822
0.00394534
0.00377462
0.00357621
0.00335029
0.00309715
0.00281723
0.00251119
0.00217998
0.00182487
0.00144751
0.00104996
0.000634689
0.00020463
-0.00023686
-0.000685991
-0.00113857
-0.00159004
-0.00203554
-0.00246995
-0.00288796
-0.00328419
-0.00365327
-0.00398991
-0.00428906
-0.00454598
-0.00475635
-0.00491643
-0.00502307
-0.0050739
-0.00506734
-0.00500271
-0.00488027
-0.00470128
-0.00446803
-0.00418382
-0.00385304
-0.00348116
-0.00307475
-0.00264155
-0.00219057
-0.00173221
-0.00127853
-0.000843578
-0.000443852
-9.89176e-05
0.000167884
0.000328815
0.000351134
0.000194207
-3.75733e-05
0.000197329
0.000626942
0.0011705
0.00177203
0.00239066
0.00299731
0.0035722
0.00410245
0.00458031
0.0050017
0.00536511
0.0056708
0.00592013
0.00611509
0.00625793
0.00635094
0.00639625
0.00639573
0.00635095
0.00626314
0.00613324
0.00596191
0.00574962
0.00549673
0.00520356
0.00487049
0.00449805
0.004087
0.00363843
0.00315384
0.00263518
0.00208494
0.00150616
0.000902481
0.000278172
-0.000361905
-0.00101229
-0.00166699
-0.00231948
-0.00296283
-0.00358978
-0.00419282
-0.00476433
-0.00529671
-0.00578253
-0.00621465
-0.0065864
-0.0068917
-0.00712528
-0.00728272
-0.00736067
-0.00735692
-0.00727052
-0.00710185
-0.0068527
-0.00652631
-0.00612741
-0.00566224
-0.00513857
-0.00456576
-0.00395479
-0.00331836
-0.00267108
-0.00202967
-0.00141335
-0.000844243
-0.000348048
4.52547e-05
0.000300716
0.000377516
0.000224606
4.40665e-05
0.000461288
0.0010872
0.00183501
0.00264285
0.00346445
0.00426616
0.00502454
0.00572395
0.00635472
0.00691151
0.00739216
0.00779668
0.00812652
0.00838392
0.00857156
0.00869218
0.00874838
0.00874246
0.00867637
0.00855169
0.00836962
0.00813108
0.00783675
0.00748718
0.00708291
0.00662457
0.00611303
0.00554946
0.00493547
0.00427322
0.00356548
0.00281571
0.00202811
0.00120768
0.000360189
-0.000507786
-0.00138891
-0.00227514
-0.00315777
-0.00402758
-0.00487491
-0.00568978
-0.00646211
-0.00718184
-0.00783911
-0.00842449
-0.00892916
-0.00934509
-0.00966527
-0.00988388
-0.00999645
-0.01
-0.00989339
-0.00967696
-0.00935312
-0.00892615
-0.00840231
-0.00778988
-0.00709917
-0.00634258
-0.00553462
-0.00469203
-0.00383394
-0.00298202
-0.0021609
-0.00139849
-0.000726675
-0.000181938
0.000193898
0.000352705
0.000235095
0.000160457
0.000814582
0.00167998
0.00266664
0.00370883
0.00475649
0.00577258
0.00673079
0.00761333
0.00840891
0.00911119
0.00971746
0.0102275
0.0106429
0.0109662
0.0112004
0.0113486
0.011414
0.0113993
0.0113067
0.0111382
0.0108953
0.0105791
0.0101906
0.00973061
0.00919983
0.00859926
0.00793014
0.00719414
0.0063935
0.00553113
0.00461074
0.00363688
0.00261507
0.00155177
0.000454442
-0.000668455
-0.00180753
-0.00295251
-0.00409233
-0.00521524
-0.00630897
-0.00736092
-0.00835827
-0.0092883
-0.0101385
-0.010897
-0.0115526
-0.0120951
-0.0125156
-0.0128066
-0.0129625
-0.0129796
-0.012856
-0.0125925
-0.0121917
-0.0116593
-0.0110029
-0.0102331
-0.00936279
-0.00840769
-0.00738605
-0.00631887
-0.00523001
-0.00414631
-0.00309793
-0.00211868
-0.00124654
-0.000524325
-2.48201e-07
0.000271129
0.000223965
0.000310961
0.00125712
0.00240627
0.00366725
0.0049723
0.00626904
0.0075182
0.00869157
0.0097698
0.0107405
0.0115967
0.0123353
0.012956
0.0134605
0.0138517
0.0141329
0.0143079
0.0143801
0.0143526
0.014228
0.0140088
0.0136965
0.0132928
0.0127986
0.0122151
0.0115434
0.0107847
0.00994088
0.00901403
0.00800711
0.0069239
0.0057691
0.0045485
0.003269
0.00193868
0.000566839
-0.00083608
-0.00225847
-0.00368768
-0.00511009
-0.00651129
-0.00787624
-0.00918946
-0.0104353
-0.0115981
-0.0126625
-0.0136141
-0.0144389
-0.0151245
-0.0156599
-0.0160359
-0.0162454
-0.0162836
-0.0161484
-0.0158403
-0.0153626
-0.0147219
-0.0139277
-0.0129925
-0.0119322
-0.0107658
-0.00951555
-0.00820679
-0.0068683
-0.00553223
-0.00423439
-0.00301448
-0.00191651
-0.000989372
-0.00028725
0.000129678
0.000190565
0.000494677
0.00178767
0.00326517
0.00483647
0.00643323
0.00800212
0.00950278
0.010906
0.0121916
0.0133467
0.014364
0.0152402
0.0159754
0.0165714
0.0170315
0.0173596
0.0175597
0.0176357
0.0175912
0.0174291
0.0171522
0.0167624
0.0162615
0.0156508
0.0149317
0.0141056
0.0131743
0.0121398
0.0110052
0.00977391
0.00845075
0.00704151
0.00555325
0.00399438
0.00237467
0.000705317
-0.00100109
-0.00273064
-0.00446816
-0.00619738
-0.00790105
-0.0095612
-0.0111593
-0.0126767
-0.0140947
-0.015395
-0.0165599
-0.0175731
-0.0184194
-0.0190856
-0.0195604
-0.0198354
-0.0199044
-0.0197647
-0.0194166
-0.018864
-0.0181143
-0.0171786
-0.0160719
-0.0148128
-0.0134238
-0.011931
-0.0103645
-0.00875797
-0.00714902
-0.00557916
-0.00409399
-0.0027435
-0.00158246
-0.000670653
-7.32654e-05
0.000134814
0.000710571
0.00240432
0.0042546
0.00617232
0.00808983
0.00995399
0.0117244
0.0133718
0.0148759
0.0162239
0.0174085
0.018427
0.0192796
0.0199687
0.020498
0.0208719
0.021095
0.0211716
0.0211056
0.0209006
0.0205593
0.0200842
0.0194771
0.0187398
0.0178739
0.0168812
0.0157637
0.0145243
0.0131662
0.0116941
0.0101135
0.00843145
0.00665628
0.00479797
0.00286806
0.000879733
-0.00115224
-0.00321152
-0.00528036
-0.00733969
-0.00936933
-0.0113482
-0.0132548
-0.0150669
-0.0167629
-0.018321
-0.0197207
-0.0209425
-0.0219684
-0.0227828
-0.0233722
-0.0237262
-0.0238375
-0.0237024
-0.0233209
-0.0226971
-0.0218395
-0.0207607
-0.0194778
-0.0180123
-0.0163902
-0.0146417
-0.0128016
-0.0109086
-0.00900589
-0.00714067
-0.00536452
-0.00373338
-0.0023078
-0.0011529
-0.00033854
5.68794e-05
0.000957565
0.00310478
0.00537168
0.00767172
0.00993894
0.0121215
0.0141798
0.0160854
0.0178188
0.0193677
0.0207255
0.0218901
0.0228624
0.0236455
0.0242438
0.0246622
0.0249059
0.0249797
0.0248881
0.0246347
0.0242228
0.023655
0.0229336
0.0220605
0.0210376
0.019867
0.0185513
0.0170936
0.0154982
0.0137702
0.0119163
0.00994461
0.00786487
0.0056886
0.00342916
0.00110175
-0.00127663
-0.00368718
-0.00610946
-0.00852155
-0.0109002
-0.0132213
-0.0154598
-0.0175904
-0.0195877
-0.0214268
-0.0230837
-0.0245357
-0.0257618
-0.0267436
-0.0274652
-0.027914
-0.0280811
-0.0279617
-0.0275554
-0.0268663
-0.0259036
-0.0246813
-0.0232188
-0.0215404
-0.0196755
-0.0176586
-0.0155289
-0.0133307
-0.0111124
-0.00892743
-0.00683319
-0.00489165
-0.00316911
-0.001736
-0.00066671
-4.30225e-05
0.00123457
0.00388649
0.00661298
0.00933075
0.0119764
0.0145002
0.0168645
0.0190423
0.0210154
0.0227728
0.0243093
0.0256235
0.0267176
0.0275954
0.0282621
0.0287236
0.0289854
0.0290531
0.0289315
0.0286248
0.0281365
0.0274695
0.0266263
0.0256091
0.0244201
0.0230617
0.0215369
0.0198494
0.018004
0.0160068
0.0138653
0.0115887
0.00918825
0.00667699
0.00407007
0.00138471
-0.00135981
-0.00414222
-0.00693938
-0.00972643
-0.0124771
-0.0151637
-0.0177581
-0.0202313
-0.0225543
-0.0246986
-0.0266367
-0.0283422
-0.029791
-0.0309615
-0.031835
-0.0323965
-0.0326353
-0.0325451
-0.0321246
-0.0313779
-0.0303146
-0.0289502
-0.027306
-0.0254089
-0.023292
-0.0209939
-0.0185586
-0.0160356
-0.0134791
-0.0109485
-0.00850748
-0.00622398
-0.00417022
-0.00242203
-0.00105842
-0.000164758
0.00154048
0.00474676
0.00797468
0.0111449
0.0141972
0.0170849
0.0197729
0.0222366
0.0244598
0.0264334
0.0281537
0.029621
0.0308385
0.0318115
0.0325462
0.0330491
0.0333268
0.0333853
0.03323
0.0328654
0.0322955
0.0315235
0.0305519
0.0293834
0.0280204
0.0264656
0.0247223
0.0227948
0.0206885
0.0184101
0.0159682
0.0133731
0.0106374
0.00777551
0.0048045
0.00174354
-0.00138584
-0.00455989
-0.00775274
-0.0109366
-0.014082
-0.0171579
-0.0201326
-0.0229734
-0.0256476
-0.0281229
-0.0303676
-0.032352
-0.034048
-0.0354306
-0.0364782
-0.0371729
-0.0375016
-0.0374563
-0.0370346
-0.0362401
-0.0350828
-0.033579
-0.031752
-0.0296314
-0.0272537
-0.0246616
-0.0219042
-0.019036
-0.0161175
-0.013214
-0.0103956
-0.00773669
-0.00531548
-0.00321348
-0.00151466
-0.000308364
0.00187421
0.00568274
0.00945266
0.013109
0.0165957
0.0198695
0.0228988
0.025662
0.0281455
0.0303427
0.0322519
0.0338755
0.0352184
0.0362871
0.0370892
0.0376322
0.0379237
0.0379702
0.0377779
0.0373516
0.0366957
0.0358136
0.0347082
0.0333824
0.0318386
0.0300801
0.0281104
0.0259342
0.0235574
0.0209877
0.0182343
0.0153087
0.0122245
0.00899796
0.00564759
0.00219457
-0.00133737
-0.00492204
-0.00853086
-0.0121331
-0.015696
-0.0191852
-0.0225652
-0.0257997
-0.0288517
-0.031685
-0.0342639
-0.0365544
-0.0385245
-0.0401454
-0.0413917
-0.0422426
-0.0426822
-0.0427002
-0.0422927
-0.0414625
-0.0402195
-0.0385808
-0.0365713
-0.0342232
-0.0315763
-0.0286776
-0.0255808
-0.0223464
-0.0190406
-0.0157352
-0.0125071
-0.00943711
-0.00661009
-0.00411357
-0.00203691
-0.000474107
0.00223461
0.00669145
0.0110425
0.0152177
0.0191656
0.0228472
0.026235
0.0293109
0.0320648
0.0344929
0.0365963
0.0383795
0.0398496
0.0410147
0.0418839
0.0424661
0.0427696
0.0428019
0.0425698
0.0420787
0.0413332
0.040337
0.0390935
0.0376053
0.0358756
0.0339074
0.0317048
0.0292729
0.026618
0.0237483
0.0206739
0.0174073
0.0139633
0.0103593
0.00661571
0.00275538
-0.0011958
-0.00520926
-0.00925374
-0.0132956
-0.0172988
-0.0212256
-0.0250367
-0.0286916
-0.0321496
-0.0353698
-0.0383122
-0.0409383
-0.0432118
-0.0450996
-0.0465723
-0.0476053
-0.0481795
-0.048282
-0.0479068
-0.0470554
-0.0457373
-0.04397
-0.0417797
-0.0392011
-0.0362772
-0.033059
-0.0296054
-0.0259825
-0.0222628
-0.0185249
-0.0148526
-0.0113338
-0.0080604
-0.00512642
-0.00262733
-0.000662523
0.00262053
0.0077698
0.0127395
0.0174651
0.0219001
0.0260106
0.0297736
0.0331754
0.0362096
0.0388759
0.0411786
0.0431249
0.0447241
0.0459866
0.0469229
0.0475435
0.0478579
0.0478744
0.0476005
0.0470421
0.0462044
0.0450913
0.0437062
0.0420523
0.0401325
0.0379503
0.03551
0.0328168
0.0298776
0.0267011
0.023298
0.0196817
0.015868
0.0118756
0.00772618
0.00344458
-0.000941421
-0.00540094
-0.00990015
-0.0144025
-0.0188687
-0.0232577
-0.0275261
-0.0316295
-0.0355227
-0.0391603
-0.0424975
-0.0454911
-0.0480999
-0.0502861
-0.0520156
-0.0532598
-0.0539956
-0.0542068
-0.053885
-0.0530297
-0.0516494
-0.0497619
-0.0473943
-0.0445834
-0.0413752
-0.037825
-0.0339966
-0.0299621
-0.0258006
-0.0215977
-0.0174446
-0.0134369
-0.00967402
-0.00625723
-0.00328879
-0.000874443
0.00303077
0.00891452
0.0145388
0.0198448
0.0247919
0.0293516
0.0335061
0.0372463
0.0405706
0.0434825
0.0459897
0.0481026
0.0498332
0.0511942
0.0521982
0.052857
0.0531815
0.0531812
0.0528642
0.0522372
0.0513055
0.0500736
0.048545
0.046723
0.0446107
0.0422117
0.0395303
0.0365721
0.0333443
0.0298558
0.0261181
0.022145
0.0179534
0.0135631
0.00899704
0.00428158
-0.000553598
-0.00547546
-0.0104477
-0.0154309
-0.0203828
-0.0252586
-0.0300111
-0.0345917
-0.0389507
-0.0430378
-0.0468032
-0.0501985
-0.0531772
-0.0556961
-0.0577162
-0.0592038
-0.0601315
-0.0604791
-0.0602349
-0.059396
-0.0579695
-0.0559726
-0.053433
-0.0503893
-0.0468905
-0.042996
-0.0387747
-0.0343047
-0.029672
-0.0249699
-0.0202973
-0.0157582
-0.01146
-0.00751234
-0.00402497
-0.00111101
0.00346406
0.0101222
0.016435
0.0223502
0.0278332
0.0328615
0.0374231
0.0415142
0.045138
0.0483026
0.0510196
0.0533029
0.0551675
0.0566286
0.057701
0.0583983
0.058733
0.0587156
0.058355
0.0576587
0.0566325
0.055281
0.0536081
0.051617
0.0493111
0.046694
0.04377
0.0405448
0.0370256
0.033222
0.0291454
0.0248105
0.0202347
0.0154387
0.0104467
0.00528632
-1.10441e-05
-0.00541037
-0.010873
-0.0163569
-0.0218166
-0.0272038
-0.0324676
-0.0375549
-0.0424113
-0.0469816
-0.0512105
-0.0550439
-0.0584297
-0.0613187
-0.0636663
-0.0654332
-0.0665866
-0.067102
-0.0669632
-0.0661646
-0.0647107
-0.0626179
-0.059914
-0.056639
-0.0528446
-0.0485941
-0.0439617
-0.0390317
-0.0338973
-0.0286598
-0.0234267
-0.018311
-0.0134291
-0.00889934
-0.00484037
-0.0013737
0.00391908
0.0113891
0.0184227
0.0249742
0.0310156
0.0365311
0.0415147
0.0459686
0.0499013
0.0533257
0.0562578
0.0587153
0.0607166
0.0622797
0.0634218
0.0641585
0.0645039
0.0644697
0.064066
0.0633007
0.0621803
0.0607097
0.0588929
0.0567334
0.0542343
0.0513993
0.0482327
0.0447401
0.040929
0.0368086
0.0323911
0.0276911
0.0227266
0.0175191
0.0120936
0.00647892
0.000707913
-0.00518262
-0.0111519
-0.0171553
-0.0231444
-0.0290675
-0.0348697
-0.0404936
-0.0458801
-0.0509684
-0.0556979
-0.0600081
-0.0638409
-0.0671405
-0.0698559
-0.0719414
-0.0733584
-0.0740766
-0.0740752
-0.0733442
-0.0718856
-0.0697137
-0.066856
-0.0633533
-0.0592598
-0.0546426
-0.0495811
-0.0441661
-0.0384984
-0.0326877
-0.026851
-0.0211107
-0.0155933
-0.0104271
-0.00574039
-0.00166432
0.00439442
0.0127116
0.0204959
0.0277091
0.0343303
0.0403505
0.0457704
0.0505985
0.054849
0.0585402
0.0616927
0.0643284
0.0664693
0.0681367
0.0693502
0.0701277
0.070485
0.0704352
0.0699895
0.0691565
0.0679433
0.0663551
0.0643962
0.0620699
0.0593795
0.0563285
0.052921
0.0491626
0.0450605
0.040624
0.0358652
0.0307988
0.0254433
0.0198204
0.0139558
0.00787933
0.00162498
-0.00476889
-0.0112596
-0.0178001
-0.0243393
-0.030822
-0.0371896
-0.0433804
-0.04933
-0.0549725
-0.060241
-0.065069
-0.069391
-0.0731447
-0.0762716
-0.078719
-0.0804412
-0.0814016
-0.0815736
-0.0809422
-0.0795054
-0.0772749
-0.0742771
-0.0705532
-0.0661592
-0.0611659
-0.055658
-0.0497327
-0.0434991
-0.0370759
-0.03059
-0.0241744
-0.0179666
-0.0121059
-0.00673129
-0.001985
0.00488857
0.0140854
0.0226485
0.0305471
0.0377678
0.0443091
0.0501788
0.0553919
0.0599689
0.0639337
0.0673119
0.07013
0.0724138
0.0741879
0.0754749
0.0762951
0.076666
0.0766024
0.0761166
0.0752181
0.0739145
0.0722114
0.0701132
0.0676233
0.0647449
0.0614812
0.0578363
0.0538152
0.0494251
0.0446749
0.0395765
0.0341447
0.0283978
0.0223577
0.0160506
0.00950691
0.00276153
-0.00414594
-0.0111711
-0.0182649
-0.0253735
-0.0324387
-0.0393981
-0.0461855
-0.0527318
-0.0589652
-0.0648127
-0.0702007
-0.0750569
-0.0793109
-0.0828963
-0.0857525
-0.087826
-0.0890725
-0.0894585
-0.0889631
-0.0875792
-0.0853149
-0.0821946
-0.0782591
-0.0735659
-0.068189
-0.0622183
-0.0557579
-0.0489251
-0.0418485
-0.0346656
-0.0275211
-0.0205645
-0.0139471
-0.00782024
-0.00233823
0.00539997
0.0155063
0.0248737
0.0334796
0.0413183
0.048396
0.0547279
0.0603364
0.0652481
0.069493
0.0731021
0.0761067
0.0785367
0.0804204
0.0817834
0.0826485
0.0830354
0.0829605
0.0824372
0.0814761
0.0800854
0.0782711
0.0760377
0.0733886
0.0703269
0.0668555
0.062978
0.0586993
0.0540259
0.0489664
0.0435323
0.037738
0.0316015
0.0251448
0.0183941
0.01138
0.0041381
-0.00329102
-0.0108617
-0.0185229
-0.0262187
-0.0338878
-0.0414642
-0.0488775
-0.0560536
-0.0629149
-0.069382
-0.0753742
-0.0808112
-0.0856144
-0.0897087
-0.0930246
-0.0954995
-0.0970807
-0.0977264
-0.0974084
-0.0961135
-0.0938451
-0.0906243
-0.0864907
-0.0815027
-0.0757373
-0.069289
-0.062269
-0.0548035
-0.0470313
-0.0391016
-0.0311716
-0.023404
-0.0159637
-0.0090153
-0.00272684
0.00592694
0.0169698
0.0271649
0.0364978
0.0449712
0.0525994
0.0594053
0.0654185
0.0706727
0.075204
0.0790492
0.0822444
0.0848241
0.0868204
0.0882621
0.0891749
0.0895804
0.0894971
0.0889396
0.0879197
0.086446
0.0845251
0.0821616
0.0793589
0.0761198
0.072447
0.0683435
0.0638138
0.0588637
0.0535013
0.0477373
0.0415857
0.0350639
0.0281935
0.0210004
0.0135153
0.00577398
-0.00218237
-0.0103071
-0.0185477
-0.0268462
-0.0351387
-0.0433558
-0.051423
-0.0592612
-0.0667872
-0.0739149
-0.0805561
-0.0866224
-0.0920261
-0.0966827
-0.100513
-0.103444
-0.105413
-0.106369
-0.106276
-0.105111
-0.102874
-0.0995797
-0.0952663
-0.089992
-0.0838359
-0.0768974
-0.0692947
-0.061163
-0.0526519
-0.0439235
-0.0351485
-0.026504
-0.0181698
-0.0103254
-0.00315399
0.0064677
0.0184711
0.0295145
0.0395924
0.0487157
0.0569071
0.0641976
0.0706244
0.0762284
0.081052
0.085138
0.0885279
0.0912608
0.0933728
0.0948962
0.0958595
0.0962869
0.0961985
0.0956107
0.0945361
0.0929844
0.0909622
0.0884747
0.085525
0.0821158
0.0782491
0.0739278
0.0691554
0.063937
0.0582799
0.052194
0.0456924
0.0387918
0.0315131
0.0238815
0.0159275
0.00768661
-0.000799715
-0.00948421
-0.0183134
-0.0272275
-0.0361604
-0.0450397
-0.053787
-0.0623183
-0.0705449
-0.0783739
-0.0857095
-0.0924545
-0.0985118
-0.103787
-0.108189
-0.111635
-0.11405
-0.115373
-0.115557
-0.114571
-0.112406
-0.109071
-0.104602
-0.0990543
-0.0925095
-0.0850711
-0.076864
-0.068033
-0.0587394
-0.0491584
-0.0394759
-0.0298847
-0.020581
-0.0117605
-0.00362319
0.00702043
0.0200053
0.0319153
0.0427537
0.0525403
0.0613063
0.069091
0.0759394
0.0818997
0.0870211
0.0913526
0.0949411
0.0978305
0.100061
0.101669
0.102686
0.103139
0.103049
0.102435
0.101311
0.0996865
0.0975694
0.0949646
0.0918755
0.0883043
0.0842527
0.0797229
0.0747175
0.0692408
0.0632992
0.0569014
0.0500595
0.0427891
0.0351099
0.0270466
0.0186286
0.00989107
0.000875138
-0.00837173
-0.0177954
-0.027335
-0.0369223
-0.0464824
-0.0559334
-0.0651868
-0.0741482
-0.0827182
-0.0907931
-0.0982669
-0.105032
-0.110984
-0.11602
-0.120043
-0.122968
-0.12472
-0.12524
-0.124487
-0.122441
-0.119106
-0.11451
-0.108708
-0.101781
-0.0938366
-0.0850062
-0.0754441
-0.0653238
-0.054835
-0.0441797
-0.033568
-0.0232139
-0.0133313
-0.0041383
0.00758318
0.0215671
0.0343591
0.0459716
0.0564332
0.0657838
0.0740711
0.0813482
0.0876708
0.093095
0.0976761
0.101467
0.104516
0.106869
0.108564
0.109638
0.110119
0.110032
0.109397
0.108228
0.106536
0.104331
0.101616
0.098396
0.094672
0.0904454
0.0857176
0.0804905
0.0747672
0.0685529
0.0618552
0.0546848
0.0470559
0.038987
0.0305014
0.0216275
0.0123994
0.00285771
-0.00695055
-0.0169711
-0.0271421
-0.0373944
-0.0476505
-0.0578256
-0.067827
-0.0775552
-0.086904
-0.0957621
-0.104014
-0.111543
-0.118231
-0.123964
-0.128632
-0.132134
-0.134383
-0.135304
-0.134845
-0.132974
-0.129685
-0.125
-0.118969
-0.111672
-0.10322
-0.0937502
-0.0834269
-0.0724362
-0.0609832
-0.0492871
-0.037577
-0.0260866
-0.0150494
-0.00470352
0.00815397
0.0231513
0.036838
0.0492358
0.0603822
0.0703258
0.079123
0.086835
0.093525
0.0992563
0.104091
0.108087
0.111299
0.113776
0.115562
0.116696
0.117209
0.117129
0.116476
0.115267
0.113515
0.111228
0.108412
0.10507
0.101203
0.0968118
0.0918976
0.0864611
0.0805043
0.0740309
0.0670471
0.0595621
0.0515886
0.0431433
0.0342479
0.0249292
0.0152203
0.00516022
-0.00520453
-0.0158201
-0.0266247
-0.037548
-0.0485113
-0.0594269
-0.0701986
-0.080722
-0.0908847
-0.100568
-0.109647
-0.117994
-0.12548
-0.131976
-0.137358
-0.14151
-0.144328
-0.145723
-0.145627
-0.143993
-0.140806
-0.136075
-0.129847
-0.1222
-0.113244
-0.103124
-0.0920119
-0.0801081
-0.0676337
-0.0548266
-0.0419364
-0.0292182
-0.0169272
-0.00532339
0.00873076
0.0247524
0.0393438
0.0525357
0.0643748
0.0749184
0.0842315
0.0923834
0.0994451
0.105487
0.110578
0.114782
0.118159
0.120763
0.122643
0.123839
0.124387
0.124317
0.123652
0.122409
0.120602
0.118241
0.115331
0.111876
0.107876
0.103333
0.0982448
0.0926124
0.0864363
0.0797189
0.0724648
0.0646812
0.056379
0.0475732
0.0382834
0.0285346
0.0183579
0.00779096
-0.0031212
-0.0143257
-0.025761
-0.0373569
-0.0490335
-0.0607012
-0.072261
-0.0836039
-0.094612
-0.105159
-0.115111
-0.124331
-0.132674
-0.14
-0.146169
-0.151047
-0.154513
-0.15646
-0.156803
-0.155478
-0.152455
-0.147734
-0.141351
-0.133379
-0.123931
-0.113153
-0.101229
-0.0883712
-0.074818
-0.0608277
-0.0466719
-0.0326291
-0.0189781
-0.00600279
0.00931147
0.0263649
0.0418679
0.0558606
0.0683983
0.0795472
0.0893808
0.0979767
0.105414
0.111769
0.117119
0.121533
0.125077
0.12781
0.129785
0.131046
0.131632
0.131576
0.130901
0.12963
0.127774
0.125346
0.122351
0.118792
0.11467
0.109986
0.104737
0.0989234
0.0925435
0.0855984
0.0780911
0.0700268
0.0614143
0.0522665
0.0426007
0.0324396
0.021812
0.0107537
-0.000692322
-0.0124747
-0.0245331
-0.0367976
-0.0491882
-0.0616143
-0.0739743
-0.0861559
-0.0980359
-0.109481
-0.12035
-0.130492
-0.139754
-0.147977
-0.155006
-0.16069
-0.164887
-0.167471
-0.168336
-0.167401
-0.164616
-0.159967
-0.153479
-0.145219
-0.135296
-0.123862
-0.111106
-0.0972565
-0.082568
-0.0673206
-0.0518101
-0.0363405
-0.0212161
-0.00674695
0.00989401
0.0279832
0.0444021
0.0591997
0.07244
0.0841979
0.0945553
0.103598
0.111412
0.118083
0.123693
0.128319
0.132031
0.134894
0.136965
0.138293
0.138919
0.138879
0.1382
0.136903
0.135005
0.132517
0.129444
0.125791
0.121558
0.116745
0.11135
0.105369
0.0988015
0.0916463
0.0839044
0.075579
0.0666767
0.0572078
0.0471872
0.0366349
0.0255772
0.0140471
0.00208541
-0.0102588
-0.0229269
-0.0358504
-0.0489498
-0.062134
-0.0753003
-0.0883334
-0.101106
-0.113479
-0.125302
-0.136415
-0.146651
-0.155838
-0.163803
-0.170374
-0.17539
-0.178701
-0.18018
-0.179722
-0.177259
-0.172756
-0.166225
-0.157723
-0.147354
-0.13527
-0.121671
-0.106794
-0.0909152
-0.0743363
-0.0573789
-0.0403747
-0.0236561
-0.00756143
0.0104763
0.0296019
0.046938
0.0625423
0.0764872
0.0888561
0.0997391
0.10923
0.117423
0.12441
0.130281
0.135118
0.138999
0.141992
0.14416
0.145555
0.146223
0.146201
0.14552
0.144203
0.142267
0.139724
0.136582
0.132844
0.128511
0.123581
0.118052
0.11192
0.105182
0.097835
0.0898783
0.081313
0.0721432
0.0623765
0.0520249
0.0411058
0.0296423
0.0176643
0.00520982
-0.0076749
-0.0209338
-0.0345003
-0.0482965
-0.0622319
-0.0762033
-0.0900938
-0.103773
-0.117096
-0.129905
-0.142032
-0.153296
-0.16351
-0.172484
-0.180025
-0.18595
-0.190085
-0.192276
-0.192394
-0.190345
-0.186074
-0.179573
-0.170886
-0.160109
-0.147394
-0.132945
-0.117012
-0.0998906
-0.0819055
-0.0634063
-0.0447547
-0.0263138
-0.00845211
0.0110564
0.0312155
0.0494674
0.0658779
0.0805275
0.0935077
0.104917
0.114856
0.123427
0.13073
0.136861
0.141909
0.145957
0.14908
0.151344
0.152806
0.153516
0.153514
0.152833
0.151498
0.149528
0.146937
0.143732
0.139917
0.135494
0.13046
0.124811
0.118543
0.111652
0.104132
0.0959816
0.0871989
0.0777854
0.0677462
0.0570903
0.0458317
0.0339902
0.0215925
0.00867277
-0.00472587
-0.0185506
-0.0327378
-0.0472118
-0.0618839
-0.0766514
-0.091397
-0.105988
-0.120276
-0.134097
-0.147273
-0.159612
-0.170914
-0.180968
-0.189562
-0.196488
-0.201546
-0.204554
-0.205354
-0.203824
-0.199882
-0.193497
-0.184696
-0.173562
-0.160244
-0.144948
-0.127937
-0.109524
-0.0900589
-0.0699211
-0.0495044
-0.0292052
-0.00942519
0.0116322
0.032819
0.0519826
0.0691966
0.0845489
0.0981389
0.110072
0.120458
0.129407
0.137024
0.143413
0.14867
0.152883
0.156133
0.158491
0.160019
0.16077
0.160787
0.160107
0.158756
0.156756
0.154121
0.15086
0.146976
0.142472
0.137345
0.13159
0.125202
0.118174
0.110501
0.102178
0.0932017
0.08357
0.0732855
0.062354
0.0507861
0.0385979
0.0258124
0.0124597
-0.0014209
-0.0157806
-0.0305594
-0.0456849
-0.0610712
-0.0766175
-0.0922072
-0.107707
-0.122965
-0.137814
-0.152067
-0.165523
-0.177965
-0.189167
-0.198895
-0.206915
-0.212999
-0.216934
-0.218531
-0.217633
-0.21413
-0.207961
-0.199129
-0.187704
-0.173823
-0.157695
-0.139591
-0.119843
-0.0988265
-0.0769518
-0.054648
-0.0323472
-0.0104872
0.0122021
0.0344076
0.0544763
0.0724887
0.08854
0.102737
0.115192
0.126022
0.135344
0.143272
0.149916
0.155377
0.159752
0.163126
0.165575
0.167166
0.167955
0.16799
0.16731
0.165944
0.163916
0.16124
0.157927
0.153983
0.149406
0.144197
0.138348
0.131855
0.124708
0.116902
0.108428
0.0992819
0.0894585
0.0789574
0.0677811
0.0559366
0.0434362
0.0302985
0.0165496
0.00222405
-0.0126338
-0.0279685
-0.0437118
-0.0597817
-0.0760805
-0.0924937
-0.108889
-0.125113
-0.140996
-0.156344
-0.170947
-0.184576
-0.196987
-0.207925
-0.217131
-0.224345
-0.229323
-0.231838
-0.231698
-0.228754
-0.222915
-0.214153
-0.202515
-0.188127
-0.171193
-0.151993
-0.130873
-0.108237
-0.084527
-0.06021
-0.0357571
-0.0116449
0.0127642
0.0359768
0.0569416
0.0757455
0.09249
0.107288
0.12026
0.13153
0.141221
0.149455
0.156348
0.162009
0.16654
0.170032
0.172567
0.174216
0.17504
0.17509
0.174408
0.173027
0.17097
0.168256
0.164896
0.160895
0.156254
0.150972
0.145042
0.138458
0.13121
0.123289
0.114687
0.105395
0.0954077
0.0847199
0.0733313
0.0612451
0.0484696
0.035019
0.0209146
0.00618606
-0.00912749
-0.0249757
-0.0412957
-0.0580102
-0.0750261
-0.0922325
-0.109499
-0.126674
-0.143585
-0.160036
-0.175808
-0.19066
-0.204333
-0.216552
-0.22703
-0.235478
-0.241615
-0.245176
-0.245927
-0.243677
-0.238296
-0.229719
-0.217966
-0.203143
-0.185445
-0.165155
-0.142637
-0.118317
-0.0926744
-0.0662151
-0.0394526
-0.0129054
0.0133172
0.0375228
0.0593728
0.0789594
0.0963897
0.111783
0.125265
0.136968
0.147022
0.155554
0.16269
0.168543
0.173223
0.176826
0.17944
0.181141
0.181993
0.182054
0.181366
0.179966
0.17788
0.175128
0.171723
0.16767
0.162972
0.157626
0.151626
0.144964
0.137631
0.129615
0.120906
0.111494
0.10137
0.0905264
0.0789593
0.0666682
0.0536571
0.0399358
0.0255204
0.0104352
-0.00528623
-0.0215995
-0.0384478
-0.0557599
-0.0734482
-0.091407
-0.10951
-0.127609
-0.145531
-0.163079
-0.180028
-0.196128
-0.211106
-0.224667
-0.236498
-0.246281
-0.253695
-0.258433
-0.260217
-0.258807
-0.254026
-0.245768
-0.234014
-0.218845
-0.200441
-0.179085
-0.15515
-0.129091
-0.101421
-0.0726878
-0.0434517
-0.0142761
0.0138599
0.0390425
0.061765
0.0821238
0.100231
0.11621
0.130195
0.142322
0.15273
0.161553
0.168921
0.174957
0.179776
0.183481
0.186164
0.187908
0.188782
0.188845
0.188146
0.186723
0.184605
0.181815
0.178365
0.174264
0.169513
0.16411
0.15805
0.151324
0.143921
0.135828
0.127035
0.117527
0.107294
0.0963262
0.0846153
0.0721574
0.0589523
0.0450048
0.0303261
0.0149347
-0.00114199
-0.017866
-0.0351874
-0.053042
-0.071349
-0.0900095
-0.108903
-0.127886
-0.146789
-0.165414
-0.183534
-0.200894
-0.217207
-0.232161
-0.245419
-0.25663
-0.265436
-0.271486
-0.27445
-0.274037
-0.270013
-0.262223
-0.250603
-0.235198
-0.216165
-0.193781
-0.168426
-0.14058
-0.110791
-0.0796523
-0.0477726
-0.0157645
0.0143914
0.0405335
0.0641145
0.0852336
0.104007
0.120562
0.13504
0.147581
0.158331
0.167433
0.175022
0.181229
0.186175
0.18997
0.192711
0.194487
0.195372
0.195429
0.19471
0.193258
0.191104
0.188272
0.184777
0.180628
0.175828
0.170376
0.164265
0.157485
0.150027
0.141876
0.133018
0.12344
0.113126
0.102065
0.0902456
0.07766
0.0643037
0.0501768
0.035285
0.0196412
0.00326619
-0.0138092
-0.0315423
-0.0498768
-0.0687403
-0.0880416
-0.107668
-0.127483
-0.147322