/*--------------------------------*- C++ -*----------------------------------*\
  =========                 |
  \\      /  F ield         | OpenFOAM: The Open Source CFD Toolbox
   \\    /   O peration     | Website:  https://openfoam.org
    \\  /    A nd           | Version:  dev
     \\/     M anipulation  |
\*---------------------------------------------------------------------------*/
FoamFile
{
    format      ascii;
    class       volScalarField;
    location    "32.4";
    object      p;
}
// * * * * * * * * * * * * * * * * * * * * * * * * * * * * * * * * * * * * * //

dimensions      [0 2 -2 0 0 0 0];

internalField   nonuniform List<scalar> 
5184
(
1.778e-06
-9.54636e-06
-9.53665e-05
-0.000248236
-0.000447637
-0.000676298
-0.000919982
-0.00116672
-0.00140737
-0.00163477
-0.00184352
-0.00202959
-0.00219004
-0.00232278
-0.00242633
-0.00249968
-0.00254217
-0.00255335
-0.00253295
-0.00248081
-0.00239683
-0.00228099
-0.00213336
-0.00195406
-0.00174334
-0.00150157
-0.00122929
-0.000927262
-0.000596465
-0.000238176
0.000146021
0.000554199
0.000984066
0.00143295
0.00189779
0.00237513
0.00286117
0.00335173
0.00384234
0.00432826
0.00480455
0.00526612
0.00570787
0.00612469
0.00651165
0.00686403
0.00717746
0.00744803
0.00767234
0.00784768
0.00797202
0.00804417
0.00806377
0.0080314
0.00794854
0.00781765
0.00764212
0.00742627
0.00717529
0.00689526
0.00659304
0.00627623
0.00595316
0.00563277
0.00532461
0.00503878
0.00478577
0.00457622
0.00442009
0.00432582
0.00429888
0.00432615
1.55378e-05
3.10557e-06
-7.14716e-05
-0.000199226
-0.000364474
-0.000554743
-0.000759103
-0.000967947
-0.00117335
-0.00136892
-0.0015496
-0.0017115
-0.00185165
-0.0019678
-0.00205833
-0.00212203
-0.00215804
-0.00216576
-0.00214477
-0.00209477
-0.00201559
-0.00190715
-0.00176944
-0.00160259
-0.0014068
-0.00118246
-0.000930078
-0.000650395
-0.000344369
-1.32161e-05
0.000341556
0.00071813
0.00111436
0.00152774
0.00195545
0.0023943
0.00284076
0.00329102
0.00374099
0.00418633
0.00462256
0.00504507
0.00544922
0.00583042
0.00618421
0.00650638
0.00679302
0.00704064
0.00724627
0.00740751
0.00752264
0.00759068
0.00761142
0.00758549
0.00751437
0.00740038
0.0072467
0.00705735
0.00683712
0.00659158
0.00632696
0.00605015
0.00576859
0.0054902
0.00522329
0.00497643
0.00475828
0.00457724
0.00444061
0.00435433
0.00432578
0.00435335
0.000102273
7.75569e-05
2.22586e-06
-0.000115308
-0.000263014
-0.000431257
-0.000611327
-0.000795386
-0.000976734
-0.00114981
-0.00131011
-0.00145405
-0.00157881
-0.00168222
-0.00176265
-0.00181884
-0.00184986
-0.00185505
-0.00183388
-0.00178601
-0.00171118
-0.00160927
-0.00148023
-0.00132412
-0.00114113
-0.000931597
-0.000695997
-0.000435015
-0.00014955
0.000159258
0.000489994
0.000840958
0.00121014
0.00159521
0.00199351
0.00240209
0.00281766
0.00323667
0.00365532
0.00406959
0.0044753
0.0048682
0.00524399
0.00559843
0.00592739
0.006227
0.00649367
0.00672419
0.00691585
0.00706648
0.00717456
0.00723923
0.00726038
0.00723865
0.00717549
0.00707312
0.00693457
0.00676361
0.00656471
0.00634305
0.00610438
0.00585501
0.00560169
0.00535155
0.00511195
0.00489033
0.0046942
0.0045306
0.00440557
0.00432435
0.00429658
0.00432721
0.000257325
0.000205922
0.000118127
-8.19199e-07
-0.000143252
-0.000301394
-0.000468117
-0.00063705
-0.000802654
-0.00096024
-0.00110594
-0.00123661
-0.00134975
-0.0014434
-0.00151602
-0.00156643
-0.00159374
-0.00159724
-0.00157642
-0.00153088
-0.00146034
-0.0013646
-0.00124359
-0.00109732
-0.00092591
-0.000729635
-0.000508918
-0.000264363
3.21648e-06
0.000292773
0.000603006
0.000932335
0.00127889
0.0016405
0.00201468
0.00239866
0.00278935
0.00318343
0.00357729
0.00396717
0.00434913
0.00471915
0.00507316
0.00540716
0.00571727
0.00599981
0.0062514
0.00646902
0.00665011
0.00679266
0.00689522
0.00695703
0.006978
0.00695879
0.0069008
0.00680616
0.00667775
0.00651916
0.00633462
0.00612897
0.00590761
0.00567637
0.00544146
0.00520938
0.00498677
0.00478032
0.00459663
0.00444199
0.00432181
0.00424116
0.00421014
0.00423539
0.000462085
0.000373492
0.000264905
0.000137214
-7.1355e-06
-0.000161976
-0.000321538
-0.000480817
-0.000635406
-0.000781504
-0.000915932
-0.00103608
-0.00113983
-0.00122549
-0.00129175
-0.00133754
-0.00136203
-0.00136459
-0.00134468
-0.00130192
-0.00123598
-0.00114664
-0.00103376
-0.0008973
-0.000737313
-0.000553994
-0.000347679
-0.000118882
0.00013169
0.000403102
0.00069418
0.00100348
0.00132928
0.00166955
0.002022
0.00238401
0.0027527
0.00312489
0.00349721
0.00386607
0.00422771
0.00457831
0.00491398
0.00523089
0.00552532
0.00579374
0.00603291
0.00623992
0.00641233
0.00654818
0.0066461
0.00670534
0.00672585
0.00670823
0.00665385
0.00656476
0.0064437
0.00629408
0.00611993
0.00592583
0.00571682
0.00549836
0.00527619
0.00505627
0.00484464
0.00464734
0.00447028
0.00431908
0.0041987
0.00411391
0.00407351
0.00408335
0.000700395
0.000568383
0.00043323
0.000291202
0.000139287
-1.77434e-05
-0.000175281
-0.000329586
-0.000477322
-0.000615566
-0.000741844
-0.000854107
-0.000950684
-0.00103022
-0.00109164
-0.00113406
-0.00115678
-0.00115923
-0.00114092
-0.00110146
-0.00104052
-0.00095784
-0.000853228
-0.000726572
-0.000577854
-0.000407175
-0.000214773
-1.0472e-06
0.000233411
0.000487799
0.000761076
0.00105195
0.00135883
0.00167988
0.00201294
0.00235557
0.00270503
0.00305833
0.00341224
0.00376333
0.00410799
0.00444253
0.00476319
0.00506625
0.00534811
0.0056053
0.00583467
0.00603337
0.00619898
0.0063296
0.00642385
0.00648098
0.00650091
0.00648421
0.00643217
0.00634676
0.0062306
0.00608695
0.00591966
0.00573306
0.00553194
0.00532142
0.00510686
0.00489377
0.0046877
0.00449412
0.00431839
0.00416555
0.00404017
0.00394663
0.00389144
0.00387837
0.000958467
0.000779722
0.0006142
0.000453675
0.000289775
0.000126107
-3.37076e-05
-0.000187068
-0.00033164
-0.000465337
-0.000586387
-0.000693316
-0.000784918
-0.00086021
-0.000918389
-0.000958795
-0.000980873
-0.000984147
-0.000968199
-0.000932654
-0.000877177
-0.000801474
-0.000705299
-0.000588466
-0.000450873
-0.000292516
-0.000113521
8.58368e-05
0.0003051
0.000543606
0.000800461
0.00107452
0.00136437
0.0016683
0.00198431
0.00231012
0.00264313
0.0029805
0.00331912
0.00365567
0.00398666
0.00430848
0.00461745
0.00490992
0.0051823
0.00543119
0.00565343
0.00584618
0.00600702
0.00613399
0.00622571
0.00628138
0.00630085
0.00628464
0.00623396
0.00615066
0.00603728
0.00589694
0.00573333
0.00555059
0.00535329
0.00514627
0.0049346
0.00472342
0.0045179
0.00432306
0.00414377
0.00398461
0.00384982
0.00374342
0.0036691
0.00362809
0.00122418
0.000997372
0.000799224
0.000617346
0.000438256
0.000264592
9.91448e-05
-5.65149e-05
-0.000200979
-0.00033295
-0.000451332
-0.000555224
-0.00064389
-0.000716728
-0.000773238
-0.00081299
-0.000835599
-0.000840705
-0.000827961
-0.000797026
-0.00074756
-0.000679239
-0.00059176
-0.00048486
-0.000358339
-0.000212084
-4.60937e-05
0.000139491
0.000344357
0.000567993
0.000809663
0.00106838
0.00134288
0.00163161
0.00193273
0.00224408
0.00256322
0.0028874
0.00321362
0.00353865
0.00385907
0.0041713
0.00447173
0.00475668
0.00502259
0.00526602
0.00548376
0.00567294
0.00583105
0.0059561
0.00604659
0.00610165
0.00612105
0.00610521
0.00605524
0.00597292
0.00586065
0.00572144
0.00555885
0.00537687
0.00517989
0.00497253
0.00475964
0.00454607
0.00433669
0.00413619
0.00394905
0.00377944
0.00363138
0.0035086
0.00341183
0.00333966
0.00148727
0.00121218
0.000980241
0.000775178
0.000578675
0.000392564
0.00021893
5.84131e-05
-8.84294e-05
-0.00022104
-0.000338967
-0.000441864
-0.000529458
-0.000601532
-0.000657889
-0.00069834
-0.000722678
-0.000730666
-0.000722035
-0.000696479
-0.000653658
-0.000593216
-0.000514788
-0.000418028
-0.000302633
-0.000168367
-1.50949e-05
0.000157188
0.000348324
0.000557963
0.000785531
0.0010302
0.00129088
0.00156616
0.00185434
0.00215341
0.00246102
0.00277455
0.00309106
0.0034074
0.00372016
0.0040258
0.00432068
0.00460111
0.00486346
0.00510423
0.00532011
0.00550814
0.0056657
0.00579066
0.00588142
0.00593698
0.00595698
0.00594174
0.00589224
0.00581015
0.00569778
0.00555801
0.00539428
0.00521048
0.00501084
0.00479986
0.00458217
0.00436246
0.00414536
0.00393533
0.00373655
0.00355291
0.00338827
0.00324616
0.00312442
0.00301909
0.00173877
0.00141589
0.00114976
0.000920442
0.000705062
0.000504771
0.000321046
0.000153684
2.45877e-06
-0.000132763
-0.000252138
-0.000355847
-0.000444071
-0.00051696
-0.000574624
-0.000617108
-0.000644384
-0.000656342
-0.000652789
-0.000633453
-0.000597994
-0.000546015
-0.000477089
-0.000390779
-0.000286668
-0.000164393
-2.36734e-05
0.000135652
0.000313591
0.000509962
0.000724361
0.000956133
0.00120434
0.00146774
0.00174477
0.00203353
0.00233181
0.00263705
0.00294639
0.0032567
0.0035646
0.00386652
0.00415878
0.00443761
0.0046993
0.00494023
0.00515696
0.00534636
0.00550568
0.0056326
0.00572537
0.00578281
0.00580442
0.00579035
0.00574146
0.00565929
0.00554602
0.00540445
0.0052379
0.00505017
0.00484539
0.00462796
0.0044024
0.00417327
0.00394506
0.00372207
0.00350833
0.00330748
0.00312339
0.00295951
0.00281087
0.00267116
0.00197073
0.00160101
0.00130079
0.00104673
0.000811596
0.00059596
0.00040077
0.000225052
6.78514e-05
-7.16069e-05
-0.000194053
-0.000300169
-0.000390562
-0.000465741
-0.000526106
-0.000571933
-0.000603364
-0.00062041
-0.000622951
-0.000610745
-0.000583443
-0.000540606
-0.000481734
-0.000406292
-0.000313744
-0.000203587
-7.53852e-05
7.11879e-05
0.000236314
0.000419989
0.00062199
0.000841835
0.00107875
0.00133166
0.00159914
0.00187942
0.00217037
0.00246953
0.00277408
0.0030809
0.00338661
0.0036876
0.00398011
0.00426026
0.00452422
0.00476819
0.00498857
0.00518203
0.0053456
0.00547677
0.00557356
0.00563458
0.00565914
0.00564721
0.00559947
0.00551731
0.00540281
0.00525864
0.00508804
0.00489473
0.00468278
0.00445653
0.00422045
0.00397905
0.00373674
0.00349778
0.0032661
0.00304527
0.00283921
0.00265144
0.00247438
0.00229946
0.002176
0.00176063
0.00142683
0.00114795
0.000892629
0.000660932
0.000453331
0.000268135
0.000103713
-4.13126e-05
-0.000168209
-0.000278131
-0.000372088
-0.000450929
-0.000515328
-0.000565778
-0.000602584
-0.000625865
-0.000635566
-0.000631467
-0.000613201
-0.00058028
-0.000532123
-0.000468089
-0.000387511
-0.000289737
-0.000174167
-4.02998e-05
0.000112232
0.000283612
0.000473805
0.000682511
0.000909137
0.00115276
0.0014121
0.00168552
0.00197099
0.0022661
0.0025681
0.00287386
0.00317997
0.00348276
0.00377835
0.00406276
0.00433195
0.00458194
0.00480892
0.00500931
0.00517987
0.00531784
0.00542097
0.00548763
0.00551686
0.00550842
0.0054628
0.00538121
0.00526557
0.00511846
0.00494303
0.00474293
0.00452221
0.00428519
0.00403635
0.00378019
0.00352117
0.00326356
0.00301129
0.00276796
0.0025377
0.00232417
0.00211734
0.00190656
0.00234804
0.0018884
0.00152174
0.00121828
0.000942691
0.000694568
0.000473947
0.000278468
0.000105863
-4.58112e-05
-0.000178328
-0.000293285
-0.000392074
-0.000475858
-0.000545569
-0.0006019
-0.000645302
-0.000675994
-0.000693972
-0.000699026
-0.000690764
-0.000668638
-0.000631975
-0.000580017
-0.000511959
-0.000426988
-0.000324331
-0.000203296
-6.33236e-05
9.59701e-05
0.000274746
0.0004729
0.000690021
0.000925356
0.00117778
0.00144578
0.00172742
0.00202038
0.00232191
0.00262892
0.00293793
0.00324519
0.0035467
0.00383832
0.0041158
0.00437493
0.00461163
0.00482203
0.00500259
0.00515022
0.00526237
0.0053371
0.00537315
0.00537
0.00532791
0.00524789
0.00513169
0.00498176
0.00480117
0.00459352
0.00436285
0.0041135
0.00385002
0.00357698
0.00329894
0.00302027
0.00274503
0.00247691
0.00222037
0.00197935
0.00174148
0.0014941
0.00248075
0.00197835
0.00157976
0.00125218
0.000956495
0.000691848
0.000457867
0.000251552
7.00333e-05
-8.91675e-05
-0.000228302
-0.000349385
-0.000454163
-0.000544095
-0.000620349
-0.000683801
-0.000735031
-0.000774343
-0.00080177
-0.000817101
-0.000819905
-0.000809562
-0.0007853
-0.000746232
-0.000691401
-0.000619824
-0.000530541
-0.000422662
-0.000295419
-0.000148217
1.93144e-05
0.000207277
0.000415456
0.000643279
0.000889782
0.00115359
0.00143287
0.00172538
0.00202841
0.00233885
0.00265318
0.00296754
0.00327782
0.00357965
0.00386857
0.0041401
0.00438984
0.00461359
0.00480745
0.00496797
0.00509221
0.00517786
0.00522332
0.00522775
0.0051911
0.00511415
0.00499845
0.00484629
0.00466067
0.00444514
0.00420376
0.00394093
0.00366128
0.00336956
0.00307047
0.00276859
0.00246817
0.00217314
0.00188835
0.00161813
0.00134788
0.001063
0.00256843
0.00202485
0.0015954
0.00124435
0.000928937
0.000647876
0.0004004
0.000182895
-8.08448e-06
-0.000175527
-0.000322137
-0.000450323
-0.000562161
-0.000659386
-0.000743381
-0.000815185
-0.000875493
-0.000924673
-0.000962784
-0.000989598
-0.00100463
-0.00100719
-0.000996375
-0.000971167
-0.000930445
-0.000873043
-0.0007978
-0.000703615
-0.0005895
-0.000454633
-0.000298419
-0.000120535
7.90143e-05
0.000299853
0.000541193
0.000801805
0.00107999
0.00137357
0.00167988
0.00199581
0.00231779
0.00264185
0.00296372
0.00327883
0.00358246
0.00386982
0.00413616
0.00437688
0.00458769
0.00476469
0.00490451
0.00500441
0.00506237
0.00507717
0.00504841
0.00497656
0.00486294
0.00470968
0.00451965
0.00429638
0.00404395
0.00376685
0.00346987
0.00315795
0.00283604
0.002509
0.00218137
0.00185738
0.00154239
0.00124126
0.000937162
0.000613588
0.00260566
0.00202259
0.00156345
0.00118971
0.000855097
0.000557893
0.000296946
6.80503e-05
-0.000132796
-0.00030907
-0.000463905
-0.000600081
-0.000719986
-0.000825606
-0.000918522
-0.000999914
-0.00107058
-0.00113092
-0.00118102
-0.00122062
-0.00124917
-0.00126587
-0.0012697
-0.0012595
-0.00123396
-0.00119172
-0.00113141
-0.0010517
-0.000951362
-0.000829339
-0.000684787
-0.000517148
-0.000326196
-0.000112092
0.000124573
0.000382736
0.000660834
0.000956786
0.00126799
0.00159132
0.00192317
0.00225947
0.00259577
0.00292728
0.00324901
0.0035558
0.00384253
0.00410416
0.00433592
0.00453343
0.0046928
0.00481079
0.00488488
0.00491341
0.00489555
0.00483142
0.00472204
0.00456934
0.00437605
0.00414567
0.0038823
0.00359056
0.00327543
0.00294209
0.00259582
0.00224185
0.00188507
0.00153013
0.001183
0.000849136
0.00050952
0.000145711
0.00258729
0.0019665
0.00147895
0.00108342
0.000730246
0.000417293
0.000143021
-9.73504e-05
-0.000308362
-0.00049396
-0.000657691
-0.000802683
-0.000931617
-0.00104671
-0.00114972
-0.00124195
-0.00132428
-0.00139715
-0.00146063
-0.00151441
-0.00155788
-0.00159012
-0.00160997
-0.00161611
-0.00160703
-0.00158118
-0.00153694
-0.00147274
-0.00138712
-0.00127874
-0.0011465
-0.000989582
-0.000807507
-0.000600197
-0.000368024
-0.000111859
0.000166895
0.000466277
0.000783755
0.00111623
0.00146005
0.00181104
0.00216459
0.00251568
0.00285898
0.00318901
0.00350017
0.00378697
0.00404409
0.00426658
0.00444997
0.00459044
0.0046849
0.00473113
0.00472783
0.00467467
0.00457233
0.00442246
0.00422764
0.0039913
0.00371758
0.00341125
0.00307749
0.00272182
0.00234989
0.00196736
0.00157961
0.00119175
0.00081048
0.000441933
6.48741e-05
-0.000341119
0.00250843
0.00185178
0.00133721
0.000920862
0.000549858
0.000221641
-6.57174e-05
-0.000317564
-0.000538962
-0.000734311
-0.000907551
-0.00106214
-0.00120104
-0.00132668
-0.00144096
-0.00154532
-0.00164068
-0.0017275
-0.00180584
-0.00187533
-0.00193526
-0.00198459
-0.00202202
-0.00204603
-0.00205493
-0.00204692
-0.00202016
-0.00197282
-0.00190315
-0.00180953
-0.00169059
-0.00154522
-0.00137265
-0.00117254
-0.00094502
-0.000690733
-0.000410893
-0.000107312
0.000217576
0.000560715
0.000918432
0.00128647
0.00166004
0.00203389
0.00240237
0.00275959
0.0030995
0.00341604
0.00370333
0.00395576
0.0041682
0.00433616
0.00445586
0.00452446
0.00454006
0.00450183
0.00441001
0.00426592
0.00407193
0.00383137
0.00354842
0.00322798
0.00287553
0.00249692
0.00209826
0.00168573
0.00126524
0.000842487
0.000424986
1.96495e-05
-0.000397058
-0.000847622
0.00236442
0.00167388
0.00113373
0.000697634
0.000309616
-3.33031e-05
-0.000333444
-0.000596704
-0.000828655
-0.00103414
-0.00121747
-0.00138242
-0.00153221
-0.00166946
-0.00179623
-0.00191403
-0.00202384
-0.00212613
-0.00222091
-0.00230775
-0.00238583
-0.00245398
-0.00251073
-0.00255438
-0.00258301
-0.00259459
-0.00258701
-0.00255817
-0.00250602
-0.00242865
-0.00232436
-0.00219173
-0.00202968
-0.00183758
-0.00161526
-0.00136311
-0.00108211
-0.000773898
-0.000440767
-8.57021e-05
0.000287633
0.000674912
0.00107119
0.00147098
0.0018683
0.00225683
0.00263003
0.00298125
0.00330393
0.00359176
0.00383886
0.00403994
0.00419047
0.00428684
0.00432647
0.0043079
0.00423084
0.00409622
0.00390612
0.00366374
0.00337326
0.00303974
0.00266894
0.00226713
0.00184092
0.00139709
0.000942171
0.000482546
2.66265e-05
-0.000417792
-0.000876663
-0.00137465
0.00215083
0.00142848
0.000864311
0.000409593
5.43657e-06
-0.000351569
-0.000664138
-0.000938707
-0.00118134
-0.00139731
-0.0015913
-0.00176737
-0.00192898
-0.00207894
-0.00221943
-0.00235205
-0.0024778
-0.00259716
-0.00271007
-0.00281604
-0.00291411
-0.00300299
-0.00308102
-0.00314629
-0.00319667
-0.00322986
-0.00324348
-0.00323513
-0.00320244
-0.00314317
-0.00305528
-0.00293701
-0.00278693
-0.00260407
-0.00238792
-0.00213859
-0.00185678
-0.0015439
-0.00120205
-0.000834114
-0.000443708
-3.51994e-05
0.000386339
0.000815181
0.00124503
0.00166913
0.00208038
0.00247151
0.00283524
0.00316445
0.00345241
0.00369294
0.00388063
0.00401099
0.00408061
0.00408728
0.0040301
0.00390946
0.0037271
0.00348602
0.00319037
0.00284537
0.00245705
0.00203216
0.00157787
0.00110161
0.000610666
0.000112159
-0.000384476
-0.000870469
-0.00137434
-0.00192307
0.00186352
0.00111157
0.000524996
5.28514e-05
-0.000366516
-0.000736949
-0.00106156
-0.0013473
-0.00160074
-0.00182754
-0.00203273
-0.00222068
-0.00239506
-0.00255885
-0.00271435
-0.00286322
-0.00300648
-0.00314459
-0.00327745
-0.00340445
-0.00352454
-0.00363624
-0.00373772
-0.00382686
-0.00390126
-0.00395839
-0.00399555
-0.00401002
-0.00399911
-0.00396021
-0.00389091
-0.00378906
-0.00365286
-0.00348094
-0.00327244
-0.00302709
-0.00274528
-0.00242813
-0.00207751
-0.00169615
-0.00128755
-0.000856099
-0.000406955
5.39452e-05
0.000519983
0.000983956
0.00143821
0.00187478
0.0022856
0.00266268
0.00299833
0.00328536
0.00351734
0.00368876
0.00379524
0.0038337
0.00380243
0.00370123
0.00353135
0.00329552
0.00299781
0.00264356
0.00223912
0.0017917
0.00130911
0.000799532
0.00027105
-0.000268356
-0.000808114
-0.00133838
-0.00189042
-0.0024937
0.00149861
0.000719371
0.00011212
-0.000376199
-0.000809803
-0.00119297
-0.0015292
-0.00182598
-0.00209031
-0.00232828
-0.00254525
-0.00274584
-0.00293396
-0.00311274
-0.00328457
-0.00345118
-0.0036136
-0.00377226
-0.00392699
-0.00407708
-0.00422135
-0.00435816
-0.00448548
-0.00460096
-0.00470197
-0.00478566
-0.00484904
-0.00488905
-0.00490263
-0.0048868
-0.00483872
-0.00475585
-0.00463594
-0.00447719
-0.00427832
-0.00403865
-0.00375818
-0.00343768
-0.00307874
-0.00268384
-0.00225636
-0.00180059
-0.00132178
-0.000826019
-0.000320234
0.000187934
0.000690247
0.00117803
0.00164237
0.00207431
0.00246509
0.0028064
0.00309064
0.00331111
0.00346232
0.00354011
0.00354186
0.00346656
0.0033149
0.00308919
0.00279339
0.00243288
0.00201433
0.00154545
0.00103473
0.000491182
-7.6218e-05
-0.000658529
-0.00124392
-0.00182135
-0.00242506
-0.00308721
0.00105254
0.000248461
-0.000377675
-0.00088086
-0.00132769
-0.00172287
-0.00207029
-0.00237794
-0.00265327
-0.00290275
-0.00313206
-0.0033461
-0.00354895
-0.0037439
-0.00393345
-0.00411935
-0.00430264
-0.00448373
-0.00466237
-0.00483774
-0.00500853
-0.00517292
-0.00532869
-0.00547324
-0.00560369
-0.00571688
-0.00580951
-0.00587815
-0.00591936
-0.00592973
-0.00590601
-0.00584516
-0.00574448
-0.00560169
-0.00541501
-0.0051833
-0.00490609
-0.00458375
-0.0042175
-0.0038095
-0.00336291
-0.00288192
-0.00237174
-0.00183861
-0.00128971
-0.000733109
-0.000177627
0.00036732
0.000891912
0.00138615
0.00184011
0.00224421
0.00258952
0.00286801
0.00307286
0.00319865
0.00324164
0.00319987
0.00307325
0.00286361
0.00257463
0.00221172
0.00178181
0.00129313
0.000754903
0.000177039
-0.000430487
-0.00105767
-0.00169129
-0.00231897
-0.00297819
-0.003704
0.000522094
-0.000304268
-0.000947411
-0.00146411
-0.00192311
-0.00232956
-0.00268773
-0.00300608
-0.00329251
-0.00355385
-0.00379609
-0.00402438
-0.00424298
-0.00445533
-0.004664
-0.00487079
-0.00507675
-0.00528223
-0.00548692
-0.0056899
-0.00588969
-0.00608431
-0.00627133
-0.00644793
-0.00661092
-0.00675687
-0.00688211
-0.00698286
-0.00705523
-0.0070954
-0.00709964
-0.00706439
-0.00698645
-0.00686298
-0.00669167
-0.00647082
-0.00619945
-0.00587742
-0.00550549
-0.00508544
-0.00462013
-0.00411353
-0.00357078
-0.00299816
-0.00240308
-0.001794
-0.0011803
-0.000572158
1.96564e-05
0.000584031
0.00110977
0.00158589
0.00200196
0.00234842
0.0026169
0.00280055
0.00289425
0.00289486
0.00280137
0.00261491
0.00233877
0.00197828
0.00154061
0.00103449
0.000469919
-0.000142221
-0.000790861
-0.00146482
-0.00214931
-0.00283051
-0.00354939
-0.00434414
-9.55894e-05
-0.000941552
-0.00159975
-0.00212856
-0.00259866
-0.00301561
-0.00338407
-0.00371295
-0.00401059
-0.00428414
-0.0045399
-0.00478324
-0.00501863
-0.00524962
-0.00547886
-0.00570819
-0.00593866
-0.00617058
-0.00640355
-0.00663655
-0.00686795
-0.00709562
-0.0073169
-0.00752872
-0.00772763
-0.00790986
-0.00807142
-0.00820809
-0.00831559
-0.00838961
-0.00842589
-0.00842037
-0.00836924
-0.00826907
-0.00811694
-0.00791053
-0.00764825
-0.00732938
-0.00695413
-0.00652379
-0.00604081
-0.00550887
-0.00493291
-0.00431921
-0.00367531
-0.00301
-0.00233322
-0.00165589
-0.000989755
-0.000347104
0.00025949
0.000817511
0.00131486
0.00174024
0.00208351
0.0023361
0.0024913
0.00254453
0.0024936
0.00233874
0.0020827
0.00173058
0.00128972
0.000769336
0.000180229
-0.000465683
-0.00115613
-0.00187862
-0.00261667
-0.0033548
-0.00413781
-0.00500727
-0.000802958
-0.00166574
-0.00233697
-0.00287644
-0.00335654
-0.00378321
-0.00416149
-0.00450074
-0.00480967
-0.00509578
-0.00536564
-0.00562486
-0.00587808
-0.00612895
-0.00638022
-0.00663376
-0.00689062
-0.00715105
-0.0074146
-0.00768013
-0.00794588
-0.00820953
-0.00846822
-0.00871864
-0.00895706
-0.00917938
-0.00938124
-0.00955803
-0.009705
-0.00981733
-0.00989024
-0.00991907
-0.00989938
-0.00982711
-0.00969863
-0.00951094
-0.00926175
-0.00894965
-0.0085742
-0.0081361
-0.00763729
-0.00708101
-0.00647194
-0.0058162
-0.0051214
-0.00439659
-0.00365218
-0.00289985
-0.00215229
-0.00142304
-0.00072613
-7.57383e-05
0.000514193
0.0010304
0.00146076
0.00179467
0.00202355
0.00214109
0.00214363
0.00203026
0.00180294
0.00146643
0.00102808
0.000497557
-0.000113522
-0.000792137
-0.00152472
-0.00229733
-0.00309156
-0.00389018
-0.00474206
-0.00569249
-0.00160202
-0.00247874
-0.00316094
-0.00370961
-0.00419857
-0.00463416
-0.00502178
-0.00537121
-0.00569151
-0.00599051
-0.00627505
-0.00655095
-0.00682301
-0.007095
-0.00736976
-0.00764917
-0.00793429
-0.00822534
-0.00852179
-0.00882241
-0.0091253
-0.00942797
-0.00972736
-0.0100199
-0.0103016
-0.010568
-0.0108145
-0.0110359
-0.011227
-0.0113825
-0.0114971
-0.0115654
-0.0115824
-0.0115432
-0.0114435
-0.0112795
-0.0110481
-0.0107472
-0.0103755
-0.00993303
-0.00942107
-0.00884231
-0.00820103
-0.00750308
-0.00675602
-0.00596904
-0.00515297
-0.00432015
-0.00348425
-0.00266006
-0.00186313
-0.00110944
-0.000414936
0.000204944
0.000735783
0.00116471
0.00148088
0.00167597
0.00174449
0.00168409
0.00149567
0.00118341
0.000754552
0.000219129
-0.000410459
-0.00112002
-0.00189459
-0.00271863
-0.00357164
-0.00443435
-0.00536015
-0.00639825
-0.00249434
-0.00338205
-0.00407309
-0.00462945
-0.00512613
-0.00556984
-0.0059663
-0.00632569
-0.00665743
-0.00696963
-0.00726939
-0.00756273
-0.0078546
-0.00814891
-0.00844855
-0.00875547
-0.0090707
-0.00939445
-0.00972612
-0.0100644
-0.0104072
-0.010752
-0.0110955
-0.0114338
-0.0117627
-0.0120774
-0.0123729
-0.0126436
-0.0128839
-0.0130878
-0.0132495
-0.0133629
-0.0134222
-0.0134219
-0.0133567
-0.0132221
-0.0130141
-0.0127296
-0.0123665
-0.0119239
-0.0114024
-0.010804
-0.0101323
-0.00939291
-0.00859307
-0.00774204
-0.00685094
-0.0059327
-0.00500191
-0.0040746
-0.0031679
-0.00229968
-0.00148806
-0.000750865
-0.000105078
0.000433812
0.000852385
0.00113986
0.00128856
0.00129433
0.00115668
0.00087892
0.00046799
-6.58431e-05
-0.000709426
-0.00144737
-0.0022632
-0.00313964
-0.00405383
-0.00498431
-0.00598929
-0.00712222
-0.00348096
-0.00437666
-0.00507441
-0.00563694
-0.00614019
-0.00659117
-0.00699597
-0.00736509
-0.00770827
-0.00803393
-0.00834939
-0.00866086
-0.00897346
-0.0092912
-0.00961706
-0.00995302
-0.0103001
-0.0106586
-0.0110277
-0.0114062
-0.0117918
-0.0121817
-0.0125726
-0.0129604
-0.0133404
-0.0137078
-0.0140569
-0.0143819
-0.0146765
-0.0149344
-0.0151489
-0.0153134
-0.0154213
-0.0154661
-0.0154419
-0.0153431
-0.0151646
-0.0149025
-0.0145536
-0.0141162
-0.0135898
-0.0129755
-0.0122764
-0.0114973
-0.0106452
-0.00972917
-0.00876054
-0.00775269
-0.00672105
-0.00568283
-0.00465678
-0.00366271
-0.00272105
-0.00185225
-0.00107611
-0.000411089
0.000126415
0.000522748
0.000767615
0.00085458
0.000781397
0.000550159
0.000167224
-0.000357082
-0.00100893
-0.00177173
-0.00262738
-0.00355672
-0.00453432
-0.00553621
-0.00662584
-0.00786119
-0.00456244
-0.00546311
-0.0061654
-0.00673259
-0.00724123
-0.00769865
-0.00811123
-0.0084898
-0.00884441
-0.00918371
-0.00951525
-0.00984545
-0.0101796
-0.0105217
-0.010875
-0.0112414
-0.0116221
-0.0120171
-0.0124259
-0.0128469
-0.013278
-0.0137161
-0.0141577
-0.0145985
-0.0150338
-0.0154581
-0.0158655
-0.0162498
-0.0166042
-0.0169217
-0.0171951
-0.017417
-0.01758
-0.0176768
-0.0177004
-0.0176442
-0.0175023
-0.0172694
-0.0169413
-0.0165152
-0.0159894
-0.0153642
-0.0146416
-0.0138258
-0.0129231
-0.0119423
-0.0108947
-0.00979406
-0.00865643
-0.00750017
-0.00634559
-0.0052145
-0.00412976
-0.00311461
-0.00219194
-0.00138354
-0.000709202
-0.000185915
0.000172894
0.000358021
0.000364967
0.000194191
-0.000148873
-0.000654084
-0.00130707
-0.00209005
-0.00298324
-0.00396543
-0.00500832
-0.0060852
-0.0072651
-0.00861087
-0.00573878
-0.00664142
-0.00734613
-0.00791646
-0.00842932
-0.00889231
-0.0093121
-0.00969979
-0.0100657
-0.0104187
-0.0107666
-0.011116
-0.0114723
-0.0118397
-0.0122214
-0.0126195
-0.0130352
-0.0134685
-0.0139189
-0.0143847
-0.0148637
-0.0153528
-0.0158483
-0.0163458
-0.0168401
-0.0173256
-0.017796
-0.0182446
-0.0186642
-0.0190472
-0.0193857
-0.0196715
-0.0198964
-0.0200523
-0.0201311
-0.0201251
-0.0200272
-0.019831
-0.0195312
-0.0191234
-0.0186049
-0.0179748
-0.0172339
-0.0163855
-0.0154351
-0.014391
-0.0132643
-0.0120688
-0.0108211
-0.00954062
-0.00824905
-0.00697024
-0.00572952
-0.00455308
-0.00346718
-0.00249725
-0.00166693
-0.000997046
-0.000504719
-0.000202492
-9.76857e-05
-0.000191986
-0.000481318
-0.000956049
-0.00160146
-0.00239865
-0.00332609
-0.00436036
-0.00547002
-0.0066253
-0.00790123
-0.00936577
-0.00700947
-0.00791114
-0.00861615
-0.00918815
-0.00970407
-0.0101717
-0.0105981
-0.0109945
-0.0113715
-0.0117382
-0.0121026
-0.0124714
-0.0128503
-0.0132435
-0.0136545
-0.0140853
-0.0145371
-0.0150102
-0.0155038
-0.0160164
-0.0165456
-0.0170884
-0.0176407
-0.0181981
-0.0187551
-0.0193059
-0.0198438
-0.0203617
-0.0208519
-0.0213061
-0.0217159
-0.0220722
-0.0223661
-0.0225884
-0.02273
-0.0227821
-0.0227364
-0.0225851
-0.0223215
-0.0219399
-0.0214364
-0.0208083
-0.0200555
-0.01918
-0.0181862
-0.0170818
-0.0158773
-0.0145863
-0.0132258
-0.0118161
-0.0103801
-0.00894364
-0.00753452
-0.006182
-0.00491591
-0.00376567
-0.00275917
-0.00192165
-0.00127449
-0.000834247
-0.000611711
-0.000611327
-0.000830916
-0.00126177
-0.00188911
-0.00269303
-0.00365026
-0.00473499
-0.00591236
-0.00714922
-0.00852697
-0.010119
-0.00837344
-0.0092713
-0.0099746
-0.0105468
-0.0110646
-0.0115361
-0.0119683
-0.0123729
-0.0127606
-0.0131408
-0.0135215
-0.0139099
-0.0143115
-0.0147309
-0.0151716
-0.0156357
-0.0161246
-0.0166384
-0.0171766
-0.0177377
-0.0183191
-0.0189177
-0.0195295
-0.0201497
-0.0207729
-0.0213928
-0.0220025
-0.0225944
-0.0231603
-0.0236914
-0.0241786
-0.0246121
-0.024982
-0.0252781
-0.0254904
-0.0256087
-0.0256235
-0.0255257
-0.025307
-0.0249604
-0.0244802
-0.0238624
-0.0231052
-0.0222093
-0.0211779
-0.0200175
-0.0187379
-0.0173524
-0.0158781
-0.0143356
-0.0127491
-0.0111462
-0.00955714
-0.00801426
-0.00655114
-0.00520148
-0.00399786
-0.00297043
-0.00214554
-0.00154444
-0.00118214
-0.00106658
-0.00119812
-0.00156952
-0.00216631
-0.00296778
-0.00394896
-0.00508152
-0.0063269
-0.00764817
-0.00913352
-0.0108621
-0.00982911
-0.0107205
-0.0114201
-0.0119912
-0.0125098
-0.0129841
-0.0134214
-0.0138336
-0.0142315
-0.0146247
-0.0150215
-0.015429
-0.0158532
-0.0162988
-0.0167692
-0.017267
-0.0177933
-0.0183487
-0.0189324
-0.019543
-0.020178
-0.0208343
-0.0215078
-0.0221935
-0.0228858
-0.0235783
-0.0242636
-0.0249338
-0.0255803
-0.0261937
-0.0267641
-0.0272811
-0.0277339
-0.0281112
-0.028402
-0.0285948
-0.0286788
-0.0286433
-0.0284788
-0.0281763
-0.0277286
-0.02713
-0.0263771
-0.0254687
-0.0244068
-0.0231964
-0.0218463
-0.020369
-0.0187814
-0.0171044
-0.0153631
-0.0135864
-0.0118071
-0.0100605
-0.00838408
-0.00681596
-0.00539384
-0.00415334
-0.00312643
-0.00233984
-0.00181363
-0.00156008
-0.00158286
-0.00187687
-0.00242844
-0.00321639
-0.00421411
-0.00539071
-0.00670357
-0.00811163
-0.00971029
-0.0115846
-0.0113744
-0.0122567
-0.012951
-0.0135196
-0.0140378
-0.014514
-0.0149557
-0.0153746
-0.015782
-0.0161875
-0.0165997
-0.0170258
-0.0174721
-0.0179433
-0.0184432
-0.0189742
-0.019538
-0.020135
-0.0207646
-0.0214254
-0.0221151
-0.0228303
-0.0235671
-0.0243203
-0.0250842
-0.0258521
-0.0266164
-0.0273688
-0.0281003
-0.0288008
-0.02946
-0.0300665
-0.0306087
-0.0310744
-0.0314512
-0.0317267
-0.0318885
-0.0319245
-0.0318234
-0.0315747
-0.0311693
-0.0305997
-0.0298605
-0.0289488
-0.0278647
-0.0266118
-0.0251974
-0.023633
-0.0219347
-0.0201234
-0.0182247
-0.0162689
-0.0142907
-0.0123285
-0.0104233
-0.00861826
-0.00695629
-0.00547902
-0.00422471
-0.00322639
-0.00251013
-0.00209345
-0.00198429
-0.00218048
-0.00266982
-0.00343105
-0.00443615
-0.0056516
-0.00703047
-0.00852714
-0.0102446
-0.0122741
-0.0130066
-0.0138778
-0.0145651
-0.01513
-0.0156469
-0.016124
-0.016569
-0.0169938
-0.0174096
-0.0178264
-0.0182529
-0.0186966
-0.0191639
-0.0196598
-0.0201881
-0.0207518
-0.0213523
-0.0219904
-0.0226657
-0.0233768