/*--------------------------------*- C++ -*----------------------------------*\
  =========                 |
  \\      /  F ield         | OpenFOAM: The Open Source CFD Toolbox
   \\    /   O peration     | Website:  https://openfoam.org
    \\  /    A nd           | Version:  dev
     \\/     M anipulation  |
\*---------------------------------------------------------------------------*/
FoamFile
{
    format      ascii;
    class       volScalarField;
    location    "32.4";
    object      Ux;
}
// * * * * * * * * * * * * * * * * * * * * * * * * * * * * * * * * * * * * * //

dimensions      [0 1 -1 0 0 0 0];

internalField   nonuniform List<scalar> 
5184
(
1.23053e-05
4.51375e-05
8.03185e-05
9.59878e-05
8.21641e-05
3.64705e-05
-4.05444e-05
-0.000146862
-0.000279688
-0.000435967
-0.000612577
-0.000806484
-0.00101482
-0.00123492
-0.00146433
-0.00170078
-0.00194221
-0.00218669
-0.00243245
-0.0026778
-0.00292114
-0.0031609
-0.00339556
-0.00362359
-0.00384346
-0.00405364
-0.00425256
-0.00443866
-0.00461035
-0.00476606
-0.00490422
-0.00502332
-0.00512189
-0.00519855
-0.00525205
-0.00528127
-0.00528526
-0.0052633
-0.00521488
-0.00513979
-0.00503807
-0.0049101
-0.0047566
-0.00457861
-0.00437754
-0.00415514
-0.00391351
-0.00365508
-0.00338256
-0.00309898
-0.00280755
-0.00251172
-0.00221504
-0.00192119
-0.00163382
-0.00135657
-0.001093
-0.000846467
-0.000620117
-0.000416804
-0.000239026
-8.88587e-05
3.21081e-05
0.000122861
0.000183068
0.000213231
0.000214936
0.000191236
0.000147161
9.08057e-05
3.66345e-05
6.22878e-06
2.08348e-05
6.56071e-05
9.47138e-05
7.28212e-05
-1.89105e-05
-0.000187296
-0.000432919
-0.000752561
-0.00114068
-0.00159049
-0.00209465
-0.0026457
-0.00323634
-0.00385958
-0.00450881
-0.00517783
-0.00586085
-0.00655241
-0.00724739
-0.00794089
-0.00862823
-0.00930485
-0.00996626
-0.0106081
-0.0112258
-0.0118152
-0.0123716
-0.0128909
-0.0133685
-0.0138001
-0.0141815
-0.0145085
-0.0147773
-0.0149843
-0.0151262
-0.0152
-0.0152036
-0.015135
-0.0149932
-0.0147778
-0.0144892
-0.0141286
-0.0136981
-0.0132008
-0.0126406
-0.0120224
-0.0113519
-0.0106357
-0.0098813
-0.00909671
-0.00829065
-0.0074723
-0.0066512
-0.00583708
-0.00503973
-0.00426882
-0.00353372
-0.00284336
-0.00220602
-0.00162917
-0.0011193
-0.000681701
-0.000320287
-3.73411e-05
0.000166769
0.000293966
0.000348996
0.000340132
0.000279866
0.000186057
8.63782e-05
1.96846e-05
1.76324e-05
4.13256e-05
1.9601e-05
-8.39921e-05
-0.000290241
-0.000607896
-0.00103822
-0.00157739
-0.00221826
-0.00295162
-0.00376721
-0.00465431
-0.0056022
-0.00660042
-0.00763891
-0.00870811
-0.00979894
-0.0109028
-0.0120115
-0.0131171
-0.0142122
-0.0152892
-0.0163411
-0.0173606
-0.0183407
-0.0192743
-0.0201544
-0.020974
-0.0217263
-0.0224045
-0.023002
-0.0235126
-0.0239302
-0.0242495
-0.0244655
-0.0245741
-0.0245717
-0.0244559
-0.0242253
-0.0238794
-0.0234191
-0.0228466
-0.0221653
-0.02138
-0.0204971
-0.0195241
-0.0184699
-0.0173448
-0.0161602
-0.0149285
-0.013663
-0.0123777
-0.0110872
-0.00980635
-0.00855001
-0.00733289
-0.00616924
-0.00507259
-0.00405547
-0.00312917
-0.00230343
-0.00158613
-0.000983007
-0.000497304
-0.000129326
0.000123997
0.00026976
0.000319811
0.000291283
0.000207406
0.000102456
2.49794e-05
8.83847e-06
-7.0114e-06
-0.000107578
-0.000322357
-0.000669591
-0.00115769
-0.0017874
-0.00255396
-0.00344881
-0.00446093
-0.00557785
-0.00678635
-0.00807303
-0.00942463
-0.0108283
-0.0122715
-0.0137424
-0.0152295
-0.016722
-0.0182093
-0.0196812
-0.0211277
-0.022539
-0.0239055
-0.0252177
-0.026466
-0.0276412
-0.0287339
-0.0297351
-0.0306359
-0.0314276
-0.0321022
-0.0326519
-0.0330697
-0.0333495
-0.033486
-0.0334749
-0.0333132
-0.0329992
-0.0325328
-0.0319152
-0.0311496
-0.0302405
-0.0291946
-0.0280202
-0.0267271
-0.0253272
-0.0238337
-0.0222615
-0.0206267
-0.0189464
-0.017239
-0.015523
-0.0138178
-0.0121424
-0.0105159
-0.00895663
-0.00748197
-0.00610809
-0.00484948
-0.00371864
-0.00272568
-0.00187793
-0.00117951
-0.000630905
-0.000228399
3.64828e-05
0.000177637
0.000214789
0.000174103
9.30318e-05
2.40287e-05
-2.12498e-06
-6.72906e-05
-0.000264105
-0.00060976
-0.00111675
-0.00179129
-0.00263239
-0.00363367
-0.00478501
-0.00607368
-0.00748535
-0.00900476
-0.0106163
-0.0123045
-0.0140539
-0.0158498
-0.0176778
-0.0195241
-0.0213753
-0.0232184
-0.0250409
-0.0268304
-0.0285749
-0.0302624
-0.0318811
-0.0334194
-0.0348659
-0.0362091
-0.0374381
-0.038542
-0.0395105
-0.0403338
-0.0410029
-0.0415094
-0.0418459
-0.0420065
-0.0419861
-0.0417814
-0.0413907
-0.0408139
-0.040053
-0.0391116
-0.0379957
-0.0367133
-0.0352743
-0.033691
-0.0319773
-0.0301493
-0.0282247
-0.0262228
-0.0241641
-0.0220703
-0.0199638
-0.0178674
-0.0158041
-0.0137964
-0.0118663
-0.0100345
-0.00832034
-0.00674111
-0.00531177
-0.00404444
-0.00294801
-0.0020276
-0.00128417
-0.00071394
-0.000307929
-5.13585e-05
7.66489e-05
0.000103596
6.75078e-05
1.9666e-05
-1.36947e-05
-0.000132833
-0.000435822
-0.000924632
-0.0016039
-0.00247617
-0.00353762
-0.00477955
-0.00618986
-0.00775403
-0.00945593
-0.0112785
-0.0132042
-0.0152157
-0.0172954
-0.0194267
-0.0215929
-0.0237782
-0.025967
-0.0281443
-0.0302953
-0.0324056
-0.0344611
-0.0364477
-0.0383518
-0.0401596
-0.0418579
-0.0434333
-0.0448732
-0.0461651
-0.0472971
-0.048258
-0.0490374
-0.049626
-0.0500154
-0.0501989
-0.050171
-0.0499281
-0.0494683
-0.0487918
-0.047901
-0.0468002
-0.0454965
-0.043999
-0.0423193
-0.0404712
-0.0384709
-0.0363366
-0.0340885
-0.0317487
-0.0293406
-0.0268888
-0.0244189
-0.021957
-0.0195291
-0.0171611
-0.014878
-0.0127036
-0.0106601
-0.00876729
-0.00704251
-0.00549983
-0.00414973
-0.00299856
-0.00204811
-0.00129511
-0.000730764
-0.000340361
-0.000102933
9.15224e-06
3.2497e-05
1.36212e-05
-2.51856e-05
-0.00020001
-0.000614075
-0.0012529
-0.00211201
-0.00318926
-0.00447708
-0.00596376
-0.00763479
-0.00947363
-0.0114623
-0.013582
-0.0158134
-0.0181374
-0.0205349
-0.0229872
-0.025476
-0.0279836
-0.0304925
-0.0329858
-0.0354469
-0.0378595
-0.0402077
-0.0424756
-0.0446476
-0.0467084
-0.0486428
-0.0504362
-0.052074
-0.0535425
-0.0548284
-0.0559193
-0.0568035
-0.0574709
-0.0579122
-0.0581201
-0.0580886
-0.0578137
-0.0572936
-0.0565286
-0.0555214
-0.0542769
-0.052803
-0.0511098
-0.0492101
-0.0471194
-0.0448554
-0.0424383
-0.0398906
-0.0372364
-0.0345018
-0.031714
-0.0289014
-0.0260928
-0.0233172
-0.0206035
-0.0179795
-0.0154717
-0.013105
-0.0109018
-0.00888166
-0.00706062
-0.00545097
-0.00406054
-0.00289234
-0.00194408
-0.00120782
-0.000669607
-0.000309236
-9.98687e-05
-7.71671e-06
6.8606e-06
-3.63394e-05
-0.000266938
-0.00079374
-0.00158561
-0.0026284
-0.00391454
-0.00543207
-0.00716569
-0.00909809
-0.0112104
-0.0134827
-0.0158943
-0.0184244
-0.0210521
-0.0237569
-0.0265184
-0.0293167
-0.0321326
-0.0349469
-0.0377412
-0.0404972
-0.0431969
-0.0458227
-0.0483572
-0.0507832
-0.0530839
-0.0552426
-0.057243
-0.0590695
-0.0607067
-0.0621404
-0.0633568
-0.0643435
-0.0650893
-0.0655842
-0.0658202
-0.0657909
-0.0654921
-0.0649217
-0.0640801
-0.0629701
-0.0615972
-0.0599697
-0.0580986
-0.0559977
-0.0536837
-0.0511757
-0.0484956
-0.0456675
-0.0427178
-0.0396746
-0.0365675
-0.0334273
-0.0302855
-0.0271739
-0.0241237
-0.0211658
-0.0183293
-0.0156416
-0.0131278
-0.0108096
-0.00870536
-0.00682934
-0.00519114
-0.00379537
-0.00264119
-0.001722
-0.00102525
-0.000532115
-0.000217225
-5.04648e-05
-8.47663e-08
-4.70597e-05
-0.000332632
-0.000971819
-0.00191717
-0.00314466
-0.00464095
-0.00638921
-0.00837016
-0.0105633
-0.0129472
-0.0154998
-0.0181985
-0.021021
-0.0239448
-0.0269479
-0.0300085
-0.0331055
-0.036218
-0.0393256
-0.0424083
-0.0454465
-0.0484208
-0.0513121
-0.0541017
-0.0567709
-0.0593015
-0.0616755
-0.0638754
-0.0658842
-0.0676856
-0.0692639
-0.0706046
-0.0716942
-0.0725206
-0.0730733
-0.0733434
-0.0733243
-0.0730111
-0.0724016
-0.071496
-0.0702972
-0.068811
-0.067046
-0.0650138
-0.0627288
-0.0602087
-0.0574739
-0.0545474
-0.051455
-0.0482248
-0.0448867
-0.0414727
-0.0380156
-0.0345496
-0.0311087
-0.0277271
-0.024438
-0.0212735
-0.0182636
-0.0154359
-0.0128147
-0.0104207
-0.00827047
-0.00637571
-0.00474299
-0.00337332
-0.00226196
-0.00139817
-0.000764998
-0.000339013
-9.41877e-05
-6.94446e-06
-5.73343e-05
-0.00039661
-0.00114658
-0.00224403
-0.00365523
-0.00536084
-0.00733893
-0.00956594
-0.0120179
-0.0146707
-0.0174998
-0.0204809
-0.0235899
-0.0268029
-0.0300964
-0.0334474
-0.0368336
-0.0402327
-0.0436233
-0.0469841
-0.0502942
-0.053533
-0.0566803
-0.0597159
-0.0626201
-0.0653734
-0.0679567
-0.0703512
-0.072539
-0.0745025
-0.0762252
-0.0776915
-0.078887
-0.0797989
-0.0804158
-0.0807283
-0.0807288
-0.0804124
-0.0797762
-0.0788203
-0.0775474
-0.0759632
-0.0740765
-0.0718991
-0.0694461
-0.0667358
-0.0637892
-0.0606308
-0.0572874
-0.0537886
-0.0501663
-0.0464541
-0.0426873
-0.0389021
-0.0351352
-0.0314232
-0.0278023
-0.0243072
-0.0209708
-0.0178233
-0.0148919
-0.0122
-0.00976658
-0.00760589
-0.00572682
-0.00413266
-0.00282084
-0.00178288
-0.00100401
-0.000463016
-0.000138068
-1.36025e-05
-6.7181e-05
-0.000458645
-0.001317
-0.00256399
-0.00415638
-0.00606887
-0.0082743
-0.0107446
-0.0134524
-0.0163703
-0.0194717
-0.0227301
-0.0261198
-0.0296153
-0.033192
-0.0368257
-0.0404928
-0.0441701
-0.047835
-0.0514652
-0.0550387
-0.058534
-0.0619296
-0.0652045
-0.0683378
-0.0713089
-0.0740978
-0.0766847
-0.0790505
-0.0811768
-0.083046
-0.0846417
-0.0859486
-0.0869529
-0.0876426
-0.0880074
-0.0880392
-0.0877322
-0.0870831
-0.0860915
-0.0847598
-0.0830933
-0.0811008
-0.0787941
-0.0761886
-0.0733027
-0.0701584
-0.0667807
-0.0631976
-0.0594401
-0.0555415
-0.0515374
-0.0474649
-0.0433626
-0.0392698
-0.0352257
-0.0312692
-0.0274381
-0.0237681
-0.0202926
-0.0170418
-0.0140421
-0.0113153
-0.00887844
-0.00674323
-0.00491554
-0.00339534
-0.00217671
-0.00124731
-0.000588223
-0.000181779
-2.00325e-05
-7.66239e-05
-0.000518634
-0.00148251
-0.00287561
-0.00464558
-0.00676123
-0.00919019
-0.0118999
-0.0148592
-0.0180377
-0.0214064
-0.0249367
-0.028601
-0.0323727
-0.0362257
-0.0401349
-0.0440754
-0.0480233
-0.051955
-0.0558472
-0.0596773
-0.0634226
-0.0670608
-0.07057
-0.0739284
-0.0771146
-0.0801076
-0.0828866
-0.0854316
-0.0877234
-0.0897435
-0.0914745
-0.0929002
-0.0940061
-0.0947791
-0.0952081
-0.0952842
-0.0950008
-0.094354
-0.0933425
-0.0919681
-0.0902357
-0.0881537
-0.0857337
-0.0829908
-0.0799438
-0.0766149
-0.0730297
-0.069217
-0.065209
-0.0610403
-0.0567483
-0.0523721
-0.0479525
-0.0435314
-0.0391508
-0.0348525
-0.0306774
-0.0266646
-0.0228508
-0.0192694
-0.0159502
-0.0129184
-0.0101942
-0.00779231
-0.00572159
-0.00398491
-0.00257912
-0.00149451
-0.000714477
-0.000225321
-2.62607e-05
-8.56844e-05
-0.000576525
-0.0016427
-0.0031779
-0.00512099
-0.0074351
-0.0100827
-0.0130267
-0.0162323
-0.019666
-0.0232962
-0.0270923
-0.0310251
-0.0350664
-0.039189
-0.0433667
-0.0475738
-0.0517855
-0.0559773
-0.0601254
-0.0642061
-0.0681962
-0.0720727
-0.0758128
-0.079394
-0.0827941
-0.0859912
-0.0889639
-0.0916912
-0.0941531
-0.0963303
-0.0982043
-0.0997582
-0.100976
-0.101845
-0.102352
-0.102487
-0.102243
-0.101615
-0.1006
-0.0992005
-0.0974196
-0.095265
-0.0927481
-0.0898835
-0.0866897
-0.0831891
-0.0794076
-0.0753748
-0.0711235
-0.0666898
-0.0621126
-0.057433
-0.0526942
-0.0479406
-0.0432171
-0.0385687
-0.0340398
-0.0296729
-0.0255083
-0.0215834
-0.0179315
-0.0145816
-0.0115574
-0.00887713
-0.00655303
-0.0045911
-0.0029912
-0.00174633
-0.000842226
-0.000268916
-3.23459e-05
-9.43777e-05
-0.000632282
-0.00179732
-0.00347012
-0.00558121
-0.00808823
-0.0109486
-0.014121
-0.0175666
-0.0212492
-0.0251345
-0.0291898
-0.0333843
-0.0376885
-0.0420739
-0.0465133
-0.0509803
-0.0554493
-0.0598953
-0.0642936
-0.06862
-0.0728508
-0.0769622
-0.0809309
-0.0847338
-0.0883479
-0.0917507
-0.0949201
-0.0978343
-0.100472
-0.102814
-0.104841
-0.106534
-0.107877
-0.108855
-0.109454
-0.109665
-0.109477
-0.108885
-0.107886
-0.106479
-0.104668
-0.102459
-0.0998625
-0.0968923
-0.0935667
-0.0899076
-0.0859413
-0.0816975
-0.0772099
-0.0725157
-0.0676553
-0.0626718
-0.0576106
-0.0525189
-0.0474447
-0.0424364
-0.0375419
-0.0328078
-0.0282784
-0.0239952
-0.0199956
-0.0163128
-0.0129746
-0.0100031
-0.00741405
-0.00521707
-0.00341521
-0.0020043
-0.000972347
-0.000312935
-3.83659e-05
-0.000102712
-0.00068586
-0.00194609
-0.00375163
-0.00602505
-0.00871874
-0.0117853
-0.0151791
-0.0188578
-0.0227821
-0.0269153
-0.0312226
-0.0356716
-0.0402314
-0.0448725
-0.0495668
-0.0542871
-0.0590073
-0.0637016
-0.0683449
-0.0729127
-0.0773805
-0.0817243
-0.0859202
-0.0899445
-0.0937738
-0.0973849
-0.100755
-0.103862
-0.106683
-0.109199
-0.111388
-0.113233
-0.114714
-0.115816
-0.116525
-0.116828
-0.116715
-0.116179
-0.115215
-0.113821
-0.111999
-0.109755
-0.107097
-0.104038
-0.100596
-0.096793
-0.0926537
-0.0882086
-0.083492
-0.0785419
-0.0734001
-0.0681117
-0.0627245
-0.0572883
-0.0518546
-0.0464753
-0.0412023
-0.0360864
-0.0311765
-0.0265185
-0.0221546
-0.0181226
-0.0144547
-0.0111773
-0.00831037
-0.00586721
-0.00385432
-0.00227051
-0.00110602
-0.000357849
-4.44112e-05
-0.000110686
-0.000737199
-0.00208877
-0.00402183
-0.00645141
-0.0093249
-0.0125903
-0.0161979
-0.0201018
-0.0242599
-0.0286329
-0.0331843
-0.03788
-0.0426877
-0.0475771
-0.0525191
-0.057486
-0.062451
-0.0673879
-0.0722713
-0.0770763
-0.081778
-0.086352
-0.0907741
-0.0950201
-0.0990663
-0.102889
-0.106465
-0.10977
-0.112784
-0.115483
-0.117847
-0.119855
-0.12149
-0.122733
-0.123568
-0.123983
-0.123965
-0.123504
-0.122596
-0.121236
-0.119424
-0.117165
-0.114465
-0.111336
-0.107795
-0.103863
-0.0995637
-0.0949281
-0.0899904
-0.0847896
-0.0793688
-0.0737748
-0.0680578
-0.0622706
-0.0564679
-0.0507057
-0.0450402
-0.0395267
-0.0342192
-0.0291685
-0.0244221
-0.0200228
-0.0160078
-0.0124083
-0.00924885
-0.00654678
-0.00431236
-0.00254747
-0.00124464
-0.000404201
-5.05794e-05
-0.000118295
-0.000786216
-0.00222507
-0.00428009
-0.00685917
-0.009905
-0.0133612
-0.0171741
-0.0212946
-0.0256777
-0.0302819
-0.0350687
-0.0400025
-0.04505
-0.0501796
-0.0553618
-0.0605682
-0.0657714
-0.0709451
-0.0760636
-0.0811015
-0.0860338
-0.090836
-0.0954835
-0.0999519
-0.104217
-0.108255
-0.112041
-0.115553
-0.118766
-0.121659
-0.12421
-0.126396
-0.128199
-0.1296
-0.130581
-0.131126
-0.131223
-0.130861
-0.13003
-0.128726
-0.126947
-0.124694
-0.121974
-0.118796
-0.115174
-0.111129
-0.106685
-0.101871
-0.0967219
-0.0912769
-0.0855804
-0.0796808
-0.0736308
-0.0674862
-0.0613052
-0.055148
-0.0490753
-0.0431477
-0.0374243
-0.0319617
-0.0268129
-0.0220265
-0.0176452
-0.0137057
-0.0102372
-0.00726174
-0.00479363
-0.002838
-0.00138976
-0.000452581
-5.69727e-05
-0.000125526
-0.000832806
-0.00235466
-0.00452574
-0.00724722
-0.0104574
-0.0140957
-0.0181048
-0.0224325
-0.0270311
-0.0318569
-0.0368697
-0.0420325
-0.0473106
-0.052672
-0.0580862
-0.0635243
-0.0689589
-0.0743631
-0.0797112
-0.0849775
-0.0901371
-0.0951652
-0.100037
-0.104728
-0.109214
-0.11347
-0.117473
-0.121197
-0.12462
-0.127717
-0.130466
-0.132845
-0.134833
-0.136408
-0.137553
-0.13825
-0.138484
-0.138241
-0.137512
-0.136288
-0.134565
-0.132342
-0.129624
-0.126418
-0.122737
-0.118599
-0.114026
-0.109048
-0.103699
-0.0980177
-0.0920503
-0.0858467
-0.0794617
-0.0729541
-0.066386
-0.0598217
-0.0533272
-0.0469682
-0.0408098
-0.0349148
-0.0293424
-0.0241475
-0.0193791
-0.0150795
-0.0112836
-0.0080185
-0.00530275
-0.00314513
-0.00154302
-0.000503608
-6.36961e-05
-0.00013236
-0.000876843
-0.00247717
-0.00475805
-0.00761435
-0.0109802
-0.0147913
-0.0189868
-0.0235115
-0.0283153
-0.0333524
-0.038581
-0.0439627
-0.0494618
-0.0550456
-0.0606829
-0.0663446
-0.0720028
-0.0776307
-0.0832023
-0.0886921
-0.0940749
-0.0993262
-0.104421
-0.109335
-0.114043
-0.118521
-0.122744
-0.126688
-0.130328
-0.13364
-0.1366
-0.139185
-0.141373
-0.143141
-0.144469
-0.145338
-0.145731
-0.145632
-0.145027
-0.143908
-0.142267
-0.1401
-0.137409
-0.1342
-0.130482
-0.126271
-0.121589
-0.116463
-0.110927
-0.105021
-0.0987898
-0.0922856
-0.0855654
-0.0786908
-0.0717277
-0.0647452
-0.0578142
-0.0510065
-0.0443935
-0.0380447
-0.0320264
-0.0264001
-0.0212218
-0.0165404
-0.0123969
-0.00882378
-0.0058446
-0.00347201
-0.00170615
-0.000557925
-7.08564e-05
-0.000138777
-0.000918184
-0.0025922
-0.00497624
-0.00795932
-0.0114717
-0.0154457
-0.019817
-0.0245278
-0.0295256
-0.0347629
-0.0401962
-0.0457859
-0.0514956
-0.0572915
-0.0631423
-0.0690184
-0.0748919
-0.0807357
-0.086524
-0.0922313
-0.0978327
-0.103304
-0.108619
-0.113755
-0.118686
-0.123388
-0.127835
-0.132004
-0.135869
-0.139406
-0.142588
-0.145393
-0.147796
-0.149775
-0.151306
-0.152368
-0.152942
-0.15301
-0.152556
-0.151567
-0.150034
-0.14795
-0.145313
-0.142126
-0.138396
-0.134137
-0.129367
-0.124113
-0.118408
-0.11229
-0.105805
-0.0990064
-0.0919529
-0.0847093
-0.0773452
-0.0699343
-0.0625532
-0.0552799
-0.0481927
-0.0413682
-0.0348804
-0.0287985
-0.0231861
-0.0180993
-0.0135858
-0.00968449
-0.00642417
-0.00382191
-0.0018809
-0.000616187
-7.8561e-05
-0.000144749
-0.00095667
-0.00269931
-0.00517948
-0.0082808
-0.0119301
-0.0160562
-0.020592
-0.0254773
-0.0306573
-0.0360828
-0.0417089
-0.0474949
-0.0534036
-0.0594006
-0.0654542
-0.0715347
-0.0776139
-0.083665
-0.0896621
-0.0955801
-0.101394
-0.10708
-0.112613
-0.117968
-0.123122
-0.128049
-0.132724
-0.137123
-0.141219
-0.144988
-0.148404
-0.151441
-0.154075
-0.156279
-0.158032
-0.159308
-0.160085
-0.160345
-0.160067
-0.159236
-0.157838
-0.155865
-0.153311
-0.150175
-0.146461
-0.142179
-0.137348
-0.131989
-0.126134
-0.119821
-0.113096
-0.106012
-0.0986305
-0.0910187
-0.0832499
-0.0754026
-0.0675591
-0.0598041
-0.0522231
-0.0449009
-0.0379195
-0.0313568
-0.0252845
-0.0197669
-0.0148595
-0.0106076
-0.00704656
-0.00419813
-0.00206908
-0.000679056
-8.69184e-05
-0.00015025
-0.00099213
-0.00279804
-0.00536691
-0.00857746
-0.0123533
-0.0166203
-0.0213088
-0.026356
-0.0317055
-0.0373063
-0.0431124
-0.0490821
-0.0551773
-0.0613633
-0.067608
-0.0738816
-0.080156
-0.0864045
-0.0926015
-0.098722
-0.104742
-0.110636
-0.116381
-0.121953
-0.127327
-0.132479
-0.137383
-0.142014
-0.146347
-0.150356
-0.154014
-0.157294
-0.160171
-0.162619
-0.16461
-0.166119
-0.167123
-0.167597
-0.167521
-0.166875
-0.165643
-0.16381
-0.161369
-0.158314
-0.154647
-0.150374
-0.145508
-0.14007
-0.134089
-0.127603
-0.120655
-0.113299
-0.105599
-0.097623
-0.0894488
-0.0811595
-0.0728434
-0.0645921
-0.056499
-0.0486573
-0.041158
-0.0340883
-0.0275293
-0.0215541
-0.0162266
-0.0116002
-0.00771685
-0.00460402
-0.00227249
-0.000747203
-9.60376e-05
-0.000155249
-0.00102439
-0.00288793
-0.00553768
-0.00884794
-0.0127395
-0.0171355
-0.0219639
-0.02716
-0.0326654
-0.0384279
-0.0444003
-0.0505399
-0.0568081
-0.0631699
-0.0695929
-0.0760473
-0.082505
-0.0889397
-0.0953259
-0.101639
-0.107855
-0.113951
-0.119902
-0.125685
-0.131275
-0.136649
-0.141781
-0.146647
-0.151219
-0.155472
-0.159379
-0.162913
-0.166045
-0.168749
-0.170995
-0.172757
-0.174008
-0.174721
-0.174872
-0.174439
-0.1734
-0.17174
-0.169443
-0.166503
-0.162915
-0.158683
-0.153815
-0.148329
-0.142251
-0.135616
-0.128467
-0.120858
-0.112852
-0.10452
-0.0959439
-0.0872106
-0.0784145
-0.0696546
-0.0610323
-0.0526501
-0.0446088
-0.0370057
-0.029932
-0.023471
-0.017696
-0.0126692
-0.00844013
-0.00504288
-0.00249293
-0.000821298
-0.000106028
-0.000159717
-0.00105328
-0.0029685
-0.00569091
-0.00909091
-0.0130868
-0.0175993
-0.0225544
-0.0278853
-0.0335324
-0.0394419
-0.0455658
-0.0518607
-0.0582875
-0.0648106
-0.0713978
-0.0780192
-0.084647
-0.0912551
-0.0978185
-0.104313
-0.110716
-0.117003
-0.123151
-0.129137
-0.134938
-0.14053
-0.145887
-0.150985
-0.155797
-0.160298
-0.164458
-0.168252
-0.171649
-0.17462
-0.177136
-0.179167
-0.180685
-0.181659
-0.182063
-0.181869
-0.181054
-0.179597
-0.17748
-0.174689
-0.171216
-0.16706
-0.162226
-0.156727
-0.150584
-0.143831
-0.136508
-0.128669
-0.120376
-0.111702
-0.102731
-0.0935559
-0.0842761
-0.0749981
-0.0658319
-0.0568898
-0.0482832
-0.0401202
-0.0325035
-0.0255275
-0.019276
-0.0138212
-0.00922137
-0.00551803
-0.00273221
-0.000902014
-0.000117001
-0.000163625
-0.00107862
-0.00303932
-0.00582581
-0.00930511
-0.0133933
-0.0180094
-0.023077
-0.0285282
-0.0343018
-0.040343
-0.0466028
-0.0530373
-0.0596068
-0.0662758
-0.0730118
-0.0797851
-0.0865681
-0.0933352
-0.100062
-0.106725
-0.113301
-0.119767
-0.126102
-0.132282
-0.138285
-0.144087
-0.149664
-0.15499
-0.16004
-0.164787
-0.169203
-0.17326
-0.176928
-0.180177
-0.182975
-0.18529
-0.187092
-0.188348
-0.189028
-0.189101
-0.188539
-0.187318
-0.185414
-0.182809
-0.179489
-0.175449
-0.170687
-0.165213
-0.159044
-0.152209
-0.144745
-0.136704
-0.128148
-0.119151
-0.1098
-0.10019
-0.0904269
-0.0806251
-0.0709035
-0.0613843
-0.0521903
-0.0434418
-0.0352537
-0.0277327
-0.0209747
-0.0150627
-0.0100654
-0.0060327
-0.00299212
-0.000990023
-0.000129067
-0.000166945
-0.00110027
-0.00309998
-0.00594159
-0.00948936
-0.0136576
-0.0183634
-0.0235291
-0.0290852
-0.0349694
-0.041126
-0.0475052
-0.0540625
-0.060758
-0.067556
-0.074424
-0.0813325
-0.0882544
-0.0951643
-0.102038
-0.108854
-0.115589
-0.122221
-0.128729
-0.135091
-0.141284
-0.147286
-0.153073
-0.15862
-0.163902
-0.168893
-0.173563
-0.177885
-0.181827
-0.185359
-0.188447
-0.191059
-0.19316
-0.194716
-0.195694
-0.196059
-0.19578
-0.194826
-0.19317
-0.190788
-0.187662
-0.183779
-0.179134
-0.173728
-0.167575
-0.160698
-0.153133
-0.144925
-0.136138
-0.126844
-0.117131
-0.107099
-0.0968595
-0.0865332
-0.0762484
-0.0661381
-0.056337
-0.0469785
-0.038191
-0.0300949
-0.0227993
-0.0164
-0.010977
-0.00659008
-0.00327444
-0.001086
-0.000142341
-0.000169652
-0.00111807
-0.00315011
-0.00603763
-0.00964264
-0.013878
-0.0186596
-0.0239082
-0.0295532
-0.0355314
-0.0417862
-0.0482673
-0.0549297
-0.0617333
-0.0686421
-0.075624
-0.0826495
-0.0896921
-0.0967269
-0.103731
-0.110681
-0.117558
-0.124339
-0.131004
-0.137532
-0.143901
-0.15009
-0.156075
-0.161833
-0.167338
-0.172564
-0.177483
-0.182067
-0.186283
-0.1901
-0.193484
-0.196401
-0.198814
-0.200686
-0.201981
-0.202662
-0.202692
-0.202037
-0.200664
-0.198544
-0.195653
-0.191971
-0.187488
-0.182198
-0.176109
-0.169238
-0.161615
-0.153283
-0.144302
-0.134744
-0.124697
-0.114263
-0.10356
-0.0927141
-0.0818633
-0.0711518
-0.0607269
-0.050736
-0.0413222
-0.0326211
-0.0247567
-0.0178388
-0.0119607
-0.00719324
-0.00358089
-0.0011906
-0.000156937
-0.000171728
-0.00113193
-0.00318942
-0.00611337
-0.00976414
-0.0140535
-0.0188962
-0.0242121
-0.0299295
-0.0359845
-0.0423197
-0.0488844
-0.0556331
-0.0625256
-0.0695259
-0.076602
-0.0837249
-0.0908682
-0.0980079
-0.105121
-0.112188
-0.119186
-0.126097
-0.1329
-0.139576
-0.146103
-0.152462
-0.15863
-0.164583
-0.170298
-0.175749
-0.180908
-0.185745
-0.190231
-0.194332
-0.198013
-0.201239
-0.203972
-0.206173
-0.207802
-0.208819
-0.209183
-0.208857
-0.207801
-0.205982
-0.203368
-0.199934
-0.195661
-0.190538
-0.184565
-0.177752
-0.170124
-0.161718
-0.152589
-0.142807
-0.132461
-0.121654
-0.110506
-0.0991528
-0.0877395
-0.0764216
-0.0653602
-0.0547173
-0.0446523
-0.0353171
-0.0268526
-0.0193843
-0.0130205
-0.00784514
-0.00391318
-0.0013045
-0.000172972
-0.000173156
-0.00114176
-0.00321772
-0.00616845
-0.00985327
-0.0141833
-0.0190722
-0.0244393
-0.0302122
-0.036326
-0.0427232
-0.0493522
-0.0561676
-0.0631288
-0.0702
-0.0773493
-0.0845481
-0.0917706
-0.0989933
-0.106195
-0.113354
-0.120452
-0.127471
-0.13439
-0.141192
-0.147857
-0.154365
-0.160696
-0.166827
-0.172735
-0.178395
-0.183779
-0.188859
-0.193605
-0.197983
-0.201958
-0.205493
-0.20855
-0.211087
-0.213063
-0.214433
-0.215155
-0.215184
-0.214478
-0.212997
-0.210704
-0.207564
-0.203553
-0.198652
-0.192852
-0.186155
-0.178579
-0.170156
-0.160933
-0.150978
-0.140376
-0.129232
-0.117669
-0.105827
-0.0938617
-0.0819388
-0.0702331
-0.0589226
-0.0481839
-0.0381873
-0.0290918
-0.0210412
-0.0141605
-0.00854858
-0.00427295
-0.00142836
-0.000190566
-0.000173928
-0.00114752
-0.0032349
-0.00620271
-0.00990976
-0.0142667
-0.019187
-0.024589
-0.0303999
-0.0365544
-0.0429942
-0.0496678
-0.0565291
-0.0635378
-0.0706581
-0.0778582
-0.0851099
-0.0923882
-0.0996701
-0.106935
-0.114163
-0.121337
-0.128437
-0.135448
-0.142352
-0.14913
-0.155764
-0.162234
-0.16852
-0.174599
-0.180447
-0.186039
-0.191345
-0.196336
-0.20098
-0.205241
-0.209081
-0.21246
-0.215337
-0.217667
-0.219405
-0.220502
-0.220912
-0.220586
-0.21948
-0.217548
-0.214751
-0.211055
-0.206432
-0.200865
-0.194348
-0.186889
-0.178512
-0.169257
-0.159187
-0.148383
-0.136948
-0.125008
-0.112707
-0.100208
-0.0876886
-0.0753371
-0.0633482
-0.0519171
-0.0412339
-0.031478
-0.0228134
-0.015384
-0.00930619
-0.00466179
-0.00156282
-0.00020984
-0.000174045
-0.00114922
-0.00324101
-0.0062162
-0.00993368
-0.0143041
-0.0192404
-0.0246609
-0.0304922
-0.0366687
-0.0431316
-0.0498291
-0.0567151
-0.0637491
-0.0708954
-0.0781225
-0.0854028
-0.0927117
-0.100027
-0.107329
-0.114599
-0.12182
-0.128976
-0.13605
-0.143027
-0.14989
-0.156622
-0.163204
-0.169618
-0.175843
-0.181855
-0.18763
-0.193141
-0.198359
-0.203252
-0.207784
-0.211918
-0.215615
-0.21883
-0.221517
-0.22363
-0.225117
-0.225928
-0.226009
-0.225311
-0.223781
-0.221373
-0.218045
-0.21376
-0.20849
-0.202221
-0.194949
-0.186689
-0.177473
-0.167355
-0.156412
-0.144744
-0.132475
-0.119754
-0.106749
-0.0936501
-0.0806586
-0.0679866
-0.0558489
-0.0444572
-0.0340134
-0.0247037
-0.0166941
-0.0101203
-0.0050812
-0.00170851
-0.000230919
-0.000173515
-0.00114693
-0.00323622
-0.00620926
-0.00992553
-0.0142959
-0.0192333
-0.0246559
-0.0304899
-0.0366694
-0.0431354
-0.0498358
-0.0567244
-0.0637606
-0.0709088
-0.0781381
-0.0854209
-0.0927335
-0.100055
-0.107365
-0.114648
-0.121887
-0.129067
-0.136174
-0.143193
-0.15011
-0.156908
-0.163571
-0.170082
-0.176421
-0.182568
-0.188499
-0.194188
-0.199608
-0.204727
-0.209512
-0.213924
-0.217925
-0.22147
-0.224513
-0.227004
-0.22889
-0.230117
-0.230629
-0.230368
-0.229278
-0.227305
-0.224397
-0.220508
-0.215602
-0.209651
-0.202642
-0.194577
-0.185478
-0.17539
-0.164381
-0.152547
-0.140009
-0.126918
-0.113447
-0.0997951
-0.0861782
-0.0728256
-0.0599729
-0.047855
-0.0366984
-0.0267143
-0.0180931
-0.0109931
-0.00553258
-0.00186607
-0.000253928
-0.000172357
-0.00114077
-0.00322087
-0.00618252
-0.00988627
-0.0142434
-0.0191671
-0.0245755
-0.0303946
-0.0365582
-0.0430072
-0.049689
-0.0565575
-0.0635721
-0.0706973
-0.0779024
-0.0851606
-0.0924485
-0.0997459
-0.107035
-0.114299
-0.121523
-0.128695
-0.135801
-0.142828
-0.149762
-0.156591
-0.1633
-0.169873
-0.176293
-0.18254
-0.188594
-0.194429
-0.200021
-0.205339
-0.210351
-0.21502
-0.219307
-0.223169
-0.226558
-0.229423
-0.231711
-0.233365
-0.234323
-0.234526
-0.23391
-0.232413
-0.229976
-0.226544
-0.222068
-0.216509
-0.209842
-0.202056
-0.19316
-0.183188
-0.172197
-0.160275
-0.14754
-0.134141
-0.120254
-0.106088
-0.09187
-0.0778479
-0.0642788
-0.0514223
-0.0395316
-0.0288459
-0.0195828
-0.0119264
-0.0060172
-0.00203607
-0.000278997
-0.000170603
-0.00113094
-0.00319553
-0.00613698
-0.0098174
-0.0141487
-0.0190445
-0.0244227
-0.0302095
-0.0363385
-0.0427501
-0.0493918
-0.0562171
-0.0631856
-0.0702619
-0.0774157
-0.0846206
-0.0918541
-0.0990965
-0.106331
-0.113543
-0.120718
-0.127846
-0.134914
-0.141911
-0.148826
-0.155648
-0.162364
-0.16896
-0.175421
-0.18173
-0.187868
-0.193814
-0.199542
-0.205026
-0.210233
-0.215131
-0.21968
-0.223838
-0.227558
-0.230789
-0.233475
-0.235558
-0.236976
-0.237661
-0.237547
-0.236565
-0.234646
-0.231727
-0.227748
-0.222656
-0.216413
-0.208994
-0.200394
-0.190632
-0.179753
-0.167835
-0.154986
-0.141353
-0.127115
-0.112484
-0.0977013
-0.0830307
-0.068752
-0.0551508
-0.0425096
-0.0310979
-0.0211642
-0.0129215
-0.0065362
-0.00221908
-0.000306254
-0.000168295
-0.00111771
-0.00316092
-0.00607403
-0.009721
-0.0140146
-0.0188687
-0.0242017
-0.0299394
-0.0360151
-0.0423693
-0.0489491
-0.055708
-0.0626054
-0.0696064
-0.0766807
-0.0838026
-0.0909504
-0.0981052
-0.105251
-0.112375
-0.119465
-0.12651
-0.133501
-0.140429
-0.147284
-0.154056
-0.160737
-0.167313
-0.173773
-0.180101
-0.186282
-0.192296
-0.198121
-0.203731
-0.209099
-0.214191
-0.218971
-0.223398
-0.227427
-0.231006
-0.23408
-0.23659
-0.23847
-0.239651
-0.240062
-0.239626
-0.23827
-0.235917
-0.232498
-0.227948
-0.222213
-0.215253
-0.207046
-0.197596
-0.186933
-0.175119
-0.162254
-0.148476
-0.133963
-0.118931
-0.103632
-0.088345
-0.0733731
-0.059029
-0.0456262
-0.0334681
-0.0228372
-0.0139793
-0.00709053
-0.00241564
-0.000335831
-0.000165492
-0.00110146
-0.00311805
-0.00599547
-0.00959983
-0.0138447
-0.0186446
-0.0239179
-0.0295903
-0.0355949
-0.041872
-0.0483683
-0.0550373
-0.0618385
-0.0687369
-0.0757029
-0.0827113
-0.0897409
-0.0967741
-0.103796
-0.110795
-0.11776
-0.124683
-0.131556
-0.138371
-0.145122
-0.151801
-0.1584
-0.164911
-0.171323
-0.177625
-0.183802
-0.189838
-0.195714
-0.201408
-0.206893
-0.212141
-0.217115
-0.221779
-0.226087
-0.22999
-0.233435
-0.23636
-0.238699
-0.240382
-0.241332
-0.241468
-0.24071
-0.238973
-0.236174
-0.232238
-0.227094
-0.220686
-0.212975
-0.203945
-0.193608
-0.182011
-0.169238
-0.155417
-0.140721
-0.125367
-0.109613
-0.0937551
-0.0781174
-0.0630411
-0.0488729
-0.0359526
-0.0246009
-0.0151003
-0.00768092
-0.0026262
-0.000367857
-0.000162269
-0.00108265
-0.00306818
-0.00590361
-0.00945738
-0.0136439
-0.0183781
-0.0235784
-0.0291703
-0.0350868
-0.0412675
-0.0476591
-0.054215
-0.0608944
-0.0676629
-0.0744911
-0.0813544
-0.0882324
-0.0951087
-0.10197
-0.108805
-0.115605
-0.122364
-0.129075
-0.135733
-0.142333
-0.148871
-0.155342
-0.161738
-0.168054
-0.174278
-0.180402
-0.186411
-0.19229
-0.198018
-0.203575
-0.208932
-0.214058
-0.218918
-0.22347
-0.227667
-0.231456
-0.234777
-0.237565
-0.239746
-0.241242
-0.241969
-0.241837
-0.240757
-0.238634
-0.235379
-0.230907
-0.225144
-0.218032
-0.209535
-0.199643
-0.188384
-0.175823
-0.162075
-0.147302
-0.131719
-0.115588
-0.0992184
-0.0829548
-0.0671674
-0.0522379
-0.0385456
-0.026453
-0.0162843
-0.00830788
-0.00285121
-0.000402463
-0.000158717
-0.00106184
-0.00301283
-0.00580129
-0.00929795
-0.013418
-0.0180766
-0.023192
-0.0286896
-0.0345017
-0.0405678
-0.0468341
-0.0532536
-0.0597861
-0.0663969
-0.0730573
-0.0797433
-0.0864356
-0.0931186
-0.0997803
-0.106411
-0.113005
-0.119555
-0.126059
-0.132514
-0.138916
-0.145265
-0.151556
-0.157787
-0.163953
-0.170049
-0.176066
-0.181995
-0.187823
-0.193534
-0.19911
-0.204527
-0.209758
-0.214769