/*--------------------------------*- C++ -*----------------------------------*\
  =========                 |
  \\      /  F ield         | OpenFOAM: The Open Source CFD Toolbox
   \\    /   O peration     | Website:  https://openfoam.org
    \\  /    A nd           | Version:  dev
     \\/     M anipulation  |
\*---------------------------------------------------------------------------*/
FoamFile
{
    format      ascii;
    class       volScalarField;
    location    "32.85";
    object      p;
}
// * * * * * * * * * * * * * * * * * * * * * * * * * * * * * * * * * * * * * //

dimensions      [0 2 -2 0 0 0 0];

internalField   nonuniform List<scalar> 
5184
(
1.67786e-06
-9.70811e-06
-9.55671e-05
-0.000248459
-0.000447869
-0.00067654
-0.000920242
-0.001167
-0.00140766
-0.00163508
-0.00184384
-0.00202993
-0.00219039
-0.00232313
-0.00242667
-0.00250003
-0.00254252
-0.00255371
-0.00253333
-0.00248119
-0.00239723
-0.00228142
-0.0021338
-0.00195453
-0.00174383
-0.00150208
-0.00122982
-0.000927801
-0.000597022
-0.00023875
0.000145429
0.000553591
0.000983443
0.00143231
0.00189714
0.00237448
0.0028605
0.00335105
0.00384165
0.00432755
0.00480382
0.00526538
0.0057071
0.00612391
0.00651084
0.0068632
0.00717662
0.00744717
0.00767148
0.0078468
0.00797114
0.00804328
0.00806288
0.0080305
0.00794764
0.00781673
0.00764119
0.00742531
0.00717432
0.00689427
0.00659203
0.0062752
0.0059521
0.00563169
0.00532352
0.00503769
0.00478468
0.00457513
0.00441901
0.00432474
0.00429782
0.00432511
1.53742e-05
2.92252e-06
-7.16781e-05
-0.000199454
-0.000364714
-0.000554988
-0.000759356
-0.000968218
-0.00117364
-0.00136923
-0.00154993
-0.00171184
-0.00185199
-0.00196814
-0.00205867
-0.00212237
-0.00215839
-0.00216612
-0.00214514
-0.00209515
-0.00201599
-0.00190757
-0.00176988
-0.00160305
-0.00140729
-0.00118296
-0.000930595
-0.000650929
-0.000344921
-1.37864e-05
0.000340968
0.000717525
0.00111374
0.00152711
0.00195481
0.00239364
0.00284009
0.00329034
0.00374029
0.00418562
0.00462183
0.00504432
0.00544845
0.00582962
0.0061834
0.00650554
0.00679217
0.00703977
0.00724539
0.00740662
0.00752175
0.00758979
0.00761052
0.00758459
0.00751346
0.00739945
0.00724576
0.00705639
0.00683614
0.00659058
0.00632594
0.00604911
0.00576753
0.00548912
0.0052222
0.00497534
0.0047572
0.00457616
0.00443952
0.00435324
0.00432469
0.00435229
0.000102072
7.73495e-05
2.01591e-06
-0.00011553
-0.000263251
-0.000431504
-0.000611581
-0.000795653
-0.000977021
-0.00115012
-0.00131044
-0.00145438
-0.00157914
-0.00168255
-0.00176298
-0.00181918
-0.00185021
-0.0018554
-0.00183425
-0.00178639
-0.00171158
-0.00160969
-0.00148067
-0.00132458
-0.00114161
-0.000932092
-0.000696509
-0.000435544
-0.000150097
0.000158691
0.000489408
0.000840354
0.00120952
0.00159457
0.00199286
0.00240143
0.00281699
0.00323598
0.00365462
0.00406887
0.00447457
0.00486745
0.00524321
0.00559763
0.00592657
0.00622616
0.00649281
0.00672331
0.00691496
0.0070656
0.00717367
0.00723834
0.00725948
0.00723774
0.00717457
0.00707219
0.00693363
0.00676264
0.00656372
0.00634204
0.00610335
0.00585397
0.00560063
0.00535047
0.00511086
0.00488924
0.00469311
0.00452952
0.00440449
0.00432326
0.00429549
0.00432613
0.000257108
0.0002057
0.000117907
-1.03954e-06
-0.000143482
-0.000301637
-0.000468372
-0.000637319
-0.000802938
-0.000960542
-0.00110625
-0.00123693
-0.00135007
-0.00144372
-0.00151635
-0.00156677
-0.00159408
-0.0015976
-0.00157679
-0.00153126
-0.00146073
-0.00136502
-0.00124403
-0.00109777
-0.000926384
-0.000730126
-0.000509424
-0.000264887
2.67286e-06
0.00029221
0.000602423
0.000931734
0.00127827
0.00163987
0.00201404
0.002398
0.00278868
0.00318274
0.00357659
0.00396645
0.00434839
0.00471838
0.00507237
0.00540635
0.00571644
0.00599896
0.00625053
0.00646814
0.00664923
0.00679176
0.00689433
0.00695613
0.0069771
0.00695788
0.00689987
0.00680522
0.0066768
0.00651818
0.00633362
0.00612796
0.00590657
0.00567532
0.0054404
0.0052083
0.00498568
0.00477922
0.00459554
0.00444089
0.00432072
0.00424008
0.00420905
0.00423431
0.000461868
0.000373267
0.000264678
0.00013699
-7.36066e-06
-0.000162211
-0.000321788
-0.000481085
-0.000635688
-0.000781799
-0.000916236
-0.00103639
-0.00114014
-0.00122581
-0.00129208
-0.00133787
-0.00136238
-0.00136494
-0.00134505
-0.0013023
-0.00123638
-0.00114706
-0.0010342
-0.000897754
-0.000737783
-0.000554478
-0.00034818
-0.000119401
0.00013115
0.000402543
0.0006936
0.00100288
0.00132866
0.00166893
0.00202136
0.00238335
0.00275202
0.0031242
0.00349651
0.00386534
0.00422696
0.00457754
0.00491318
0.00523007
0.00552448
0.00579289
0.00603204
0.00623904
0.00641144
0.00654728
0.00664519
0.00670443
0.00672493
0.00670732
0.00665293
0.00656381
0.00644273
0.0062931
0.00611893
0.0059248
0.00571578
0.00549729
0.00527511
0.00505518
0.00484355
0.00464625
0.00446918
0.00431798
0.0041976
0.00411281
0.00407242
0.00408226
0.000700177
0.000568163
0.000433003
0.000290974
0.000139059
-1.79768e-05
-0.000175529
-0.00032985
-0.0004776
-0.000615853
-0.000742136
-0.000854405
-0.00095099
-0.00103054
-0.00109197
-0.0011344
-0.00115713
-0.00115959
-0.00114129
-0.00110185
-0.00104092
-0.000958262
-0.000853665
-0.000727022
-0.000578318
-0.000407653
-0.000215266
-1.56022e-06
0.000232877
0.000487243
0.000760501
0.00105135
0.00135822
0.00167926
0.0020123
0.00235491
0.00270435
0.00305764
0.00341153
0.0037626
0.00410724
0.00444175
0.00476239
0.00506543
0.00534726
0.00560444
0.0058338
0.00603248
0.00619809
0.00632869
0.00642294
0.00648007
0.00649999
0.00648329
0.00643124
0.00634581
0.00622963
0.00608596
0.00591865
0.00573203
0.0055309
0.00532035
0.00510577
0.00489267
0.00468659
0.00449302
0.00431729
0.00416445
0.00403906
0.00394553
0.00389034
0.00387726
0.000958241
0.000779502
0.000613975
0.000453443
0.00028954
0.000125867
-3.39565e-05
-0.000187328
-0.00033191
-0.000465614
-0.000586669
-0.000693606
-0.000785218
-0.000860524
-0.000918717
-0.000959136
-0.000981226
-0.000984513
-0.000968579
-0.00093305
-0.000877589
-0.000801899
-0.000705734
-0.000588913
-0.000451331
-0.000292988
-0.000114009
8.53286e-05
0.000304569
0.000543053
0.000799889
0.00107393
0.00136376
0.00166767
0.00198367
0.00230946
0.00264245
0.00297981
0.00331841
0.00365494
0.00398591
0.0043077
0.00461665
0.00490909
0.00518145
0.00543033
0.00565256
0.00584529
0.00600612
0.00613309
0.0062248
0.00628046
0.00629993
0.00628371
0.00623301
0.0061497
0.0060363
0.00589594
0.0057323
0.00554955
0.00535223
0.0051452
0.00493351
0.00472232
0.00451678
0.00432194
0.00414266
0.0039835
0.0038487
0.0037423
0.00366798
0.00362697
0.00122395
0.000997142
0.000798994
0.000617108
0.000438011
0.000264344
9.88925e-05
-5.67714e-05
-0.000201241
-0.000333218
-0.000451607
-0.000555509
-0.000644188
-0.000717043
-0.000773569
-0.000813335
-0.000835958
-0.000841079
-0.000828351
-0.00079743
-0.000747977
-0.000679666
-0.000592194
-0.000485303
-0.000358793
-0.000212552
-4.65794e-05
0.000138984
0.000343827
0.000567441
0.00080909
0.00106779
0.00134227
0.00163098
0.00193209
0.00224342
0.00256254
0.0028867
0.0032129
0.00353791
0.00385831
0.00417052
0.00447092
0.00475585
0.00502174
0.00526515
0.00548288
0.00567205
0.00583015
0.00595519
0.00604567
0.00610072
0.00612011
0.00610427
0.00605429
0.00597194
0.00585966
0.00572043
0.00555782
0.00537583
0.00517882
0.00497146
0.00475854
0.00454496
0.00433556
0.00413506
0.00394792
0.00377832
0.00363025
0.00350747
0.00341069
0.00333852
0.00148704
0.00121194
0.000979998
0.000774932
0.000578423
0.00039231
0.000218676
5.81597e-05
-8.86849e-05
-0.000221302
-0.00033924
-0.000442149
-0.000529759
-0.00060185
-0.000658225
-0.000698692
-0.000723045
-0.00073105
-0.000722435
-0.000696892
-0.000654082
-0.000593645
-0.000515223
-0.000418471
-0.000303087
-0.000168836
-1.55836e-05
0.000156677
0.00034779
0.000557406
0.000784953
0.0010296
0.00129026
0.00156552
0.00185369
0.00215274
0.00246033
0.00277384
0.00309034
0.00340665
0.00371939
0.00402502
0.00431987
0.00460028
0.00486261
0.00510336
0.00531923
0.00550725
0.0056648
0.00578974
0.00588049
0.00593605
0.00595604
0.00594079
0.00589127
0.00580917
0.00569677
0.00555698
0.00539324
0.00520943
0.00500977
0.00479878
0.00458107
0.00436135
0.00414424
0.0039342
0.00373541
0.00355177
0.00338713
0.00324502
0.00312327
0.00301793
0.00173853
0.00141564
0.0011495
0.000920186
0.000704805
0.000504514
0.000320792
0.000153432
2.20474e-06
-0.000133025
-0.000252412
-0.000356137
-0.000444376
-0.000517283
-0.000574965
-0.000617467
-0.000644761
-0.000656737
-0.000653199
-0.000633875
-0.000598422
-0.000546448
-0.000477526
-0.000391225
-0.000287127
-0.00016487
-2.41705e-05
0.000135132
0.000313047
0.000509395
0.000723773
0.000955524
0.00120371
0.00146709
0.0017441
0.00203285
0.00233111
0.00263633
0.00294565
0.00325594
0.00356382
0.00386572
0.00415796
0.00443678
0.00469845
0.00493936
0.00515608
0.00534547
0.00550477
0.00563168
0.00572444
0.00578187
0.00580347
0.00578939
0.00574048
0.00565829
0.005545
0.00540341
0.00523685
0.00504911
0.00484432
0.00462688
0.00440131
0.00417217
0.00394395
0.00372095
0.00350719
0.00330634
0.00312225
0.00295835
0.00280971
0.00266999
0.00197048
0.00160075
0.00130053
0.00104647
0.000811336
0.000595703
0.000400517
0.000224799
6.75939e-05
-7.18743e-05
-0.000194334
-0.000300465
-0.000390874
-0.000466071
-0.000526456
-0.000572302
-0.000603753
-0.000620816
-0.000623371
-0.000611174
-0.000583877
-0.000541043
-0.000482177
-0.000406746
-0.000314213
-0.000204075
-7.58951e-05
7.06546e-05
0.000235756
0.000419408
0.000621387
0.000841211
0.00107811
0.001331
0.00159846
0.00187872
0.00216966
0.0024688
0.00277333
0.00308013
0.00338583
0.0036868
0.00397928
0.00425942
0.00452336
0.00476732
0.00498769
0.00518114
0.0053447
0.00547585
0.00557262
0.00563364
0.00565819
0.00564624
0.00559848
0.00551631
0.00540178
0.00525759
0.00508698
0.00489366
0.00468171
0.00445545
0.00421936
0.00397795
0.00373563
0.00349666
0.00326496
0.00304412
0.00283806
0.00265028
0.00247321
0.00229829
0.00217574
0.00176037
0.00142656
0.00114768
0.000892366
0.000660674
0.000453075
0.000267877
0.000103448
-4.15885e-05
-0.000168498
-0.000278435
-0.000372408
-0.000451268
-0.000515689
-0.00056616
-0.000602985
-0.000626282
-0.000635995
-0.000631902
-0.00061364
-0.000580724
-0.000532574
-0.000468553
-0.000387993
-0.00029024
-0.000174693
-4.08491e-05
0.000111658
0.000283015
0.000473184
0.00068187
0.000908477
0.00115208
0.00141141
0.00168481
0.00197026
0.00226536
0.00256734
0.00287308
0.00317917
0.00348194
0.00377752
0.00406191
0.00433109
0.00458107
0.00480804
0.00500841
0.00517896
0.00531691
0.00542003
0.00548668
0.0055159
0.00550745
0.00546181
0.0053802
0.00526454
0.0051174
0.00494196
0.00474185
0.00452113
0.00428411
0.00403526
0.00377909
0.00352006
0.00326243
0.00301015
0.00276681
0.00253654
0.002323
0.00211617
0.00190538
0.00234777
0.00188814
0.00152147
0.00121801
0.000942425
0.000694305
0.000473685
0.000278203
0.000105589
-4.60963e-05
-0.000178627
-0.000293599
-0.000392404
-0.000476209
-0.000545944
-0.000602296
-0.000645716
-0.000676421
-0.000694409
-0.000699469
-0.000691211
-0.000669091
-0.000632438
-0.000580496
-0.000512458
-0.000427509
-0.000324874
-0.000203864
-6.39162e-05
9.53529e-05
0.000274106
0.000472239
0.000689341
0.000924659
0.00117707
0.00144505
0.00172668
0.00201962
0.00232114
0.00262813
0.00293712
0.00324436
0.00354586
0.00383746
0.00411493
0.00437405
0.00461074
0.00482112
0.00500166
0.00514928
0.00526142
0.00533614
0.00537217
0.00536902
0.00532692
0.00524688
0.00513066
0.0049807
0.00480009
0.00459243
0.00436175
0.00411241
0.00384892
0.00357588
0.00329782
0.00301915
0.00274389
0.00247576
0.00221921
0.00197817
0.0017403
0.00149291
0.00248049
0.00197808
0.00157949
0.00125191
0.000956225
0.000691578
0.000457596
0.000251277
6.975e-05
-8.94625e-05
-0.000228611
-0.00034971
-0.000454507
-0.000544461
-0.000620739
-0.000684211
-0.000735457
-0.00077478
-0.000802215
-0.000817552
-0.000820363
-0.000810029
-0.00078578
-0.00074673
-0.00069192
-0.000620366
-0.000531106
-0.000423251
-0.000296034
-0.000148857
1.86513e-05
0.000206593
0.000414754
0.000642561
0.00088905
0.00115284
0.00143211
0.00172461
0.00202762
0.00233804
0.00265235
0.0029667
0.00327696
0.00357877
0.00386769
0.00413921
0.00438894
0.00461268
0.00480652
0.00496702
0.00509125
0.00517688
0.00522233
0.00522675
0.00519009
0.00511313
0.00499741
0.00484523
0.00465959
0.00444405
0.00420266
0.00393982
0.00366018
0.00336845
0.00306935
0.00276746
0.00246703
0.00217198
0.00188717
0.00161695
0.00134669
0.00106181
0.00256817
0.00202458
0.00159512
0.00124407
0.00092866
0.000647597
0.000400118
0.000182609
-8.37918e-06
-0.000175834
-0.000322459
-0.000450662
-0.000562521
-0.000659769
-0.000743787
-0.00081561
-0.000875931
-0.000925121
-0.000963239
-0.000990062
-0.00100511
-0.00100767
-0.000996876
-0.000971687
-0.000930987
-0.000873607
-0.000798389
-0.000704229
-0.000590139
-0.000455298
-0.000299107
-0.000121243
7.82887e-05
0.000299112
0.000540439
0.000801037
0.00107921
0.00137277
0.00167907
0.00199498
0.00231694
0.00264099
0.00296284
0.00327794
0.00358157
0.00386892
0.00413525
0.00437596
0.00458675
0.00476374
0.00490354
0.00500342
0.00506137
0.00507615
0.00504738
0.00497552
0.00486189
0.00470862
0.00451857
0.00429529
0.00404284
0.00376574
0.00346876
0.00315684
0.00283492
0.00250787
0.00218023
0.00185621
0.00154121
0.00124006
0.00093596
0.000612381
0.0026054
0.00202232
0.00156317
0.00118943
0.000854809
0.000557603
0.000296652
6.77511e-05
-0.000133104
-0.000309391
-0.000464243
-0.000600438
-0.000720364
-0.000826006
-0.000918943
-0.00100035
-0.00107102
-0.00113138
-0.00118149
-0.0012211
-0.00124966
-0.00126637
-0.00127023
-0.00126004
-0.00123453
-0.00119231
-0.00113203
-0.00105234
-0.000952029
-0.000830031
-0.000685502
-0.000517883
-0.000326947
-0.000112858
0.000123794
0.000381944
0.000660029
0.000955969
0.00126716
0.00159047
0.00192231
0.00225859
0.00259488
0.00292638
0.00324809
0.00355488
0.0038416
0.00410322
0.00433498
0.00453247
0.00469182
0.00480979
0.00488387
0.00491237
0.0048945
0.00483036
0.00472098
0.00456827
0.00437497
0.00414458
0.0038812
0.00358945
0.00327431
0.00294097
0.0025947
0.00224071
0.00188392
0.00152896
0.00118182
0.000847937
0.00050831
0.000144494
0.00258703
0.00196622
0.00147867
0.00108313
0.000729947
0.000416991
0.000142714
-9.76644e-05
-0.000308687
-0.0004943
-0.000658048
-0.000803059
-0.000932012
-0.00104713
-0.00115015
-0.0012424
-0.00132474
-0.00139762
-0.00146111
-0.00151491
-0.00155839
-0.00159065
-0.00161053
-0.00161668
-0.00160763
-0.00158179
-0.00153758
-0.00147341
-0.00138781
-0.00127946
-0.00114724
-0.000990344
-0.000808285
-0.00060099
-0.000368831
-0.000112678
0.000166064
0.000465436
0.000782903
0.00111536
0.00145917
0.00181015
0.00216368
0.00251475
0.00285805
0.00318807
0.00349923
0.00378601
0.00404313
0.00426561
0.00444899
0.00458943
0.00468388
0.00473008
0.00472676
0.00467359
0.00457125
0.00442138
0.00422656
0.00399021
0.00371648
0.00341014
0.00307637
0.0027207
0.00234876
0.00196623
0.00157846
0.00119058
0.000809291
0.00044073
6.36577e-05
-0.000342344
0.00250816
0.0018515
0.00133691
0.000920558
0.000549548
0.000221327
-6.60384e-05
-0.000317895
-0.000539305
-0.000734671
-0.000907927
-0.00106254
-0.00120145
-0.0013271
-0.00144141
-0.00154578
-0.00164115
-0.00172799
-0.00180634
-0.00187585
-0.00193579
-0.00198514
-0.00202259
-0.00204662
-0.00205555
-0.00204756
-0.00202083
-0.00197352
-0.00190387
-0.00181028
-0.00169136
-0.001546
-0.00137345
-0.00117336
-0.000945856
-0.000691582
-0.000411753
-0.000108182
0.000216697
0.000559825
0.00091753
0.00128556
0.00165911
0.00203294
0.00240141
0.00275863
0.00309853
0.00341507
0.00370235
0.00395477
0.00416721
0.00433514
0.00445483
0.0045234
0.00453898
0.00450074
0.00440891
0.00426482
0.00407083
0.00383027
0.00354731
0.00322687
0.00287441
0.0024958
0.00209713
0.00168458
0.00126408
0.000841313
0.000423794
1.84426e-05
-0.00039828
-0.000848852
0.00236413
0.00167358
0.00113342
0.00069732
0.000309295
-3.36315e-05
-0.000333781
-0.000597052
-0.000829017
-0.00103451
-0.00121786
-0.00138283
-0.00153263
-0.0016699
-0.00179669
-0.0019145
-0.00202433
-0.00212663
-0.00222143
-0.00230829
-0.00238639
-0.00245456
-0.00251133
-0.002555
-0.00258365
-0.00259526
-0.00258771
-0.00255889
-0.00250677
-0.00242942
-0.00232516
-0.00219254
-0.00203052
-0.00183843
-0.00161612
-0.00136399
-0.001083
-0.0007748
-0.000441678
-8.66218e-05
0.000286704
0.000673972
0.00107024
0.00147001
0.00186732
0.00225585
0.00262904
0.00298025
0.00330293
0.00359075
0.00383784
0.00403891
0.00418943
0.00428578
0.00432539
0.0043068
0.00422973
0.00409511
0.00390501
0.00366263
0.00337215
0.00303863
0.00266783
0.00226601
0.00183979
0.00139594
0.000941011
0.00048137
2.54333e-05
-0.000419002
-0.000877888
-0.00137588
0.00215054
0.00142818
0.000863995
0.000409268
5.10148e-06
-0.000351914
-0.000664492
-0.000939073
-0.00118172
-0.00139771
-0.0015917
-0.00176779
-0.00192941
-0.00207939
-0.0022199
-0.00235253
-0.00247831
-0.00259768
-0.00271061
-0.0028166
-0.0029147
-0.0030036
-0.00308165
-0.00314694
-0.00319734
-0.00323056
-0.0032442
-0.00323587
-0.00320321
-0.00314397
-0.0030561
-0.00293785
-0.0027878
-0.00260495
-0.00238882
-0.0021395
-0.00185771
-0.00154483
-0.001203
-0.000835069
-0.000444672
-3.61719e-05
0.000385357
0.000814189
0.00124403
0.00166812
0.00207936
0.00247049
0.00283421
0.00316341
0.00345137
0.00369189
0.00387957
0.00400991
0.00407952
0.00408618
0.00402898
0.00390834
0.00372598
0.0034849
0.00318926
0.00284426
0.00245594
0.00203103
0.00157673
0.00110046
0.000609504
0.000110981
-0.00038567
-0.00087168
-0.00137557
-0.0019243
0.00186321
0.00111125
0.000524665
5.25102e-05
-0.000366868
-0.000737312
-0.00106193
-0.00134769
-0.00160113
-0.00182794
-0.00203315
-0.00222111
-0.0023955
-0.00255931
-0.00271483
-0.00286372
-0.003007
-0.00314513
-0.00327801
-0.00340504
-0.00352515
-0.00363687
-0.00373837
-0.00382753
-0.00390196
-0.00395911
-0.00399629
-0.00401079
-0.0039999
-0.00396103
-0.00389176
-0.00378993
-0.00365375
-0.00348185
-0.00327337
-0.00302803
-0.00274624
-0.0024291
-0.0020785
-0.00169714
-0.00128856
-0.00085711
-0.000407974
5.29201e-05
0.000518951
0.000982917
0.00143716
0.00187373
0.00228454
0.00266162
0.00299726
0.00328429
0.00351627
0.00368768
0.00379415
0.00383259
0.00380132
0.0037001
0.00353022
0.00329439
0.0029967
0.00264245
0.002238
0.00179057
0.00130797
0.000798383
0.000269887
-0.000269533
-0.000809308
-0.00133959
-0.00189164
-0.00249494
0.00149829
0.000719036
0.00011177
-0.00037656
-0.000810177
-0.00119335
-0.00152959
-0.00182638
-0.00209072
-0.0023287
-0.00254568
-0.00274629
-0.00293442
-0.00311321
-0.00328507
-0.0034517
-0.00361415
-0.00377283
-0.00392758
-0.0040777
-0.00422199
-0.00435882
-0.00448616
-0.00460167
-0.00470269
-0.0047864
-0.00484981
-0.00488984
-0.00490345
-0.00488764
-0.0048396
-0.00475675
-0.00463687
-0.00447814
-0.00427928
-0.00403963
-0.00375917
-0.00343869
-0.00307977
-0.00268488
-0.0022574
-0.00180165
-0.00132284
-0.000827084
-0.000321301
0.000186864
0.000689175
0.00117696
0.00164129
0.00207322
0.002464
0.00280531
0.00308954
0.00331001
0.00346121
0.003539
0.00354074
0.00346544
0.00331376
0.00308806
0.00279227
0.00243176
0.00201321
0.00154432
0.00103359
0.000490033
-7.73795e-05
-0.000659705
-0.00124511
-0.00182256
-0.00242628
-0.00308844
0.0010522
0.000248104
-0.000378047
-0.000881245
-0.00132809
-0.00172327
-0.0020707
-0.00237836
-0.0026537
-0.00290319
-0.00313251
-0.00334656
-0.00354943
-0.0037444
-0.00393397
-0.00411989
-0.00430322
-0.00448433
-0.00466299
-0.00483839
-0.0050092
-0.00517361
-0.0053294
-0.00547398
-0.00560444
-0.00571766
-0.00581031
-0.00587898
-0.00592021
-0.00593061
-0.00590692
-0.0058461
-0.00574545
-0.00560267
-0.00541601
-0.00518431
-0.00490712
-0.0045848
-0.00421856
-0.00381057
-0.00336399
-0.00288301
-0.00237284
-0.00183972
-0.00129082
-0.000734216
-0.000178731
0.000366217
0.000890806
0.00138504
0.00183899
0.00224309
0.0025884
0.00286689
0.00307174
0.00319753
0.00324052
0.00319874
0.00307212
0.00286248
0.00257351
0.00221059
0.00178068
0.001292
0.000753765
0.000175891
-0.000431647
-0.00105885
-0.00169248
-0.00232018
-0.00297941
-0.00370523
0.000521726
-0.000304651
-0.000947809
-0.00146452
-0.00192353
-0.00232999
-0.00268816
-0.00300652
-0.00329296
-0.00355432
-0.00379657
-0.00402486
-0.00424349
-0.00445585
-0.00466455
-0.00487137
-0.00507736
-0.00528286
-0.00548757
-0.00569057
-0.00589039
-0.00608503
-0.00627208
-0.0064487
-0.00661172
-0.00675769
-0.00688295
-0.00698372
-0.00705612
-0.00709632
-0.00710059
-0.00706537
-0.00698746
-0.00686401
-0.00669271
-0.00647188
-0.00620052
-0.0058785
-0.00550659
-0.00508655
-0.00462125
-0.00411467
-0.00357192
-0.00299931
-0.00240423
-0.00179515
-0.00118144
-0.000573294
1.85227e-05
0.000582894
0.00110862
0.00158474
0.00200081
0.00234727
0.00261576
0.00279941
0.00289311
0.00289373
0.00280024
0.00261377
0.00233764
0.00197715
0.00153948
0.00103335
0.000468779
-0.000143369
-0.000792019
-0.00146599
-0.0021505
-0.00283171
-0.0035506
-0.00434536
-9.5986e-05
-0.000941963
-0.00160018
-0.00212899
-0.00259911
-0.00301606
-0.00338453
-0.00371342
-0.00401107
-0.00428463
-0.0045404
-0.00478376
-0.00501917
-0.00525018
-0.00547944
-0.0057088
-0.0059393
-0.00617124
-0.00640423
-0.00663726
-0.00686869
-0.00709638
-0.00731768
-0.00752953
-0.00772846
-0.00791072
-0.0080723
-0.008209
-0.00831653
-0.00839058
-0.00842689
-0.00842139
-0.00837028
-0.00827014
-0.00811802
-0.00791163
-0.00764937
-0.00733051
-0.00695527
-0.00652494
-0.00604197
-0.00551004
-0.0049341
-0.0043204
-0.00367651
-0.0030112
-0.00233441
-0.00165707
-0.000990923
-0.000348269
0.000258323
0.000816342
0.00131369
0.00173907
0.00208235
0.00233495
0.00249015
0.00254339
0.00249246
0.0023376
0.00208156
0.00172945
0.00128858
0.000768197
0.000179085
-0.000466833
-0.00115729
-0.00187979
-0.00261785
-0.00335599
-0.00413901
-0.00500849
-0.000803385
-0.00166618
-0.00233743
-0.00287691
-0.00335702
-0.00378369
-0.00416198
-0.00450124
-0.00481018
-0.0050963
-0.00536618
-0.00562542
-0.00587865
-0.00612954
-0.00638084
-0.00663441
-0.00689129
-0.00715175
-0.00741532
-0.00768087
-0.00794665
-0.00821033
-0.00846904
-0.00871949
-0.00895793
-0.00918029
-0.00938217
-0.00955899
-0.00970598
-0.00981834
-0.00989129
-0.00992014
-0.00990048
-0.00982823
-0.00969977
-0.00951209
-0.00926291
-0.00895082
-0.00857538
-0.0081373
-0.00763849
-0.00708222
-0.00647316
-0.00581743
-0.00512264
-0.00439783
-0.00365341
-0.00290107
-0.0021535
-0.00142424
-0.000727324
-7.69313e-05
0.000513002
0.00102922
0.00145958
0.0017935
0.00202239
0.00213994
0.00214248
0.00202911
0.0018018
0.00146528
0.00102693
0.000496411
-0.000114671
-0.000793291
-0.00152588
-0.00229849
-0.00309274
-0.00389136
-0.00474326
-0.0056937
-0.00160249
-0.00247922
-0.00316143
-0.0037101
-0.00419908
-0.00463468
-0.00502231
-0.00537174
-0.00569205
-0.00599107
-0.00627563
-0.00655155
-0.00682362
-0.00709563
-0.00737041
-0.00764986
-0.007935
-0.00822608
-0.00852256
-0.0088232
-0.00912611
-0.00942881
-0.00972822
-0.0100208
-0.0103025
-0.010569
-0.0108155
-0.0110369
-0.011228
-0.0113836
-0.0114982
-0.0115665
-0.0115835
-0.0115443
-0.0114447
-0.0112807
-0.0110493
-0.0107484
-0.0103767
-0.00993428
-0.00942232
-0.00884358
-0.0082023
-0.00750436
-0.0067573
-0.00597032
-0.00515424
-0.00432141
-0.0034855
-0.0026613
-0.00186436
-0.00111066
-0.000416151
0.000203735
0.000734582
0.00116352
0.00147971
0.0016748
0.00174333
0.00168293
0.00149452
0.00118226
0.000753398
0.000217975
-0.000411614
-0.00112118
-0.00189575
-0.0027198
-0.00357281
-0.00443553
-0.00536134
-0.00639945
-0.00249484
-0.00338255
-0.00407362
-0.00462998
-0.00512668
-0.00557039
-0.00596687
-0.00632627
-0.00665801
-0.00697023
-0.00727
-0.00756336
-0.00785525
-0.00814958
-0.00844925
-0.00875619
-0.00907145
-0.00939522
-0.00972692
-0.0100652
-0.0104081
-0.0107529
-0.0110964
-0.0114347
-0.0117636
-0.0120784
-0.0123739
-0.0126447
-0.012885
-0.0130889
-0.0132506
-0.0133641
-0.0134234
-0.0134231
-0.013358
-0.0132234
-0.0130154
-0.0127308
-0.0123677
-0.0119252
-0.0114037
-0.0108053
-0.0101336
-0.00939423
-0.00859439
-0.00774336
-0.00685225
-0.005934
-0.0050032
-0.00407587
-0.00316916
-0.00230093
-0.0014893
-0.000752097
-0.000106299
0.000432602
0.000851187
0.00113867
0.00128738
0.00129315
0.00115551
0.000877754
0.000466827
-6.70043e-05
-0.000710587
-0.00144853
-0.00226436
-0.0031408
-0.004055
-0.00498549
-0.00599047
-0.00712341
-0.0034815
-0.00437721
-0.00507497
-0.00563751
-0.00614077
-0.00659176
-0.00699657
-0.0073657
-0.0077089
-0.00803457
-0.00835004
-0.00866153
-0.00897415
-0.00929191
-0.00961779
-0.00995378
-0.0103009
-0.0106594
-0.0110286
-0.0114071
-0.0117927
-0.0121827
-0.0125736
-0.0129613
-0.0133415
-0.0137088
-0.014058
-0.014383
-0.0146777
-0.0149356
-0.0151501
-0.0153147
-0.0154225
-0.0154674
-0.0154432
-0.0153444
-0.0151659
-0.0149038
-0.014555
-0.0141176
-0.0135911
-0.0129769
-0.0122777
-0.0114987
-0.0106465
-0.00973053
-0.00876189
-0.00775404
-0.00672238
-0.00568415
-0.00465807
-0.00366399
-0.00272231
-0.0018535
-0.00107735
-0.00041232
0.000125197
0.000521541
0.000766418
0.00085339
0.000780214
0.000548982
0.000166052
-0.000358249
-0.0010101
-0.00177289
-0.00262854
-0.00355788
-0.00453548
-0.00553738
-0.00662701
-0.00786237
-0.00456301
-0.00546369
-0.006166
-0.0067332
-0.00724185
-0.00769928
-0.00811187
-0.00849045
-0.00884507
-0.00918439
-0.00951595
-0.00984616
-0.0101803
-0.0105225
-0.0108758
-0.0112422
-0.0116229
-0.012018
-0.0124268
-0.0128478
-0.0132789
-0.0137171
-0.0141587
-0.0145996
-0.0150349
-0.0154592
-0.0158667
-0.016251
-0.0166054
-0.016923
-0.0171964
-0.0174183
-0.0175813
-0.0176781
-0.0177018
-0.0176456
-0.0175037
-0.0172708
-0.0169427
-0.0165166
-0.0159909
-0.0153657
-0.0146431
-0.0138272
-0.0129245
-0.0119437
-0.0108961
-0.00979545
-0.0086578
-0.00750153
-0.00634692
-0.00521582
-0.00413106
-0.00311588
-0.00219321
-0.00138479
-0.000710437
-0.000187138
0.000171681
0.000356818
0.000363771
0.000193005
-0.000150053
-0.000655257
-0.00130824
-0.00209121
-0.0029844
-0.00396659
-0.00500948
-0.00608636
-0.00726627
-0.00861205
-0.00573939
-0.00664205
-0.00734676
-0.00791711
-0.00842998
-0.00889298
-0.00931277
-0.00970047
-0.0100664
-0.0104194
-0.0107674
-0.0111168
-0.011473
-0.0118405
-0.0122222
-0.0126204
-0.013036
-0.0134694
-0.0139198
-0.0143856
-0.0148647
-0.0153539
-0.0158494
-0.0163469
-0.0168412
-0.0173267
-0.0177972
-0.0182459
-0.0186655
-0.0190485
-0.019387
-0.0196728
-0.0198978
-0.0200537
-0.0201325
-0.0201265
-0.0200286
-0.0198325
-0.0195326
-0.0191248
-0.0186064
-0.0179762
-0.0172354
-0.0163869
-0.0154365
-0.0143925
-0.0132658
-0.0120702
-0.0108225
-0.00954201
-0.00825043
-0.00697159
-0.00573084
-0.00455438
-0.00346846
-0.00249852
-0.00166818
-0.000998283
-0.000505944
-0.000203707
-9.88908e-05
-0.000193181
-0.000482504
-0.000957226
-0.00160263
-0.00239981
-0.00332725
-0.00436151
-0.00547117
-0.00662646
-0.00790239
-0.00936694
-0.00701012
-0.0079118
-0.00861683
-0.00918883
-0.00970476
-0.0101724
-0.0105988
-0.0109952
-0.0113722
-0.0117389
-0.0121033
-0.0124722
-0.0128511
-0.0132444
-0.0136553
-0.0140862
-0.014538
-0.0150111
-0.0155047
-0.0160174
-0.0165466
-0.0170894
-0.0176418
-0.0181992
-0.0187563
-0.0193071
-0.0198451
-0.020363
-0.0208532
-0.0213075
-0.0217173
-0.0220737
-0.0223676
-0.0225899
-0.0227315
-0.0227836
-0.0227379
-0.0225866
-0.022323
-0.0219414
-0.0214379
-0.0208099
-0.0200571
-0.0191815
-0.0181878
-0.0170833
-0.0158787
-0.0145877
-0.0132273
-0.0118175
-0.0103815
-0.00894502
-0.00753588
-0.00618333
-0.00491722
-0.00376695
-0.00276044
-0.00192289
-0.00127573
-0.000835471
-0.000612923
-0.000612528
-0.000832106
-0.00126295
-0.00189028
-0.00269419
-0.00365141
-0.00473613
-0.00591351
-0.00715037
-0.00852812
-0.0101202
-0.00837413
-0.009272
-0.00997531
-0.0105475
-0.0110654
-0.0115368
-0.0119691
-0.0123737
-0.0127614
-0.0131416
-0.0135223
-0.0139107
-0.0143123
-0.0147318
-0.0151725
-0.0156366
-0.0161255
-0.0166394
-0.0171776
-0.0177387
-0.0183201
-0.0189188
-0.0195307
-0.020151
-0.0207742
-0.0213941
-0.0220038
-0.0225958
-0.0231617
-0.0236929
-0.02418
-0.0246136
-0.0249835
-0.0252796
-0.0254919
-0.0256102
-0.0256251
-0.0255272
-0.0253086
-0.024962
-0.0244818
-0.023864
-0.0231068
-0.0222108
-0.0211794
-0.020019
-0.0187394
-0.0173539
-0.0158796
-0.014337
-0.0127506
-0.0111476
-0.00955852
-0.00801562
-0.00655247
-0.00520278
-0.00399913
-0.00297168
-0.00214678
-0.00154567
-0.00118336
-0.00106779
-0.00119931
-0.0015707
-0.00216748
-0.00296894
-0.0039501
-0.00508266
-0.00632804
-0.0076493
-0.00913466
-0.0108632
-0.00982984
-0.0107212
-0.0114209
-0.0119919
-0.0125105
-0.0129848
-0.0134222
-0.0138344
-0.0142323
-0.0146255
-0.0150223
-0.0154299
-0.0158541
-0.0162997
-0.0167702
-0.0172679
-0.0177943
-0.0183497
-0.0189334
-0.019544
-0.0201791
-0.0208355
-0.021509
-0.0221948
-0.0228871
-0.0235796
-0.0242649
-0.0249352
-0.0255817
-0.0261951
-0.0267656
-0.0272826
-0.0277354
-0.0281128
-0.0284035
-0.0285964
-0.0286804
-0.0286449
-0.0284804
-0.0281779
-0.0277302
-0.0271317
-0.0263787
-0.0254703
-0.0244084
-0.023198
-0.0218478
-0.0203706
-0.018783
-0.0171059
-0.0153645
-0.0135879
-0.0118085
-0.0100619
-0.00838543
-0.00681728
-0.00539513
-0.00415461
-0.00312768
-0.00234107
-0.00181485
-0.00156128
-0.00158405
-0.00187804
-0.00242961
-0.00321754
-0.00421525
-0.00539184
-0.0067047
-0.00811275
-0.00971142
-0.0115857
-0.0113751
-0.0122575
-0.0129518
-0.0135203
-0.0140386
-0.0145148
-0.0149565
-0.0153755
-0.0157829
-0.0161884
-0.0166005
-0.0170267
-0.017473
-0.0179442
-0.0184441
-0.0189752
-0.019539
-0.020136
-0.0207657
-0.0214265
-0.0221162
-0.0228315
-0.0235683
-0.0243216
-0.0250855
-0.0258535
-0.0266178
-0.0273703
-0.0281018
-0.0288024
-0.0294615
-0.0300681
-0.0306103
-0.031076
-0.0314528
-0.0317283
-0.0318901
-0.0319261
-0.031825
-0.0315764
-0.031171
-0.0306013
-0.0298621
-0.0289504
-0.0278664
-0.0266134
-0.025199
-0.0236345
-0.0219362
-0.0201249
-0.0182262
-0.0162704
-0.0142922
-0.0123299
-0.0104247
-0.00861959
-0.00695759
-0.0054803
-0.00422596
-0.00322763
-0.00251135
-0.00209465
-0.00198548
-0.00218165
-0.00267097
-0.00343219
-0.00443728
-0.00565273
-0.00703159
-0.00852825
-0.0102457
-0.0122752
-0.0130074
-0.0138786
-0.0145659
-0.0151308
-0.0156477
-0.0161248
-0.0165698
-0.0169947
-0.0174105
-0.0178273
-0.0182539
-0.0186976
-0.0191649
-0.0196607
-0.0201891
-0.0207528
-0.0213534
-0.0219915
-0.0226668
-0.0233779
-0.0241225