/*--------------------------------*- C++ -*----------------------------------*\
  =========                 |
  \\      /  F ield         | OpenFOAM: The Open Source CFD Toolbox
   \\    /   O peration     | Website:  https://openfoam.org
    \\  /    A nd           | Version:  dev
     \\/     M anipulation  |
\*---------------------------------------------------------------------------*/
FoamFile
{
    format      ascii;
    class       surfaceScalarField;
    location    "32.85";
    object      phi;
}
// * * * * * * * * * * * * * * * * * * * * * * * * * * * * * * * * * * * * * //

dimensions      [0 3 -1 0 0 0 0];

internalField   nonuniform List<scalar> 
10224
(
3.37927e-08
-3.48893e-08
8.78697e-08
-5.40594e-08
1.24431e-07
-3.65606e-08
1.25391e-07
-9.63054e-10
8.37635e-08
4.16313e-08
-1.72535e-09
8.54945e-08
-1.29255e-07
1.27529e-07
-2.95521e-07
1.66263e-07
-4.96461e-07
2.00939e-07
-7.27772e-07
2.31313e-07
-9.85183e-07
2.57415e-07
-1.26461e-06
2.79422e-07
-1.5622e-06
2.97591e-07
-1.87441e-06
3.12206e-07
-2.19796e-06
3.2355e-07
-2.52984e-06
3.3189e-07
-2.8673e-06
3.37462e-07
-3.20777e-06
3.40466e-07
-3.54883e-06
3.41066e-07
-3.88821e-06
3.39382e-07
-4.22371e-06
3.355e-07
-4.55318e-06
3.29473e-07
-4.87451e-06
3.21326e-07
-5.18557e-06
3.11061e-07
-5.48423e-06
2.98666e-07
-5.76835e-06
2.84121e-07
-6.03576e-06
2.67404e-07
-6.28425e-06
2.48497e-07
-6.51165e-06
2.27397e-07
-6.71576e-06
2.04116e-07
-6.89446e-06
1.78694e-07
-7.04565e-06
1.51198e-07
-7.16738e-06
1.2173e-07
-7.25781e-06
9.04293e-08
-7.31529e-06
5.7477e-08
-7.33838e-06
2.30953e-08
-7.32593e-06
-1.24498e-08
-7.27708e-06
-4.885e-08
-7.19133e-06
-8.57558e-08
-7.06855e-06
-1.2278e-07
-6.90904e-06
-1.59502e-07
-6.71357e-06
-1.95472e-07
-6.48335e-06
-2.3022e-07
-6.22009e-06
-2.63264e-07
-5.92597e-06
-2.94115e-07
-5.60368e-06
-3.22291e-07
-5.25636e-06
-3.47327e-07
-4.88757e-06
-3.68784e-07
-4.50131e-06
-3.86259e-07
-4.10191e-06
-3.994e-07
-3.694e-06
-4.0791e-07
-3.28245e-06
-4.11558e-07
-2.87226e-06
-4.10189e-07
-2.46853e-06
-4.03729e-07
-2.07634e-06
-3.92188e-07
-1.70068e-06
-3.75661e-07
-1.34635e-06
-3.54333e-07
-1.01787e-06
-3.28477e-07
-7.19409e-07
-2.98456e-07
-4.54686e-07
-2.64721e-07
-2.26877e-07
-2.27808e-07
-3.85268e-08
-1.88349e-07
1.08558e-07
-1.47084e-07
2.13441e-07
-1.04883e-07
2.76236e-07
-6.27957e-08
2.98374e-07
-2.21409e-08
2.83035e-07
1.53363e-08
2.35818e-07
4.72182e-08
1.65786e-07
7.00363e-08
8.7235e-08
7.85531e-08
2.25452e-08
6.46858e-08
2.25425e-08
5.39162e-08
-8.87881e-08
1.1245e-07
-1.12582e-07
1.18262e-07
-4.23745e-08
3.89572e-08
7.83349e-08
-1.4187e-07
2.22452e-07
-4.29539e-07
3.73166e-07
-8.22289e-07
5.20287e-07
-1.31398e-06
6.57957e-07
-1.89605e-06
7.83003e-07
-2.55868e-06
8.93937e-07
-3.29159e-06
9.90325e-07
-4.08453e-06
1.07237e-06
-4.92759e-06
1.14065e-06
-5.81132e-06
1.19593e-06
-6.72683e-06
1.23906e-06
-7.66579e-06
1.27085e-06
-8.6204e-06
1.29207e-06
-9.58331e-06
1.30338e-06
-1.05476e-05
1.30532e-06
-1.15065e-05
1.29833e-06
-1.24537e-05
1.28272e-06
-1.3383e-05
1.25869e-06
-1.4288e-05
1.22637e-06
-1.51627e-05
1.18579e-06
-1.6001e-05
1.13697e-06
-1.67968e-05
1.07987e-06
-1.75438e-05
1.01448e-06
-1.82361e-05
9.4078e-07
-1.88676e-05
8.58829e-07
-1.94322e-05
7.68735e-07
-1.99242e-05
6.70704e-07
-2.0338e-05
5.65046e-07
-2.06685e-05
4.52194e-07
-2.09108e-05
3.32717e-07
-2.10606e-05
2.07331e-07
-2.11144e-05
7.68978e-08
-2.10693e-05
-5.75654e-08
-2.09233e-05
-1.94894e-07
-2.06752e-05
-3.3378e-07
-2.03252e-05
-4.72787e-07
-1.98744e-05
-6.1036e-07
-1.9325e-05
-7.44855e-07
-1.86807e-05
-8.74554e-07
-1.79462e-05
-9.97703e-07
-1.71278e-05
-1.11254e-06
-1.62328e-05
-1.21732e-06
-1.52697e-05
-1.31037e-06
-1.42484e-05
-1.39011e-06
-1.31795e-05
-1.45512e-06
-1.20748e-05
-1.50413e-06
-1.09466e-05
-1.53609e-06
-9.80801e-06
-1.55018e-06
-8.67232e-06
-1.54588e-06
-7.55312e-06
-1.52293e-06
-6.46393e-06
-1.48138e-06
-5.41797e-06
-1.42162e-06
-4.42796e-06
-1.34434e-06
-3.50584e-06
-1.25059e-06
-2.66256e-06
-1.14173e-06
-1.90781e-06
-1.01947e-06
-1.24977e-06
-8.85848e-07
-6.94834e-07
-7.43283e-07
-2.47314e-07
-5.94606e-07
9.09477e-08
-4.43145e-07
3.21032e-07
-2.92878e-07
4.47539e-07
-1.48644e-07
4.79465e-07
-1.65892e-08
4.3129e-07
9.539e-08
3.24461e-07
1.76862e-07
1.89004e-07
2.14017e-07
6.43907e-08
1.89315e-07
8.69296e-08
3.73565e-08
-1.26143e-07
4.33433e-08
-1.18574e-07
-4.3244e-08
4.42209e-08
-2.58699e-07
2.93794e-07
-6.22642e-07
5.86391e-07
-1.14219e-06
8.92707e-07
-1.8156e-06
1.1937e-06
-2.63522e-06
1.47759e-06
-3.58969e-06
1.73747e-06
-4.66548e-06
1.96973e-06
-5.84802e-06
2.17286e-06
-7.12242e-06
2.34677e-06
-8.47397e-06
2.4922e-06
-9.88843e-06
2.61039e-06
-1.13522e-05
2.7028e-06
-1.28522e-05
2.77094e-06
-1.43764e-05
2.81621e-06
-1.59129e-05
2.83991e-06
-1.74507e-05
2.8431e-06
-1.8979e-05
2.82664e-06
-2.04874e-05
2.79117e-06
-2.19659e-05
2.73715e-06
-2.34044e-05
2.66486e-06
-2.4793e-05
2.57444e-06
-2.6122e-05
2.46596e-06
-2.73816e-05
2.33944e-06
-2.8562e-05
2.19491e-06
-2.96537e-05
2.03246e-06
-3.06471e-05
1.85228e-06
-3.15331e-05
1.6547e-06
-3.23026e-05
1.44025e-06
-3.29473e-05
1.20968e-06
-3.34591e-05
9.63998e-07
-3.38308e-05
7.04492e-07
-3.40563e-05
4.32748e-07
-3.413e-05
1.50658e-07
-3.4048e-05
-1.39572e-07
-3.38075e-05
-4.35436e-07
-3.34071e-05
-7.34138e-07
-3.28473e-05
-1.03262e-06
-3.213e-05
-1.3276e-06
-3.12593e-05
-1.61561e-06
-3.02408e-05
-1.89305e-06
-2.90823e-05
-2.15623e-06
-2.77933e-05
-2.40148e-06
-2.63855e-05
-2.62517e-06
-2.4872e-05
-2.82382e-06
-2.32679e-05
-2.99417e-06
-2.15898e-05
-3.13324e-06
-1.98555e-05
-3.23844e-06
-1.8084e-05
-3.30758e-06
-1.62952e-05
-3.33902e-06
-1.45094e-05
-3.33166e-06
-1.27473e-05
-3.28499e-06
-1.10295e-05
-3.19918e-06
-9.3761e-06
-3.07505e-06
-7.80633e-06
-2.91411e-06
-6.33833e-06
-2.71859e-06
-4.98864e-06
-2.49142e-06
-3.77187e-06
-2.23625e-06
-2.70024e-06
-1.95747e-06
-1.78323e-06
-1.66029e-06
-1.02707e-06
-1.35077e-06
-4.34223e-07
-1.03599e-06
-2.78711e-09
-7.24315e-07
2.74324e-07
-4.25754e-07
4.10181e-07
-1.52442e-07
4.25026e-07
8.05468e-08
3.4749e-07
2.54391e-07
2.1579e-07
3.45711e-07
7.86595e-08
3.26453e-07
1.65589e-07
1.91966e-09
-1.28066e-07
-7.89332e-08
-3.77294e-08
-2.97628e-07
2.62919e-07
-6.87901e-07
6.84076e-07
-1.26808e-06
1.16657e-06
-2.04444e-06
1.66906e-06
-3.01419e-06
2.16344e-06
-4.16807e-06
2.63147e-06
-5.49248e-06
3.06189e-06
-6.9711e-06
3.44835e-06
-8.58608e-06
3.78784e-06
-1.03189e-05
4.07963e-06
-1.21512e-05
4.32443e-06
-1.40646e-05
4.52382e-06
-1.60416e-05
4.67984e-06
-1.80654e-05
4.79468e-06
-2.01197e-05
4.87048e-06
-2.21889e-05
4.90919e-06
-2.42583e-05
4.91246e-06
-2.63133e-05
4.88167e-06
-2.834e-05
4.81786e-06
-3.03246e-05
4.72179e-06
-3.22537e-05
4.59396e-06
-3.4114e-05
4.43468e-06
-3.58922e-05
4.24415e-06
-3.75752e-05
4.02251e-06
-3.91502e-05
3.76991e-06
-4.06044e-05
3.48664e-06
-4.19253e-05
3.17313e-06
-4.31007e-05
2.8301e-06
-4.4119e-05
2.45856e-06
-4.49692e-05
2.05991e-06
-4.56412e-05
1.63596e-06
-4.61257e-05
1.18902e-06
-4.64148e-05
7.21845e-07
-4.65018e-05
2.37719e-07
-4.63818e-05
-2.59573e-07
-4.60515e-05
-7.65755e-07
-4.55096e-05
-1.27609e-06
-4.47568e-05
-1.78541e-06
-4.37962e-05
-2.28819e-06
-4.26332e-05
-2.77862e-06
-4.12756e-05
-3.25067e-06
-3.97336e-05
-3.69822e-06
-3.802e-05
-4.11513e-06
-3.61497e-05
-4.49539e-06
-3.41403e-05
-4.83322e-06
-3.20113e-05
-5.12323e-06
-2.9784e-05
-5.36049e-06
-2.74818e-05
-5.54069e-06
-2.51291e-05
-5.66028e-06
-2.27516e-05
-5.71652e-06
-2.03756e-05
-5.70761e-06
-1.80279e-05
-5.63276e-06
-1.57348e-05
-5.49226e-06
-1.35223e-05
-5.28753e-06
-1.14153e-05
-5.02114e-06
-9.43701e-06
-4.69685e-06
-7.6088e-06
-4.31963e-06
-5.94939e-06
-3.89566e-06
-4.47447e-06
-3.4324e-06
-3.19615e-06
-2.93861e-06
-2.12239e-06
-2.42452e-06
-1.25639e-06
-1.90198e-06
-5.95904e-07
-1.3848e-06
-1.32484e-07
-8.89178e-07
1.49378e-07
-4.34303e-07
2.7315e-07
-4.32221e-08
2.71295e-07
2.56243e-07
1.86323e-07
4.30675e-07
7.22247e-08
4.40552e-07
2.37817e-07
-4.20434e-08
-8.60173e-08
-2.30022e-07
1.50245e-07
-6.06554e-07
6.39445e-07
-1.19823e-06
1.27575e-06
-2.01879e-06
1.98715e-06
-3.07143e-06
2.7217e-06
-4.35095e-06
3.44297e-06
-5.84593e-06
4.12644e-06
-7.54049e-06
4.75645e-06
-9.41583e-06
5.32369e-06
-1.14514e-05
5.82341e-06
-1.36258e-05
6.25401e-06
-1.59173e-05
6.61597e-06
-1.83046e-05
6.91112e-06
-2.07667e-05
7.14197e-06
-2.32834e-05
7.31138e-06
-2.58351e-05
7.42216e-06
-2.84029e-05
7.47694e-06
-3.09684e-05
7.47802e-06
-3.3514e-05
7.42729e-06
-3.60224e-05
7.32625e-06
-3.84766e-05
7.17599e-06
-4.086e-05
6.9773e-06
-4.3156e-05
6.73072e-06
-4.53485e-05
6.43662e-06
-4.74213e-05
6.09534e-06
-4.93587e-05
5.70726e-06
-5.1145e-05
5.27294e-06
-5.27651e-05
4.79323e-06
-5.42043e-05
4.26934e-06
-5.54487e-05
3.70297e-06
-5.64852e-05
3.09634e-06
-5.73015e-05
2.45234e-06
-5.7887e-05
1.77451e-06
-5.82323e-05
1.06709e-06
-5.83296e-05
3.35073e-07
-5.81734e-05
-4.15831e-07
-5.77599e-05
-1.1792e-06
-5.7088e-05
-1.94796e-06
-5.6159e-05
-2.71443e-06
-5.49768e-05
-3.47041e-06
-5.35481e-05
-4.2073e-06
-5.18826e-05
-4.91621e-06
-4.99927e-05
-5.58812e-06
-4.78938e-05
-6.21402e-06
-4.56041e-05
-6.78507e-06
-4.31445e-05
-7.29281e-06
-4.05384e-05
-7.72931e-06
-3.78115e-05
-8.08738e-06
-3.49915e-05
-8.36071e-06
-3.21077e-05
-8.5441e-06
-2.91907e-05
-8.63354e-06
-2.62719e-05
-8.62641e-06
-2.33831e-05
-8.52157e-06
-2.05558e-05
-8.31948e-06
-1.78211e-05
-8.02225e-06
-1.52086e-05
-7.6337e-06
-1.2746e-05
-7.15943e-06
-1.04588e-05
-6.60681e-06
-8.36943e-06
-5.98503e-06
-6.49669e-06
-5.30514e-06
-4.85515e-06
-4.58015e-06
-3.45454e-06
-3.82513e-06
-2.29909e-06
-3.05743e-06
-1.38683e-06
-2.29706e-06
-7.08923e-07
-1.56709e-06
-2.48879e-07
-8.94347e-07
1.81581e-08
-3.10256e-07
1.26245e-07
1.48158e-07
1.19535e-07
4.37385e-07
5.36703e-08
5.06415e-07
2.91488e-07
-8.94346e-08
3.42231e-09
-3.95347e-07
4.56161e-07
-9.4513e-07
1.18922e-06
-1.75537e-06
2.08599e-06
-2.83286e-06
3.06464e-06
-4.17585e-06
4.0647e-06
-5.7755e-06
5.04261e-06
-7.61741e-06
5.96835e-06
-9.68312e-06
6.82216e-06
-1.19513e-05
7.5919e-06
-1.4399e-05
8.27106e-06
-1.70021e-05
8.8571e-06
-1.97363e-05
9.3502e-06
-2.25775e-05
9.7523e-06
-2.55019e-05
1.00664e-05
-2.84863e-05
1.02958e-05
-3.15082e-05
1.04441e-05
-3.45459e-05
1.05146e-05
-3.7578e-05
1.05101e-05
-4.05838e-05
1.04331e-05
-4.35431e-05
1.02856e-05
-4.64361e-05
1.0069e-05
-4.92432e-05
9.78441e-06
-5.19452e-05
9.43267e-06
-5.45229e-05
9.01439e-06
-5.69578e-05
8.53018e-06
-5.92312e-05
7.98073e-06
-6.13253e-05
7.367e-06
-6.32224e-05
6.69035e-06
-6.49057e-05
5.95264e-06
-6.63592e-05
5.15642e-06
-6.75678e-05
4.30496e-06
-6.85178e-05
3.40239e-06
-6.9197e-05
2.45374e-06
-6.9595e-05
1.465e-06
-6.9703e-05
4.4315e-07
-6.9515e-05
-6.03876e-07
-6.9027e-05
-1.6672e-06
-6.82379e-05
-2.73705e-06
-6.71494e-05
-3.80289e-06
-6.57663e-05
-4.85349e-06
-6.40966e-05
-5.87709e-06
-6.21512e-05
-6.86157e-06
-5.99447e-05
-7.79463e-06
-5.74947e-05
-8.664e-06
-5.48221e-05
-9.45769e-06
-5.19507e-05
-1.01642e-05
-4.89073e-05
-1.07727e-05
-4.57212e-05
-1.12735e-05
-4.24238e-05
-1.1658e-05
-3.90488e-05
-1.19192e-05
-3.56308e-05
-1.20515e-05
-3.22057e-05
-1.20514e-05
-2.88099e-05
-1.19174e-05
-2.54792e-05
-1.16501e-05
-2.22492e-05
-1.12523e-05
-1.91536e-05
-1.07293e-05
-1.62244e-05
-1.00886e-05
-1.34908e-05
-9.34045e-06
-1.09785e-05
-8.4973e-06
-8.70936e-06
-7.57427e-06
-6.70044e-06
-6.58907e-06
-4.96342e-06
-5.56214e-06
-3.50396e-06
-4.51689e-06
-2.32102e-06
-3.48e-06
-1.40622e-06
-2.48188e-06
-7.43264e-07
-1.55731e-06
-3.07294e-07
-7.46227e-07
-6.4331e-08
-9.48026e-08
2.93861e-08
3.43671e-07
2.8323e-08
5.07477e-07
3.19809e-07
-1.37649e-07
1.41069e-07
-5.66333e-07
8.84853e-07
-1.29753e-06
1.92043e-06
-2.33634e-06
3.12479e-06
-3.68106e-06
4.40936e-06
-5.32362e-06
5.70727e-06
-7.25042e-06
6.96942e-06
-9.44335e-06
8.16128e-06
-1.18809e-05
9.25965e-06
-1.45389e-05
1.025e-05
-1.7392e-05
1.11242e-05
-2.04137e-05
1.18788e-05
-2.35773e-05
1.25138e-05
-2.68562e-05
1.30312e-05
-3.02242e-05
1.34344e-05
-3.36556e-05
1.37272e-05
-3.71254e-05
1.39139e-05
-4.06091e-05
1.39983e-05
-4.40829e-05
1.39839e-05
-4.75236e-05
1.38738e-05
-5.09082e-05
1.36702e-05
-5.42144e-05
1.33752e-05
-5.74201e-05
1.29901e-05
-6.05034e-05
1.2516e-05
-6.34429e-05
1.19539e-05
-6.62174e-05
1.13047e-05
-6.88063e-05
1.05696e-05
-7.11891e-05
9.74986e-06
-7.33464e-05
8.84761e-06
-7.52592e-05
7.86548e-06
-7.69098e-05
6.80698e-06
-7.82814e-05
5.67661e-06
-7.9359e-05
4.47994e-06
-8.0129e-05
3.22371e-06
-8.05798e-05
1.91587e-06
-8.07023e-05
5.65619e-07
-8.04896e-05
-8.16617e-07
-7.99375e-05
-2.21922e-06
-7.90451e-05
-3.62947e-06
-7.78144e-05
-5.03366e-06
-7.62506e-05
-6.4172e-06
-7.43628e-05
-7.76489e-06
-7.21634e-05
-9.06104e-06
-6.96682e-05
-1.02898e-05
-6.6897e-05
-1.14352e-05
-6.38728e-05
-1.24819e-05
-6.06219e-05
-1.3415e-05
-5.7174e-05
-1.42206e-05
-5.35614e-05
-1.48861e-05
-4.9819e-05
-1.54004e-05
-4.59839e-05
-1.57543e-05
-4.20945e-05
-1.59408e-05
-3.81908e-05
-1.59552e-05
-3.43127e-05
-1.57955e-05
-3.05006e-05
-1.54622e-05
-2.67937e-05
-1.49592e-05
-2.32298e-05
-1.42931e-05
-1.98447e-05
-1.34738e-05
-1.66711e-05
-1.25141e-05
-1.37381e-05
-1.14303e-05
-1.10705e-05
-1.02419e-05
-8.68803e-06
-8.97154e-06
-6.60462e-06
-7.64556e-06
-4.82779e-06
-6.29373e-06
-3.35804e-06
-4.94976e-06
-2.18826e-06
-3.65166e-06
-1.30324e-06
-2.44232e-06
-6.79251e-07
-1.37022e-06
-2.83645e-07
-4.90409e-07
-7.45573e-08
1.34585e-07
-5.72229e-10
4.33491e-07
3.19234e-07
-1.85434e-07
3.26499e-07
-7.38088e-07
1.43751e-06
-1.65398e-06
2.83632e-06
-2.92613e-06
4.39694e-06
-4.54345e-06
6.02668e-06
-6.49063e-06
7.65444e-06
-8.74844e-06
9.22723e-06
-1.12944e-05
1.07072e-05
-1.41033e-05
1.20686e-05
-1.71482e-05
1.32949e-05
-2.0401e-05
1.43769e-05
-2.38328e-05
1.53106e-05
-2.74147e-05
1.60957e-05
-3.11179e-05
1.67344e-05
-3.4914e-05
1.72304e-05
-3.87751e-05
1.75883e-05
-4.2674e-05
1.78127e-05
-4.65839e-05
1.79082e-05
-5.04789e-05
1.78789e-05
-5.43333e-05
1.77282e-05
-5.8122e-05
1.74589e-05
-6.18203e-05
1.70735e-05
-6.5404e-05
1.65737e-05
-6.88489e-05
1.59609e-05
-7.21314e-05
1.52364e-05
-7.52282e-05
1.44016e-05
-7.81166e-05
1.34579e-05
-8.07742e-05
1.24075e-05
-8.31797e-05
1.12531e-05
-8.53123e-05
9.99813e-06
-8.71527e-05
8.64737e-06
-8.86827e-05
7.20663e-06
-8.98858e-05
5.68308e-06
-9.07475e-05
4.08533e-06
-9.12551e-05
2.4235e-06
-9.13987e-05
7.09205e-07
-9.11709e-05
-1.04443e-06
-9.05673e-05
-2.82282e-06
-8.95867e-05
-4.61005e-06
-8.82313e-05
-6.38899e-06
-8.65071e-05
-8.14148e-06
-8.44234e-05
-9.84855e-06
-8.19937e-05
-1.14907e-05
-7.92354e-05
-1.30482e-05
-7.61693e-05
-1.45012e-05
-7.28206e-05
-1.58307e-05
-6.92176e-05
-1.7018e-05
-6.53924e-05
-1.80459e-05
-6.13799e-05
-1.88986e-05
-5.72179e-05
-1.95624e-05
-5.29467e-05
-2.00256e-05
-4.86082e-05
-2.02794e-05
-4.42455e-05
-2.03179e-05
-3.99027e-05
-2.01383e-05
-3.56235e-05
-1.97414e-05
-3.14511e-05
-1.91317e-05
-2.7427e-05
-1.83172e-05
-2.35907e-05
-1.73101e-05
-1.99785e-05
-1.61263e-05
-1.66228e-05
-1.4786e-05
-1.35516e-05
-1.3313e-05
-1.07875e-05
-1.17356e-05
-8.34702e-06
-1.0086e-05
-6.24009e-06
-8.40066e-06
-4.4693e-06
-6.72055e-06
-3.02949e-06
-5.09148e-06
-1.90733e-06
-3.56448e-06
-1.08105e-06
-2.1965e-06
-5.20279e-07
-1.05118e-06
-1.8606e-07
-1.99634e-07
-3.10586e-08
2.78489e-07
2.88174e-07
-2.32148e-07
5.58646e-07
-9.07849e-07
2.11321e-06
-2.00849e-06
3.93696e-06
-3.515e-06
5.90346e-06
-5.40653e-06
7.91821e-06
-7.65991e-06
9.90782e-06
-1.02497e-05
1.1817e-05
-1.31484e-05
1.36059e-05
-1.6327e-05
1.52471e-05
-1.97552e-05
1.67231e-05
-2.3402e-05
1.80238e-05
-2.72363e-05
1.91449e-05
-3.12269e-05
2.00863e-05
-3.53429e-05
2.08504e-05
-3.95539e-05
2.14414e-05
-4.38301e-05
2.18645e-05
-4.81423e-05
2.21249e-05
-5.24618e-05
2.22278e-05
-5.67607e-05
2.21778e-05
-6.10114e-05
2.19789e-05
-6.51869e-05
2.16344e-05
-6.92603e-05
2.1147e-05
-7.32055e-05
2.05189e-05
-7.69964e-05
1.97518e-05
-8.06074e-05
1.88475e-05
-8.40135e-05
1.78076e-05
-8.71899e-05
1.66343e-05
-9.01127e-05
1.53303e-05
-9.27587e-05
1.38991e-05
-9.51058e-05
1.23452e-05
-9.71329e-05
1.06745e-05
-9.88207e-05
8.89438e-06
-0.000100151
7.0137e-06
-0.000101109
5.04309e-06
-0.000101681
2.99496e-06
-0.000101855
8.83522e-07
-0.000101624
-1.27523e-06
-0.000100983
-3.46358e-06
-9.99311e-05
-5.6622e-06
-9.84697e-05
-7.85036e-06
-9.66052e-05
-1.00061e-05
-9.43473e-05
-1.21064e-05
-9.17102e-05
-1.41278e-05
-8.87121e-05
-1.60463e-05
-8.53751e-05
-1.78382e-05
-8.17258e-05
-1.94801e-05
-7.77941e-05
-2.09496e-05
-7.36142e-05
-2.22258e-05
-6.92234e-05
-2.32895e-05
-6.46619e-05
-2.41238e-05
-5.99728e-05
-2.47147e-05
-5.5201e-05
-2.50511e-05
-5.03931e-05
-2.51257e-05
-4.55965e-05
-2.4935e-05
-4.08584e-05
-2.44794e-05
-3.62259e-05
-2.37642e-05
-3.17441e-05
-2.2799e-05
-2.74562e-05
-2.1598e-05
-2.34022e-05
-2.01804e-05
-1.96181e-05
-1.85701e-05
-1.61353e-05
-1.67959e-05
-1.29795e-05
-1.48914e-05
-1.01705e-05
-1.28951e-05
-7.72083e-06
-1.08503e-05
-5.63585e-06
-8.80553e-06
-3.91294e-06
-6.81439e-06
-2.54129e-06
-4.93613e-06
-1.50177e-06
-3.23602e-06
-7.66932e-07
-1.78602e-06
-3.01305e-07
-6.65261e-07
-6.20334e-08
3.92159e-08
2.26139e-07
-2.77517e-07
8.36167e-07
-1.07408e-06
2.90976e-06
-2.3574e-06
5.22028e-06
-4.09665e-06
7.64272e-06
-6.26111e-06
1.00827e-05
-8.81949e-06
1.24662e-05
-1.17398e-05
1.47373e-05
-1.49891e-05
1.68553e-05
-1.85342e-05
1.87922e-05
-2.23411e-05
2.053e-05
-2.63761e-05
2.20588e-05
-3.06054e-05
2.33743e-05
-3.49957e-05
2.44766e-05
-3.95142e-05
2.53689e-05
-4.41286e-05
2.60558e-05
-4.88073e-05
2.65432e-05
-5.35194e-05
2.6837e-05
-5.82345e-05
2.6943e-05
-6.29231e-05
2.68663e-05
-6.75557e-05
2.66115e-05
-7.21037e-05
2.61823e-05
-7.65385e-05
2.55818e-05
-8.08323e-05
2.48126e-05
-8.49572e-05
2.38768e-05
-8.88861e-05
2.27764e-05
-9.25922e-05
2.15137e-05
-9.60491e-05
2.00913e-05
-9.92313e-05
1.85126e-05
-0.000102114
1.6782e-05
-0.000104674
1.49051e-05
-0.000106889
1.28891e-05
-0.000108737
1.0743e-05
-0.000110201
8.47725e-06
-0.000111263
6.10479e-06
-0.000111908
3.64038e-06
-0.000112125
1.10092e-06
-0.000111906
-1.49457e-06
-0.000111245
-4.12511e-06
-0.000110139
-6.76782e-06
-0.000108591
-9.39818e-06
-0.000106607
-1.19902e-05
-0.000104197
-1.45168e-05
-0.000101374
-1.69501e-05
-9.81586e-05
-1.92619e-05
-9.45728e-05
-2.14239e-05
-9.06443e-05
-2.34086e-05
-8.64045e-05
-2.51893e-05
-8.18892e-05
-2.67411e-05
-7.71376e-05
-2.80412e-05
-7.21922e-05
-2.90692e-05
-6.70986e-05
-2.98083e-05
-6.19047e-05
-3.02451e-05
-5.666e-05
-3.03704e-05
-5.14153e-05
-3.01797e-05
-4.62215e-05
-2.96733e-05
-4.11291e-05
-2.88566e-05
-3.61873e-05
-2.77408e-05
-3.1443e-05
-2.63422e-05
-2.69401e-05
-2.46832e-05
-2.27186e-05
-2.27916e-05
-1.88135e-05
-2.0701e-05
-1.52542e-05
-1.84507e-05
-1.20638e-05
-1.60854e-05
-9.25839e-06
-1.36557e-05
-6.84643e-06
-1.12175e-05
-4.82841e-06
-8.83242e-06
-3.19658e-06
-6.56796e-06
-1.93493e-06
-4.49766e-06
-1.01937e-06
-2.70159e-06
-4.18181e-07
-1.26645e-06
-9.29422e-08
-2.86024e-07
1.33197e-07
-3.21429e-07
1.1576e-06
-1.23593e-06
3.82426e-06
-2.69848e-06
6.68282e-06
-4.66696e-06
9.61119e-06
-7.1009e-06
1.25166e-05
-9.96086e-06
1.53262e-05
-1.3208e-05
1.79844e-05
-1.68039e-05
2.04512e-05
-2.07107e-05
2.2699e-05
-2.48909e-05
2.47102e-05
-2.93075e-05
2.64754e-05
-3.39244e-05
2.79911e-05
-3.87058e-05
2.92581e-05
-4.36172e-05
3.02802e-05
-4.86245e-05
3.10631e-05
-5.36946e-05
3.16133e-05
-5.87949e-05
3.19374e-05
-6.38937e-05
3.20418e-05
-6.89598e-05
3.19324e-05
-7.39625e-05
3.16142e-05
-7.88715e-05
3.10913e-05
-8.36569e-05
3.03673e-05
-8.82893e-05
2.9445e-05
-9.27395e-05
2.8327e-05
-9.69788e-05
2.70157e-05
-0.000100979
2.55138e-05
-0.000104712
2.38245e-05
-0.000108152
2.1952e-05
-0.000111271
1.99015e-05
-0.000114046
1.76798e-05
-0.000116452
1.52954e-05
-0.000118468
1.27587e-05
-0.000120073
1.00824e-05
-0.000121249
7.28125e-06
-0.000121982
4.37268e-06
-0.000122257
1.37635e-06
-0.000122066
-1.68568e-06
-0.000121402
-4.78903e-06
-0.000120263
-7.90717e-06
-0.000118649
-1.10117e-05
-0.000116567
-1.40724e-05
-0.000114026
-1.70579e-05
-0.000111041
-1.99358e-05
-0.000107629
-2.26733e-05
-0.000103816
-2.52375e-05
-9.96278e-05
-2.75964e-05
-9.50985e-05
-2.97187e-05
-9.02645e-05
-3.15751e-05
-8.51667e-05
-3.31389e-05
-7.98498e-05
-3.43861e-05
-7.43616e-05
-3.52965e-05
-6.87526e-05
-3.5854e-05
-6.30755e-05
-3.60475e-05
-5.73843e-05
-3.58709e-05
-5.17334e-05
-3.53241e-05
-4.61773e-05
-3.44127e-05
-4.07691e-05
-3.3149e-05
-3.55599e-05
-3.15515e-05
-3.05976e-05
-2.96455e-05
-2.59265e-05
-2.74627e-05
-2.15857e-05
-2.50418e-05
-1.76089e-05
-2.24275e-05
-1.4023e-05
-1.96713e-05
-1.0848e-05
-1.68307e-05
-8.09597e-06
-1.39695e-05
-5.77106e-06
-1.11573e-05
-3.86903e-06
-8.46999e-06
-2.37738e-06
-5.98932e-06
-1.27559e-06
-3.80337e-06
-5.35756e-07
-2.00629e-06
-1.23582e-07
-6.98199e-07
9.61523e-09
-3.63842e-07
1.52144e-06
-1.39292e-06
4.85334e-06
-3.03032e-06
8.32022e-06
-5.22315e-06
1.1804e-05
-7.92151e-06
1.5215e-05
-1.10778e-05
1.84825e-05
-1.46464e-05
2.1553e-05
-1.85833e-05
2.43881e-05
-2.28457e-05
2.69614e-05
-2.73925e-05
2.9257e-05
-3.21835e-05
3.12664e-05
-3.71798e-05
3.29874e-05
-4.23438e-05
3.44221e-05
-4.76389e-05
3.55753e-05
-5.30294e-05
3.64536e-05
-5.84806e-05
3.70645e-05
-6.39588e-05
3.74155e-05
-6.94308e-05
3.75138e-05
-7.48642e-05
3.73658e-05
-8.0227e-05
3.6977e-05
-8.54877e-05
3.6352e-05
-9.06153e-05
3.54948e-05
-9.55789e-05
3.44086e-05
-0.000100348
3.30962e-05
-0.000104893
3.15606e-05
-0.000109184
2.98049e-05
-0.000113193
2.78329e-05
-0.00011689
2.56494e-05
-0.000120249
2.32605e-05
-0.000123243
2.06743e-05
-0.000125848
1.79004e-05
-0.000128041
1.49509e-05
-0.000129799
1.18405e-05
-0.000131103
8.58604e-06
-0.000131938
5.20744e-06
-0.000132289
1.72716e-06
-0.000132145
-1.82959e-06
-0.000131499
-5.435e-06
-0.000130348
-9.05881e-06
-0.000128691
-1.26686e-05
-0.000126533
-1.62299e-05
-0.000123884
-1.97068e-05
-0.000120758
-2.30623e-05
-0.000117172
-2.62587e-05
-0.000113151
-2.92584e-05
-0.000108724
-3.20242e-05
-0.000103922
-3.45203e-05
-9.87844e-05
-3.67127e-05
-9.33532e-05
-3.85701e-05
-8.76747e-05
-4.00646e-05
-8.1799e-05
-4.11722e-05
-7.57792e-05
-4.18738e-05
-6.96709e-05
-4.21558e-05
-6.35313e-05
-4.20105e-05
-5.74188e-05
-4.14366e-05
-5.13916e-05
-4.04399e-05
-4.55072e-05
-3.90334e-05
-3.9821e-05
-3.72377e-05
-3.43857e-05
-3.50807e-05
-2.925e-05
-3.25984e-05
-2.44579e-05
-2.98339e-05
-2.00474e-05
-2.6838e-05
-1.60501e-05
-2.36686e-05
-1.24903e-05
-2.03906e-05
-9.38428e-06
-1.70755e-05
-6.74026e-06
-1.38013e-05
-4.5579e-06
-1.06523e-05
-2.82849e-06
-7.71873e-06
-1.53524e-06
-5.09663e-06
-6.53926e-07
-2.8876e-06
-1.53978e-07
-1.19815e-06
-1.44362e-07
-4.04739e-07
1.92618e-06
-1.54476e-06
5.99336e-06
-3.35197e-06
1.01274e-05
-5.76329e-06
1.42153e-05
-8.71969e-06
1.81714e-05
-1.21657e-05
2.19285e-05
-1.60488e-05
2.54362e-05
-2.03194e-05
2.86587e-05
-2.49301e-05
3.15721e-05
-2.98357e-05
3.41626e-05
-3.49929e-05
3.64236e-05
-4.03603e-05
3.83548e-05
-4.5898e-05
3.99597e-05
-5.15674e-05
4.12448e-05
-5.73316e-05
4.22178e-05
-6.31545e-05
4.28874e-05
-6.9001e-05
4.3262e-05
-7.48368e-05
4.33497e-05
-8.06285e-05
4.31575e-05
-8.6343e-05
4.26915e-05
-9.19479e-05
4.19569e-05
-9.74109e-05
4.09578e-05
-0.0001027
3.9698e-05
-0.000107785
3.81806e-05
-0.000112633
3.64088e-05
-0.000117214
3.43864e-05
-0.000121499
3.21175e-05
-0.000125457
2.96078e-05
-0.000129061
2.68643e-05
-0.000132283
2.38959e-05
-0.000135096
2.07138e-05
-0.000137477
1.73315e-05
-0.000139402
1.37656e-05
-0.000140851
1.00352e-05
-0.000141806
6.16256e-06
-0.000142252
2.17299e-06
-0.000142176
-1.90518e-06
-0.000141571
-6.04069e-06
-0.00014043
-1.01995e-05
-0.000138753
-1.43451e-05
-0.000136545
-1.84387e-05
-0.000133812
-2.24398e-05
-0.000130567
-2.63064e-05
-0.00012683
-2.9996e-05
-0.000122623
-3.34657e-05
-0.000117974
-3.66732e-05
-0.000112917
-3.95775e-05
-0.00010749
-4.21395e-05
-0.000101737
-4.43232e-05
-9.57054e-05
-4.6096e-05
-8.94476e-05
-4.74299e-05
-8.30191e-05
-4.83024e-05
-7.64784e-05
-4.86966e-05
-6.98862e-05
-4.86027e-05
-6.33046e-05
-4.80182e-05
-5.67962e-05
-4.69483e-05
-5.04229e-05
-4.54067e-05
-4.42451e-05
-4.34155e-05
-3.83203e-05
-4.10055e-05
-3.27025e-05
-3.82162e-05
-2.74407e-05
-3.50957e-05
-2.25783e-05
-3.17005e-05
-1.81517e-05
-2.80951e-05
-1.41903e-05
-2.4352e-05
-1.0715e-05
-2.05507e-05
-7.73861e-06
-1.67778e-05
-5.265e-06
-1.3126e-05
-3.2895e-06
-9.69423e-06
-1.79911e-06
-6.58702e-06
-7.73158e-07
-3.91356e-06
-1.84307e-07
-1.787e-06
-3.28669e-07
-4.44108e-07
2.37028e-06
-1.69121e-06
7.24047e-06
-3.66274e-06
1.2099e-05
-6.28589e-06
1.68385e-05
-9.49293e-06
2.13784e-05
-1.32207e-05
2.56562e-05
-1.74102e-05
2.96257e-05
-2.20061e-05
3.32546e-05
-2.69563e-05
3.65224e-05
-3.22119e-05
3.94181e-05
-3.77262e-05
4.1938e-05
-4.34554e-05
4.4084e-05
-4.93573e-05
4.58617e-05
-5.53918e-05
4.72792e-05
-6.15203e-05
4.83462e-05
-6.77054e-05
4.90725e-05
-7.39111e-05
4.94677e-05
-8.01021e-05
4.95407e-05
-8.6244e-05
4.92994e-05
-9.2303e-05
4.87505e-05
-9.82456e-05
4.78995e-05
-0.000104039
4.67511e-05
-0.00010965
4.53093e-05
-0.000115047
4.35776e-05
-0.000120198
4.15596e-05
-0.000125071
3.92593e-05
-0.000129635
3.66816e-05
-0.00013386
3.38326e-05
-0.000137716
3.07202e-05
-0.000141174
2.73543e-05
-0.000144208
2.37474e-05
-0.000146791
1.99145e-05
-0.000148899
1.58739e-05
-0.000150511
1.16469e-05
-0.000151606
7.25809e-06
-0.000152169
2.73554e-06
-0.000152185
-1.88934e-06
-0.000151643
-6.58187e-06
-0.000150539
-1.13042e-05
-0.000148868
-1.60158e-05
-0.000146633
-2.06734e-05
-0.000143841
-2.52317e-05
-0.000140504
-2.96439e-05
-0.000136638
-3.3862e-05
-0.000132266
-3.78379e-05
-0.000127415
-4.15238e-05
-0.00012212
-4.4873e-05
-0.000116418
-4.78412e-05
-0.000110354
-5.03868e-05
-0.000103978
-5.24724e-05
-9.73427e-05
-5.40653e-05
-9.05064e-05
-5.51386e-05
-8.35307e-05
-5.56722e-05
-7.64799e-05
-5.56535e-05
-6.942e-05
-5.50781e-05
-6.24181e-05
-5.39503e-05
-5.55409e-05
-5.22839e-05
-4.88542e-05
-5.01022e-05
-4.24211e-05
-4.74387e-05
-3.63011e-05
-4.43362e-05
-3.0549e-05
-4.08477e-05
-2.5214e-05
-3.70355e-05
-2.03382e-05
-3.29709e-05
-1.59564e-05
-2.87339e-05
-1.20949e-05
-2.44123e-05
-8.77124e-06
-2.01014e-05
-5.99412e-06
-1.59031e-05
-3.76306e-06
-1.19253e-05
-2.0689e-06
-8.28119e-06
-8.94324e-07
-5.08813e-06
-2.14848e-07
-2.46648e-06
-5.43517e-07
-4.81929e-07
2.85221e-06
-1.83209e-06
8.59063e-06
-3.962e-06
1.42289e-05
-6.78967e-06
1.96662e-05
-1.02391e-05
2.48278e-05
-1.42397e-05
2.96569e-05
-1.87262e-05
3.41122e-05
-2.36377e-05
3.81661e-05
-2.89176e-05
4.18023e-05
-3.45131e-05
4.50136e-05
-4.03746e-05
4.77995e-05
-4.64555e-05
5.01649e-05
-5.27117e-05
5.21178e-05
-5.91013e-05
5.36688e-05
-6.55843e-05
5.48292e-05
-7.21224e-05
5.56105e-05
-7.86784e-05
5.60237e-05
-8.52162e-05
5.60786e-05
-9.17008e-05
5.5784e-05
-9.80975e-05
5.51472e-05
-0.000104372
5.41743e-05
-0.000110492
5.28704e-05
-0.000116422
5.12397e-05
-0.000122131
4.92862e-05
-0.000127585
4.70136e-05
-0.000132752
4.44263e-05
-0.0001376
4.15297e-05
-0.000142098
3.83305e-05
-0.000146215
3.48372e-05
-0.000149921
3.10608e-05
-0.000153189
2.70148e-05
-0.00015599
2.27157e-05
-0.000158299
1.81834e-05
-0.000160094
1.34411e-05
-0.000161351
8.5159e-06
-0.000162054
3.43835e-06
-0.000162186
-1.75712e-06
-0.000161736
-7.03245e-06
-0.000160694
-1.23461e-05
-0.000159056
-1.76534e-05
-0.000156823
-2.29066e-05
-0.000153999
-2.80557e-05
-0.000150594
-3.30486e-05
-0.000146624
-3.7832e-05
-0.00014211
-4.23521e-05
-0.000137079
-4.65552e-05
-0.000131563
-5.03889e-05
-0.000125601
-5.38027e-05
-0.000119239
-5.67493e-05
-0.000112526
-5.91856e-05
-0.000105517
-6.10737e-05
-9.82738e-05
-6.2382e-05
-9.08599e-05
-6.30861e-05
-8.33434e-05
-6.317e-05
-7.57947e-05
-6.26269e-05
-6.82854e-05
-6.14596e-05
-6.08877e-05
-5.96815e-05
-5.3673e-05
-5.73169e-05
-4.67105e-05
-5.44012e-05
-4.00659e-05
-5.09807e-05
-3.38006e-05
-4.7113e-05
-2.79701e-05
-4.28661e-05
-2.26228e-05
-3.83182e-05
-1.77996e-05
-3.3557e-05
-1.35327e-05
-2.86792e-05
-9.84515e-06
-2.37889e-05
-6.75049e-06
-1.89977e-05
-4.25282e-06
-1.4423e-05
-2.34686e-06
-1.01871e-05
-1.01858e-06
-6.41642e-06
-2.45947e-07
-3.23911e-06
-7.89466e-07
-5.18166e-07
3.37038e-06
-1.96717e-06
1.00396e-05
-4.24915e-06
1.65109e-05
-7.27345e-06
2.26905e-05
-1.09562e-05
2.85105e-05
-1.52198e-05
3.39205e-05
-1.99927e-05
3.88851e-05
-2.52091e-05
4.33824e-05
-3.08078e-05
4.7401e-05
-3.67322e-05
5.09381e-05
-4.29298e-05
5.39971e-05
-4.93515e-05
5.65865e-05
-5.59511e-05
5.87175e-05
-6.26853e-05
6.0403e-05
-6.95128e-05
6.16567e-05
-7.63941e-05
6.24919e-05
-8.32913e-05
6.29209e-05
-9.01677e-05
6.2955e-05
-9.69875e-05
6.26038e-05
-0.000103716
6.18753e-05
-0.000110318
6.07762e-05
-0.000116759
5.9312e-05
-0.000123007
5.74871e-05
-0.000129026
5.53058e-05
-0.000134785
5.27722e-05
-0.000140249
4.98908e-05
-0.000145387
4.66675e-05
-0.000150166
4.31093e-05
-0.000154554
3.92256e-05
-0.000158521
3.50279e-05
-0.000162037
3.05309e-05
-0.000165074
2.57522e-05
-0.000167604
2.07134e-05
-0.000169602
1.54394e-05
-0.000171046
9.95939e-06
-0.000171914
4.30655e-06
-0.000172189
-1.4819e-06
-0.000171857
-7.36465e-06
-0.000170906
-1.32966e-05
-0.000169331
-1.92288e-05
-0.000167128
-2.51092e-05
-0.000164301
-3.0883e-05
-0.000160857
-3.64927e-05
-0.000156809
-4.18795e-05
-0.000152178
-4.69837e-05
-0.000146988
-5.17453e-05
-0.000141271
-5.61055e-05
-0.000135066
-6.00075e-05
-0.000128418
-6.33976e-05
-0.000121377
-6.62264e-05
-0.000114001
-6.84501e-05
-0.000106352
-7.00314e-05
-9.84964e-05
-7.09412e-05
-9.05071e-05
-7.11593e-05
-8.24583e-05
-7.06757e-05
-7.44269e-05
-6.9491e-05
-6.64908e-05
-6.76177e-05
-5.87274e-05
-6.50803e-05
-5.12127e-05
-6.1916e-05
-4.40193e-05
-5.81741e-05
-3.72156e-05
-5.39166e-05
-3.08643e-05
-4.92174e-05
-2.50209e-05
-4.41616e-05
-1.9733e-05
-3.88449e-05
-1.50393e-05
-3.33729e-05
-1.09688e-05
-2.78595e-05
-7.54044e-06
-2.24261e-05
-4.76317e-06
-1.72002e-05
-2.63573e-06
-1.23146e-05
-1.14727e-06
-7.90488e-06
-2.77998e-07
-4.10838e-06
-1.06746e-06
-5.52766e-07
3.92315e-06
-2.09619e-06
1.15831e-05
-4.52356e-06
1.89382e-05
-7.73603e-06
2.59029e-05
-1.16422e-05
3.24167e-05
-1.61581e-05
3.84363e-05
-2.12061e-05
4.39332e-05
-2.67155e-05
4.88918e-05
-3.26209e-05
5.33064e-05
-3.88621e-05
5.71793e-05
-4.53837e-05
6.05188e-05
-5.21342e-05
6.33371e-05
-5.90657e-05
6.5649e-05
-6.61332e-05
6.74705e-05
-7.32943e-05
6.88178e-05
-8.05087e-05
6.97062e-05
-8.77377e-05
7.01499e-05
-9.4944e-05
7.01613e-05
-0.000102091
6.97512e-05