/*--------------------------------*- C++ -*----------------------------------*\
  =========                 |
  \\      /  F ield         | OpenFOAM: The Open Source CFD Toolbox
   \\    /   O peration     | Website:  https://openfoam.org
    \\  /    A nd           | Version:  dev
     \\/     M anipulation  |
\*---------------------------------------------------------------------------*/
FoamFile
{
    format      ascii;
    class       volVectorField;
    location    "32.85";
    object      U;
}
// * * * * * * * * * * * * * * * * * * * * * * * * * * * * * * * * * * * * * //

dimensions      [0 1 -1 0 0 0 0];

internalField   nonuniform List<vector> 
5184
(
(1.23203e-05 -1.27151e-05 0)
(4.51632e-05 -2.089e-05 0)
(8.03378e-05 -1.72486e-05 0)
(9.59981e-05 -8.1959e-06 0)
(8.21698e-05 2.67066e-06 0)
(3.64761e-05 1.36188e-05 0)
(-4.05386e-05 2.38456e-05 0)
(-0.000146857 3.30477e-05 0)
(-0.000279687 4.11064e-05 0)
(-0.000435969 4.80259e-05 0)
(-0.000612581 5.38668e-05 0)
(-0.000806491 5.87142e-05 0)
(-0.00101483 6.26615e-05 0)
(-0.00123494 6.58005e-05 0)
(-0.00146435 6.82156e-05 0)
(-0.0017008 6.99816e-05 0)
(-0.00194223 7.11626e-05 0)
(-0.00218672 7.18115e-05 0)
(-0.00243249 7.19693e-05 0)
(-0.00267784 7.16654e-05 0)
(-0.00292118 7.09191e-05 0)
(-0.00316095 6.97409e-05 0)
(-0.00339561 6.81337e-05 0)
(-0.00362364 6.60944e-05 0)
(-0.00384352 6.36161e-05 0)
(-0.0040537 6.06888e-05 0)
(-0.00425263 5.73021e-05 0)
(-0.00443873 5.34464e-05 0)
(-0.00461042 4.91146e-05 0)
(-0.00476613 4.43036e-05 0)
(-0.0049043 3.9016e-05 0)
(-0.0050234 3.3261e-05 0)
(-0.00512197 2.70557e-05 0)
(-0.00519864 2.04263e-05 0)
(-0.00525213 1.34083e-05 0)
(-0.00528135 6.04758e-06 0)
(-0.00528534 -1.59985e-06 0)
(-0.00526338 -9.46747e-06 0)
(-0.00521496 -1.74788e-05 0)
(-0.00513986 -2.55479e-05 0)
(-0.00503814 -3.35804e-05 0)
(-0.00491017 -4.14747e-05 0)
(-0.00475667 -4.91236e-05 0)
(-0.00457867 -5.64162e-05 0)
(-0.0043776 -6.32398e-05 0)
(-0.0041552 -6.94825e-05 0)
(-0.00391356 -7.50355e-05 0)
(-0.00365512 -7.97957e-05 0)
(-0.0033826 -8.36688e-05 0)
(-0.00309901 -8.65712e-05 0)
(-0.00280758 -8.8432e-05 0)
(-0.00251174 -8.91957e-05 0)
(-0.00221506 -8.8824e-05 0)
(-0.0019212 -8.72977e-05 0)
(-0.00163382 -8.46168e-05 0)
(-0.00135658 -8.08004e-05 0)
(-0.001093 -7.58871e-05 0)
(-0.000846462 -6.99357e-05 0)
(-0.000620109 -6.30243e-05 0)
(-0.000416793 -5.52493e-05 0)
(-0.000239012 -4.67245e-05 0)
(-8.8844e-05 -3.75826e-05 0)
(3.2123e-05 -2.79787e-05 0)
(0.000122875 -1.80955e-05 0)
(0.00018308 -8.15848e-06 0)
(0.000213241 1.53785e-06 0)
(0.000214944 1.05702e-05 0)
(0.000191242 1.83016e-05 0)
(0.000147164 2.3719e-05 0)
(9.08063e-05 2.5129e-05 0)
(3.66335e-05 1.98472e-05 0)
(6.2286e-06 6.24282e-06 0)
(2.08474e-05 -4.58932e-05 0)
(6.56332e-05 -6.57127e-05 0)
(9.47381e-05 -4.05615e-05 0)
(7.28402e-05 7.63173e-06 0)
(-1.88979e-05 6.56803e-05 0)
(-0.000187288 0.000125995 0)
(-0.000432914 0.000184298 0)
(-0.000752559 0.000238344 0)
(-0.00114068 0.000286995 0)
(-0.0015905 0.000329807 0)
(-0.00209467 0.000366739 0)
(-0.00264573 0.00039798 0)
(-0.00323638 0.000423843 0)
(-0.00385963 0.000444695 0)
(-0.00450887 0.000460914 0)
(-0.00517791 0.000472858 0)
(-0.00586094 0.000480848 0)
(-0.00655251 0.000485161 0)
(-0.0072475 0.00048602 0)
(-0.00794102 0.000483597 0)
(-0.00862838 0.000478013 0)
(-0.009305 0.000469344 0)
(-0.00996643 0.000457629 0)
(-0.0106082 0.000442876 0)
(-0.011226 0.000425075 0)
(-0.0118154 0.000404202 0)
(-0.0123719 0.000380233 0)
(-0.0128911 0.00035315 0)
(-0.0133687 0.000322954 0)
(-0.0138003 0.000289671 0)
(-0.0141817 0.000253363 0)
(-0.0145088 0.000214132 0)
(-0.0147776 0.000172128 0)
(-0.0149846 0.000127553 0)
(-0.0151264 8.06682e-05 0)
(-0.0152003 3.17918e-05 0)
(-0.0152038 -1.86971e-05 0)
(-0.0151353 -7.03604e-05 0)
(-0.0149935 -0.000122703 0)
(-0.0147781 -0.000175177 0)
(-0.0144895 -0.000227189 0)
(-0.0141288 -0.000278107 0)
(-0.0136984 -0.000327268 0)
(-0.013201 -0.000373995 0)
(-0.0126408 -0.000417602 0)
(-0.0120226 -0.000457416 0)
(-0.011352 -0.000492782 0)
(-0.0106359 -0.000523086 0)
(-0.00988143 -0.000547767 0)
(-0.00909682 -0.000566331 0)
(-0.00829074 -0.000578365 0)
(-0.00747238 -0.00058355 0)
(-0.00665126 -0.000581668 0)
(-0.00583713 -0.000572617 0)
(-0.00503977 -0.000556415 0)
(-0.00426884 -0.000533199 0)
(-0.00353373 -0.000503233 0)
(-0.00284336 -0.000466905 0)
(-0.00220601 -0.000424732 0)
(-0.00162916 -0.000377354 0)
(-0.00111928 -0.000325539 0)
(-0.000681677 -0.000270192 0)
(-0.00032026 -0.000212374 0)
(-3.73147e-05 -0.000153337 0)
(0.000166794 -9.45918e-05 0)
(0.000293987 -3.80179e-05 0)
(0.000349015 1.39257e-05 0)
(0.000340147 5.79348e-05 0)
(0.000279878 8.94159e-05 0)
(0.000186063 0.00010187 0)
(8.63781e-05 8.65254e-05 0)
(1.96843e-05 3.64896e-05 0)
(1.76386e-05 -8.13129e-05 0)
(4.13404e-05 -9.50395e-05 0)
(1.96191e-05 -1.91404e-05 0)
(-8.39727e-05 0.000105925 0)
(-0.000290227 0.000254651 0)
(-0.000607889 0.000410592 0)
(-0.00103822 0.000563432 0)
(-0.0015774 0.000707034 0)
(-0.00221828 0.00083795 0)
(-0.00295165 0.000954475 0)
(-0.00376726 0.00105601 0)
(-0.00465438 0.00114265 0)
(-0.00560228 0.00121491 0)
(-0.00660052 0.00127352 0)
(-0.00763903 0.0013193 0)
(-0.00870825 0.00135306 0)
(-0.0097991 0.00137559 0)
(-0.010903 0.00138755 0)
(-0.0120117 0.0013895 0)
(-0.0131173 0.0013819 0)
(-0.0142124 0.00136507 0)
(-0.0152895 0.00133922 0)
(-0.0163414 0.0013045 0)
(-0.0173609 0.00126096 0)
(-0.018341 0.00120862 0)
(-0.0192746 0.00114746 0)
(-0.0201547 0.00107747 0)
(-0.0209744 0.000998665 0)
(-0.0217267 0.000911117 0)
(-0.0224049 0.000814959 0)
(-0.0230024 0.000710425 0)
(-0.023513 0.000597858 0)
(-0.0239307 0.000477732 0)
(-0.0242499 0.000350662 0)
(-0.024466 0.000217415 0)
(-0.0245745 7.89134e-05 0)
(-0.0245721 -6.37624e-05 0)
(-0.0244564 -0.000209377 0)
(-0.0242257 -0.000356547 0)
(-0.0238798 -0.000503754 0)
(-0.0234195 -0.000649363 0)
(-0.022847 -0.000791642 0)
(-0.0221656 -0.000928787 0)
(-0.0213804 -0.00105896 0)
(-0.0204974 -0.0011803 0)
(-0.0195243 -0.00129099 0)
(-0.0184702 -0.00138929 0)
(-0.0173451 -0.00147353 0)
(-0.0161604 -0.00154223 0)
(-0.0149287 -0.00159407 0)
(-0.0136631 -0.00162794 0)
(-0.0123778 -0.00164302 0)
(-0.0110873 -0.00163874 0)
(-0.00980645 -0.00161483 0)
(-0.00855009 -0.00157137 0)
(-0.00733295 -0.00150877 0)
(-0.00616928 -0.00142776 0)
(-0.00507261 -0.00132946 0)
(-0.00405548 -0.0012153 0)
(-0.00312917 -0.00108709 0)
(-0.00230341 -0.000947014 0)
(-0.0015861 -0.000797631 0)
(-0.00098298 -0.000641951 0)
(-0.000497274 -0.000483505 0)
(-0.000129297 -0.000326492 0)
(0.000124023 -0.000176002 0)
(0.000269783 -3.83521e-05 0)
(0.00031983 7.84412e-05 0)
(0.000291297 0.000164082 0)
(0.000207415 0.000205404 0)
(0.00010246 0.000186294 0)
(2.49796e-05 9.03994e-05 0)
(8.84237e-06 -9.77517e-05 0)
(-7.00305e-06 -7.31575e-05 0)
(-0.000107568 8.47771e-05 0)
(-0.000322346 0.000318359 0)
(-0.000669583 0.000590092 0)
(-0.00115769 0.000874355 0)
(-0.00178741 0.00115412 0)
(-0.00255398 0.00141858 0)
(-0.00344885 0.00166129 0)
(-0.004461 0.00187869 0)
(-0.00557793 0.00206924 0)
(-0.00678646 0.00223268 0)
(-0.00807317 0.00236958 0)
(-0.00942479 0.00248096 0)
(-0.0108284 0.00256811 0)
(-0.0122717 0.00263235 0)
(-0.0137426 0.00267496 0)
(-0.0152298 0.0026971 0)
(-0.0167223 0.00269975 0)
(-0.0182097 0.00268369 0)
(-0.0196816 0.00264952 0)
(-0.0211281 0.00259768 0)
(-0.0225394 0.00252842 0)
(-0.0239059 0.00244191 0)
(-0.0252181 0.00233823 0)
(-0.0264665 0.00221742 0)
(-0.0276417 0.00207953 0)
(-0.0287345 0.00192468 0)
(-0.0297357 0.00175308 0)
(-0.0306365 0.00156507 0)
(-0.0314282 0.00136117 0)
(-0.0321028 0.00114213 0)
(-0.0326525 0.000908923 0)
(-0.0330704 0.000662778 0)
(-0.0333502 0.000405215 0)
(-0.0334866 0.000138035 0)
(-0.0334755 -0.000136674 0)
(-0.0333138 -0.00041654 0)
(-0.0329998 -0.000698928 0)
(-0.0325333 -0.00098096 0)
(-0.0319158 -0.00125955 0)
(-0.0311501 -0.00153144 0)
(-0.030241 -0.00179326 0)
(-0.0291951 -0.00204155 0)
(-0.0280206 -0.00227288 0)
(-0.0267275 -0.00248386 0)
(-0.0253276 -0.00267124 0)
(-0.0238341 -0.00283196 0)
(-0.0222618 -0.00296326 0)
(-0.0206269 -0.00306271 0)
(-0.0189467 -0.00312829 0)
(-0.0172392 -0.00315845 0)
(-0.0155232 -0.00315218 0)
(-0.0138179 -0.00310902 0)
(-0.0121426 -0.00302912 0)
(-0.010516 -0.00291327 0)
(-0.0089567 -0.00276291 0)
(-0.00748202 -0.00258012 0)
(-0.00610812 -0.00236768 0)
(-0.00484949 -0.00212902 0)
(-0.00371864 -0.00186831 0)
(-0.00272567 -0.00159043 0)
(-0.00187791 -0.00130112 0)
(-0.00117949 -0.00100703 0)
(-0.000630878 -0.000715979 0)
(-0.000228372 -0.000437249 0)
(3.65065e-05 -0.000181982 0)
(0.000177656 3.62107e-05 0)
(0.000214802 0.000200613 0)
(0.000174112 0.000290832 0)
(9.30355e-05 0.000282573 0)
(2.40291e-05 0.000147294 0)
(-2.12211e-06 -8.44187e-05 0)
(-6.72849e-05 2.08828e-05 0)
(-0.000264101 0.000295444 0)
(-0.000609759 0.000668028 0)
(-0.00111676 0.00109082 0)
(-0.00179131 0.00152992 0)
(-0.00263242 0.00196188 0)
(-0.00363372 0.00237123 0)
(-0.00478508 0.00274824 0)
(-0.00607378 0.00308727 0)
(-0.00748547 0.00338556 0)
(-0.00900491 0.00364228 0)
(-0.0106165 0.00385789 0)
(-0.0123047 0.00403363 0)
(-0.0140542 0.00417117 0)
(-0.0158501 0.00427233 0)
(-0.0176782 0.00433888 0)
(-0.0195245 0.00437249 0)
(-0.0213757 0.00437458 0)
(-0.0232189 0.00434632 0)
(-0.0250414 0.00428861 0)
(-0.0268309 0.00420212 0)
(-0.0285754 0.00408731 0)
(-0.0302629 0.00394447 0)
(-0.0318817 0.00377379 0)
(-0.0334201 0.00357543 0)
(-0.0348665 0.00334958 0)
(-0.0362098 0.0030965 0)
(-0.0374388 0.00281666 0)
(-0.0385427 0.0025107 0)
(-0.0395113 0.00217957 0)
(-0.0403346 0.00182455 0)
(-0.0410037 0.00144729 0)
(-0.0415101 0.00104984 0)
(-0.0418467 0.00063468 0)
(-0.0420072 0.000204729 0)
(-0.0419869 -0.000236651 0)
(-0.0417822 -0.000685672 0)
(-0.0413915 -0.00113814 0)
(-0.0408147 -0.00158951 0)
(-0.0400537 -0.00203491 0)
(-0.0391123 -0.00246922 0)
(-0.0379964 -0.00288714 0)
(-0.0367139 -0.0032833 0)
(-0.0352749 -0.0036523 0)
(-0.0336915 -0.00398889 0)
(-0.0319778 -0.00428799 0)
(-0.0301498 -0.00454487 0)
(-0.0282252 -0.00475523 0)
(-0.0262232 -0.00491529 0)
(-0.0241644 -0.00502194 0)
(-0.0220706 -0.00507279 0)
(-0.0199641 -0.00506626 0)
(-0.0178677 -0.00500168 0)
(-0.0158043 -0.00487931 0)
(-0.0137966 -0.00470039 0)
(-0.0118664 -0.00446721 0)
(-0.0100346 -0.00418309 0)
(-0.0083204 -0.00385242 0)
(-0.00674114 -0.00348064 0)
(-0.00531178 -0.00307434 0)
(-0.00404445 -0.00264124 0)
(-0.002948 -0.00219036 0)
(-0.00202759 -0.0017321 0)
(-0.00128415 -0.00127851 0)
(-0.000713918 -0.000843639 0)
(-0.000307907 -0.000443976 0)
(-5.13396e-05 -9.90849e-05 0)
(7.66623e-05 0.000167696 0)
(0.000103604 0.000328636 0)
(6.75121e-05 0.000350999 0)
(1.96668e-05 0.000194151 0)
(-1.36938e-05 -3.75331e-05 0)
(-0.00013283 0.000197358 0)
(-0.000435822 0.000626903 0)
(-0.000924641 0.00117035 0)
(-0.00160391 0.00177175 0)
(-0.0024762 0.00239023 0)
(-0.00353767 0.00299674 0)
(-0.00477962 0.00357149 0)
(-0.00618996 0.00410161 0)
(-0.00775416 0.00457935 0)
(-0.0094561 0.00500063 0)
(-0.0112787 0.00536395 0)
(-0.0132045 0.00566956 0)
(-0.0152159 0.00591883 0)
(-0.0172958 0.00611374 0)
(-0.019427 0.00625654 0)
(-0.0215933 0.00634952 0)
(-0.0237786 0.00639482 0)
(-0.0259675 0.0063943 0)
(-0.0281448 0.00634953 0)
(-0.0302959 0.00626174 0)
(-0.0324062 0.00613187 0)
(-0.0344618 0.00596058 0)
(-0.0364485 0.00574835 0)
(-0.0383525 0.00549553 0)
(-0.0401604 0.00520243 0)
(-0.0418587 0.00486945 0)
(-0.0434342 0.00449711 0)
(-0.0448741 0.00408617 0)
(-0.046166 0.00363773 0)
(-0.047298 0.00315326 0)
(-0.0482589 0.00263474 0)
(-0.0490384 0.00208464 0)
(-0.0496269 0.001506 0)
(-0.0500164 0.000902483 0)
(-0.0501999 0.000278332 0)
(-0.050172 -0.000361587 0)
(-0.049929 -0.00101182 0)
(-0.0494692 -0.00166635 0)
(-0.0487927 -0.00231869 0)
(-0.0479018 -0.0029619 0)
(-0.0468011 -0.00358871 0)
(-0.0454973 -0.00419163 0)
(-0.0439998 -0.00476302 0)
(-0.04232 -0.00529531 0)
(-0.0404718 -0.00578104 0)
(-0.0384715 -0.0062131 0)
(-0.0363371 -0.00658479 0)
(-0.0340891 -0.00689007 0)
(-0.0317492 -0.00712363 0)
(-0.029341 -0.00728108 0)
(-0.0268892 -0.00735906 0)
(-0.0244193 -0.00735536 0)
(-0.0219572 -0.00726902 0)
(-0.0195293 -0.00710044 0)
(-0.0171613 -0.00685139 0)
(-0.0148781 -0.00652511 0)
(-0.0127037 -0.00612634 0)
(-0.0106602 -0.00566131 0)
(-0.00876736 -0.00513779 0)
(-0.00704255 -0.00456512 0)
(-0.00549985 -0.0039543 0)
(-0.00414973 -0.00331802 0)
(-0.00299856 -0.00267087 0)
(-0.0020481 -0.0020296 0)
(-0.00129509 -0.00141339 0)
(-0.000730748 -0.000844372 0)
(-0.000340345 -0.000348242 0)
(-0.000102921 4.50272e-05 0)
(9.16026e-06 0.000300492 0)
(3.25015e-05 0.000377341 0)
(1.36222e-05 0.000224531 0)
(-2.51867e-05 4.40972e-05 0)
(-0.000200013 0.000461275 0)
(-0.00061408 0.00108707 0)
(-0.00125291 0.00183473 0)
(-0.00211204 0.00264239 0)
(-0.00318931 0.0034638 0)
(-0.00447716 0.00426532 0)
(-0.00596386 0.00502351 0)
(-0.00763493 0.00572275 0)
(-0.0094738 0.00635335 0)
(-0.0114625 0.00691 0)
(-0.0135822 0.00739053 0)
(-0.0158137 0.00779496 0)
(-0.0181378 0.00812471 0)
(-0.0205353 0.00838205 0)
(-0.0229877 0.00856964 0)
(-0.0254765 0.00869023 0)
(-0.0279841 0.00874641 0)
(-0.0304931 0.00874049 0)
(-0.0329864 0.00867442 0)
(-0.0354476 0.00854977 0)
(-0.0378603 0.00836775 0)
(-0.0402085 0.00812928 0)
(-0.0424764 0.00783502 0)
(-0.0446485 0.00748554 0)
(-0.0467093 0.00708138 0)
(-0.0486438 0.00662317 0)
(-0.0504372 0.00611177 0)
(-0.0520751 0.00554834 0)
(-0.0535436 0.00493452 0)
(-0.0548295 0.00427245 0)
(-0.0559203 0.00356489 0)
(-0.0568046 0.00281532 0)
(-0.057472 0.00202793 0)
(-0.0579133 0.0012077 0)
(-0.0581212 0.000360425 0)
(-0.0580896 -0.000507336 0)
(-0.0578148 -0.00138825 0)
(-0.0572947 -0.00227426 0)
(-0.0565297 -0.0031567 0)
(-0.0555224 -0.00402632 0)
(-0.0542779 -0.00487346 0)
(-0.0528039 -0.00568816 0)
(-0.0511107 -0.00646034 0)
(-0.049211 -0.00717993 0)
(-0.0471202 -0.00783709 0)
(-0.0448561 -0.00842238 0)
(-0.042439 -0.00892698 0)
(-0.0398912 -0.00934287 0)
(-0.037237 -0.00966304 0)
(-0.0345023 -0.00988166 0)
(-0.0317145 -0.00999426 0)
(-0.0289018 -0.00999792 0)
(-0.0260931 -0.00989135 0)
(-0.0233175 -0.00967503 0)
(-0.0206038 -0.00935132 0)
(-0.0179797 -0.00892451 0)
(-0.0154719 -0.00840084 0)
(-0.0131052 -0.00778858 0)
(-0.0109019 -0.00709806 0)
(-0.00888173 -0.00634166 0)
(-0.00706067 -0.0055339 0)
(-0.00545099 -0.00469151 0)
(-0.00406055 -0.0038336 0)
(-0.00289234 -0.00298186 0)
(-0.00194407 -0.00216088 0)
(-0.00120781 -0.0013986 0)
(-0.000669595 -0.000726877 0)
(-0.000309226 -0.000182192 0)
(-9.98618e-05 0.00019364 0)
(-7.71262e-06 0.000352497 0)
(6.86159e-06 0.000235002 0)
(-3.63413e-05 0.000160466 0)
(-0.000266944 0.000814502 0)
(-0.000793752 0.00167974 0)
(-0.00158564 0.00266619 0)
(-0.00262844 0.00370814 0)
(-0.00391461 0.00475556 0)
(-0.00543217 0.0057714 0)
(-0.00716583 0.00672937 0)
(-0.00909827 0.00761169 0)
(-0.0112106 0.00840707 0)
(-0.0134829 0.00910918 0)
(-0.0158946 0.0097153 0)
(-0.0184247 0.0102252 0)
(-0.0210525 0.0106405 0)
(-0.0237574 0.0109637 0)
(-0.0265189 0.0111978 0)
(-0.0293173 0.0113461 0)
(-0.0321332 0.0114114 0)
(-0.0349477 0.0113967 0)
(-0.037742 0.0113041 0)
(-0.040498 0.0111357 0)
(-0.0431977 0.0108929 0)
(-0.0458236 0.0105768 0)
(-0.0483582 0.0101884 0)
(-0.0507843 0.00972849 0)
(-0.053085 0.00919786 0)
(-0.0552437 0.00859745 0)
(-0.0572442 0.00792851 0)
(-0.0590706 0.00719271 0)
(-0.0607079 0.00639229 0)
(-0.0621416 0.00553016 0)
(-0.063358 0.00461001 0)
(-0.0643448 0.00363641 0)
(-0.0650905 0.00261485 0)
(-0.0655854 0.00155182 0)
(-0.0658214 0.000454771 0)
(-0.0657922 -0.000667852 0)
(-0.0654933 -0.00180666 0)
(-0.0649229 -0.00295137 0)
(-0.0640813 -0.00409092 0)
(-0.0629712 -0.00521358 0)
(-0.0615983 -0.00630709 0)
(-0.0599708 -0.00735881 0)
(-0.0580996 -0.00835597 0)
(-0.0559987 -0.00928583 0)
(-0.0536846 -0.0101359 0)
(-0.0511766 -0.0108943 0)
(-0.0484964 -0.0115498 0)
(-0.0456683 -0.0120922 0)
(-0.0427185 -0.0125127 0)
(-0.0396752 -0.0128037 0)
(-0.036568 -0.0129597 0)
(-0.0334278 -0.0129768 0)
(-0.030286 -0.0128534 0)
(-0.0271742 -0.0125899 0)
(-0.0241241 -0.0121894 0)
(-0.021166 -0.0116571 0)
(-0.0183295 -0.0110009 0)
(-0.0156418 -0.0102313 0)
(-0.0131279 -0.0093613 0)
(-0.0108097 -0.00840645 0)
(-0.00870543 -0.00738506 0)
(-0.00682938 -0.00631813 0)
(-0.00519117 -0.00522949 0)
(-0.00379538 -0.00414601 0)
(-0.00264119 -0.00309783 0)
(-0.001722 -0.00211875 0)
(-0.00102525 -0.00124673 0)
(-0.000532109 -0.000524587 0)
(-0.00021722 -5.28158e-07 0)
(-5.04615e-05 0.000270897 0)
(-8.38766e-08 0.000223858 0)
(-4.70607e-05 0.000310939 0)
(-0.000332639 0.00125695 0)
(-0.000971838 0.00240587 0)
(-0.0019172 0.00366658 0)
(-0.00314472 0.00497132 0)
(-0.00464104 0.00626775 0)
(-0.00638934 0.00751661 0)
(-0.00837033 0.00868969 0)
(-0.0105635 0.00976766 0)
(-0.0129475 0.0107381 0)
(-0.0155001 0.0115941 0)
(-0.0181989 0.0123325 0)
(-0.0210214 0.012953 0)
(-0.0239453 0.0134574 0)
(-0.0269485 0.0138485 0)
(-0.0300092 0.0141297 0)
(-0.0331062 0.0143047 0)
(-0.0362187 0.0143768 0)
(-0.0393264 0.0143493 0)
(-0.0424092 0.0142248 0)
(-0.0454474 0.0140056 0)
(-0.0484218 0.0136935 0)
(-0.0513132 0.0132898 0)
(-0.0541028 0.0127958 0)
(-0.056772 0.0122125 0)
(-0.0593027 0.0115409 0)
(-0.0616767 0.0107825 0)
(-0.0638767 0.00993887 0)
(-0.0658855 0.00901227 0)
(-0.0676869 0.00800563 0)
(-0.0692652 0.0069227 0)
(-0.0706059 0.00576821 0)
(-0.0716956 0.00454792 0)
(-0.072522 0.00326875 0)
(-0.0730747 0.00193878 0)
(-0.0733448 0.000567274 0)
(-0.0733256 -0.000835302 0)
(-0.0730124 -0.00225736 0)
(-0.0724029 -0.00368623 0)
(-0.0714973 -0.00510832 0)
(-0.0702985 -0.00650922 0)
(-0.0688123 -0.00787388 0)
(-0.0670472 -0.00918683 0)
(-0.0650149 -0.0104324 0)
(-0.0627299 -0.011595 0)
(-0.0602097 -0.0126593 0)
(-0.0574748 -0.0136107 0)
(-0.0545483 -0.0144354 0)
(-0.0514558 -0.0151209 0)
(-0.0482255 -0.0156562 0)
(-0.0448874 -0.0160323 0)
(-0.0414733 -0.0162418 0)
(-0.0380162 -0.0162802 0)
(-0.0345501 -0.0161451 0)
(-0.0311091 -0.0158371 0)
(-0.0277274 -0.0153597 0)
(-0.0244383 -0.0147192 0)
(-0.0212738 -0.0139252 0)
(-0.0182638 -0.0129903 0)
(-0.015436 -0.0119303 0)
(-0.0128148 -0.0107642 0)
(-0.0104208 -0.00951423 0)
(-0.00827054 -0.00820577 0)
(-0.00637576 -0.00686757 0)
(-0.00474301 -0.00553177 0)
(-0.00337334 -0.00423417 0)
(-0.00226196 -0.00301446 0)
(-0.00139817 -0.00191665 0)
(-0.000764996 -0.000989621 0)
(-0.000339009 -0.000287536 0)
(-9.41853e-05 0.000129432 0)
(-6.94371e-06 0.000190449 0)
(-5.73346e-05 0.000494614 0)
(-0.000396617 0.00178737 0)
(-0.0011466 0.00326457 0)
(-0.00224408 0.00483552 0)
(-0.0036553 0.00643191 0)
(-0.00536095 0.00800042 0)
(-0.00733908 0.00950072 0)
(-0.00956614 0.0109036 0)
(-0.0120182 0.0121889 0)
(-0.014671 0.0133437 0)
(-0.0175002 0.0143607 0)
(-0.0204814 0.0152367 0)
(-0.0235904 0.0159717 0)
(-0.0268034 0.0165676 0)
(-0.030097 0.0170276 0)
(-0.0334481 0.0173556 0)
(-0.0368343 0.0175557 0)
(-0.0402336 0.0176317 0)
(-0.0436242 0.0175872 0)
(-0.0469851 0.0174252 0)
(-0.0502952 0.0171484 0)
(-0.0535341 0.0167587 0)
(-0.0566814 0.0162579 0)
(-0.0597171 0.0156474 0)
(-0.0626214 0.0149285 0)
(-0.0653747 0.0141026 0)
(-0.067958 0.0131716 0)
(-0.0703526 0.0121374 0)
(-0.0725404 0.011003 0)
(-0.074504 0.00977212 0)
(-0.0762267 0.00844932 0)
(-0.077693 0.00704046 0)
(-0.0788886 0.00555259 0)
(-0.0798005 0.00399411 0)
(-0.0804174 0.00237481 0)
(-0.0807298 0.000705873 0)
(-0.0807304 -0.00100012 0)
(-0.0804139 -0.00272926 0)
(-0.0797777 -0.00446639 0)
(-0.0788218 -0.00619521 0)
(-0.0775488 -0.00789852 0)
(-0.0759646 -0.00955832 0)
(-0.0740778 -0.0111561 0)
(-0.0719004 -0.0126732 0)
(-0.0694473 -0.014091 0)
(-0.0667369 -0.015391 0)
(-0.0637903 -0.0165558 0)
(-0.0606318 -0.0175688 0)
(-0.0572883 -0.0184151 0)
(-0.0537895 -0.0190812 0)
(-0.0501671 -0.0195561 0)
(-0.0464548 -0.019831 0)
(-0.0426879 -0.0199002 0)
(-0.0389026 -0.0197606 0)
(-0.0351357 -0.0194127 0)
(-0.0314237 -0.0188603 0)
(-0.0278027 -0.0181109 0)
(-0.0243075 -0.0171755 0)
(-0.020971 -0.0160691 0)
(-0.0178235 -0.0148104 0)
(-0.0148921 -0.0134217 0)
(-0.0122001 -0.0119293 0)
(-0.00976668 -0.0103631 0)
(-0.00760596 -0.00875697 0)
(-0.00572687 -0.00714835 0)
(-0.00413269 -0.00557878 0)
(-0.00282086 -0.00409386 0)
(-0.00178288 -0.00274357 0)
(-0.00100402 -0.00158268 0)
(-0.000463015 -0.000670926 0)
(-0.000138067 -7.35136e-05 0)
(-1.3602e-05 0.000134692 0)
(-6.71817e-05 0.000710459 0)
(-0.000458654 0.00240388 0)
(-0.00131703 0.00425376 0)
(-0.00256405 0.00617105 0)
(-0.00415647 0.00808811 0)
(-0.006069 0.00995182 0)
(-0.00827447 0.0117218 0)
(-0.0107449 0.0133688 0)
(-0.0134527 0.0148725 0)
(-0.0163707 0.0162202 0)
(-0.0194721 0.0174045 0)
(-0.0227306 0.0184228 0)
(-0.0261204 0.0192751 0)
(-0.029616 0.0199641 0)
(-0.0331927 0.0204933 0)
(-0.0368265 0.0208671 0)
(-0.0404936 0.0210902 0)
(-0.044171 0.0211667 0)
(-0.047836 0.0211009 0)
(-0.0514662 0.0208959 0)
(-0.0550399 0.0205547 0)
(-0.0585352 0.0200797 0)
(-0.0619309 0.0194729 0)
(-0.0652058 0.0187358 0)
(-0.0683392 0.0178701 0)
(-0.0713104 0.0168777 0)
(-0.0740993 0.0157605 0)
(-0.0766863 0.0145214 0)
(-0.0790521 0.0131637 0)
(-0.0811784 0.011692 0)
(-0.0830476 0.0101119 0)
(-0.0846433 0.00843022 0)
(-0.0859503 0.00665552 0)
(-0.0869546 0.00479768 0)
(-0.0876443 0.00286826 0)
(-0.0880091 0.000880419 0)
(-0.0880409 -0.00115106 0)
(-0.0877338 -0.00320987 0)
(-0.0870847 -0.00527823 0)
(-0.0860931 -0.0073371 0)
(-0.0847613 -0.00936631 0)
(-0.0830948 -0.0113448 0)
(-0.0811022 -0.013251 0)
(-0.0787955 -0.0150628 0)
(-0.0761899 -0.0167584 0)
(-0.0733039 -0.0183163 0)
(-0.0701596 -0.0197158 0)
(-0.0667818 -0.0209374 0)
(-0.0631987 -0.0219632 0)
(-0.0594411 -0.0227776 0)
(-0.0555424 -0.023367 0)
(-0.0515382 -0.023721 0)
(-0.0474656 -0.0238324 0)
(-0.0433633 -0.0236975 0)
(-0.0392703 -0.0233162 0)
(-0.0352262 -0.0226927 0)
(-0.0312697 -0.0218354 0)
(-0.0274384 -0.0207569 0)
(-0.0237684 -0.0194744 0)
(-0.0202929 -0.0180093 0)
(-0.017042 -0.0163876 0)
(-0.0140422 -0.0146396 0)
(-0.0113154 -0.0127999 0)
(-0.00887853 -0.0109073 0)
(-0.0067433 -0.00900496 0)
(-0.00491558 -0.00714009 0)
(-0.00339537 -0.00536424 0)
(-0.00217672 -0.00373336 0)
(-0.00124731 -0.00230795 0)
(-0.000588225 -0.00115314 0)
(-0.000181779 -0.000338778 0)
(-2.00323e-05 5.67568e-05 0)
(-7.66258e-05 0.000957393 0)
(-0.000518645 0.00310416 0)
(-0.00148254 0.00537057 0)
(-0.00287567 0.00767008 0)
(-0.00464568 0.00993676 0)
(-0.00676138 0.0121187 0)
(-0.00919039 0.0141766 0)
(-0.0119002 0.0160818 0)
(-0.0148595 0.0178147 0)
(-0.0180381 0.0193632 0)
(-0.0214068 0.0207207 0)
(-0.0249372 0.021885 0)
(-0.0286016 0.0228571 0)
(-0.0323734 0.02364 0)
(-0.0362265 0.0242382 0)
(-0.0401357 0.0246566 0)
(-0.0440763 0.0249002 0)
(-0.0480243 0.024974 0)
(-0.0519561 0.0248824 0)
(-0.0558484 0.0246291 0)
(-0.0596785 0.0242174 0)
(-0.0634239 0.0236498 0)
(-0.0670622 0.0229286 0)
(-0.0705715 0.0220557 0)
(-0.07393 0.0210331 0)
(-0.0771162 0.0198629 0)
(-0.0801092 0.0185475 0)
(-0.0828882 0.0170903 0)
(-0.0854333 0.0154953 0)
(-0.0877251 0.0137678 0)
(-0.0897453 0.0119144 0)
(-0.0914763 0.00994322 0)
(-0.092902 0.00786401 0)
(-0.0940079 0.0056883 0)
(-0.0947809 0.00342942 0)
(-0.0952099 0.00110257 0)
(-0.095286 -0.00127524 0)
(-0.0950026 -0.00368523 0)
(-0.0943557 -0.00610696 0)
(-0.0933442 -0.00851853 0)
(-0.0919697 -0.0108967 0)
(-0.0902373 -0.0132173 0)
(-0.0881553 -0.0154554 0)
(-0.0857352 -0.0175855 0)
(-0.0829923 -0.0195825 0)
(-0.0799452 -0.0214213 0)
(-0.0766162 -0.023078 0)
(-0.0730309 -0.0245297 0)
(-0.0692182 -0.0257558 0)
(-0.06521 -0.0267375 0)
(-0.0610413 -0.027459 0)
(-0.0567492 -0.0279079 0)
(-0.0523729 -0.0280752 0)
(-0.0479532 -0.027956 0)
(-0.043532 -0.0275499 0)
(-0.0391513 -0.0268611 0)
(-0.034853 -0.0258987 0)
(-0.0306778 -0.0246769 0)
(-0.026665 -0.0232148 0)
(-0.0228511 -0.0215368 0)
(-0.0192697 -0.0196724 0)
(-0.0159504 -0.0176559 0)
(-0.0129186 -0.0155268 0)
(-0.0101943 -0.013329 0)
(-0.0077924 -0.0111112 0)
(-0.00572165 -0.00892661 0)
(-0.00398495 -0.00683273 0)
(-0.00257914 -0.00489149 0)
(-0.00149452 -0.00316917 0)
(-0.000714481 -0.00173619 0)
(-0.000225322 -0.000666925 0)
(-2.62608e-05 -4.31409e-05 0)
(-8.56873e-05 0.00123433 0)
(-0.000576539 0.00388568 0)
(-0.00164274 0.00661155 0)
(-0.00317797 0.00932869 0)
(-0.0051211 0.0119737 0)
(-0.00743526 0.0144969 0)
(-0.0100829 0.0168606 0)
(-0.013027 0.0190379 0)
(-0.0162326 0.0210105 0)
(-0.0196664 0.0227675 0)
(-0.0232967 0.0243036 0)
(-0.0270929 0.0256176 0)
(-0.0310258 0.0267114 0)
(-0.0350671 0.027589 0)
(-0.0391899 0.0282556 0)
(-0.0433676 0.0287169 0)
(-0.0475748 0.0289788 0)
(-0.0517866 0.0290465 0)
(-0.0559785 0.028925 0)
(-0.0601266 0.0286184 0)
(-0.0642074 0.0281302 0)
(-0.0681976 0.0274634 0)
(-0.0720742 0.0266205 0)
(-0.0758144 0.0256036 0)
(-0.0793956 0.0244149 0)
(-0.0827958 0.023057 0)
(-0.0859929 0.0215326 0)
(-0.0889656 0.0198456 0)
(-0.0916931 0.0180007 0)
(-0.094155 0.016004 0)
(-0.0963321 0.0138631 0)
(-0.0982062 0.0115871 0)
(-0.0997601 0.0091873 0)
(-0.100978 0.00667667 0)
(-0.101847 0.0040704 0)
(-0.102354 0.00138568 0)
(-0.102489 -0.00135819 0)
(-0.102245 -0.00413997 0)
(-0.101617 -0.0069365 0)
(-0.100602 -0.00972295 0)
(-0.0992023 -0.012473 0)
(-0.0974213 -0.0151592 0)
(-0.0952667 -0.017753 0)
(-0.0927497 -0.0202257 0)
(-0.089885 -0.0225483 0)
(-0.0866912 -0.0246923 0)
(-0.0831905 -0.0266301 0)
(-0.0794089 -0.0283354 0)
(-0.075376 -0.0297841 0)
(-0.0711246 -0.0309545 0)
(-0.0666908 -0.0318279 0)
(-0.0621135 -0.0323895 0)
(-0.0574339 -0.0326284 0)
(-0.052695 -0.0325384 0)
(-0.0479413 -0.0321182 0)
(-0.0432177 -0.0313718 0)
(-0.0385693 -0.030309 0)
(-0.0340403 -0.028945 0)
(-0.0296733 -0.0273012 0)
(-0.0255087 -0.0254046 0)
(-0.0215837 -0.0232883 0)
(-0.0179317 -0.0209907 0)
(-0.0145818 -0.018556 0)
(-0.0115575 -0.0160335 0)
(-0.00887723 -0.0134776 0)
(-0.0065531 -0.0109474 0)
(-0.00459115 -0.00850679 0)
(-0.00299123 -0.00622365 0)
(-0.00174635 -0.00417017 0)
(-0.000842232 -0.00242215 0)
(-0.000268918 -0.0010586 0)
(-3.23461e-05 -0.000164867 0)
(-9.43807e-05 0.00154016 0)
(-0.000632298 0.00474573 0)
(-0.00179736 0.00797291 0)
(-0.00347019 0.0111423 0)
(-0.00558134 0.0141939 0)
(-0.00808841 0.017081 0)
(-0.0109489 0.0197683 0)
(-0.0141213 0.0222314 0)
(-0.017567 0.0244541 0)
(-0.0212497 0.0264273 0)
(-0.025135 0.0281471 0)
(-0.0291905 0.0296141 0)
(-0.0333851 0.0308313 0)
(-0.0376893 0.0318041 0)
(-0.0420748 0.0325387 0)
(-0.0465143 0.0330415 0)
(-0.0509814 0.0333192 0)
(-0.0554505 0.0333777 0)
(-0.0598965 0.0332225 0)
(-0.0642949 0.0328581 0)
(-0.0686215 0.0322884 0)
(-0.0728523 0.0315166 0)
(-0.0769638 0.0305454 0)
(-0.0809326 0.0293772 0)
(-0.0847355 0.0280146 0)
(-0.0883497 0.0264602 0)
(-0.0917526 0.0247175 0)
(-0.0949219 0.0227905 0)
(-0.0978362 0.0206848 0)
(-0.100474 0.018407 0)
(-0.102816 0.0159657 0)
(-0.104843 0.0133714 0)
(-0.106536 0.0106363 0)
(-0.107879 0.00777518 0)
(-0.108857 0.00480489 0)
(-0.109456 0.00174466 0)
(-0.109667 -0.00138399 0)
(-0.109479 -0.00455732 0)
(-0.108887 -0.00774947 0)
(-0.107888 -0.0109326 0)
(-0.106481 -0.0140774 0)
(-0.10467 -0.0171527 0)
(-0.102461 -0.0201269 0)
(-0.0998642 -0.0229671 0)
(-0.0968939 -0.0256409 0)
(-0.0935682 -0.0281157 0)
(-0.0899091 -0.0303602 0)
(-0.0859427 -0.0323442 0)
(-0.0816988 -0.0340401 0)
(-0.0772111 -0.0354227 0)
(-0.0725168 -0.0364702 0)
(-0.0676563 -0.0371649 0)
(-0.0626728 -0.0374938 0)
(-0.0576115 -0.0374487 0)
(-0.0525197 -0.0370273 0)
(-0.0474454 -0.0362332 0)
(-0.042437 -0.0350762 0)
(-0.0375425 -0.033573 0)
(-0.0328083 -0.0317464 0)
(-0.0282788 -0.0296264 0)
(-0.0239955 -0.0272493 0)
(-0.0199959 -0.0246579 0)
(-0.0163131 -0.021901 0)
(-0.0129748 -0.0190335 0)
(-0.0100032 -0.0161156 0)
(-0.00741414 -0.0132126 0)
(-0.00521713 -0.0103947 0)
(-0.00341525 -0.00773616 0)
(-0.00200432 -0.00531528 0)
(-0.000972355 -0.0032135 0)
(-0.000312937 -0.00151478 0)
(-3.83662e-05 -0.00030846 0)
(-0.000102714 0.0018738 0)
(-0.000685877 0.00568146 0)
(-0.00194614 0.00945051 0)
(-0.00375171 0.013106 0)
(-0.00602519 0.0165918 0)
(-0.00871894 0.0198649 0)
(-0.0117856 0.0228935 0)
(-0.0151795 0.0256559 0)
(-0.0188583 0.0281389 0)
(-0.0227826 0.0303355 0)
(-0.0269158 0.0322443 0)
(-0.0312233 0.0338676 0)
(-0.0356724 0.0352101 0)
(-0.0402322 0.0362786 0)
(-0.0448735 0.0370806 0)
(-0.0495678 0.0376236 0)
(-0.0542883 0.037915 0)
(-0.0590085 0.0379616 0)
(-0.0637029 0.0377694 0)
(-0.0683463 0.0373433 0)
(-0.0729142 0.0366876 0)
(-0.0773821 0.0358058 0)
(-0.081726 0.0347008 0)
(-0.085922 0.0333754 0)
(-0.0899463 0.0318321 0)
(-0.0937757 0.0300741 0)
(-0.0973868 0.0281049 0)
(-0.100757 0.0259294 0)
(-0.103864 0.0235533 0)
(-0.106685 0.0209843 0)
(-0.109201 0.0182316 0)
(-0.111391 0.0153067 0)
(-0.113235 0.0122234 0)
(-0.114716 0.00899761 0)
(-0.115818 0.00564805 0)
(-0.116527 0.00219585 0)
(-0.11683 -0.00133529 0)
(-0.116718 -0.00491915 0)
(-0.116181 -0.00852719 0)
(-0.115217 -0.0121286 0)
(-0.113823 -0.0156908 0)
(-0.112001 -0.0191794 0)
(-0.109757 -0.0225588 0)
(-0.107098 -0.0257926 0)
(-0.10404 -0.0288442 0)
(-0.100598 -0.0316771 0)
(-0.0967945 -0.0342556 0)
(-0.0926552 -0.0365457 0)
(-0.08821 -0.0385157 0)
(-0.0834933 -0.0401364 0)
(-0.0785431 -0.0413827 0)
(-0.0734012 -0.0422336 0)
(-0.0681128 -0.0426733 0)
(-0.0627255 -0.0426916 0)
(-0.0572892 -0.0422844 0)
(-0.0518553 -0.0414546 0)
(-0.0464759 -0.040212 0)
(-0.0412028 -0.0385738 0)
(-0.0360869 -0.0365649 0)
(-0.0311769 -0.0342174 0)
(-0.0265188 -0.0315712 0)
(-0.0221549 -0.0286731 0)
(-0.0181228 -0.0255771 0)
(-0.0144549 -0.0223433 0)
(-0.0111774 -0.0190381 0)
(-0.00831047 -0.0157334 0)
(-0.00586727 -0.0125058 0)
(-0.00385437 -0.00943634 0)
(-0.00227053 -0.00660972 0)
(-0.00110603 -0.00411348 0)
(-0.000357852 -0.00203698 0)
(-4.44116e-05 -0.000474185 0)
(-0.000110689 0.0022341 0)
(-0.000737216 0.00668992 0)
(-0.00208882 0.0110399 0)
(-0.00402192 0.0152141 0)
(-0.00645155 0.0191611 0)
(-0.00932511 0.0228418 0)
(-0.0125906 0.0262288 0)
(-0.0161982 0.029304 0)
(-0.0201023 0.0320572 0)
(-0.0242604 0.0344848 0)
(-0.0286335 0.0365877 0)
(-0.033185 0.0383705 0)
(-0.0378808 0.0398402 0)
(-0.0426886 0.0410052 0)
(-0.0475781 0.0418742 0)
(-0.0525202 0.0424563 0)
(-0.0574872 0.0427598 0)
(-0.0624523 0.0427923 0)
(-0.0673893 0.0425603 0)
(-0.0722728 0.0420694 0)
(-0.0770779 0.0413242 0)
(-0.0817796 0.0403284 0)
(-0.0863537 0.0390852 0)
(-0.0907759 0.0375976 0)