/*--------------------------------*- C++ -*----------------------------------*\
  =========                 |
  \\      /  F ield         | OpenFOAM: The Open Source CFD Toolbox
   \\    /   O peration     | Website:  https://openfoam.org
    \\  /    A nd           | Version:  dev
     \\/     M anipulation  |
\*---------------------------------------------------------------------------*/
FoamFile
{
    format      ascii;
    class       surfaceScalarField;
    location    "23.85";
    object      phi;
}
// * * * * * * * * * * * * * * * * * * * * * * * * * * * * * * * * * * * * * //

dimensions      [0 3 -1 0 0 0 0];

internalField   nonuniform List<scalar> 
10224
(
3.35708e-08
-3.50687e-08
8.76918e-08
-5.41194e-08
1.24251e-07
-3.65572e-08
1.25208e-07
-9.52937e-10
8.35751e-08
4.16271e-08
-1.8987e-09
8.54746e-08
-1.29389e-07
1.27492e-07
-2.9559e-07
1.66202e-07
-4.96441e-07
2.0085e-07
-7.27644e-07
2.31201e-07
-9.8493e-07
2.57285e-07
-1.26421e-06
2.7928e-07
-1.56164e-06
2.97436e-07
-1.87368e-06
3.12038e-07
-2.19705e-06
3.23372e-07
-2.52875e-06
3.31703e-07
-2.86602e-06
3.37269e-07
-3.20629e-06
3.40269e-07
-3.54716e-06
3.40865e-07
-3.88634e-06
3.39179e-07
-4.22163e-06
3.35297e-07
-4.5509e-06
3.29271e-07
-4.87203e-06
3.21127e-07
-5.1829e-06
3.10866e-07
-5.48137e-06
2.98477e-07
-5.76531e-06
2.8394e-07
-6.03255e-06
2.67233e-07
-6.28088e-06
2.48337e-07
-6.50813e-06
2.2725e-07
-6.71212e-06
2.03985e-07
-6.8907e-06
1.7858e-07
-7.0418e-06
1.51103e-07
-7.16345e-06
1.21656e-07
-7.25383e-06
9.03777e-08
-7.31128e-06
5.74488e-08
-7.33437e-06
2.30915e-08
-7.32194e-06
-1.24286e-08
-7.27313e-06
-4.88035e-08
-7.18745e-06
-8.56839e-08
-7.06477e-06
-1.22683e-07
-6.90539e-06
-1.5938e-07
-6.71006e-06
-1.95326e-07
-6.48001e-06
-2.30051e-07
-6.21693e-06
-2.63074e-07
-5.92303e-06
-2.93907e-07
-5.60096e-06
-3.22067e-07
-5.25387e-06
-3.4709e-07
-4.88533e-06
-3.68537e-07
-4.49933e-06
-3.86005e-07
-4.10018e-06
-3.99142e-07
-3.69253e-06
-4.07652e-07
-3.28123e-06
-4.11305e-07
-2.87128e-06
-4.09945e-07
-2.46779e-06
-4.03497e-07
-2.07582e-06
-3.91969e-07
-1.70036e-06
-3.75459e-07
-1.3462e-06
-3.54152e-07
-1.01788e-06
-3.28321e-07
-7.1956e-07
-2.98327e-07
-4.54944e-07
-2.64617e-07
-2.27214e-07
-2.2773e-07
-3.89139e-08
-1.88298e-07
1.08148e-07
-1.4706e-07
2.13033e-07
-1.04884e-07
2.75854e-07
-6.28212e-08
2.98041e-07
-2.21882e-08
2.82769e-07
1.52709e-08
2.35626e-07
4.71398e-08
1.65666e-07
6.99573e-08
8.71768e-08
7.84941e-08
2.25308e-08
6.46619e-08
2.25445e-08
5.37591e-08
-8.88269e-08
1.12206e-07
-1.12567e-07
1.1797e-07
-4.23213e-08
3.86643e-08
7.83678e-08
-1.42126e-07
2.22419e-07
-4.29709e-07
3.73053e-07
-8.2231e-07
5.20091e-07
-1.31379e-06
6.57679e-07
-1.89558e-06
7.82643e-07
-2.55787e-06
8.93499e-07
-3.2904e-06
9.89816e-07
-4.08293e-06
1.0718e-06
-4.92552e-06
1.14003e-06
-5.80876e-06
1.19527e-06
-6.72375e-06
1.23836e-06
-7.66217e-06
1.27013e-06
-8.61622e-06
1.29132e-06
-9.57856e-06
1.30261e-06
-1.05422e-05
1.30454e-06
-1.15006e-05
1.29755e-06
-1.24472e-05
1.28193e-06
-1.33759e-05
1.25791e-06
-1.42804e-05
1.2256e-06
-1.51545e-05
1.18505e-06
-1.59923e-05
1.13625e-06
-1.67876e-05
1.07918e-06
-1.75342e-05
1.01383e-06
-1.8226e-05
9.40178e-07
-1.8857e-05
8.5828e-07
-1.94213e-05
7.68247e-07
-1.9913e-05
6.70284e-07
-2.03266e-05
5.64699e-07
-2.06569e-05
4.51926e-07
-2.0899e-05
3.32535e-07
-2.10488e-05
2.07237e-07
-2.11026e-05
7.68958e-08
-2.10576e-05
-5.74729e-08
-2.09117e-05
-1.94705e-07
-2.06638e-05
-3.33495e-07
-2.03141e-05
-4.72405e-07
-1.98636e-05
-6.09886e-07
-1.93146e-05
-7.44291e-07
-1.86708e-05
-8.73907e-07
-1.79369e-05
-9.9698e-07
-1.7119e-05
-1.11174e-06
-1.62246e-05
-1.21646e-06
-1.52623e-05
-1.30947e-06
-1.42416e-05
-1.38918e-06
-1.31735e-05
-1.45416e-06
-1.20695e-05
-1.50316e-06
-1.0942e-05
-1.53511e-06
-9.80407e-06
-1.54923e-06
-8.66906e-06
-1.54495e-06
-7.55052e-06
-1.52204e-06
-6.46194e-06
-1.48055e-06
-5.41655e-06
-1.42085e-06
-4.42705e-06
-1.34365e-06
-3.50539e-06
-1.24999e-06
-2.6625e-06
-1.14122e-06
-1.90807e-06
-1.01905e-06
-1.25027e-06
-8.85522e-07
-6.95517e-07
-7.43056e-07
-2.48102e-07
-5.94477e-07
9.01216e-08
-4.43111e-07
3.20228e-07
-2.9293e-07
4.46814e-07
-1.48773e-07
4.78863e-07
-1.67739e-08
4.30842e-07
9.51636e-08
3.24175e-07
1.76615e-07
1.88857e-07
2.13788e-07
6.43301e-08
1.89162e-07
8.68854e-08
3.72591e-08
-1.26084e-07
4.31511e-08
-1.18465e-07
-4.34886e-08
4.43088e-08
-2.58916e-07
2.938e-07
-6.22743e-07
5.86257e-07
-1.14209e-06
8.92397e-07
-1.8152e-06
1.1932e-06
-2.63444e-06
1.47691e-06
-3.58843e-06
1.73663e-06
-4.66366e-06
1.96873e-06
-5.84556e-06
2.17172e-06
-7.11926e-06
2.3455e-06
-8.47005e-06
2.49082e-06
-9.88369e-06
2.60892e-06
-1.13466e-05
2.70125e-06
-1.28458e-05
2.76932e-06
-1.4369e-05
2.81455e-06
-1.59046e-05
2.83821e-06
-1.74414e-05
2.84138e-06
-1.89688e-05
2.82491e-06
-2.04763e-05
2.78945e-06
-2.19539e-05
2.73545e-06
-2.33914e-05
2.66318e-06
-2.47792e-05
2.57281e-06
-2.61074e-05
2.46439e-06
-2.73661e-05
2.33795e-06
-2.85458e-05
2.19351e-06
-2.96368e-05
2.03117e-06
-3.06296e-05
1.8511e-06
-3.1515e-05
1.65366e-06
-3.22841e-05
1.43936e-06
-3.29283e-05
1.20895e-06
-3.34399e-05
9.63444e-07
-3.38114e-05
7.04122e-07
-3.40368e-05
4.3257e-07
-3.41106e-05
1.5068e-07
-3.40287e-05
-1.39345e-07
-3.37884e-05
-4.35001e-07
-3.33884e-05
-7.33497e-07
-3.2829e-05
-1.03178e-06
-3.21123e-05
-1.32656e-06
-3.12423e-05
-1.61438e-06
-3.02245e-05
-1.89164e-06
-2.90668e-05
-2.15466e-06
-2.77788e-05
-2.39976e-06
-2.6372e-05
-2.62333e-06
-2.48596e-05
-2.82188e-06
-2.32566e-05
-2.99215e-06
-2.15796e-05
-3.13117e-06
-1.98464e-05
-3.23634e-06
-1.8076e-05
-3.30549e-06
-1.62883e-05
-3.33696e-06
-1.45036e-05
-3.32965e-06
-1.27426e-05
-3.28307e-06
-1.10257e-05
-3.19737e-06
-9.37321e-06
-3.07337e-06
-7.80427e-06
-2.91259e-06
-6.337e-06
-2.71725e-06
-4.98796e-06
-2.49026e-06
-3.77172e-06
-2.23529e-06
-2.70052e-06
-1.95672e-06
-1.78383e-06
-1.65975e-06
-1.02789e-06
-1.35042e-06
-4.35155e-07
-1.03584e-06
-3.73614e-09
-7.24349e-07
2.73433e-07
-4.25942e-07
4.09413e-07
-1.52752e-07
4.2443e-07
8.01558e-08
3.47099e-07
2.53966e-07
2.15593e-07
3.45307e-07
7.85853e-08
3.2615e-07
1.65473e-07
1.85708e-09
-1.27934e-07
-7.90408e-08
-3.75561e-08
-2.97726e-07
2.62991e-07
-6.879e-07
6.83962e-07
-1.26786e-06
1.16621e-06
-2.04387e-06
1.66842e-06
-3.01316e-06
2.16249e-06
-4.16645e-06
2.63021e-06
-5.49017e-06
3.06035e-06
-6.96798e-06
3.44654e-06
-8.58206e-06
3.7858e-06
-1.03139e-05
4.07738e-06
-1.21451e-05
4.32199e-06
-1.40574e-05
4.52122e-06
-1.60333e-05
4.67711e-06
-1.80558e-05
4.79185e-06
-2.01088e-05
4.86757e-06
-2.21768e-05
4.90622e-06
-2.42449e-05
4.90946e-06
-2.62987e-05
4.87866e-06
-2.83241e-05
4.81487e-06
-3.03075e-05
4.71883e-06
-3.22354e-05
4.59107e-06
-3.40944e-05
4.43188e-06
-3.58715e-05
4.24146e-06
-3.75535e-05
4.01995e-06
-3.91275e-05
3.76752e-06
-4.05808e-05
3.48443e-06
-4.19008e-05
3.17114e-06
-4.30755e-05
2.82834e-06
-4.40932e-05
2.45706e-06
-4.49429e-05
2.05869e-06
-4.56145e-05
1.63505e-06
-4.60988e-05
1.18842e-06
-4.63878e-05
7.21579e-07
-4.64749e-05
2.37797e-07
-4.63551e-05
-2.59144e-07
-4.60252e-05
-7.64972e-07
-4.54837e-05
-1.27495e-06
-4.47316e-05
-1.78392e-06
-4.37718e-05
-2.28637e-06
-4.26097e-05
-2.77648e-06
-4.12531e-05
-3.24823e-06
-3.97122e-05
-3.6955e-06
-3.79998e-05
-4.11217e-06
-3.61309e-05
-4.49222e-06
-3.41229e-05
-4.82988e-06
-3.19953e-05
-5.11976e-06
-2.97695e-05
-5.35693e-06
-2.74688e-05
-5.53709e-06
-2.51176e-05
-5.65669e-06
-2.27416e-05
-5.71298e-06
-2.0367e-05
-5.70416e-06
-1.80207e-05
-5.62945e-06
-1.57289e-05
-5.48914e-06
-1.35176e-05
-5.28463e-06
-1.14117e-05
-5.01849e-06
-9.43449e-06
-4.69449e-06
-7.60717e-06
-4.31758e-06
-5.94851e-06
-3.89395e-06
-4.47421e-06
-3.43103e-06
-3.19637e-06
-2.93758e-06
-2.12297e-06
-2.42383e-06
-1.25719e-06
-1.90162e-06
-5.96794e-07
-1.38474e-06
-1.33362e-07
-8.89372e-07
1.48592e-07
-4.3471e-07
2.72516e-07
-4.37746e-08
2.70859e-07
2.55626e-07
1.86099e-07
4.30083e-07
7.21493e-08
4.4009e-07
2.37619e-07
-4.20737e-08
-8.58645e-08
-2.30034e-07
1.5041e-07
-6.06454e-07
6.39421e-07
-1.19791e-06
1.27541e-06
-2.01812e-06
1.98642e-06
-3.07024e-06
2.72054e-06
-4.3491e-06
3.44135e-06
-5.84328e-06
4.12439e-06
-7.53691e-06
4.75397e-06
-9.41119e-06
5.32083e-06
-1.14456e-05
5.8202e-06
-1.36187e-05
6.25048e-06
-1.59089e-05
6.61217e-06
-1.82947e-05
6.90709e-06
-2.07554e-05
7.13775e-06
-2.32705e-05
7.30701e-06
-2.58206e-05
7.41767e-06
-2.83868e-05
7.47238e-06
-3.09508e-05
7.47342e-06
-3.34948e-05
7.42269e-06
-3.60016e-05
7.32167e-06
-3.84542e-05
7.17149e-06
-4.08361e-05
6.9729e-06
-4.31307e-05
6.72646e-06
-4.53217e-05
6.43254e-06
-4.73933e-05
6.09148e-06
-4.93294e-05
5.70365e-06
-5.11146e-05
5.26963e-06
-5.27337e-05
4.79025e-06
-5.41721e-05
4.26672e-06
-5.54158e-05
3.70074e-06
-5.64516e-05
3.09455e-06
-5.72676e-05
2.45101e-06
-5.78528e-05
1.77366e-06
-5.8198e-05
1.06674e-06
-5.82955e-05
3.35248e-07
-5.81395e-05
-4.15126e-07
-5.77265e-05
-1.17797e-06
-5.70552e-05
-1.9462e-06
-5.6127e-05
-2.71214e-06
-5.49458e-05
-3.46762e-06
-5.35182e-05
-4.20404e-06
-5.18539e-05
-4.9125e-06
-4.99654e-05
-5.58401e-06
-4.7868e-05
-6.20954e-06
-4.558e-05
-6.78028e-06
-4.31221e-05
-7.28776e-06
-4.05178e-05
-7.72407e-06
-3.77927e-05
-8.082e-06
-3.49745e-05
-8.35527e-06
-3.20926e-05
-8.53866e-06
-2.91774e-05
-8.62817e-06
-2.62603e-05
-8.62118e-06
-2.33732e-05
-8.51655e-06
-2.05477e-05
-8.31473e-06
-1.78145e-05
-8.01782e-06
-1.52033e-05
-7.62965e-06
-1.2742e-05
-7.1558e-06
-1.04559e-05
-6.60363e-06
-8.36756e-06
-5.98234e-06
-6.49563e-06
-5.30295e-06
-4.85475e-06
-4.57847e-06
-3.45464e-06
-3.82394e-06
-2.29954e-06
-3.05672e-06
-1.38749e-06
-2.29679e-06
-7.09647e-07
-1.56721e-06
-2.49571e-07
-8.94787e-07
1.7576e-08
-3.10928e-07
1.25827e-07
1.4737e-07
1.19307e-07
4.36611e-07
5.35969e-08
5.058e-07
2.91213e-07
-8.94248e-08
3.55861e-09
-3.95247e-07
4.56228e-07
-9.44805e-07
1.18898e-06
-1.75467e-06
2.08528e-06
-2.83164e-06
3.06338e-06
-4.17393e-06
4.06283e-06
-5.7727e-06
5.04013e-06
-7.61358e-06
5.96527e-06
-9.6781e-06
6.81849e-06
-1.1945e-05
7.58771e-06
-1.43912e-05
8.26639e-06
-1.69927e-05
8.85201e-06
-1.97253e-05
9.34474e-06
-2.25647e-05
9.74654e-06
-2.54873e-05
1.00603e-05
-2.84699e-05
1.02896e-05
-3.149e-05
1.04377e-05
-3.45257e-05
1.05081e-05
-3.75559e-05
1.05036e-05
-4.05598e-05
1.04266e-05
-4.35173e-05
1.02791e-05
-4.64084e-05
1.00626e-05
-4.92137e-05
9.77823e-06
-5.1914e-05
9.42671e-06
-5.44901e-05
9.00869e-06
-5.69235e-05
8.52479e-06
-5.91955e-05
7.97571e-06
-6.12883e-05
7.3624e-06
-6.31843e-05
6.68622e-06
-6.48666e-05
5.94903e-06
-6.63192e-05
5.15338e-06
-6.75272e-05
4.30252e-06
-6.84768e-05
3.4006e-06
-6.91557e-05
2.45262e-06
-6.95536e-05
1.46459e-06
-6.96618e-05
4.43466e-07
-6.94741e-05
-6.02824e-07
-6.89866e-05
-1.66541e-06
-6.81983e-05
-2.73453e-06
-6.71108e-05
-3.79965e-06
-6.57289e-05
-4.84956e-06
-6.40604e-05
-5.8725e-06
-6.21165e-05
-6.85637e-06
-5.99117e-05
-7.78887e-06
-5.74635e-05
-8.65774e-06
-5.47928e-05
-9.45099e-06
-5.19234e-05
-1.01571e-05
-4.88821e-05
-1.07654e-05
-4.5698e-05
-1.1266e-05
-4.24029e-05
-1.16505e-05
-3.90299e-05
-1.19116e-05
-3.56141e-05
-1.2044e-05
-3.21911e-05
-1.20441e-05
-2.87973e-05
-1.19104e-05
-2.54686e-05
-1.16434e-05
-2.22403e-05
-1.12461e-05
-1.91464e-05
-1.07235e-05
-1.62188e-05
-1.00835e-05
-1.34865e-05
-9.3359e-06
-1.09754e-05
-8.49341e-06
-8.70731e-06
-7.57106e-06
-6.69923e-06
-6.58654e-06
-4.96288e-06
-5.56029e-06
-3.50391e-06
-4.51569e-06
-2.3213e-06
-3.4794e-06
-1.40668e-06
-2.48182e-06
-7.43777e-07
-1.55769e-06
-3.07759e-07
-7.46944e-07
-6.46837e-08
-9.57098e-08
2.91815e-08
3.42746e-07
2.82551e-08
5.06729e-07
3.19468e-07
-1.37598e-07
1.41158e-07
-5.66106e-07
8.84731e-07
-1.29696e-06
1.91983e-06
-2.33523e-06
3.12355e-06
-3.67922e-06
4.40737e-06
-5.32087e-06
5.70448e-06
-7.24657e-06
6.96583e-06
-9.43822e-06
8.15691e-06
-1.18743e-05
9.25454e-06
-1.45308e-05
1.02442e-05
-1.73821e-05
1.11178e-05
-2.0402e-05
1.18719e-05
-2.35636e-05
1.25064e-05
-2.68405e-05
1.30234e-05
-3.02064e-05
1.34262e-05
-3.36356e-05
1.37188e-05
-3.71032e-05
1.39053e-05
-4.05847e-05
1.39896e-05
-4.40563e-05
1.39752e-05
-4.74948e-05
1.38651e-05
-5.08773e-05
1.36616e-05
-5.41814e-05
1.33667e-05
-5.7385e-05
1.29819e-05
-6.04664e-05
1.25081e-05
-6.34041e-05
1.19464e-05
-6.61769e-05
1.12976e-05
-6.87641e-05
1.0563e-05
-7.11456e-05
9.74383e-06
-7.33016e-05
8.84221e-06
-7.52133e-05
7.86078e-06
-7.6863e-05
6.80304e-06
-7.82339e-05
5.67348e-06
-7.9311e-05
4.47767e-06
-8.00807e-05
3.22233e-06
-8.05315e-05
1.91542e-06
-8.06542e-05
5.66126e-07
-8.04419e-05
-8.15143e-07
-7.98905e-05
-2.21678e-06
-7.8999e-05
-3.62607e-06
-7.77693e-05
-5.02932e-06
-7.62069e-05
-6.41196e-06
-7.43206e-05
-7.75879e-06
-7.21228e-05
-9.05414e-06
-6.96296e-05
-1.02821e-05
-6.68604e-05
-1.14269e-05
-6.38383e-05
-1.24731e-05
-6.05897e-05
-1.34057e-05
-5.71441e-05
-1.4211e-05
-5.35339e-05
-1.48762e-05
-4.9794e-05
-1.53904e-05
-4.59612e-05
-1.57443e-05
-4.20743e-05
-1.59309e-05
-3.81729e-05
-1.59455e-05
-3.42972e-05
-1.57861e-05
-3.04873e-05
-1.54534e-05
-2.67824e-05
-1.49509e-05
-2.32205e-05
-1.42855e-05
-1.98372e-05
-1.34668e-05
-1.66652e-05
-1.25079e-05
-1.37336e-05
-1.1425e-05
-1.10673e-05
-1.02374e-05
-8.68586e-06
-8.96797e-06
-6.60329e-06
-7.64286e-06
-4.82711e-06
-6.29187e-06
-3.35784e-06
-4.94869e-06
-2.18836e-06
-3.6513e-06
-1.30351e-06
-2.44254e-06
-6.79554e-07
-1.37089e-06
-2.83902e-07
-4.9136e-07
-7.47188e-08
1.33562e-07
-6.29503e-10
4.3264e-07
3.18839e-07
-1.85345e-07
3.26504e-07
-7.37724e-07
1.43711e-06
-1.65313e-06
2.83524e-06
-2.92457e-06
4.39499e-06
-4.54097e-06
6.02377e-06
-6.48701e-06
7.65052e-06
-8.74347e-06
9.22229e-06
-1.12878e-05
1.07013e-05
-1.4095e-05
1.20617e-05
-1.71381e-05
1.32872e-05
-2.03888e-05
1.43685e-05
-2.38185e-05
1.53016e-05
-2.73982e-05
1.60861e-05
-3.10991e-05
1.67243e-05
-3.48928e-05
1.72199e-05
-3.87514e-05
1.75775e-05
-4.26478e-05
1.78017e-05
-4.65553e-05
1.78971e-05
-5.04477e-05
1.78677e-05
-5.42997e-05
1.7717e-05
-5.8086e-05
1.7448e-05
-6.1782e-05
1.70628e-05
-6.53634e-05
1.65632e-05
-6.88062e-05
1.59508e-05
-7.20866e-05
1.52268e-05
-7.51816e-05
1.43926e-05
-7.80682e-05
1.34496e-05
-8.07243e-05
1.23999e-05
-8.31283e-05
1.12463e-05
-8.52598e-05
9.99224e-06
-8.70992e-05
8.64245e-06
-8.86285e-05
7.20275e-06
-8.98311e-05
5.68029e-06
-9.06924e-05
4.08369e-06
-9.12001e-05
2.42304e-06
-9.13439e-05
7.09952e-07
-9.11166e-05
-1.04246e-06
-9.05137e-05
-2.81963e-06
-8.95341e-05
-4.60566e-06
-8.818e-05
-6.38342e-06
-8.64572e-05
-8.13477e-06
-8.43752e-05
-9.84077e-06
-8.19475e-05
-1.14819e-05
-7.91912e-05
-1.30385e-05
-7.61274e-05
-1.44907e-05
-7.2781e-05
-1.58195e-05
-6.91805e-05
-1.70062e-05
-6.53579e-05
-1.80336e-05
-6.1348e-05
-1.88861e-05
-5.71888e-05
-1.95496e-05
-5.29203e-05
-2.00128e-05
-4.85844e-05
-2.02668e-05
-4.42244e-05
-2.03055e-05
-3.98842e-05
-2.01264e-05
-3.56075e-05
-1.97301e-05
-3.14374e-05
-1.9121e-05
-2.74155e-05
-1.83073e-05
-2.35813e-05
-1.73011e-05
-1.99709e-05
-1.61183e-05
-1.66168e-05
-1.4779e-05
-1.35471e-05
-1.33071e-05
-1.07842e-05
-1.17308e-05
-8.34481e-06
-1.00823e-05
-6.2387e-06
-8.39798e-06
-4.46854e-06
-6.71885e-06
-3.02917e-06
-5.09067e-06
-1.90729e-06
-3.56442e-06
-1.08116e-06
-2.19702e-06
-5.2042e-07
-1.05209e-06
-1.86167e-07
-2.00691e-07
-3.11012e-08
2.77575e-07
2.87738e-07
-2.32026e-07
5.58531e-07
-9.07347e-07
2.11243e-06
-2.00735e-06
3.93524e-06
-3.51298e-06
5.90062e-06
-5.40337e-06
7.91416e-06
-7.65537e-06
9.90252e-06
-1.02436e-05
1.18105e-05
-1.31405e-05
1.35982e-05
-1.63171e-05
1.52383e-05
-1.97431e-05
1.67133e-05
-2.33876e-05
1.80131e-05
-2.72195e-05
1.91334e-05
-3.12075e-05
2.00741e-05
-3.53209e-05
2.08376e-05
-3.95292e-05
2.14282e-05
-4.38027e-05
2.1851e-05
-4.81121e-05
2.21111e-05
-5.24289e-05
2.22139e-05
-5.67251e-05
2.21639e-05
-6.09731e-05
2.1965e-05
-6.51459e-05
2.16207e-05
-6.92168e-05
2.11337e-05
-7.31595e-05
2.05059e-05
-7.6948e-05
1.97394e-05
-8.05569e-05
1.88357e-05
-8.39609e-05
1.77966e-05
-8.71354e-05
1.66241e-05
-9.00565e-05
1.5321e-05
-9.2701e-05
1.38908e-05
-9.50468e-05
1.2338e-05
-9.70729e-05
1.06686e-05
-9.87599e-05
8.88973e-06
-0.00010009
7.0104e-06
-0.000101048
5.0412e-06
-0.000101619
2.99452e-06
-0.000101794
8.84558e-07
-0.000101563
-1.2727e-06
-0.000100923
-3.45955e-06
-9.98724e-05
-5.65671e-06
-9.84124e-05
-7.84343e-06
-9.65494e-05
-9.99776e-06
-9.42934e-05
-1.20968e-05
-9.16584e-05
-1.41169e-05
-8.86625e-05
-1.60343e-05
-8.5328e-05
-1.78252e-05
-8.16812e-05
-1.94663e-05
-7.77523e-05
-2.09351e-05
-7.35752e-05
-2.22107e-05
-6.91872e-05
-2.3274e-05
-6.46286e-05
-2.41082e-05
-5.99425e-05
-2.4699e-05
-5.51737e-05
-2.50356e-05
-5.03687e-05
-2.51105e-05
-4.55749e-05
-2.49202e-05
-4.08396e-05
-2.44654e-05
-3.62096e-05
-2.3751e-05
-3.17303e-05
-2.27866e-05
-2.74447e-05
-2.15867e-05
-2.33927e-05
-2.01702e-05
-1.96105e-05
-1.85612e-05
-1.61294e-05
-1.67883e-05
-1.29751e-05
-1.48851e-05
-1.01673e-05
-1.28901e-05
-7.71865e-06
-1.08466e-05
-5.63447e-06
-8.80304e-06
-3.91215e-06
-6.81298e-06
-2.54092e-06
-4.93566e-06
-1.50166e-06
-3.23629e-06
-7.66943e-07
-1.78681e-06
-3.0135e-07
-6.66284e-07
-6.20588e-08
3.82845e-08
2.2568e-07
-2.77361e-07
8.35889e-07
-1.07344e-06
2.90852e-06
-2.35598e-06
5.21778e-06
-4.09416e-06
7.6388e-06
-6.25726e-06
1.00773e-05
-8.81403e-06
1.24593e-05
-1.17324e-05
1.47289e-05
-1.49797e-05
1.68455e-05
-1.85225e-05
1.87811e-05
-2.2327e-05
2.05178e-05
-2.63594e-05
2.20454e-05
-3.0586e-05
2.336e-05
-3.49735e-05
2.44616e-05
-3.94891e-05
2.53532e-05
-4.41005e-05
2.60396e-05
-4.87762e-05
2.65267e-05
-5.34852e-05
2.68202e-05
-5.81974e-05
2.69261e-05
-6.2883e-05
2.68494e-05
-6.75127e-05
2.65947e-05
-7.20578e-05
2.61658e-05
-7.64899e-05
2.55658e-05
-8.07809e-05
2.4797e-05
-8.49034e-05
2.38618e-05
-8.88299e-05
2.27622e-05
-9.25337e-05
2.15004e-05
-9.59887e-05
2.0079e-05
-9.91691e-05
1.85015e-05
-0.00010205
1.67721e-05
-0.000104609
1.48966e-05
-0.000106823
1.28821e-05
-0.00010867
1.07375e-05
-0.000110133
8.47342e-06
-0.000111195
6.10265e-06
-0.00011184
3.63997e-06
-0.000112058
1.10229e-06
-0.000111839
-1.49141e-06
-0.000111179
-4.12017e-06
-0.000110074
-6.76113e-06
-0.000108528
-9.38979e-06
-0.000106545
-1.19802e-05
-0.000104137
-1.45052e-05
-0.000101317
-1.69371e-05
-9.81037e-05
-1.92475e-05
-9.45205e-05
-2.14084e-05
-9.05947e-05
-2.3392e-05
-8.63579e-05
-2.51719e-05
-8.18456e-05
-2.6723e-05
-7.70971e-05
-2.80226e-05
-7.21549e-05
-2.90504e-05
-6.70645e-05
-2.97894e-05
-6.18737e-05
-3.02263e-05
-5.66322e-05
-3.0352e-05
-5.13906e-05
-3.01619e-05
-4.61997e-05
-2.96562e-05
-4.11102e-05
-2.88405e-05
-3.61711e-05
-2.77257e-05
-3.14293e-05
-2.63284e-05
-2.69288e-05
-2.46708e-05
-2.27094e-05
-2.27806e-05
-1.88061e-05
-2.06915e-05
-1.52485e-05
-1.84427e-05
-1.20596e-05
-1.6079e-05
-9.25538e-06
-1.36508e-05
-6.84439e-06
-1.1214e-05
-4.82712e-06
-8.83025e-06
-3.19584e-06
-6.56693e-06
-1.93457e-06
-4.49756e-06
-1.01924e-06
-2.70215e-06
-4.18159e-07
-1.26736e-06
-9.29491e-08
-2.86924e-07
1.32733e-07
-3.21234e-07
1.15712e-06
-1.23516e-06
3.82244e-06
-2.69677e-06
6.6794e-06
-4.66399e-06
9.60602e-06
-7.09636e-06
1.25096e-05
-9.95447e-06
1.53174e-05
-1.31995e-05
1.79739e-05
-1.67931e-05
2.04391e-05
-2.06974e-05
2.26853e-05
-2.48748e-05
2.46952e-05
-2.92886e-05
2.64592e-05
-3.39024e-05
2.79738e-05
-3.86807e-05
2.924e-05
-4.35889e-05
3.02614e-05
-4.8593e-05
3.10437e-05
-5.36598e-05
3.15935e-05
-5.87569e-05
3.19173e-05
-6.38525e-05
3.20217e-05
-6.89154e-05
3.19123e-05
-7.39149e-05
3.15943e-05
-7.88208e-05
3.10718e-05
-8.36033e-05
3.03482e-05
-8.82329e-05
2.94266e-05
-9.26804e-05
2.83093e-05
-9.69172e-05
2.6999e-05
-0.000100915
2.54982e-05
-0.000104646
2.38102e-05
-0.000108084
2.1939e-05
-0.000111202
1.989e-05
-0.000113975
1.767e-05
-0.00011638
1.52873e-05
-0.000118395
1.27524e-05
-0.00012
1.0078e-05
-0.000121176
7.27887e-06
-0.000121908
4.37235e-06
-0.000122184
1.37809e-06
-0.000121993
-1.68185e-06
-0.000121331
-4.78312e-06
-0.000120192
-7.89921e-06
-0.000118581
-1.10017e-05
-0.0001165
-1.40605e-05
-0.000113961
-1.70442e-05
-0.000110978
-1.99204e-05
-0.000107569
-2.26563e-05
-0.000103758
-2.52192e-05
-9.95735e-05
-2.75768e-05
-9.50473e-05
-2.96981e-05
-9.02165e-05
-3.15538e-05
-8.5122e-05
-3.31171e-05
-7.98085e-05
-3.43639e-05
-7.43237e-05
-3.52742e-05
-6.87181e-05
-3.58319e-05
-6.30444e-05
-3.60257e-05
-5.73564e-05
-3.58498e-05
-5.17088e-05
-3.53038e-05
-4.61558e-05
-3.43935e-05
-4.07505e-05
-3.3131e-05
-3.5544e-05
-3.15349e-05
-3.05843e-05
-2.96304e-05
-2.59156e-05
-2.74494e-05
-2.15769e-05
-2.50301e-05
-1.7602e-05
-2.24177e-05
-1.40177e-05
-1.96633e-05
-1.08441e-05
-1.68245e-05
-8.09323e-06
-1.39649e-05
-5.76924e-06
-1.11542e-05
-3.86792e-06
-8.46826e-06
-2.37677e-06
-5.98871e-06
-1.27531e-06
-3.80361e-06
-5.35665e-07
-2.00701e-06
-1.2357e-07
-6.99017e-07
9.16516e-09
-3.63606e-07
1.52073e-06
-1.39201e-06
4.85084e-06
-3.02833e-06
8.31572e-06
-5.21972e-06
1.17974e-05
-7.91629e-06
1.52062e-05
-1.10705e-05
1.84716e-05
-1.46367e-05
2.15402e-05
-1.8571e-05
2.43734e-05
-2.28306e-05
2.6945e-05
-2.73744e-05
2.9239e-05
-3.21622e-05
3.12471e-05
-3.71553e-05
3.29669e-05
-4.2316e-05
3.44006e-05
-4.76076e-05
3.5553e-05
-5.29946e-05
3.64307e-05
-5.84423e-05
3.70412e-05
-6.3917e-05
3.7392e-05
-6.93856e-05
3.74902e-05
-7.48155e-05
3.73423e-05
-8.0175e-05
3.69537e-05
-8.54325e-05
3.63292e-05
-9.05569e-05
3.54726e-05
-9.55175e-05
3.43872e-05
-0.000100284
3.30758e-05
-0.000104826
3.15413e-05
-0.000109115
2.97869e-05
-0.000113121
2.78163e-05
-0.000116816
2.56344e-05
-0.000120174
2.32473e-05
-0.000123167
2.06629e-05
-0.000125771
1.78911e-05
-0.000127962
1.49438e-05
-0.00012972
1.18355e-05
-0.000131024
8.58343e-06
-0.000131859
5.20718e-06
-0.00013221
1.7293e-06
-0.000132067
-1.82504e-06
-0.000131422
-5.42805e-06
-0.000130272
-9.04951e-06
-0.000128616
-1.2657e-05
-0.000126461
-1.62161e-05
-0.000123814
-1.96909e-05
-0.00012069
-2.30444e-05
-0.000117107
-2.62391e-05
-0.000113089
-2.92372e-05
-0.000108665
-3.20016e-05
-0.000103866
-3.44966e-05
-9.8732e-05
-3.6688e-05
-9.33043e-05
-3.85448e-05
-8.76294e-05
-4.00388e-05
-8.17573e-05
-4.11463e-05
-7.57411e-05
-4.18481e-05
-6.96363e-05
-4.21305e-05
-6.35003e-05
-4.19859e-05
-5.73912e-05
-4.14129e-05
-5.13673e-05
-4.04174e-05
-4.54861e-05
-3.90123e-05
-3.98029e-05
-3.72181e-05
-3.43704e-05
-3.50629e-05
-2.92373e-05
-3.25824e-05
-2.44475e-05
-2.98199e-05
-2.00392e-05
-2.68261e-05
-1.60437e-05
-2.36587e-05
-1.24855e-05
-2.03827e-05
-9.38083e-06
-1.70695e-05
-6.7379e-06
-1.37972e-05
-4.5564e-06
-1.06498e-05
-2.82762e-06
-7.71749e-06
-1.5348e-06
-5.09642e-06
-6.53764e-07
-2.88805e-06
-1.53947e-07
-1.19883e-06
-1.44779e-07
-4.04465e-07
1.92519e-06
-1.54371e-06
5.99009e-06
-3.34971e-06
1.01217e-05
-5.7594e-06
1.42071e-05
-8.7138e-06
1.81606e-05
-1.21575e-05
2.19153e-05
-1.6038e-05
2.54207e-05
-2.03058e-05
2.86411e-05
-2.49134e-05
3.15526e-05
-2.98157e-05
3.41413e-05
-3.49695e-05
3.64009e-05
-4.03334e-05
3.83308e-05
-4.58674e-05
3.99346e-05
-5.15332e-05
4.12188e-05
-5.72937e-05
4.21912e-05
-6.31128e-05
4.28603e-05
-6.89556e-05
4.32347e-05
-7.47878e-05
4.33224e-05
-8.05758e-05
4.31304e-05
-8.62868e-05
4.26647e-05
-9.18883e-05
4.19307e-05
-9.7348e-05
4.09324e-05
-0.000102634
3.96735e-05
-0.000107716
3.81572e-05
-0.000112561
3.63868e-05
-0.00011714
3.43658e-05
-0.000121422
3.20986e-05
-0.000125379
2.95908e-05
-0.000128981
2.68493e-05
-0.000132201
2.38831e-05
-0.000135013
2.07033e-05
-0.000137393
1.73235e-05
-0.000139317
1.37601e-05
-0.000140766
1.00324e-05
-0.000141722
6.1624e-06
-0.000142168
2.17556e-06
-0.000142093
-1.89987e-06
-0.000141488
-6.03267e-06
-0.000140349
-1.01888e-05
-0.000138674
-1.43318e-05
-0.000136467
-1.84229e-05
-0.000133737
-2.24216e-05
-0.000130495
-2.62861e-05
-0.00012676
-2.99736e-05
-0.000122556
-3.34415e-05
-0.00011791
-3.66474e-05
-0.000112857
-3.95503e-05
-0.000107433
-4.21113e-05
-0.000101684
-4.42942e-05
-9.56562e-05
-4.60665e-05
-8.94022e-05
-4.74003e-05
-8.29774e-05
-4.82728e-05
-7.64405e-05
-4.86675e-05
-6.9852e-05
-4.85743e-05
-6.32741e-05
-4.79908e-05
-5.67693e-05
-4.69222e-05
-5.03994e-05
-4.53822e-05
-4.42247e-05
-4.33927e-05
-3.8303e-05
-4.09847e-05
-3.2688e-05
-3.81974e-05
-2.74288e-05
-3.50791e-05
-2.25687e-05
-3.16862e-05
-1.81442e-05
-2.80832e-05
-1.41846e-05
-2.43424e-05
-1.07109e-05
-2.05433e-05
-7.73571e-06
-1.67723e-05
-5.2631e-06
-1.31224e-05
-3.28837e-06
-9.69221e-06
-1.79853e-06
-6.58626e-06
-7.72925e-07
-3.91365e-06
-1.84257e-07
-1.7875e-06
-3.29034e-07
-4.438e-07
2.36899e-06
-1.69004e-06
7.23633e-06
-3.66021e-06
1.20919e-05
-6.28156e-06
1.68284e-05
-9.4864e-06
2.13655e-05
-1.32116e-05
2.56405e-05
-1.73983e-05
2.96074e-05
-2.19911e-05
3.32339e-05
-2.6938e-05
3.64995e-05
-3.219e-05
3.93933e-05
-3.77008e-05
4.19116e-05
-4.34262e-05
4.40562e-05
-4.93242e-05
4.58327e-05
-5.53548e-05
4.72494e-05
-6.14793e-05
4.83157e-05
-6.76605e-05
4.90415e-05
-7.38623e-05
4.94365e-05
-8.00495e-05
4.95096e-05
-8.61876e-05
4.92685e-05
-9.22428e-05
4.872e-05
-9.81819e-05
4.78697e-05
-0.000103972
4.67222e-05
-0.00010958
4.52815e-05
-0.000114974
4.35512e-05
-0.000120122
4.15347e-05
-0.000124992
3.92361e-05
-0.000129554
3.66603e-05
-0.000133776
3.38135e-05
-0.00013763
3.07034e-05
-0.000141087
2.734e-05
-0.00014412
2.37357e-05
-0.000146702
1.99056e-05
-0.00014881
1.58679e-05
-0.000150421
1.16438e-05
-0.000151517
7.25804e-06
-0.00015208
2.73855e-06
-0.000152096
-1.88326e-06
-0.000151556
-6.57274e-06
-0.000150453
-1.12921e-05
-0.000148784
-1.60008e-05
-0.000146551
-2.06555e-05
-0.000143762
-2.52112e-05
-0.000140427
-2.96209e-05
-0.000136564
-3.38367e-05
-0.000132195
-3.78106e-05
-0.000127348
-4.14947e-05
-0.000122055
-4.48424e-05
-0.000116357
-4.78094e-05
-0.000110298
-5.03541e-05
-0.000103925
-5.24391e-05
-9.72935e-05
-5.40317e-05
-9.04613e-05
-5.51051e-05
-8.34896e-05
-5.56392e-05
-7.64426e-05
-5.56212e-05
-6.93866e-05
-5.50468e-05
-6.23884e-05
-5.39204e-05
-5.55149e-05
-5.22557e-05
-4.88317e-05
-5.0076e-05
-4.24018e-05
-4.74145e-05
-3.62848e-05
-4.43144e-05
-3.05356e-05
-4.08284e-05
-2.52031e-05
-3.70187e-05
-2.03296e-05
-3.29567e-05
-1.59498e-05
-2.87222e-05
-1.209e-05
-2.44031e-05
-8.76778e-06
-2.00945e-05
-5.99182e-06
-1.58983e-05
-3.76166e-06
-1.19224e-05
-2.06816e-06
-8.27977e-06
-8.9402e-07
-5.08779e-06
-2.1478e-07
-2.46673e-06
-5.43812e-07
-4.81589e-07
2.85058e-06
-1.8308e-06
8.58555e-06
-3.95922e-06
1.42203e-05
-6.78493e-06
1.96542e-05
-1.02319e-05
2.48125e-05
-1.42298e-05
2.96384e-05
-1.87132e-05
3.40908e-05
-2.36214e-05
3.81421e-05
-2.88978e-05
4.17759e-05
-3.44896e-05
4.49851e-05
-4.03472e-05
4.77693e-05
-4.64241e-05
5.01331e-05
-5.26762e-05
5.20848e-05
-5.90617e-05
5.36349e-05
-6.55406e-05
5.47946e-05
-7.20745e-05
5.55754e-05
-7.86264e-05
5.59884e-05
-8.51603e-05
5.60434e-05
-9.16409e-05
5.57491e-05
-9.80338e-05
5.51129e-05
-0.000104305
5.41408e-05
-0.000110421
5.2838e-05
-0.000116348
5.12086e-05
-0.000122053
4.92565e-05
-0.000127504
4.69857e-05
-0.000132668
4.44004e-05
-0.000137514
4.1506e-05
-0.00014201
3.83092e-05
-0.000146125
3.48186e-05
-0.00014983
3.1045e-05
-0.000153096
2.70019e-05
-0.000155897
2.27059e-05
-0.000158205
1.81768e-05
-0.000159999
1.34378e-05
-0.000161257
8.51595e-06
-0.000161961
3.4418e-06
-0.000162094
-1.75025e-06
-0.000161644
-7.0222e-06
-0.000160604
-1.23325e-05
-0.000158968
-1.76366e-05
-0.000156737
-2.28867e-05
-0.000153915
-2.80328e-05
-0.000150513
-3.30229e-05
-0.000146546
-3.78038e-05
-0.000142035
-4.23216e-05
-0.000137007
-4.65228e-05
-0.000131494
-5.03547e-05
-0.000125537
-5.37671e-05
-0.000119178
-5.67127e-05
-0.000112469
-5.91483e-05
-0.000105464
-6.10361e-05
-9.82252e-05
-6.23444e-05
-9.08155e-05
-6.30489e-05
-8.33031e-05
-6.31336e-05
-7.57584e-05
-6.25916e-05
-6.8253e-05
-6.14258e-05
-6.08592e-05
-5.96495e-05
-5.36482e-05
-5.7287e-05
-4.66891e-05
-5.43736e-05
-4.00479e-05
-5.09557e-05
-3.37856e-05
-4.70906e-05
-2.79578e-05
-4.28465e-05
-2.26131e-05
-3.83014e-05
-1.77921e-05
-3.35432e-05
-1.35271e-05
-2.86681e-05
-9.84112e-06
-2.37804e-05
-6.74779e-06
-1.89916e-05
-4.25115e-06
-1.4419e-05
-2.34597e-06
-1.0185e-05
-1.0182e-06
-6.41556e-06
-2.45861e-07
-3.23907e-06
-7.89672e-07
-5.17797e-07
3.36838e-06
-1.96577e-06
1.00335e-05
-4.24614e-06
1.65007e-05
-7.26832e-06
2.26763e-05
-1.09485e-05
2.84926e-05
-1.52091e-05
3.38991e-05
-1.99788e-05
3.88605e-05
-2.51917e-05
4.33549e-05
-3.07866e-05
4.73709e-05
-3.67071e-05
5.09056e-05
-4.29006e-05
5.39628e-05
-4.93181e-05
5.65505e-05
-5.59135e-05
5.86802e-05
-6.26433e-05
6.03647e-05
-6.94665e-05
6.16177e-05
-7.63435e-05
6.24525e-05
-8.32365e-05
6.28814e-05
-9.01087e-05
6.29156e-05
-9.69244e-05
6.25648e-05
-0.000103649
6.18371e-05
-0.000110247
6.07389e-05
-0.000116685
5.92759e-05
-0.000122929
5.74525e-05
-0.000128945
5.52729e-05
-0.000134701
5.27413e-05
-0.000140162
4.98622e-05
-0.000145298
4.66413e-05
-0.000150074
4.30859e-05
-0.000154461
3.9205e-05
-0.000158426
3.50105e-05
-0.000161941
3.05167e-05
-0.000164977
2.57415e-05
-0.000167506
2.07062e-05
-0.000169504
1.54358e-05
-0.000170948
9.95954e-06
-0.000171816
4.31044e-06
-0.000172092
-1.47425e-06
-0.000171761
-7.35328e-06
-0.000170812
-1.32815e-05
-0.000169238
-1.92102e-05
-0.000167038
-2.50872e-05
-0.000164213
-3.08577e-05
-0.000160772
-3.64644e-05
-0.000156727
-4.18484e-05
-0.000152099
-4.695e-05
-0.000146912
-5.17094e-05
-0.000141199
-5.60677e-05
-0.000134998
-5.99681e-05
-0.000128354
-6.3357e-05
-0.000121317
-6.6185e-05
-0.000113945
-6.84082e-05
-0.0001063
-6.99895e-05
-9.84489e-05
-7.08997e-05
-9.04638e-05
-7.11187e-05
-8.24193e-05
-7.06362e-05
-7.4392e-05
-6.9453e-05
-6.64599e-05
-6.75816e-05
-5.87004e-05
-6.50465e-05
-5.11893e-05
-6.18847e-05
-4.39994e-05
-5.81456e-05
-3.71991e-05
-5.3891e-05
-3.08507e-05
-4.91948e-05
-2.501e-05
-4.41421e-05
-1.97246e-05
-3.88286e-05
-1.50329e-05
-3.33597e-05
-1.09642e-05
-2.78492e-05
-7.53734e-06
-2.24185e-05
-4.76124e-06
-1.71951e-05
-2.63469e-06
-1.23115e-05
-1.14682e-06
-7.90342e-06
-2.77892e-07
-4.108e-06
-1.06756e-06
-5.52368e-07
3.92074e-06
-2.09469e-06
1.15758e-05
-4.52034e-06
1.89263e-05
-7.73055e-06
2.58865e-05
-1.1634e-05
3.23961e-05
-1.61467e-05
3.84118e-05
-2.11914e-05
4.39051e-05
-2.6697e-05
4.88605e-05
-3.25984e-05
5.32723e-05
-3.88355e-05
5.71427e-05
-4.53528e-05
6.04801e-05
-5.2099e-05
6.32967e-05
-5.9026e-05
6.56073e-05
-6.60891e-05
6.74278e-05
-7.32457e-05
6.87744e-05
-8.04556e-05
6.96624e-05
-8.76802e-05
7.0106e-05
-9.48823e-05
7.01177e-05
-0.000102026
6.97081e-05