/*--------------------------------*- C++ -*----------------------------------*\
  =========                 |
  \\      /  F ield         | OpenFOAM: The Open Source CFD Toolbox
   \\    /   O peration     | Website:  https://openfoam.org
    \\  /    A nd           | Version:  dev
     \\/     M anipulation  |
\*---------------------------------------------------------------------------*/
FoamFile
{
    format      ascii;
    class       volVectorField;
    location    "23.85";
    object      U;
}
// * * * * * * * * * * * * * * * * * * * * * * * * * * * * * * * * * * * * * //

dimensions      [0 1 -1 0 0 0 0];

internalField   nonuniform List<vector> 
5184
(
(1.22357e-05 -1.27862e-05 0)
(4.501e-05 -2.09218e-05 0)
(8.02034e-05 -1.72511e-05 0)
(9.58667e-05 -8.19207e-06 0)
(8.20339e-05 2.67244e-06 0)
(3.63406e-05 1.36181e-05 0)
(-4.0655e-05 2.38422e-05 0)
(-0.000146934 3.30385e-05 0)
(-0.000279708 4.10903e-05 0)
(-0.000435918 4.80038e-05 0)
(-0.000612447 5.3841e-05 0)
(-0.00080626 5.86861e-05 0)
(-0.00101449 6.26309e-05 0)
(-0.00123448 6.5767e-05 0)
(-0.00146376 6.81794e-05 0)
(-0.00170009 6.99435e-05 0)
(-0.00194138 7.11233e-05 0)
(-0.00218573 7.17713e-05 0)
(-0.00243135 7.19282e-05 0)
(-0.00267657 7.16236e-05 0)
(-0.00291976 7.0877e-05 0)
(-0.00315938 6.96988e-05 0)
(-0.0033939 6.80919e-05 0)
(-0.00362179 6.60534e-05 0)
(-0.00384153 6.3576e-05 0)
(-0.00405157 6.06501e-05 0)
(-0.00425037 5.72653e-05 0)
(-0.00443636 5.34119e-05 0)
(-0.00460794 4.90826e-05 0)
(-0.00476355 4.42747e-05 0)
(-0.00490163 3.89905e-05 0)
(-0.00502065 3.32394e-05 0)
(-0.00511916 2.70386e-05 0)
(-0.00519578 2.04138e-05 0)
(-0.00524925 1.34008e-05 0)
(-0.00527846 6.04525e-06 0)
(-0.00528245 -1.5968e-06 0)
(-0.00526051 -9.45895e-06 0)
(-0.00521214 -1.74647e-05 0)
(-0.0051371 -2.55283e-05 0)
(-0.00503546 -3.35553e-05 0)
(-0.00490759 -4.14443e-05 0)
(-0.00475419 -4.90881e-05 0)
(-0.00457633 -5.6376e-05 0)
(-0.0043754 -6.31954e-05 0)
(-0.00415315 -6.94346e-05 0)
(-0.00391168 -7.49847e-05 0)
(-0.00365342 -7.97428e-05 0)
(-0.00338108 -8.36144e-05 0)
(-0.00309767 -8.65157e-05 0)
(-0.00280643 -8.83764e-05 0)
(-0.00251077 -8.91412e-05 0)
(-0.00221427 -8.87718e-05 0)
(-0.00192058 -8.72484e-05 0)
(-0.00163337 -8.45705e-05 0)
(-0.00135628 -8.07577e-05 0)
(-0.00109284 -7.58492e-05 0)
(-0.000846421 -6.99038e-05 0)
(-0.000620173 -6.29986e-05 0)
(-0.000416945 -5.52296e-05 0)
(-0.000239231 -4.67106e-05 0)
(-8.91093e-05 -3.75748e-05 0)
(3.18315e-05 -2.79771e-05 0)
(0.000122576 -1.81e-05 0)
(0.000182792 -8.16857e-06 0)
(0.00021298 1.5224e-06 0)
(0.000214726 1.05503e-05 0)
(0.000191076 1.82784e-05 0)
(0.000147052 2.36961e-05 0)
(9.07447e-05 2.5113e-05 0)
(3.66107e-05 1.98427e-05 0)
(6.22533e-06 6.24565e-06 0)
(2.07833e-05 -4.59831e-05 0)
(6.54779e-05 -6.57417e-05 0)
(9.45397e-05 -4.05449e-05 0)
(7.26225e-05 7.65101e-06 0)
(-1.91049e-05 6.56769e-05 0)
(-0.000187452 0.000125964 0)
(-0.000432993 0.000184237 0)
(-0.000752508 0.000238251 0)
(-0.00114045 0.000286869 0)
(-0.00159005 0.00032965 0)
(-0.00209396 0.000366555 0)
(-0.00264473 0.000397775 0)
(-0.00323507 0.000423619 0)
(-0.00385797 0.000444455 0)
(-0.00450685 0.000460659 0)
(-0.0051755 0.00047259 0)
(-0.00585813 0.000480572 0)
(-0.0065493 0.000484878 0)
(-0.00724388 0.000485733 0)
(-0.00793698 0.000483307 0)
(-0.00862391 0.000477722 0)
(-0.00930012 0.000469055 0)
(-0.00996114 0.000457344 0)
(-0.0106025 0.000442598 0)
(-0.0112199 0.000424806 0)
(-0.0118089 0.000403945 0)
(-0.0123651 0.000379989 0)
(-0.012884 0.000352923 0)
(-0.0133613 0.000322746 0)
(-0.0137926 0.000289486 0)
(-0.0141737 0.000253202 0)
(-0.0145006 0.000213998 0)
(-0.0147693 0.000172024 0)
(-0.0149761 0.000127481 0)
(-0.0151179 8.06288e-05 0)
(-0.0151918 3.17868e-05 0)
(-0.0151953 -1.86666e-05 0)
(-0.0151268 -7.02937e-05 0)
(-0.0149852 -0.0001226 0)
(-0.01477 -0.000175038 0)
(-0.0144816 -0.000227015 0)
(-0.0141212 -0.000277898 0)
(-0.0136911 -0.000327028 0)
(-0.0131941 -0.000373725 0)
(-0.0126343 -0.000417306 0)
(-0.0120165 -0.000457097 0)
(-0.0113464 -0.000492444 0)
(-0.0106307 -0.000522734 0)
(-0.0098768 -0.000547406 0)
(-0.0090927 -0.000565966 0)
(-0.00828714 -0.000578 0)
(-0.00746929 -0.00058319 0)
(-0.00664868 -0.00058132 0)
(-0.00583503 -0.000572287 0)
(-0.00503812 -0.000556105 0)
(-0.00426762 -0.000532914 0)
(-0.0035329 -0.000502976 0)
(-0.00284288 -0.000466682 0)
(-0.00220584 -0.000424544 0)
(-0.00162924 -0.000377203 0)
(-0.00111957 -0.000325425 0)
(-0.000682118 -0.000270116 0)
(-0.000320802 -0.000212336 0)
(-3.79069e-05 -0.000153336 0)
(0.000166197 -9.46245e-05 0)
(0.000293428 -3.80805e-05 0)
(0.000348531 1.38404e-05 0)
(0.000339766 5.78329e-05 0)
(0.000279614 8.93082e-05 0)
(0.000185912 0.000101776 0)
(8.63109e-05 8.64703e-05 0)
(1.96669e-05 3.64787e-05 0)
(1.76007e-05 -8.1309e-05 0)
(4.12291e-05 -9.49927e-05 0)
(1.94522e-05 -1.90837e-05 0)
(-8.41528e-05 0.00010595 0)
(-0.000290357 0.000254607 0)
(-0.000607906 0.000410462 0)
(-0.00103806 0.000563212 0)
(-0.001577 0.000706726 0)
(-0.00221756 0.000837557 0)
(-0.00295056 0.000954002 0)
(-0.00376573 0.00105547 0)
(-0.00465236 0.00114205 0)
(-0.00559974 0.00121425 0)
(-0.00659741 0.00127281 0)
(-0.00763532 0.00131855 0)
(-0.00870392 0.00135228 0)
(-0.00979412 0.00137478 0)
(-0.0108973 0.00138672 0)
(-0.0120054 0.00138867 0)
(-0.0131104 0.00138106 0)
(-0.0142047 0.00136423 0)
(-0.0152812 0.00133839 0)
(-0.0163324 0.00130368 0)
(-0.0173513 0.00126017 0)
(-0.0183307 0.00120785 0)
(-0.0192638 0.00114672 0)
(-0.0201433 0.00107678 0)
(-0.0209625 0.000998027 0)
(-0.0217143 0.000910536 0)
(-0.0223921 0.000814444 0)
(-0.0229892 0.000709981 0)
(-0.0234995 0.000597493 0)
(-0.0239169 0.000477452 0)
(-0.024236 0.000350472 0)
(-0.0244519 0.000217319 0)
(-0.0245605 7.89157e-05 0)
(-0.0245581 -6.36596e-05 0)
(-0.0244425 -0.000209172 0)
(-0.0242121 -0.000356239 0)
(-0.0238665 -0.000503346 0)
(-0.0234066 -0.000648856 0)
(-0.0228345 -0.000791041 0)
(-0.0221536 -0.000928098 0)
(-0.021369 -0.00105819 0)
(-0.0204866 -0.00117946 0)
(-0.0195143 -0.00129009 0)
(-0.0184608 -0.00138833 0)
(-0.0173365 -0.00147254 0)
(-0.0161526 -0.00154121 0)
(-0.0149217 -0.00159304 0)
(-0.013657 -0.00162691 0)
(-0.0123725 -0.00164201 0)
(-0.0110828 -0.00163775 0)
(-0.00980265 -0.00161389 0)
(-0.00854702 -0.00157049 0)
(-0.00733056 -0.00150795 0)
(-0.00616751 -0.00142703 0)
(-0.00507141 -0.00132881 0)
(-0.00405477 -0.00121474 0)
(-0.00312889 -0.00108664 0)
(-0.00230348 -0.000946661 0)
(-0.00158644 -0.000797381 0)
(-0.000983511 -0.000641803 0)
(-0.000497923 -0.000483455 0)
(-0.000129993 -0.000326533 0)
(0.000123345 -0.000176121 0)
(0.000269175 -3.8532e-05 0)
(0.000319333 7.82208e-05 0)
(0.000290941 0.000163844 0)
(0.000207208 0.000205182 0)
(0.000102371 0.000186134 0)
(2.49585e-05 9.03437e-05 0)
(8.81782e-06 -9.7678e-05 0)
(-7.07171e-06 -7.30463e-05 0)
(-0.000107656 8.48478e-05 0)
(-0.000322399 0.000318338 0)
(-0.000669524 0.000589937 0)
(-0.00115743 0.000874038 0)
(-0.00178686 0.00115363 0)
(-0.00255305 0.00141793 0)
(-0.00344746 0.00166047 0)
(-0.00445906 0.00187772 0)
(-0.00557538 0.00206814 0)
(-0.00678323 0.00223146 0)
(-0.00806919 0.00236825 0)
(-0.00942003 0.00247955 0)
(-0.0108228 0.00256663 0)
(-0.0122652 0.00263081 0)
(-0.0137353 0.00267338 0)
(-0.0152215 0.00269548 0)
(-0.0167132 0.00269811 0)
(-0.0181996 0.00268204 0)
(-0.0196706 0.00264788 0)
(-0.0211162 0.00259606 0)
(-0.0225266 0.00252683 0)
(-0.0238923 0.00244037 0)
(-0.0252036 0.00233674 0)
(-0.0264512 0.002216 0)
(-0.0276257 0.00207821 0)
(-0.0287178 0.00192346 0)
(-0.0297184 0.00175197 0)
(-0.0306186 0.00156409 0)
(-0.0314098 0.00136034 0)
(-0.032084 0.00114145 0)
(-0.0326334 0.000908404 0)
(-0.0330511 0.000662435 0)
(-0.0333307 0.000405055 0)
(-0.0334672 0.000138064 0)
(-0.0334561 -0.00013645 0)
(-0.0332946 -0.00041612 0)
(-0.032981 -0.000698313 0)
(-0.0325149 -0.000980153 0)
(-0.0318978 -0.00125856 0)
(-0.0311328 -0.00153027 0)
(-0.0302244 -0.00179192 0)
(-0.0291793 -0.00204006 0)
(-0.0280056 -0.00227125 0)
(-0.0267135 -0.00248211 0)
(-0.0253145 -0.0026694 0)
(-0.023822 -0.00283005 0)
(-0.0222508 -0.0029613 0)
(-0.020617 -0.00306072 0)
(-0.0189379 -0.0031263 0)
(-0.0172314 -0.0031565 0)
(-0.0155165 -0.00315028 0)
(-0.0138123 -0.0031072 0)
(-0.0121379 -0.0030274 0)
(-0.0105122 -0.00291168 0)
(-0.00895378 -0.00276146 0)
(-0.00747986 -0.00257884 0)
(-0.00610665 -0.00236657 0)
(-0.00484861 -0.0021281 0)
(-0.00371826 -0.00186758 0)
(-0.00272568 -0.0015899 0)
(-0.00187822 -0.00130077 0)
(-0.00118 -0.00100686 0)
(-0.000631504 -0.000715983 0)
(-0.000229026 -0.000437399 0)
(3.58938e-05 -0.000182249 0)
(0.000177136 3.58659e-05 0)
(0.000214414 0.000200235 0)
(0.000173878 0.000290473 0)
(9.29376e-05 0.000282298 0)
(2.40081e-05 0.000147181 0)
(-2.13761e-06 -8.43106e-05 0)
(-6.73129e-05 2.10175e-05 0)
(-0.000264089 0.00029548 0)
(-0.000609633 0.000667887 0)
(-0.00111642 0.00109046 0)
(-0.00179066 0.0015293 0)
(-0.00263135 0.001961 0)
(-0.00363212 0.00237008 0)
(-0.00478286 0.00274684 0)
(-0.00607084 0.00308564 0)
(-0.00748173 0.00338371 0)
(-0.00900029 0.00364025 0)
(-0.0106109 0.0038557 0)
(-0.0122981 0.0040313 0)
(-0.0140465 0.00416873 0)
(-0.0158414 0.00426979 0)
(-0.0176683 0.00433628 0)
(-0.0195135 0.00436984 0)
(-0.0213636 0.0043719 0)
(-0.0232056 0.00434363 0)
(-0.025027 0.00428594 0)
(-0.0268154 0.00419949 0)
(-0.0285588 0.00408473 0)
(-0.0302452 0.00394197 0)
(-0.0318629 0.0037714 0)
(-0.0334003 0.00357316 0)
(-0.0348459 0.00334745 0)
(-0.0361883 0.00309455 0)
(-0.0374165 0.00281489 0)
(-0.0385198 0.00250914 0)
(-0.0394878 0.00217825 0)
(-0.0403107 0.00182348 0)
(-0.0409794 0.00144649 0)
(-0.0414856 0.00104932 0)
(-0.0418221 0.000634458 0)
(-0.0419826 0.000204812 0)
(-0.0419623 -0.000236257 0)
(-0.0417579 -0.000684964 0)
(-0.0413676 -0.00113712 0)
(-0.0407913 -0.00158819 0)
(-0.0400309 -0.00203329 0)
(-0.0390903 -0.00246731 0)
(-0.0379752 -0.00288497 0)
(-0.0366938 -0.00328088 0)
(-0.0352558 -0.00364967 0)
(-0.0336736 -0.00398607 0)
(-0.0319611 -0.00428502 0)
(-0.0301343 -0.00454179 0)
(-0.028211 -0.00475207 0)
(-0.0262103 -0.00491209 0)
(-0.0241529 -0.00501875 0)
(-0.0220604 -0.00506964 0)
(-0.0199551 -0.0050632 0)
(-0.01786 -0.00499874 0)
(-0.0157978 -0.00487652 0)
(-0.0137913 -0.0046978 0)
(-0.0118622 -0.00446485 0)
(-0.0100313 -0.00418099 0)
(-0.00831797 -0.00385058 0)
(-0.00673947 -0.00347909 0)
(-0.00531076 -0.00307309 0)
(-0.00404395 -0.0026403 0)
(-0.00294792 -0.00218972 0)
(-0.00202781 -0.00173174 0)
(-0.00128457 -0.00127841 0)
(-0.000714436 -0.000843768 0)
(-0.000308434 -0.000444295 0)
(-5.18102e-05 -9.95362e-05 0)
(7.62958e-05 0.000167182 0)
(0.000103373 0.000328139 0)
(6.74128e-05 0.000350609 0)
(1.96462e-05 0.00019398 0)
(-1.36981e-05 -3.74227e-05 0)
(-0.000132811 0.000197456 0)
(-0.000435695 0.000626829 0)
(-0.000924302 0.00117 0)
(-0.00160325 0.00177106 0)
(-0.0024751 0.00238918 0)
(-0.003536 0.00299531 0)
(-0.00477726 0.00356968 0)
(-0.0061868 0.00409945 0)
(-0.0077501 0.00457686 0)
(-0.00945103 0.00499784 0)
(-0.0112726 0.0053609 0)
(-0.0131972 0.00566629 0)
(-0.0152074 0.00591536 0)
(-0.0172859 0.00611011 0)
(-0.0194159 0.00625278 0)
(-0.0215808 0.00634567 0)
(-0.0237648 0.00639091 0)
(-0.0259523 0.00639036 0)
(-0.0281282 0.00634559 0)
(-0.0302779 0.00625783 0)
(-0.032387 0.00612802 0)
(-0.0344412 0.00595682 0)
(-0.0364266 0.00574471 0)
(-0.0383295 0.00549205 0)
(-0.0401362 0.00519914 0)
(-0.0418335 0.00486638 0)
(-0.043408 0.00449429 0)
(-0.044847 0.00408363 0)
(-0.0461381 0.0036355 0)
(-0.0472695 0.00315138 0)
(-0.0482299 0.00263323 0)
(-0.0490089 0.00208352 0)
(-0.0495972 0.0015053 0)
(-0.0499866 0.000902208 0)
(-0.0501701 0.000278499 0)
(-0.0501424 -0.000360969 0)
(-0.0498998 -0.00101075 0)
(-0.0494404 -0.00166483 0)
(-0.0487645 -0.00231673 0)
(-0.0478744 -0.00295952 0)
(-0.0467745 -0.00358592 0)
(-0.0454718 -0.00418846 0)
(-0.0439754 -0.00475951 0)
(-0.0422968 -0.00529149 0)
(-0.04045 -0.00577696 0)
(-0.0384511 -0.00620879 0)
(-0.0363182 -0.00658032 0)
(-0.0340716 -0.00688549 0)
(-0.0317333 -0.00711899 0)
(-0.0293267 -0.00727644 0)
(-0.0268764 -0.00735448 0)
(-0.024408 -0.0073509 0)
(-0.0219475 -0.00726473 0)
(-0.0195209 -0.00709637 0)
(-0.0171542 -0.0068476 0)
(-0.0148724 -0.00652164 0)
(-0.0126991 -0.00612322 0)
(-0.0106566 -0.00565857 0)
(-0.00876474 -0.00513546 0)
(-0.00704074 -0.00456321 0)
(-0.00549871 -0.00395281 0)
(-0.00414914 -0.00331695 0)
(-0.00299838 -0.00267021 0)
(-0.00204821 -0.00202931 0)
(-0.00129538 -0.00141343 0)
(-0.000731119 -0.000844686 0)
(-0.000340712 -0.000348756 0)
(-0.000103225 4.44058e-05 0)
(8.95834e-06 0.000299873 0)
(3.241e-05 0.000376846 0)
(1.36026e-05 0.000224308 0)
(-2.51803e-05 4.41846e-05 0)
(-0.00019994 0.000461271 0)
(-0.000613824 0.0010868 0)
(-0.00125234 0.00183406 0)
(-0.00211102 0.00264125 0)
(-0.0031877 0.00346216 0)
(-0.00447481 0.00426318 0)
(-0.00596066 0.00502087 0)
(-0.00763074 0.00571964 0)
(-0.00946852 0.00634981 0)
(-0.011456 0.00690607 0)
(-0.0135744 0.00738625 0)
(-0.0158046 0.00779038 0)
(-0.0181272 0.00811987 0)
(-0.0205232 0.00837701 0)
(-0.022974 0.00856444 0)
(-0.0254613 0.00868491 0)
(-0.0279674 0.00874102 0)
(-0.0304747 0.00873506 0)
(-0.0329665 0.008669 0)
(-0.0354261 0.00854441 0)
(-0.0378373 0.00836249 0)
(-0.040184 0.00812415 0)
(-0.0424505 0.00783007 0)
(-0.0446212 0.00748081 0)
(-0.0466807 0.00707692 0)
(-0.048614 0.00661902 0)
(-0.0504063 0.00610796 0)
(-0.0520432 0.00554493 0)
(-0.0535109 0.00493155 0)
(-0.0547961 0.00426994 0)
(-0.0558864 0.0035629 0)
(-0.0567702 0.00281386 0)
(-0.0574373 0.00202703 0)
(-0.0578785 0.00120739 0)
(-0.0580864 0.000360713 0)
(-0.0580551 -0.00050644 0)
(-0.0577806 -0.00138674 0)
(-0.0572611 -0.00227215 0)
(-0.0564968 -0.003154 0)
(-0.0554904 -0.00402304 0)
(-0.0542469 -0.00486964 0)
(-0.0527741 -0.00568384 0)
(-0.0510821 -0.00645556 0)
(-0.0491838 -0.00717473 0)
(-0.0470945 -0.00783154 0)
(-0.0448321 -0.00841654 0)
(-0.0424166 -0.00892092 0)
(-0.0398705 -0.00933666 0)
(-0.0372181 -0.00965674 0)
(-0.0344851 -0.00987536 0)
(-0.031699 -0.00998804 0)
(-0.0288881 -0.00999185 0)
(-0.0260811 -0.0098855 0)
(-0.0233072 -0.00966948 0)
(-0.0205949 -0.00934613 0)
(-0.0179723 -0.00891972 0)
(-0.0154659 -0.00839652 0)
(-0.0131004 -0.00778477 0)
(-0.0108983 -0.00709479 0)
(-0.00887901 -0.00633894 0)
(-0.00705877 -0.00553174 0)
(-0.00544977 -0.00468991 0)
(-0.00405986 -0.00383253 0)
(-0.00289206 -0.00298128 0)
(-0.00194407 -0.00216075 0)
(-0.00120796 -0.00139884 0)
(-0.000669819 -0.000727394 0)
(-0.00030944 -0.000182875 0)
(-0.000100017 0.000192929 0)
(-7.78819e-06 0.000351915 0)
(6.84417e-06 0.000234735 0)
(-3.63258e-05 0.000160506 0)
(-0.000266817 0.00081433 0)
(-0.000793356 0.00167916 0)
(-0.00158481 0.00266507 0)
(-0.00262703 0.00370641 0)
(-0.00391245 0.00475318 0)
(-0.00542911 0.00576837 0)
(-0.00716173 0.00672572 0)
(-0.00909299 0.00760744 0)
(-0.011204 0.00840228 0)
(-0.013475 0.00910389 0)
(-0.0158851 0.00970958 0)
(-0.0184137 0.0102192 0)
(-0.0210398 0.0106341 0)
(-0.0237429 0.0109571 0)
(-0.0265027 0.011191 0)
(-0.0292994 0.0113391 0)
(-0.0321135 0.0114044 0)
(-0.0349261 0.0113896 0)
(-0.0377187 0.011297 0)
(-0.0404729 0.0111287 0)
(-0.043171 0.010886 0)
(-0.0457952 0.0105701 0)
(-0.0483282 0.010182 0)
(-0.0507527 0.00972237 0)
(-0.053052 0.00919209 0)
(-0.0552094 0.00859209 0)
(-0.0572087 0.00792362 0)
(-0.0590341 0.00718834 0)
(-0.0606705 0.00638849 0)
(-0.0621034 0.00552698 0)
(-0.0633192 0.00460749 0)
(-0.0643055 0.00363459 0)
(-0.065051 0.00261376 0)
(-0.0655458 0.00155149 0)
(-0.0657819 0.000455213 0)
(-0.0657529 -0.000666625 0)
(-0.0654545 -0.00180464 0)
(-0.0648847 -0.00294858 0)
(-0.0640438 -0.00408738 0)
(-0.0629348 -0.00520931 0)
(-0.061563 -0.00630212 0)
(-0.0599367 -0.0073532 0)
(-0.058067 -0.00834977 0)
(-0.0559677 -0.0092791 0)
(-0.0536552 -0.0101287 0)
(-0.0511489 -0.0108867 0)
(-0.0484706 -0.0115419 0)
(-0.0456444 -0.0120842 0)
(-0.0426965 -0.0125045 0)
(-0.0396552 -0.0127956 0)
(-0.03655 -0.0129516 0)
(-0.0334117 -0.0129689 0)
(-0.0302717 -0.0128458 0)
(-0.0271618 -0.0125827 0)
(-0.0241134 -0.0121826 0)
(-0.021157 -0.0116508 0)
(-0.018322 -0.0109952 0)
(-0.0156357 -0.0102263 0)
(-0.0131231 -0.00935691 0)
(-0.010806 -0.00840276 0)
(-0.00870269 -0.00738208 0)
(-0.00682746 -0.00631585 0)
(-0.00518991 -0.0052279 0)
(-0.00379464 -0.00414505 0)
(-0.00264083 -0.00309743 0)
(-0.0017219 -0.00211883 0)
(-0.0010253 -0.00124718 0)
(-0.000532214 -0.000525274 0)
(-0.000217318 -1.28885e-06 0)
(-5.05161e-05 0.000270254 0)
(-9.80336e-08 0.000223556 0)
(-4.7038e-05 0.000310906 0)
(-0.00033246 0.00125654 0)
(-0.000971298 0.00240488 0)
(-0.00191611 0.00366489 0)
(-0.0031429 0.00496885 0)
(-0.00463831 0.00626447 0)
(-0.00638554 0.00751253 0)
(-0.0083653 0.00868483 0)
(-0.0105571 0.00976208 0)
(-0.0129396 0.0107319 0)
(-0.0154906 0.0115873 0)
(-0.0181877 0.0123251 0)
(-0.0210084 0.0129452 0)
(-0.0239304 0.0134492 0)
(-0.0269317 0.01384 0)
(-0.0299904 0.014121 0)
(-0.0330855 0.0142958 0)
(-0.036196 0.0143678 0)
(-0.0393017 0.0143403 0)
(-0.0423825 0.0142159 0)
(-0.0454188 0.0139968 0)
(-0.0483913 0.0136849 0)
(-0.0512809 0.0132814 0)
(-0.0540688 0.0127877 0)
(-0.0567364 0.0122048 0)
(-0.0592655 0.0115337 0)
(-0.0616381 0.0107758 0)
(-0.0638368 0.0099328 0)
(-0.0658445 0.00900687 0)
(-0.0676449 0.00800095 0)
(-0.0692224 0.0069188 0)
(-0.0705624 0.00576514 0)
(-0.0716516 0.00454573 0)
(-0.0724777 0.00326748 0)
(-0.0730303 0.00193845 0)
(-0.0733006 0.000567907 0)
(-0.0732817 -0.000833695 0)
(-0.072969 -0.00225477 0)
(-0.0723602 -0.00368269 0)
(-0.0714555 -0.00510384 0)
(-0.0702577 -0.00650383 0)
(-0.0687727 -0.00786764 0)
(-0.0670091 -0.00917979 0)
(-0.0649783 -0.0104246 0)
(-0.062695 -0.0115866 0)
(-0.0601767 -0.0126503 0)
(-0.0574437 -0.0136012 0)
(-0.0545191 -0.0144256 0)
(-0.0514287 -0.0151108 0)
(-0.0482005 -0.0156461 0)
(-0.0448645 -0.0160221 0)
(-0.0414526 -0.0162317 0)
(-0.0379976 -0.0162703 0)
(-0.0345335 -0.0161355 0)
(-0.0310946 -0.015828 0)
(-0.0277148 -0.0153511 0)
(-0.0244275 -0.0147112 0)
(-0.0212647 -0.0139179 0)
(-0.0182563 -0.0129838 0)
(-0.01543 -0.0119246 0)
(-0.01281 -0.0107594 0)
(-0.0104171 -0.00951028 0)
(-0.00826785 -0.00820268 0)
(-0.00637387 -0.00686531 0)
(-0.00474177 -0.0055303 0)
(-0.00337259 -0.0042334 0)
(-0.00226158 -0.0030143 0)
(-0.00139802 -0.00191696 0)
(-0.000764978 -0.000990251 0)
(-0.000339042 -0.000288298 0)
(-9.42162e-05 0.000128759 0)
(-6.95403e-06 0.000190124 0)
(-5.73045e-05 0.000494479 0)
(-0.000396387 0.00178666 0)
(-0.00114591 0.00326308 0)
(-0.00224272 0.00483312 0)
(-0.00365307 0.00642854 0)
(-0.00535764 0.00799607 0)
(-0.00733452 0.00949539 0)
(-0.00956016 0.0108973 0)
(-0.0120106 0.0121818 0)
(-0.0146617 0.0133358 0)
(-0.0174891 0.0143521 0)
(-0.0204684 0.0152275 0)
(-0.0235754 0.015962 0)
(-0.0267864 0.0165574 0)
(-0.0300778 0.0170171 0)
(-0.0334268 0.0173448 0)
(-0.0368109 0.0175447 0)
(-0.0402079 0.0176206 0)
(-0.0435964 0.0175761 0)
(-0.0469551 0.0174142 0)
(-0.0502632 0.0171376 0)
(-0.0535001 0.0167481 0)
(-0.0566454 0.0162477 0)
(-0.0596792 0.0156376 0)
(-0.0625817 0.0149192 0)
(-0.0653334 0.0140939 0)
(-0.0679152 0.0131635 0)
(-0.0703085 0.0121301 0)
(-0.072495 0.0109965 0)
(-0.0744575 0.00976651 0)
(-0.0761794 0.00844466 0)
(-0.077645 0.00703682 0)
(-0.0788401 0.00555002 0)
(-0.0797517 0.00399266 0)
(-0.0803685 0.0023745 0)
(-0.0806811 0.00070673 0)
(-0.080682 -0.000998088 0)
(-0.0803661 -0.00272605 0)
(-0.0797307 -0.00446202 0)
(-0.0787757 -0.00618971 0)
(-0.0775039 -0.00789193 0)
(-0.075921 -0.00955071 0)
(-0.0740357 -0.0111476 0)
(-0.0718599 -0.0126638 0)
(-0.0694087 -0.0140807 0)
(-0.0667002 -0.0153801 0)
(-0.0637557 -0.0165443 0)
(-0.0605993 -0.0175569 0)
(-0.057258 -0.0184028 0)
(-0.0537615 -0.0190688 0)
(-0.0501414 -0.0195437 0)
(-0.0464314 -0.0198187 0)
(-0.0426668 -0.0198881 0)
(-0.0388838 -0.0197489 0)
(-0.0351189 -0.0194015 0)
(-0.0314091 -0.0188498 0)
(-0.0277901 -0.0181011 0)
(-0.0242968 -0.0171665 0)
(-0.0209621 -0.0160611 0)
(-0.0178161 -0.0148033 0)
(-0.0148862 -0.0134156 0)
(-0.0121955 -0.0119242 0)
(-0.00976317 -0.0103591 0)
(-0.0076034 -0.00875392 0)
(-0.00572509 -0.00714624 0)
(-0.00413153 -0.00557753 0)
(-0.00282016 -0.00409335 0)
(-0.00178252 -0.00274366 0)
(-0.00100386 -0.00158318 0)
(-0.000462978 -0.000671637 0)
(-0.000138072 -7.41819e-05 0)
(-1.36082e-05 0.000134357 0)
(-6.71426e-05 0.000710193 0)
(-0.000458371 0.00240279 0)
(-0.0013162 0.00425166 0)
(-0.00256242 0.00616781 0)
(-0.00415382 0.00808369 0)
(-0.00606511 0.00994621 0)
(-0.00826915 0.0117151 0)
(-0.010738 0.0133609 0)
(-0.013444 0.0148637 0)
(-0.0163601 0.0162104 0)
(-0.0194595 0.017394 0)
(-0.0227159 0.0184115 0)
(-0.0261034 0.0192632 0)
(-0.0295968 0.0199517 0)
(-0.0331712 0.0204805 0)
(-0.0368027 0.0208541 0)
(-0.0404675 0.0210769 0)
(-0.0441425 0.0211534 0)
(-0.0478051 0.0210876 0)
(-0.0514331 0.0208827 0)
(-0.0550044 0.0205418 0)
(-0.0584976 0.0200671 0)
(-0.0618912 0.0194607 0)
(-0.0651642 0.0187241 0)
(-0.0682957 0.0178591 0)
(-0.0712651 0.0168673 0)
(-0.0740525 0.015751 0)
(-0.0766379 0.0145127 0)
(-0.0790025 0.0131561 0)
(-0.0811277 0.0116854 0)
(-0.0829961 0.0101064 0)
(-0.0845911 0.00842599 0)
(-0.0858975 0.00665257 0)
(-0.0869016 0.00479605 0)
(-0.0875912 0.00286799 0)
(-0.0879561 0.000881531 0)
(-0.0879883 -0.00114856 0)
(-0.0876818 -0.00320597 0)
(-0.0870336 -0.00527297 0)
(-0.0860429 -0.00733051 0)
(-0.0847124 -0.00935844 0)
(-0.0830473 -0.0113357 0)
(-0.0810563 -0.0132407 0)
(-0.0787513 -0.0150516 0)
(-0.0761476 -0.0167462 0)
(-0.0732637 -0.0183033 0)
(-0.0701215 -0.0197022 0)
(-0.066746 -0.0209232 0)
(-0.0631653 -0.0219487 0)
(-0.0594101 -0.0227628 0)
(-0.0555139 -0.0233522 0)
(-0.0515121 -0.0237064 0)
(-0.047442 -0.023818 0)
(-0.043342 -0.0236835 0)
(-0.0392514 -0.0233028 0)
(-0.0352096 -0.02268 0)
(-0.0312552 -0.0218236 0)
(-0.0274261 -0.020746 0)
(-0.0237579 -0.0194645 0)
(-0.0202842 -0.0180006 0)
(-0.017035 -0.0163801 0)
(-0.0140366 -0.0146332 0)
(-0.011311 -0.0127947 0)
(-0.00887528 -0.0109033 0)
(-0.00674096 -0.00900208 0)
(-0.00491398 -0.00713823 0)
(-0.00339435 -0.00536328 0)
(-0.00217613 -0.00373313 0)
(-0.00124702 -0.00230825 0)
(-0.000588114 -0.00115375 0)
(-0.000181758 -0.000339406 0)
(-2.00341e-05 5.64247e-05 0)
(-7.65768e-05 0.00095697 0)
(-0.000518309 0.00310263 0)
(-0.00148157 0.00536774 0)
(-0.00287378 0.00766586 0)
(-0.00464262 0.00993113 0)
(-0.00675692 0.0121117 0)
(-0.00918432 0.0141682 0)
(-0.0118923 0.0160721 0)
(-0.0148497 0.0178039 0)
(-0.0180262 0.0193514 0)
(-0.0213927 0.0207079 0)
(-0.0249208 0.0218715 0)
(-0.0285828 0.0228429 0)
(-0.0323521 0.0236253 0)
(-0.0362027 0.024223 0)
(-0.0401094 0.0246411 0)
(-0.0440475 0.0248846 0)
(-0.047993 0.0249583 0)
(-0.0519223 0.0248667 0)
(-0.0558122 0.0246136 0)
(-0.0596399 0.0242021 0)
(-0.0633829 0.023635 0)
(-0.067019 0.0229143 0)
(-0.0705262 0.022042 0)
(-0.0738827 0.0210202 0)
(-0.0770672 0.0198508 0)
(-0.0800585 0.0185364 0)
(-0.082836 0.0170802 0)
(-0.0853798 0.0154864 0)
(-0.0876704 0.0137602 0)
(-0.0896896 0.0119081 0)
(-0.0914199 0.00993838 0)
(-0.0928452 0.00786067 0)
(-0.0939507 0.0056865 0)
(-0.0947237 0.00342921 0)
(-0.0951528 0.00110396 0)
(-0.0952293 -0.00127223 0)
(-0.0949466 -0.00368061 0)
(-0.0943006 -0.00610076 0)
(-0.0932901 -0.00851078 0)
(-0.0919169 -0.0108875 0)
(-0.090186 -0.0132067 0)
(-0.0881056 -0.0154434 0)
(-0.0856874 -0.0175724 0)
(-0.0829465 -0.0195683 0)
(-0.0799016 -0.0214062 0)
(-0.0765749 -0.023062 0)
(-0.0729919 -0.0245132 0)
(-0.0691817 -0.0257388 0)
(-0.0651761 -0.0267203 0)
(-0.0610099 -0.0274417 0)
(-0.0567204 -0.0278907 0)
(-0.0523467 -0.0280583 0)
(-0.0479297 -0.0279395 0)
(-0.0435109 -0.0275341 0)
(-0.0391327 -0.0268461 0)
(-0.0348367 -0.0258847 0)
(-0.0306638 -0.0246639 0)
(-0.026653 -0.023203 0)
(-0.0228411 -0.0215263 0)
(-0.0192614 -0.0196632 0)
(-0.0159438 -0.0176481 0)
(-0.0129134 -0.0155204 0)
(-0.0101904 -0.0133239 0)
(-0.00778948 -0.0111074 0)
(-0.0057196 -0.00892403 0)
(-0.0039836 -0.00683121 0)
(-0.00257833 -0.00489085 0)
(-0.00149408 -0.0031692 0)
(-0.000714295 -0.00173663 0)
(-0.000225274 -0.000667475 0)
(-2.62585e-05 -4.34564e-05 0)
(-8.56291e-05 0.00123372 0)
(-0.000576151 0.00388362 0)
(-0.00164163 0.0066079 0)
(-0.00317582 0.00932336 0)
(-0.00511764 0.0119667 0)
(-0.00743024 0.0144883 0)
(-0.0100761 0.0168504 0)
(-0.0130182 0.0190263 0)
(-0.0162217 0.0209976 0)
(-0.0196532 0.0227535 0)
(-0.0232811 0.0242885 0)
(-0.0270748 0.0256016 0)
(-0.0310051 0.0266946 0)
(-0.0350438 0.0275716 0)
(-0.0391639 0.0282378 0)
(-0.043339 0.0286989 0)
(-0.0475435 0.0289605 0)
(-0.0517526 0.0290282 0)
(-0.0559418 0.0289068 0)
(-0.0600874 0.0286004 0)
(-0.0641657 0.0281126 0)
(-0.0681535 0.0274463 0)
(-0.0720277 0.026604 0)
(-0.0757657 0.0255878 0)
(-0.0793449 0.0244001 0)
(-0.0827432 0.0230431 0)
(-0.0859386 0.0215199 0)
(-0.0889097 0.0198341 0)
(-0.0916358 0.0179906 0)
(-0.0940965 0.0159954 0)
(-0.0962727 0.013856 0)
(-0.098146 0.0115817 0)
(-0.0996995 0.00918356 0)
(-0.100917 0.00667471 0)
(-0.101786 0.00407025 0)
(-0.102293 0.00138738 0)
(-0.102428 -0.00135465 0)
(-0.102185 -0.00413458 0)
(-0.101558 -0.00692931 0)
(-0.100544 -0.009714 0)
(-0.0991458 -0.0124624 0)
(-0.0973664 -0.0151469 0)
(-0.0952136 -0.0177393 0)
(-0.0926985 -0.0202106 0)
(-0.0898358 -0.022532 0)
(-0.0866443 -0.0246749 0)
(-0.083146 -0.0266118 0)
(-0.0793669 -0.0283164 0)
(-0.0753365 -0.0297646 0)
(-0.0710878 -0.0309346 0)
(-0.0666567 -0.031808 0)
(-0.0620822 -0.0323697 0)
(-0.0574053 -0.0326089 0)
(-0.0526691 -0.0325194 0)
(-0.047918 -0.0320998 0)
(-0.043197 -0.0313544 0)
(-0.0385511 -0.0302926 0)
(-0.0340245 -0.0289298 0)
(-0.0296598 -0.0272873 0)
(-0.0254973 -0.0253922 0)
(-0.0215742 -0.0232773 0)
(-0.0179241 -0.0209813 0)
(-0.0145757 -0.0185481 0)
(-0.0115528 -0.0160272 0)
(-0.00887373 -0.0134728 0)
(-0.0065506 -0.010944 0)
(-0.00458946 -0.0085046 0)
(-0.00299018 -0.00622251 0)
(-0.00174576 -0.00416984 0)
(-0.000841971 -0.00242236 0)
(-0.000268844 -0.00105903 0)
(-3.23398e-05 -0.000165152 0)
(-9.43148e-05 0.00153935 0)
(-0.00063186 0.00474308 0)
(-0.00179612 0.00796832 0)
(-0.0034678 0.0111358 0)
(-0.00557749 0.0141854 0)
(-0.00808286 0.0170706 0)
(-0.0109414 0.0197562 0)
(-0.0141117 0.0222177 0)
(-0.0175551 0.0244389 0)
(-0.0212353 0.0264107 0)
(-0.025118 0.0281295 0)
(-0.0291708 0.0295954 0)
(-0.0333626 0.0308119 0)
(-0.0376641 0.0317841 0)
(-0.0420467 0.0325181 0)
(-0.0464834 0.0330207 0)
(-0.0509477 0.0332982 0)
(-0.055414 0.0333567 0)
(-0.0598573 0.0332016 0)
(-0.0642529 0.0328375 0)
(-0.0685769 0.0322682 0)
(-0.0728052 0.031497 0)
(-0.0769143 0.0305265 0)
(-0.0808808 0.0293593 0)
(-0.0846816 0.0279977 0)
(-0.0882938 0.0264445 0)
(-0.0916948 0.024703 0)
(-0.0948626 0.0227775 0)
(-0.0977755 0.0206733 0)
(-0.100412 0.0183972 0)
(-0.102753 0.0159578 0)
(-0.104779 0.0133653 0)
(-0.106472 0.0106322 0)
(-0.107814 0.00777304 0)
(-0.108792 0.00480482 0)
(-0.109392 0.00174667 0)
(-0.109603 -0.00137989 0)
(-0.109416 -0.00455115 0)
(-0.108825 -0.00774126 0)
(-0.107827 -0.0109224 0)
(-0.106421 -0.0140653 0)
(-0.104612 -0.0171388 0)
(-0.102404 -0.0201113 0)
(-0.0998097 -0.02295 0)
(-0.0968416 -0.0256224 0)
(-0.0935182 -0.028096 0)
(-0.0898615 -0.0303394 0)
(-0.0858976 -0.0323226 0)
(-0.0816564 -0.0340179 0)
(-0.0771715 -0.0354001 0)
(-0.07248 -0.0364474 0)
(-0.0676224 -0.0371423 0)
(-0.0626417 -0.0374714 0)
(-0.0575833 -0.0374269 0)
(-0.0524943 -0.0370062 0)
(-0.0474227 -0.0362131 0)
(-0.042417 -0.0350573 0)
(-0.037525 -0.0335553 0)
(-0.0327932 -0.0317303 0)
(-0.0282661 -0.0296119 0)
(-0.0239848 -0.0272364 0)
(-0.0199872 -0.0246467 0)
(-0.0163061 -0.0218916 0)
(-0.0129694 -0.0190258 0)
(-0.00999909 -0.0161096 0)
(-0.00741118 -0.0132082 0)
(-0.0052151 -0.0103917 0)
(-0.00341396 -0.00773441 0)
(-0.00200359 -0.00531451 0)
(-0.000972019 -0.00321343 0)
(-0.000312836 -0.00151506 0)
(-3.8356e-05 -0.000308701 0)
(-0.000102641 0.00187275 0)
(-0.000685393 0.00567816 0)
(-0.00194477 0.00944489 0)
(-0.00374909 0.0130981 0)
(-0.00602098 0.0165817 0)
(-0.00871288 0.0198526 0)
(-0.0117774 0.0228792 0)
(-0.015169 0.0256399 0)
(-0.0188453 0.0281212 0)
(-0.0227671 0.0303164 0)
(-0.0268975 0.032224 0)
(-0.0312021 0.0338461 0)
(-0.0356483 0.0351879 0)
(-0.0402052 0.0362557 0)
(-0.0448434 0.0370571 0)
(-0.0495349 0.0375998 0)
(-0.0542524 0.0378911 0)
(-0.0589697 0.0379377 0)
(-0.0636612 0.0377457 0)
(-0.0683018 0.03732 0)
(-0.0728669 0.0366649 0)
(-0.0773322 0.0357837 0)
(-0.0816736 0.0346796 0)
(-0.0858672 0.0333552 0)
(-0.0898894 0.0318131 0)
(-0.0937167 0.0300564 0)
(-0.097326 0.0280888 0)
(-0.100694 0.0259148 0)
(-0.1038 0.0235405 0)
(-0.10662 0.0209734 0)
(-0.109135 0.0182227 0)
(-0.111324 0.0153 0)
(-0.113167 0.0122188 0)
(-0.114648 0.00899531 0)
(-0.115751 0.00564805 0)
(-0.11646 0.00219818 0)
(-0.116763 -0.00133063 0)
(-0.116651 -0.00491218 0)
(-0.116116 -0.00851794 0)
(-0.115153 -0.0121172 0)
(-0.11376 -0.0156772 0)
(-0.11194 -0.0191638 0)
(-0.109697 -0.0225413 0)
(-0.107041 -0.0257734 0)
(-0.103984 -0.0288234 0)
(-0.100545 -0.0316549 0)
(-0.096744 -0.0342323 0)
(-0.0926073 -0.0365215 0)
(-0.0881649 -0.0384907 0)
(-0.083451 -0.040111 0)
(-0.0785037 -0.0413571 0)
(-0.0733648 -0.0422081 0)
(-0.0680793 -0.0426481 0)
(-0.062695 -0.0426669 0)
(-0.0572616 -0.0422605 0)
(-0.0518307 -0.0414317 0)
(-0.0464541 -0.0401904 0)
(-0.0411837 -0.0385536 0)
(-0.0360703 -0.0365463 0)
(-0.0311627 -0.0342006 0)
(-0.026507 -0.0315562 0)
(-0.0221452 -0.0286601 0)
(-0.018115 -0.0255659 0)
(-0.0144487 -0.0223341 0)
(-0.0111727 -0.0190309 0)
(-0.00830705 -0.0157279 0)
(-0.0058649 -0.0125019 0)
(-0.00385285 -0.00943389 0)
(-0.00226966 -0.00660844 0)
(-0.00110562 -0.00411306 0)
(-0.000357725 -0.00203707 0)
(-4.43974e-05 -0.000474368 0)
(-0.000110609 0.0022328 0)
(-0.00073669 0.0066859 0)
(-0.00208734 0.0110332 0)
(-0.00401908 0.0152048 0)
(-0.00644701 0.0191491 0)
(-0.00931857 0.0228275 0)
(-0.0125818 0.0262123 0)
(-0.016187 0.0292855 0)
(-0.0200884 0.0320369 0)
(-0.0242437 0.0344629 0)
(-0.028614 0.0365645 0)
(-0.0331625 0.0383462 0)
(-0.0378552 0.039815 0)
(-0.0426599 0.0409792 0)
(-0.0475463 0.0418477 0)
(-0.0524853 0.0424295 0)
(-0.0574492 0.0427329 0)
(-0.0624113 0.0427655 0)
(-0.0673453 0.0425337 0)
(-0.072226 0.0420433 0)
(-0.0770282 0.0412987 0)
(-0.0817273 0.0403037 0)
(-0.0862988 0.0390616 0)
(-0.0907186 0.0375751 0)
(-0.0949624 0.0358472 0)