/*--------------------------------*- C++ -*----------------------------------*\
  =========                 |
  \\      /  F ield         | OpenFOAM: The Open Source CFD Toolbox
   \\    /   O peration     | Website:  https://openfoam.org
    \\  /    A nd           | Version:  dev
     \\/     M anipulation  |
\*---------------------------------------------------------------------------*/
FoamFile
{
    format      ascii;
    class       volScalarField;
    location    "23.85";
    object      Ux;
}
// * * * * * * * * * * * * * * * * * * * * * * * * * * * * * * * * * * * * * //

dimensions      [0 1 -1 0 0 0 0];

internalField   nonuniform List<scalar> 
5184
(
1.22357e-05
4.501e-05
8.02034e-05
9.58667e-05
8.20339e-05
3.63406e-05
-4.0655e-05
-0.000146934
-0.000279708
-0.000435918
-0.000612447
-0.00080626
-0.00101449
-0.00123448
-0.00146376
-0.00170009
-0.00194138
-0.00218573
-0.00243135
-0.00267657
-0.00291976
-0.00315938
-0.0033939
-0.00362179
-0.00384153
-0.00405157
-0.00425037
-0.00443636
-0.00460794
-0.00476355
-0.00490163
-0.00502065
-0.00511916
-0.00519578
-0.00524925
-0.00527846
-0.00528245
-0.00526051
-0.00521214
-0.0051371
-0.00503546
-0.00490759
-0.00475419
-0.00457633
-0.0043754
-0.00415315
-0.00391168
-0.00365342
-0.00338108
-0.00309767
-0.00280643
-0.00251077
-0.00221427
-0.00192058
-0.00163337
-0.00135628
-0.00109284
-0.000846421
-0.000620173
-0.000416945
-0.000239231
-8.91093e-05
3.18315e-05
0.000122576
0.000182792
0.00021298
0.000214726
0.000191076
0.000147052
9.07447e-05
3.66107e-05
6.22533e-06
2.07833e-05
6.54779e-05
9.45397e-05
7.26225e-05
-1.91049e-05
-0.000187452
-0.000432993
-0.000752508
-0.00114045
-0.00159005
-0.00209396
-0.00264473
-0.00323507
-0.00385797
-0.00450685
-0.0051755
-0.00585813
-0.0065493
-0.00724388
-0.00793698
-0.00862391
-0.00930012
-0.00996114
-0.0106025
-0.0112199
-0.0118089
-0.0123651
-0.012884
-0.0133613
-0.0137926
-0.0141737
-0.0145006
-0.0147693
-0.0149761
-0.0151179
-0.0151918
-0.0151953
-0.0151268
-0.0149852
-0.01477
-0.0144816
-0.0141212
-0.0136911
-0.0131941
-0.0126343
-0.0120165
-0.0113464
-0.0106307
-0.0098768
-0.0090927
-0.00828714
-0.00746929
-0.00664868
-0.00583503
-0.00503812
-0.00426762
-0.0035329
-0.00284288
-0.00220584
-0.00162924
-0.00111957
-0.000682118
-0.000320802
-3.79069e-05
0.000166197
0.000293428
0.000348531
0.000339766
0.000279614
0.000185912
8.63109e-05
1.96669e-05
1.76007e-05
4.12291e-05
1.94522e-05
-8.41528e-05
-0.000290357
-0.000607906
-0.00103806
-0.001577
-0.00221756
-0.00295056
-0.00376573
-0.00465236
-0.00559974
-0.00659741
-0.00763532
-0.00870392
-0.00979412
-0.0108973
-0.0120054
-0.0131104
-0.0142047
-0.0152812
-0.0163324
-0.0173513
-0.0183307
-0.0192638
-0.0201433
-0.0209625
-0.0217143
-0.0223921
-0.0229892
-0.0234995
-0.0239169
-0.024236
-0.0244519
-0.0245605
-0.0245581
-0.0244425
-0.0242121
-0.0238665
-0.0234066
-0.0228345
-0.0221536
-0.021369
-0.0204866
-0.0195143
-0.0184608
-0.0173365
-0.0161526
-0.0149217
-0.013657
-0.0123725
-0.0110828
-0.00980265
-0.00854702
-0.00733056
-0.00616751
-0.00507141
-0.00405477
-0.00312889
-0.00230348
-0.00158644
-0.000983511
-0.000497923
-0.000129993
0.000123345
0.000269175
0.000319333
0.000290941
0.000207208
0.000102371
2.49585e-05
8.81782e-06
-7.07171e-06
-0.000107656
-0.000322399
-0.000669524
-0.00115743
-0.00178686
-0.00255305
-0.00344746
-0.00445906
-0.00557538
-0.00678323
-0.00806919
-0.00942003
-0.0108228
-0.0122652
-0.0137353
-0.0152215
-0.0167132
-0.0181996
-0.0196706
-0.0211162
-0.0225266
-0.0238923
-0.0252036
-0.0264512
-0.0276257
-0.0287178
-0.0297184
-0.0306186
-0.0314098
-0.032084
-0.0326334
-0.0330511
-0.0333307
-0.0334672
-0.0334561
-0.0332946
-0.032981
-0.0325149
-0.0318978
-0.0311328
-0.0302244
-0.0291793
-0.0280056
-0.0267135
-0.0253145
-0.023822
-0.0222508
-0.020617
-0.0189379
-0.0172314
-0.0155165
-0.0138123
-0.0121379
-0.0105122
-0.00895378
-0.00747986
-0.00610665
-0.00484861
-0.00371826
-0.00272568
-0.00187822
-0.00118
-0.000631504
-0.000229026
3.58938e-05
0.000177136
0.000214414
0.000173878
9.29376e-05
2.40081e-05
-2.13761e-06
-6.73129e-05
-0.000264089
-0.000609633
-0.00111642
-0.00179066
-0.00263135
-0.00363212
-0.00478286
-0.00607084
-0.00748173
-0.00900029
-0.0106109
-0.0122981
-0.0140465
-0.0158414
-0.0176683
-0.0195135
-0.0213636
-0.0232056
-0.025027
-0.0268154
-0.0285588
-0.0302452
-0.0318629
-0.0334003
-0.0348459
-0.0361883
-0.0374165
-0.0385198
-0.0394878
-0.0403107
-0.0409794
-0.0414856
-0.0418221
-0.0419826
-0.0419623
-0.0417579
-0.0413676
-0.0407913
-0.0400309
-0.0390903
-0.0379752
-0.0366938
-0.0352558
-0.0336736
-0.0319611
-0.0301343
-0.028211
-0.0262103
-0.0241529
-0.0220604
-0.0199551
-0.01786
-0.0157978
-0.0137913
-0.0118622
-0.0100313
-0.00831797
-0.00673947
-0.00531076
-0.00404395
-0.00294792
-0.00202781
-0.00128457
-0.000714436
-0.000308434
-5.18102e-05
7.62958e-05
0.000103373
6.74128e-05
1.96462e-05
-1.36981e-05
-0.000132811
-0.000435695
-0.000924302
-0.00160325
-0.0024751
-0.003536
-0.00477726
-0.0061868
-0.0077501
-0.00945103
-0.0112726
-0.0131972
-0.0152074
-0.0172859
-0.0194159
-0.0215808
-0.0237648
-0.0259523
-0.0281282
-0.0302779
-0.032387
-0.0344412
-0.0364266
-0.0383295
-0.0401362
-0.0418335
-0.043408
-0.044847
-0.0461381
-0.0472695
-0.0482299
-0.0490089
-0.0495972
-0.0499866
-0.0501701
-0.0501424
-0.0498998
-0.0494404
-0.0487645
-0.0478744
-0.0467745
-0.0454718
-0.0439754
-0.0422968
-0.04045
-0.0384511
-0.0363182
-0.0340716
-0.0317333
-0.0293267
-0.0268764
-0.024408
-0.0219475
-0.0195209
-0.0171542
-0.0148724
-0.0126991
-0.0106566
-0.00876474
-0.00704074
-0.00549871
-0.00414914
-0.00299838
-0.00204821
-0.00129538
-0.000731119
-0.000340712
-0.000103225
8.95834e-06
3.241e-05
1.36026e-05
-2.51803e-05
-0.00019994
-0.000613824
-0.00125234
-0.00211102
-0.0031877
-0.00447481
-0.00596066
-0.00763074
-0.00946852
-0.011456
-0.0135744
-0.0158046
-0.0181272
-0.0205232
-0.022974
-0.0254613
-0.0279674
-0.0304747
-0.0329665
-0.0354261
-0.0378373
-0.040184
-0.0424505
-0.0446212
-0.0466807
-0.048614
-0.0504063
-0.0520432
-0.0535109
-0.0547961
-0.0558864
-0.0567702
-0.0574373
-0.0578785
-0.0580864
-0.0580551
-0.0577806
-0.0572611
-0.0564968
-0.0554904
-0.0542469
-0.0527741
-0.0510821
-0.0491838
-0.0470945
-0.0448321
-0.0424166
-0.0398705
-0.0372181
-0.0344851
-0.031699
-0.0288881
-0.0260811
-0.0233072
-0.0205949
-0.0179723
-0.0154659
-0.0131004
-0.0108983
-0.00887901
-0.00705877
-0.00544977
-0.00405986
-0.00289206
-0.00194407
-0.00120796
-0.000669819
-0.00030944
-0.000100017
-7.78819e-06
6.84417e-06
-3.63258e-05
-0.000266817
-0.000793356
-0.00158481
-0.00262703
-0.00391245
-0.00542911
-0.00716173
-0.00909299
-0.011204
-0.013475
-0.0158851
-0.0184137
-0.0210398
-0.0237429
-0.0265027
-0.0292994
-0.0321135
-0.0349261
-0.0377187
-0.0404729
-0.043171
-0.0457952
-0.0483282
-0.0507527
-0.053052
-0.0552094
-0.0572087
-0.0590341
-0.0606705
-0.0621034
-0.0633192
-0.0643055
-0.065051
-0.0655458
-0.0657819
-0.0657529
-0.0654545
-0.0648847
-0.0640438
-0.0629348
-0.061563
-0.0599367
-0.058067
-0.0559677
-0.0536552
-0.0511489
-0.0484706
-0.0456444
-0.0426965
-0.0396552
-0.03655
-0.0334117
-0.0302717
-0.0271618
-0.0241134
-0.021157
-0.018322
-0.0156357
-0.0131231
-0.010806
-0.00870269
-0.00682746
-0.00518991
-0.00379464
-0.00264083
-0.0017219
-0.0010253
-0.000532214
-0.000217318
-5.05161e-05
-9.80336e-08
-4.7038e-05
-0.00033246
-0.000971298
-0.00191611
-0.0031429
-0.00463831
-0.00638554
-0.0083653
-0.0105571
-0.0129396
-0.0154906
-0.0181877
-0.0210084
-0.0239304
-0.0269317
-0.0299904
-0.0330855
-0.036196
-0.0393017
-0.0423825
-0.0454188
-0.0483913
-0.0512809
-0.0540688
-0.0567364
-0.0592655
-0.0616381
-0.0638368
-0.0658445
-0.0676449
-0.0692224
-0.0705624
-0.0716516
-0.0724777
-0.0730303
-0.0733006
-0.0732817
-0.072969
-0.0723602
-0.0714555
-0.0702577
-0.0687727
-0.0670091
-0.0649783
-0.062695
-0.0601767
-0.0574437
-0.0545191
-0.0514287
-0.0482005
-0.0448645
-0.0414526
-0.0379976
-0.0345335
-0.0310946
-0.0277148
-0.0244275
-0.0212647
-0.0182563
-0.01543
-0.01281
-0.0104171
-0.00826785
-0.00637387
-0.00474177
-0.00337259
-0.00226158
-0.00139802
-0.000764978
-0.000339042
-9.42162e-05
-6.95403e-06
-5.73045e-05
-0.000396387
-0.00114591
-0.00224272
-0.00365307
-0.00535764
-0.00733452
-0.00956016
-0.0120106
-0.0146617
-0.0174891
-0.0204684
-0.0235754
-0.0267864
-0.0300778
-0.0334268
-0.0368109
-0.0402079
-0.0435964
-0.0469551
-0.0502632
-0.0535001
-0.0566454
-0.0596792
-0.0625817
-0.0653334
-0.0679152
-0.0703085
-0.072495
-0.0744575
-0.0761794
-0.077645
-0.0788401
-0.0797517
-0.0803685
-0.0806811
-0.080682
-0.0803661
-0.0797307
-0.0787757
-0.0775039
-0.075921
-0.0740357
-0.0718599
-0.0694087
-0.0667002
-0.0637557
-0.0605993
-0.057258
-0.0537615
-0.0501414
-0.0464314
-0.0426668
-0.0388838
-0.0351189
-0.0314091
-0.0277901
-0.0242968
-0.0209621
-0.0178161
-0.0148862
-0.0121955
-0.00976317
-0.0076034
-0.00572509
-0.00413153
-0.00282016
-0.00178252
-0.00100386
-0.000462978
-0.000138072
-1.36082e-05
-6.71426e-05
-0.000458371
-0.0013162
-0.00256242
-0.00415382
-0.00606511
-0.00826915
-0.010738
-0.013444
-0.0163601
-0.0194595
-0.0227159
-0.0261034
-0.0295968
-0.0331712
-0.0368027
-0.0404675
-0.0441425
-0.0478051
-0.0514331
-0.0550044
-0.0584976
-0.0618912
-0.0651642
-0.0682957
-0.0712651
-0.0740525
-0.0766379
-0.0790025
-0.0811277
-0.0829961
-0.0845911
-0.0858975
-0.0869016
-0.0875912
-0.0879561
-0.0879883
-0.0876818
-0.0870336
-0.0860429
-0.0847124
-0.0830473
-0.0810563
-0.0787513
-0.0761476
-0.0732637
-0.0701215
-0.066746
-0.0631653
-0.0594101
-0.0555139
-0.0515121
-0.047442
-0.043342
-0.0392514
-0.0352096
-0.0312552
-0.0274261
-0.0237579
-0.0202842
-0.017035
-0.0140366
-0.011311
-0.00887528
-0.00674096
-0.00491398
-0.00339435
-0.00217613
-0.00124702
-0.000588114
-0.000181758
-2.00341e-05
-7.65768e-05
-0.000518309
-0.00148157
-0.00287378
-0.00464262
-0.00675692
-0.00918432
-0.0118923
-0.0148497
-0.0180262
-0.0213927
-0.0249208
-0.0285828
-0.0323521
-0.0362027
-0.0401094
-0.0440475
-0.047993
-0.0519223
-0.0558122
-0.0596399
-0.0633829
-0.067019
-0.0705262
-0.0738827
-0.0770672
-0.0800585
-0.082836
-0.0853798
-0.0876704
-0.0896896
-0.0914199
-0.0928452
-0.0939507
-0.0947237
-0.0951528
-0.0952293
-0.0949466
-0.0943006
-0.0932901
-0.0919169
-0.090186
-0.0881056
-0.0856874
-0.0829465
-0.0799016
-0.0765749
-0.0729919
-0.0691817
-0.0651761
-0.0610099
-0.0567204
-0.0523467
-0.0479297
-0.0435109
-0.0391327
-0.0348367
-0.0306638
-0.026653
-0.0228411
-0.0192614
-0.0159438
-0.0129134
-0.0101904
-0.00778948
-0.0057196
-0.0039836
-0.00257833
-0.00149408
-0.000714295
-0.000225274
-2.62585e-05
-8.56291e-05
-0.000576151
-0.00164163
-0.00317582
-0.00511764
-0.00743024
-0.0100761
-0.0130182
-0.0162217
-0.0196532
-0.0232811
-0.0270748
-0.0310051
-0.0350438
-0.0391639
-0.043339
-0.0475435
-0.0517526
-0.0559418
-0.0600874
-0.0641657
-0.0681535
-0.0720277
-0.0757657
-0.0793449
-0.0827432
-0.0859386
-0.0889097
-0.0916358
-0.0940965
-0.0962727
-0.098146
-0.0996995
-0.100917
-0.101786
-0.102293
-0.102428
-0.102185
-0.101558
-0.100544
-0.0991458
-0.0973664
-0.0952136
-0.0926985
-0.0898358
-0.0866443
-0.083146
-0.0793669
-0.0753365
-0.0710878
-0.0666567
-0.0620822
-0.0574053
-0.0526691
-0.047918
-0.043197
-0.0385511
-0.0340245
-0.0296598
-0.0254973
-0.0215742
-0.0179241
-0.0145757
-0.0115528
-0.00887373
-0.0065506
-0.00458946
-0.00299018
-0.00174576
-0.000841971
-0.000268844
-3.23398e-05
-9.43148e-05
-0.00063186
-0.00179612
-0.0034678
-0.00557749
-0.00808286
-0.0109414
-0.0141117
-0.0175551
-0.0212353
-0.025118
-0.0291708
-0.0333626
-0.0376641
-0.0420467
-0.0464834
-0.0509477
-0.055414
-0.0598573
-0.0642529
-0.0685769
-0.0728052
-0.0769143
-0.0808808
-0.0846816
-0.0882938
-0.0916948
-0.0948626
-0.0977755
-0.100412
-0.102753
-0.104779
-0.106472
-0.107814
-0.108792
-0.109392
-0.109603
-0.109416
-0.108825
-0.107827
-0.106421
-0.104612
-0.102404
-0.0998097
-0.0968416
-0.0935182
-0.0898615
-0.0858976
-0.0816564
-0.0771715
-0.07248
-0.0676224
-0.0626417
-0.0575833
-0.0524943
-0.0474227
-0.042417
-0.037525
-0.0327932
-0.0282661
-0.0239848
-0.0199872
-0.0163061
-0.0129694
-0.00999909
-0.00741118
-0.0052151
-0.00341396
-0.00200359
-0.000972019
-0.000312836
-3.8356e-05
-0.000102641
-0.000685393
-0.00194477
-0.00374909
-0.00602098
-0.00871288
-0.0117774
-0.015169
-0.0188453
-0.0227671
-0.0268975
-0.0312021
-0.0356483
-0.0402052
-0.0448434
-0.0495349
-0.0542524
-0.0589697
-0.0636612
-0.0683018
-0.0728669
-0.0773322
-0.0816736
-0.0858672
-0.0898894
-0.0937167
-0.097326
-0.100694
-0.1038
-0.10662
-0.109135
-0.111324
-0.113167
-0.114648
-0.115751
-0.11646
-0.116763
-0.116651
-0.116116
-0.115153
-0.11376
-0.11194
-0.109697
-0.107041
-0.103984
-0.100545
-0.096744
-0.0926073
-0.0881649
-0.083451
-0.0785037
-0.0733648
-0.0680793
-0.062695
-0.0572616
-0.0518307
-0.0464541
-0.0411837
-0.0360703
-0.0311627
-0.026507
-0.0221452
-0.018115
-0.0144487
-0.0111727
-0.00830705
-0.0058649
-0.00385285
-0.00226966
-0.00110562
-0.000357725
-4.43974e-05
-0.000110609
-0.00073669
-0.00208734
-0.00401908
-0.00644701
-0.00931857
-0.0125818
-0.016187
-0.0200884
-0.0242437
-0.028614
-0.0331625
-0.0378552
-0.0426599
-0.0475463
-0.0524853
-0.0574492
-0.0624113
-0.0673453
-0.072226
-0.0770282
-0.0817273
-0.0862988
-0.0907186
-0.0949624
-0.0990066
-0.102827
-0.106401
-0.109706
-0.112718
-0.115416
-0.117779
-0.119787
-0.121421
-0.122664
-0.1235
-0.123915
-0.123897
-0.123438
-0.122531
-0.121172
-0.119362
-0.117104
-0.114406
-0.11128
-0.107741
-0.103811
-0.0995147
-0.0948818
-0.0899469
-0.084749
-0.0793312
-0.0737402
-0.0680261
-0.0622418
-0.0564421
-0.0506827
-0.04502
-0.0395092
-0.0342042
-0.0291559
-0.0244116
-0.0200143
-0.0160011
-0.0124032
-0.00924507
-0.00654415
-0.00431066
-0.00254648
-0.00124417
-0.000404052
-5.05617e-05
-0.000118212
-0.000785668
-0.00222353
-0.00427714
-0.00685448
-0.00989826
-0.0133522
-0.0171626
-0.0212804
-0.0256607
-0.0302619
-0.0350457
-0.0399764
-0.0450208
-0.0501473
-0.0553264
-0.0605297
-0.0657299
-0.0709006
-0.0760162
-0.0810513
-0.085981
-0.0907807
-0.0954257
-0.0998919
-0.104155
-0.108191
-0.111976
-0.115486
-0.118698
-0.12159
-0.12414
-0.126326
-0.128129
-0.129529
-0.13051
-0.131056
-0.131154
-0.130792
-0.129962
-0.12866
-0.126882
-0.124631
-0.121913
-0.118737
-0.115118
-0.111075
-0.106634
-0.101822
-0.0966761
-0.091234
-0.0855405
-0.079644
-0.0735971
-0.0674555
-0.0612776
-0.0551233
-0.0490536
-0.0431287
-0.037408
-0.0319478
-0.0268014
-0.0220171
-0.0176378
-0.0136999
-0.010233
-0.00725878
-0.00479169
-0.00283687
-0.00138921
-0.000452406
-5.69513e-05
-0.000125437
-0.000832223
-0.00235303
-0.00452262
-0.00724226
-0.0104502
-0.0140862
-0.0180927
-0.0224175
-0.0270132
-0.0318359
-0.0368456
-0.0420052
-0.0472801
-0.0526383
-0.0580493
-0.0634843
-0.0689158
-0.074317
-0.0796621
-0.0849256
-0.0900825
-0.095108
-0.0999775
-0.104666
-0.10915
-0.113405
-0.117405
-0.121128
-0.124549
-0.127646
-0.130394
-0.132773
-0.13476
-0.136335
-0.13748
-0.138178
-0.138412
-0.13817
-0.137442
-0.136219
-0.134498
-0.132277
-0.129561
-0.126357
-0.122679
-0.118543
-0.113973
-0.108997
-0.103651
-0.0979727
-0.0920083
-0.0858079
-0.079426
-0.0729216
-0.0663566
-0.0597954
-0.0533039
-0.0469478
-0.0407922
-0.0348998
-0.0293299
-0.0241373
-0.0193709
-0.0150732
-0.011279
-0.0080152
-0.00530059
-0.00314385
-0.0015424
-0.000503408
-6.36712e-05
-0.000132267
-0.000876231
-0.00247546
-0.00475478
-0.00760916
-0.0109728
-0.0147814
-0.0189742
-0.0234959
-0.0282967
-0.0333306
-0.038556
-0.0439344
-0.0494303
-0.0550107
-0.0606448
-0.0663033
-0.0719584
-0.0775832
-0.0831518
-0.0886387
-0.0940188
-0.0992674
-0.10436
-0.109271
-0.113977
-0.118454
-0.122675
-0.126617
-0.130256
-0.133567
-0.136526
-0.139111
-0.141298
-0.143066
-0.144395
-0.145264
-0.145658
-0.145559
-0.144956
-0.143838
-0.142198
-0.140033
-0.137344
-0.134137
-0.130421
-0.126213
-0.121533
-0.11641
-0.110877
-0.104974
-0.0987459
-0.0922449
-0.0855278
-0.0786565
-0.0716966
-0.0647173
-0.0577894
-0.0509848
-0.0443747
-0.0380287
-0.0320129
-0.0263891
-0.021213
-0.0165336
-0.0123918
-0.00882016
-0.00584221
-0.0034706
-0.00170546
-0.0005577
-7.08281e-05
-0.000138679
-0.000917547
-0.00259042
-0.00497284
-0.00795393
-0.011464
-0.0154354
-0.0198039
-0.0245117
-0.0295064
-0.0347405
-0.0401705
-0.0457569
-0.0514632
-0.0572558
-0.0631032
-0.0689761
-0.0748463
-0.0806871
-0.0864724
-0.0921768
-0.0977755
-0.103244
-0.108557
-0.11369
-0.118619
-0.123319
-0.127765
-0.131933
-0.135796
-0.139332
-0.142514
-0.145318
-0.147721
-0.149699
-0.15123
-0.152293
-0.152867
-0.152936
-0.152483
-0.151496
-0.149964
-0.147882
-0.145246
-0.142061
-0.138334
-0.134077
-0.12931
-0.124059
-0.118356
-0.112241
-0.105759
-0.0989639
-0.0919137
-0.0846734
-0.0773126
-0.069905
-0.062527
-0.0552569
-0.0481727
-0.0413511
-0.034866
-0.0287867
-0.0231766
-0.0180919
-0.0135803
-0.00968055
-0.00642156
-0.00382036
-0.00188014
-0.000615937
-7.85295e-05
-0.000144648
-0.000956012
-0.00269747
-0.00517598
-0.00827526
-0.0119222
-0.0160456
-0.0205786
-0.0254608
-0.0306376
-0.0360598
-0.0416826
-0.0474653
-0.0533705
-0.0593642
-0.0654144
-0.0714916
-0.0775676
-0.0836156
-0.0896098
-0.0955249
-0.101336
-0.107019
-0.11255
-0.117903
-0.123054
-0.127979
-0.132653
-0.13705
-0.141146
-0.144913
-0.148328
-0.151365
-0.153998
-0.156203
-0.157955
-0.159232
-0.16001
-0.16027
-0.159993
-0.159163
-0.157767
-0.155796
-0.153243
-0.150109
-0.146397
-0.142118
-0.137289
-0.131933
-0.126081
-0.11977
-0.113048
-0.105968
-0.0985898
-0.0909813
-0.0832158
-0.0753718
-0.0675316
-0.0597798
-0.0522019
-0.0448827
-0.0379042
-0.0313442
-0.0252743
-0.019759
-0.0148535
-0.0106034
-0.00704373
-0.00419645
-0.00206825
-0.000678782
-8.68834e-05
-0.000150146
-0.000991459
-0.00279617
-0.00536335
-0.00857182
-0.0123452
-0.0166096
-0.0212951
-0.0263393
-0.0316855
-0.0372831
-0.0430858
-0.049052
-0.0551438
-0.0613264
-0.0675678
-0.0738382
-0.0801094
-0.0863548
-0.0925487
-0.0986663
-0.104683
-0.110575
-0.116318
-0.121887
-0.127259
-0.132409
-0.137312
-0.141942
-0.146273
-0.150281
-0.153938
-0.157218
-0.160095
-0.162542
-0.164533
-0.166043
-0.167047
-0.167522
-0.167447
-0.166802
-0.165571
-0.16374
-0.161301
-0.158248
-0.154583
-0.150311
-0.145448
-0.140013
-0.134035
-0.127551
-0.120606
-0.113254
-0.105557
-0.0975842
-0.0894134
-0.0811275
-0.0728147
-0.0645667
-0.0564768
-0.0486381
-0.0411418
-0.0340749
-0.0275184
-0.0215456
-0.0162202
-0.0115957
-0.0077138
-0.00460219
-0.00227158
-0.000746904
-9.59989e-05
-0.000155144
-0.00102371
-0.00288603
-0.00553408
-0.00884224
-0.0127313
-0.0171247
-0.0219502
-0.0271431
-0.0326453
-0.0384045
-0.0443735
-0.0505096
-0.0567745
-0.0631329
-0.0695526
-0.0760037
-0.0824582
-0.0888898
-0.0952731
-0.101584
-0.107797
-0.11389
-0.119839
-0.12562
-0.131208
-0.13658
-0.141711
-0.146575
-0.151146
-0.155398
-0.159304
-0.162837
-0.165969
-0.168672
-0.170919
-0.172681
-0.173932
-0.174646
-0.174798
-0.174366
-0.173329
-0.171669
-0.169375
-0.166436
-0.162851
-0.15862
-0.153754
-0.148271
-0.142196
-0.135563
-0.128418
-0.120812
-0.112809
-0.10448
-0.0959074
-0.0871774
-0.0783847
-0.0696281
-0.0610091
-0.05263
-0.0445918
-0.0369916
-0.0299205
-0.023462
-0.0176892
-0.0126643
-0.00843686
-0.00504092
-0.00249195
-0.000820974
-0.000105986
-0.000159612
-0.0010526
-0.0029666
-0.00568731
-0.0090852
-0.0130786
-0.0175885
-0.0225406
-0.0278684
-0.0335123
-0.0394185
-0.0455391
-0.0518306
-0.0582539
-0.0647738
-0.0713577
-0.0779758
-0.0846005
-0.0912056
-0.097766
-0.104258
-0.110658
-0.116942
-0.123088
-0.129073
-0.134872
-0.140461
-0.145817
-0.150914
-0.155725
-0.160224
-0.164384
-0.168177
-0.171574
-0.174545
-0.177061
-0.179092
-0.18061
-0.181585
-0.181989
-0.181797
-0.180983
-0.179528
-0.177412
-0.174622
-0.171152
-0.166998
-0.162165
-0.156669
-0.150529
-0.143778
-0.136458
-0.128622
-0.120332
-0.111661
-0.102694
-0.0935218
-0.0842454
-0.0749707
-0.0658079
-0.056869
-0.0482654
-0.0401054
-0.0324915
-0.025518
-0.0192688
-0.013816
-0.00921789
-0.00551594
-0.00273117
-0.000901665
-0.000116954
-0.00016352
-0.00107794
-0.00303744
-0.00582223
-0.00929944
-0.0133853
-0.0179986
-0.0230634
-0.0285115
-0.0342818
-0.0403198
-0.0465763
-0.0530074
-0.0595737
-0.0662394
-0.0729721
-0.0797422
-0.0865222
-0.0932863
-0.10001
-0.10667
-0.113244
-0.119708
-0.126041
-0.132219
-0.13822
-0.14402
-0.149595
-0.15492
-0.159969
-0.164715
-0.169131
-0.173187
-0.176855
-0.180103
-0.182901
-0.185217
-0.187019
-0.188276
-0.188956
-0.18903
-0.18847
-0.187249
-0.185347
-0.182743
-0.179425
-0.175387
-0.170627
-0.165155
-0.158989
-0.152156
-0.144695
-0.136657
-0.128104
-0.11911
-0.109762
-0.100155
-0.0903954
-0.080597
-0.0708787
-0.0613628
-0.0521719
-0.0434264
-0.0352412
-0.0277228
-0.0209671
-0.0150573
-0.0100618
-0.00603048
-0.00299101
-0.000989648
-0.000129017
-0.000166841
-0.0010996
-0.00309813
-0.00593807
-0.00948378
-0.0136496
-0.0183528
-0.0235157
-0.0290687
-0.0349498
-0.0411032
-0.0474791
-0.0540332
-0.0607255
-0.0675202
-0.0743851
-0.0812905
-0.0882094
-0.0951165
-0.101988
-0.108801
-0.115533
-0.122163
-0.128669
-0.135029
-0.14122
-0.147221
-0.153006
-0.158552
-0.163833
-0.168823
-0.173493
-0.177814
-0.181756
-0.185287
-0.188376
-0.190988
-0.193089
-0.194646
-0.195624
-0.195991
-0.195712
-0.194759
-0.193104
-0.190724
-0.1876
-0.183718
-0.179074
-0.173671
-0.16752
-0.160646
-0.153083
-0.144878
-0.136093
-0.126802
-0.117092
-0.107064
-0.0968275
-0.0865045
-0.076223
-0.0661159
-0.056318
-0.0469626
-0.0381779
-0.0300845
-0.0227914
-0.0163943
-0.0109732
-0.00658773
-0.00327325
-0.0010856
-0.000142286
-0.000169552
-0.00111742
-0.0031483
-0.0060342
-0.00963722
-0.0138703
-0.0186492
-0.0238951
-0.0295372
-0.0355123
-0.041764
-0.048242
-0.0549012
-0.0617016
-0.0686073
-0.0755861
-0.0826087
-0.0896484
-0.0966805
-0.103682
-0.11063
-0.117504
-0.124283
-0.130946
-0.137472
-0.14384
-0.150027
-0.156011
-0.161767
-0.167272
-0.172497
-0.177416
-0.181998
-0.186214
-0.190031
-0.193416
-0.196332
-0.198746
-0.200619
-0.201914
-0.202596
-0.202627
-0.201972
-0.200601
-0.198482
-0.195592
-0.191912
-0.18743
-0.182142
-0.176055
-0.169186
-0.161565
-0.153237
-0.144258
-0.134702
-0.124658
-0.114228
-0.103528
-0.092685
-0.0818375
-0.0711291
-0.0607074
-0.0507196
-0.0413087
-0.0326103
-0.0247485
-0.0178328
-0.0119566
-0.00719077
-0.00357964
-0.00119018
-0.000156878
-0.000171631
-0.00113131
-0.00318768
-0.00611007
-0.00975891
-0.0140461
-0.0188863
-0.0241995
-0.0299141
-0.0359661
-0.0422983
-0.0488599
-0.0556056
-0.062495
-0.0694924
-0.0765656
-0.0836856
-0.0908262
-0.0979633
-0.105074
-0.112138
-0.119134
-0.126043
-0.132844
-0.139518
-0.146045
-0.152402
-0.158569
-0.164521
-0.170235
-0.175685
-0.180844
-0.185681
-0.190166
-0.194267
-0.197948
-0.201174
-0.203907
-0.206109
-0.207738
-0.208756
-0.209121
-0.208795
-0.207741
-0.205922
-0.20331
-0.199877
-0.195605
-0.190484
-0.184513
-0.177702
-0.170075
-0.161672
-0.152545
-0.142766
-0.132423
-0.121619
-0.110474
-0.0991236
-0.0877133
-0.0763987
-0.0653404
-0.0547005
-0.0446384
-0.0353061
-0.0268441
-0.0193781
-0.0130163
-0.00784255
-0.00391186
-0.00130405
-0.000172909
-0.000173064
-0.00114117
-0.00321607
-0.00616531
-0.00984829
-0.0141761
-0.0190627
-0.0244273
-0.0301974
-0.0363085
-0.0427028
-0.0493289
-0.0561413
-0.0630996
-0.070168
-0.0773145
-0.0845106
-0.0917305
-0.0989508
-0.10615
-0.113307
-0.120403
-0.12742
-0.134337
-0.141138
-0.147801
-0.154309
-0.160638
-0.166769
-0.172676
-0.178335
-0.183718
-0.188798
-0.193544
-0.197922
-0.201897
-0.205433
-0.20849
-0.211027
-0.213003
-0.214374
-0.215096
-0.215126
-0.214422
-0.212941
-0.210648
-0.20751
-0.203501
-0.198601
-0.192802
-0.186107
-0.178533
-0.170111
-0.16089
-0.150938
-0.140338
-0.129197
-0.117637
-0.105798
-0.0938356
-0.0819157
-0.070213
-0.0589055
-0.0481698
-0.038176
-0.0290831
-0.0210348
-0.0141561
-0.0085459
-0.00427158
-0.00142789
-0.000190499
-0.000173843
-0.00114696
-0.00323335
-0.00619976
-0.00990507
-0.01426
-0.019178
-0.0245777
-0.030386
-0.0365378
-0.042975
-0.0496457
-0.0565044
-0.0635103
-0.0706279
-0.0778254
-0.0850747
-0.0923505
-0.0996301
-0.106893
-0.114119
-0.121291
-0.12839
-0.135399
-0.142301
-0.149078
-0.155711
-0.16218
-0.168465
-0.174544
-0.180391
-0.185983
-0.191289
-0.19628
-0.200924
-0.205185
-0.209025
-0.212405
-0.215282
-0.217613
-0.21935
-0.220448
-0.220859
-0.220534
-0.219428
-0.217497
-0.214701
-0.211005
-0.206384
-0.200818
-0.194303
-0.186845
-0.178469
-0.169216
-0.159148
-0.148346
-0.136914
-0.124977
-0.112679
-0.100182
-0.0876656
-0.075317
-0.063331
-0.0519028
-0.0412224
-0.0314691
-0.0228068
-0.0153795
-0.00930341
-0.00466037
-0.00156233
-0.00020977
-0.000173966
-0.00114871
-0.00323958
-0.00621347
-0.00992934
-0.0142979
-0.0192321
-0.0246504
-0.0304793
-0.0366533
-0.0431137
-0.0498086
-0.0566921
-0.0637235
-0.0708673
-0.0780921
-0.08537
-0.0926766
-0.0999899
-0.10729
-0.114558
-0.121778
-0.128932
-0.136005
-0.142981
-0.149842
-0.156573
-0.163155
-0.169568
-0.175792
-0.181804
-0.187579
-0.19309
-0.198308
-0.203201
-0.207733
-0.211868
-0.215564
-0.21878
-0.221468
-0.223581
-0.225068
-0.225879
-0.225962
-0.225263
-0.223734
-0.221327
-0.218
-0.213715
-0.208447
-0.202178
-0.194907
-0.186649
-0.177434
-0.167318
-0.156377
-0.144711
-0.132444
-0.119726
-0.106724
-0.0936273
-0.0806387
-0.0679695
-0.0558346
-0.0444456
-0.0340043
-0.024697
-0.0166895
-0.0101175
-0.00507973
-0.001708
-0.000230845
-0.000173444
-0.00114647
-0.00323492
-0.00620677
-0.00992159
-0.0142902
-0.0192257
-0.0246462
-0.0304781
-0.0366553
-0.043119
-0.049817
-0.0567033
-0.0637371
-0.0708831
-0.0781101
-0.0853909
-0.0927015
-0.100021
-0.107329
-0.114611
-0.121848
-0.129027
-0.136133
-0.143151
-0.150066
-0.156864
-0.163526
-0.170037
-0.176376
-0.182523
-0.188453
-0.194143
-0.199563
-0.204682
-0.209467
-0.21388
-0.217881
-0.221426
-0.22447
-0.226961
-0.228847
-0.230074
-0.230586
-0.230326
-0.229236
-0.227264
-0.224356
-0.220468
-0.215563
-0.209612
-0.202604
-0.19454
-0.185442
-0.175356
-0.164348
-0.152516
-0.13998
-0.126891
-0.113422
-0.0997729
-0.0861586
-0.0728087
-0.0599587
-0.0478434
-0.0366893
-0.0267075
-0.0180884
-0.0109902
-0.00553107
-0.00186554
-0.000253851
-0.000172295
-0.00114036
-0.00321972
-0.00618032
-0.00988276
-0.0142384
-0.0191604
-0.0245669
-0.030384
-0.0365456
-0.0429924
-0.0496722
-0.0565385
-0.063551
-0.0706742
-0.0778773
-0.0851336
-0.0924198
-0.0997154
-0.107003
-0.114265
-0.121489
-0.128659
-0.135764
-0.14279
-0.149724
-0.156553
-0.163261
-0.169834
-0.176254
-0.182501
-0.188554
-0.19439
-0.199982
-0.2053
-0.210312
-0.214982
-0.219269
-0.223131
-0.22652
-0.229386
-0.231675
-0.233328
-0.234287
-0.23449
-0.233874
-0.232377
-0.229941
-0.226509
-0.222033
-0.216475
-0.209808
-0.202022
-0.193127
-0.183156
-0.172166
-0.160246
-0.147513
-0.134115
-0.120231
-0.106066
-0.091851
-0.0778314
-0.0642648
-0.0514108
-0.0395225
-0.0288391
-0.0195781
-0.0119234
-0.00601567
-0.00203553
-0.000278916
-0.00017055
-0.00113059
-0.00319454
-0.00613508
-0.00981436
-0.0141443
-0.0190386
-0.0244152
-0.0302003
-0.0363274
-0.0427372
-0.049377
-0.0562004
-0.0631671
-0.0702416
-0.0773936
-0.0845969
-0.0918288
-0.0990698
-0.106303
-0.113514
-0.120688
-0.127815
-0.134882
-0.141879
-0.148793
-0.155615
-0.16233
-0.168926
-0.175387
-0.181697
-0.187835
-0.193781
-0.199509
-0.204993
-0.210202
-0.2151
-0.219649
-0.223807
-0.227527
-0.230759
-0.233445
-0.235529
-0.236946
-0.237632
-0.237517
-0.236535
-0.234617
-0.231698
-0.227718
-0.222627
-0.216384
-0.208965
-0.200365
-0.190604
-0.179726
-0.167808
-0.154961
-0.14133
-0.127093
-0.112464
-0.0976831
-0.0830148
-0.0687384
-0.0551396
-0.0425006
-0.0310911
-0.0211595
-0.0129185
-0.00653465
-0.00221853
-0.000306171
-0.000168252
-0.00111743
-0.00316011
-0.00607246
-0.00971847
-0.0140109
-0.0188638
-0.0241954
-0.0299315
-0.0360057
-0.0423583
-0.0489365
-0.0556938
-0.0625896
-0.069589
-0.0766619
-0.0837825
-0.0909289
-0.0980826
-0.105228
-0.112351
-0.11944
-0.126484
-0.133475
-0.140402
-0.147257
-0.154029
-0.160709
-0.167286
-0.173746
-0.180075
-0.186256
-0.19227
-0.198095
-0.203706
-0.209074
-0.214167
-0.218947
-0.223375
-0.227404
-0.230983
-0.234058
-0.236568
-0.238448
-0.239629
-0.240039
-0.239603
-0.238247
-0.235894
-0.232474
-0.227924
-0.222189
-0.215228
-0.207022
-0.197572
-0.186908
-0.175095
-0.162231
-0.148454
-0.133942
-0.118912
-0.103614
-0.0883298
-0.07336
-0.0590181
-0.0456175
-0.0334615
-0.0228325
-0.0139763
-0.00708897
-0.00241508
-0.000335745
-0.00016546
-0.00110124
-0.00311743
-0.00599425
-0.00959784
-0.0138419
-0.0186407
-0.0239128
-0.029584
-0.0355874
-0.0418631
-0.0483581
-0.0550257
-0.0618256
-0.0687228
-0.0756876
-0.0826948
-0.0897234
-0.0967557
-0.103777
-0.110775
-0.11774
-0.124662
-0.131535
-0.13835
-0.145101
-0.15178
-0.158379
-0.16489
-0.171303
-0.177605
-0.183782
-0.189819
-0.195696
-0.20139
-0.206876
-0.212124
-0.217099
-0.221763
-0.226071
-0.229975
-0.23342
-0.236345
-0.238684
-0.240367
-0.241316
-0.241453
-0.240694
-0.238956
-0.236157
-0.23222
-0.227075
-0.220667
-0.212955
-0.203925
-0.193588
-0.18199
-0.169218
-0.155398
-0.140703
-0.125349
-0.109597
-0.093741
-0.0781051
-0.0630307
-0.0488645
-0.0359462
-0.0245963
-0.0150974
-0.00767937
-0.00262564
-0.00036777
-0.000162248
-0.0010825
-0.00306774
-0.00590276
-0.00945597
-0.0136419
-0.0183753
-0.0235747
-0.0291657
-0.0350811
-0.0412608
-0.0476514
-0.0542062
-0.0608846
-0.0676522
-0.0744794
-0.0813418
-0.0882192
-0.0950948
-0.101955
-0.10879
-0.11559
-0.122348
-0.129059
-0.135717
-0.142318
-0.148857
-0.155327
-0.161724
-0.16804
-0.174266
-0.18039
-0.1864
-0.192279
-0.198008
-0.203565
-0.208923
-0.21405
-0.21891
-0.223463
-0.22766
-0.231449
-0.234771
-0.237558
-0.239739
-0.241234
-0.24196
-0.241829
-0.240747
-0.238623
-0.235367
-0.230894
-0.22513
-0.218018
-0.20952
-0.199628
-0.188368
-0.175807
-0.162059
-0.147286
-0.131704
-0.115574
-0.0992054
-0.0829434
-0.0671577
-0.05223
-0.0385395
-0.0264486
-0.0162814
-0.00830636
-0.00285065
-0.000402375
-0.000158708
-0.00106176
-0.0030126
-0.00580081
-0.00929713
-0.0134168
-0.0180749
-0.0231897
-0.0286867
-0.0344981
-0.0405634
-0.0468289
-0.0532478
-0.0597795
-0.0663897
-0.0730494
-0.0797349
-0.0864267
-0.0931093
-0.0997707
-0.106402
-0.112995
-0.119546
-0.12605
-0.132504
-0.138907
-0.145256
-0.151548
-0.15778
-0.163947
-0.170043
-0.176061
-0.181991
-0.18782
-0.193532
-0.199108
-0.204526
-0.209757
-0.214769
-0.219524