/*--------------------------------*- C++ -*----------------------------------*\
  =========                 |
  \\      /  F ield         | OpenFOAM: The Open Source CFD Toolbox
   \\    /   O peration     | Website:  https://openfoam.org
    \\  /    A nd           | Version:  dev
     \\/     M anipulation  |
\*---------------------------------------------------------------------------*/
FoamFile
{
    format      ascii;
    class       volScalarField;
    location    "23.85";
    object      Uy;
}
// * * * * * * * * * * * * * * * * * * * * * * * * * * * * * * * * * * * * * //

dimensions      [0 1 -1 0 0 0 0];

internalField   nonuniform List<scalar> 
5184
(
-1.27862e-05
-2.09218e-05
-1.72511e-05
-8.19207e-06
2.67244e-06
1.36181e-05
2.38422e-05
3.30385e-05
4.10903e-05
4.80038e-05
5.3841e-05
5.86861e-05
6.26309e-05
6.5767e-05
6.81794e-05
6.99435e-05
7.11233e-05
7.17713e-05
7.19282e-05
7.16236e-05
7.0877e-05
6.96988e-05
6.80919e-05
6.60534e-05
6.3576e-05
6.06501e-05
5.72653e-05
5.34119e-05
4.90826e-05
4.42747e-05
3.89905e-05
3.32394e-05
2.70386e-05
2.04138e-05
1.34008e-05
6.04525e-06
-1.5968e-06
-9.45895e-06
-1.74647e-05
-2.55283e-05
-3.35553e-05
-4.14443e-05
-4.90881e-05
-5.6376e-05
-6.31954e-05
-6.94346e-05
-7.49847e-05
-7.97428e-05
-8.36144e-05
-8.65157e-05
-8.83764e-05
-8.91412e-05
-8.87718e-05
-8.72484e-05
-8.45705e-05
-8.07577e-05
-7.58492e-05
-6.99038e-05
-6.29986e-05
-5.52296e-05
-4.67106e-05
-3.75748e-05
-2.79771e-05
-1.81e-05
-8.16857e-06
1.5224e-06
1.05503e-05
1.82784e-05
2.36961e-05
2.5113e-05
1.98427e-05
6.24565e-06
-4.59831e-05
-6.57417e-05
-4.05449e-05
7.65101e-06
6.56769e-05
0.000125964
0.000184237
0.000238251
0.000286869
0.00032965
0.000366555
0.000397775
0.000423619
0.000444455
0.000460659
0.00047259
0.000480572
0.000484878
0.000485733
0.000483307
0.000477722
0.000469055
0.000457344
0.000442598
0.000424806
0.000403945
0.000379989
0.000352923
0.000322746
0.000289486
0.000253202
0.000213998
0.000172024
0.000127481
8.06288e-05
3.17868e-05
-1.86666e-05
-7.02937e-05
-0.0001226
-0.000175038
-0.000227015
-0.000277898
-0.000327028
-0.000373725
-0.000417306
-0.000457097
-0.000492444
-0.000522734
-0.000547406
-0.000565966
-0.000578
-0.00058319
-0.00058132
-0.000572287
-0.000556105
-0.000532914
-0.000502976
-0.000466682
-0.000424544
-0.000377203
-0.000325425
-0.000270116
-0.000212336
-0.000153336
-9.46245e-05
-3.80805e-05
1.38404e-05
5.78329e-05
8.93082e-05
0.000101776
8.64703e-05
3.64787e-05
-8.1309e-05
-9.49927e-05
-1.90837e-05
0.00010595
0.000254607
0.000410462
0.000563212
0.000706726
0.000837557
0.000954002
0.00105547
0.00114205
0.00121425
0.00127281
0.00131855
0.00135228
0.00137478
0.00138672
0.00138867
0.00138106
0.00136423
0.00133839
0.00130368
0.00126017
0.00120785
0.00114672
0.00107678
0.000998027
0.000910536
0.000814444
0.000709981
0.000597493
0.000477452
0.000350472
0.000217319
7.89157e-05
-6.36596e-05
-0.000209172
-0.000356239
-0.000503346
-0.000648856
-0.000791041
-0.000928098
-0.00105819
-0.00117946
-0.00129009
-0.00138833
-0.00147254
-0.00154121
-0.00159304
-0.00162691
-0.00164201
-0.00163775
-0.00161389
-0.00157049
-0.00150795
-0.00142703
-0.00132881
-0.00121474
-0.00108664
-0.000946661
-0.000797381
-0.000641803
-0.000483455
-0.000326533
-0.000176121
-3.8532e-05
7.82208e-05
0.000163844
0.000205182
0.000186134
9.03437e-05
-9.7678e-05
-7.30463e-05
8.48478e-05
0.000318338
0.000589937
0.000874038
0.00115363
0.00141793
0.00166047
0.00187772
0.00206814
0.00223146
0.00236825
0.00247955
0.00256663
0.00263081
0.00267338
0.00269548
0.00269811
0.00268204
0.00264788
0.00259606
0.00252683
0.00244037
0.00233674
0.002216
0.00207821
0.00192346
0.00175197
0.00156409
0.00136034
0.00114145
0.000908404
0.000662435
0.000405055
0.000138064
-0.00013645
-0.00041612
-0.000698313
-0.000980153
-0.00125856
-0.00153027
-0.00179192
-0.00204006
-0.00227125
-0.00248211
-0.0026694
-0.00283005
-0.0029613
-0.00306072
-0.0031263
-0.0031565
-0.00315028
-0.0031072
-0.0030274
-0.00291168
-0.00276146
-0.00257884
-0.00236657
-0.0021281
-0.00186758
-0.0015899
-0.00130077
-0.00100686
-0.000715983
-0.000437399
-0.000182249
3.58659e-05
0.000200235
0.000290473
0.000282298
0.000147181
-8.43106e-05
2.10175e-05
0.00029548
0.000667887
0.00109046
0.0015293
0.001961
0.00237008
0.00274684
0.00308564
0.00338371
0.00364025
0.0038557
0.0040313
0.00416873
0.00426979
0.00433628
0.00436984
0.0043719
0.00434363
0.00428594
0.00419949
0.00408473
0.00394197
0.0037714
0.00357316
0.00334745
0.00309455
0.00281489
0.00250914
0.00217825
0.00182348
0.00144649
0.00104932
0.000634458
0.000204812
-0.000236257
-0.000684964
-0.00113712
-0.00158819
-0.00203329
-0.00246731
-0.00288497
-0.00328088
-0.00364967
-0.00398607
-0.00428502
-0.00454179
-0.00475207
-0.00491209
-0.00501875
-0.00506964
-0.0050632
-0.00499874
-0.00487652
-0.0046978
-0.00446485
-0.00418099
-0.00385058
-0.00347909
-0.00307309
-0.0026403
-0.00218972
-0.00173174
-0.00127841
-0.000843768
-0.000444295
-9.95362e-05
0.000167182
0.000328139
0.000350609
0.00019398
-3.74227e-05
0.000197456
0.000626829
0.00117
0.00177106
0.00238918
0.00299531
0.00356968
0.00409945
0.00457686
0.00499784
0.0053609
0.00566629
0.00591536
0.00611011
0.00625278
0.00634567
0.00639091
0.00639036
0.00634559
0.00625783
0.00612802
0.00595682
0.00574471
0.00549205
0.00519914
0.00486638
0.00449429
0.00408363
0.0036355
0.00315138
0.00263323
0.00208352
0.0015053
0.000902208
0.000278499
-0.000360969
-0.00101075
-0.00166483
-0.00231673
-0.00295952
-0.00358592
-0.00418846
-0.00475951
-0.00529149
-0.00577696
-0.00620879
-0.00658032
-0.00688549
-0.00711899
-0.00727644
-0.00735448
-0.0073509
-0.00726473
-0.00709637
-0.0068476
-0.00652164
-0.00612322
-0.00565857
-0.00513546
-0.00456321
-0.00395281
-0.00331695
-0.00267021
-0.00202931
-0.00141343
-0.000844686
-0.000348756
4.44058e-05
0.000299873
0.000376846
0.000224308
4.41846e-05
0.000461271
0.0010868
0.00183406
0.00264125
0.00346216
0.00426318
0.00502087
0.00571964
0.00634981
0.00690607
0.00738625
0.00779038
0.00811987
0.00837701
0.00856444
0.00868491
0.00874102
0.00873506
0.008669
0.00854441
0.00836249
0.00812415
0.00783007
0.00748081
0.00707692
0.00661902
0.00610796
0.00554493
0.00493155
0.00426994
0.0035629
0.00281386
0.00202703
0.00120739
0.000360713
-0.00050644
-0.00138674
-0.00227215
-0.003154
-0.00402304
-0.00486964
-0.00568384
-0.00645556
-0.00717473
-0.00783154
-0.00841654
-0.00892092
-0.00933666
-0.00965674
-0.00987536
-0.00998804
-0.00999185
-0.0098855
-0.00966948
-0.00934613
-0.00891972
-0.00839652
-0.00778477
-0.00709479
-0.00633894
-0.00553174
-0.00468991
-0.00383253
-0.00298128
-0.00216075
-0.00139884
-0.000727394
-0.000182875
0.000192929
0.000351915
0.000234735
0.000160506
0.00081433
0.00167916
0.00266507
0.00370641
0.00475318
0.00576837
0.00672572
0.00760744
0.00840228
0.00910389
0.00970958
0.0102192
0.0106341
0.0109571
0.011191
0.0113391
0.0114044
0.0113896
0.011297
0.0111287
0.010886
0.0105701
0.010182
0.00972237
0.00919209
0.00859209
0.00792362
0.00718834
0.00638849
0.00552698
0.00460749
0.00363459
0.00261376
0.00155149
0.000455213
-0.000666625
-0.00180464
-0.00294858
-0.00408738
-0.00520931
-0.00630212
-0.0073532
-0.00834977
-0.0092791
-0.0101287
-0.0108867
-0.0115419
-0.0120842
-0.0125045
-0.0127956
-0.0129516
-0.0129689
-0.0128458
-0.0125827
-0.0121826
-0.0116508
-0.0109952
-0.0102263
-0.00935691
-0.00840276
-0.00738208
-0.00631585
-0.0052279
-0.00414505
-0.00309743
-0.00211883
-0.00124718
-0.000525274
-1.28885e-06
0.000270254
0.000223556
0.000310906
0.00125654
0.00240488
0.00366489
0.00496885
0.00626447
0.00751253
0.00868483
0.00976208
0.0107319
0.0115873
0.0123251
0.0129452
0.0134492
0.01384
0.014121
0.0142958
0.0143678
0.0143403
0.0142159
0.0139968
0.0136849
0.0132814
0.0127877
0.0122048
0.0115337
0.0107758
0.0099328
0.00900687
0.00800095
0.0069188
0.00576514
0.00454573
0.00326748
0.00193845
0.000567907
-0.000833695
-0.00225477
-0.00368269
-0.00510384
-0.00650383
-0.00786764
-0.00917979
-0.0104246
-0.0115866
-0.0126503
-0.0136012
-0.0144256
-0.0151108
-0.0156461
-0.0160221
-0.0162317
-0.0162703
-0.0161355
-0.015828
-0.0153511
-0.0147112
-0.0139179
-0.0129838
-0.0119246
-0.0107594
-0.00951028
-0.00820268
-0.00686531
-0.0055303
-0.0042334
-0.0030143
-0.00191696
-0.000990251
-0.000288298
0.000128759
0.000190124
0.000494479
0.00178666
0.00326308
0.00483312
0.00642854
0.00799607
0.00949539
0.0108973
0.0121818
0.0133358
0.0143521
0.0152275
0.015962
0.0165574
0.0170171
0.0173448
0.0175447
0.0176206
0.0175761
0.0174142
0.0171376
0.0167481
0.0162477
0.0156376
0.0149192
0.0140939
0.0131635
0.0121301
0.0109965
0.00976651
0.00844466
0.00703682
0.00555002
0.00399266
0.0023745
0.00070673
-0.000998088
-0.00272605
-0.00446202
-0.00618971
-0.00789193
-0.00955071
-0.0111476
-0.0126638
-0.0140807
-0.0153801
-0.0165443
-0.0175569
-0.0184028
-0.0190688
-0.0195437
-0.0198187
-0.0198881
-0.0197489
-0.0194015
-0.0188498
-0.0181011
-0.0171665
-0.0160611
-0.0148033
-0.0134156
-0.0119242
-0.0103591
-0.00875392
-0.00714624
-0.00557753
-0.00409335
-0.00274366
-0.00158318
-0.000671637
-7.41819e-05
0.000134357
0.000710193
0.00240279
0.00425166
0.00616781
0.00808369
0.00994621
0.0117151
0.0133609
0.0148637
0.0162104
0.017394
0.0184115
0.0192632
0.0199517
0.0204805
0.0208541
0.0210769
0.0211534
0.0210876
0.0208827
0.0205418
0.0200671
0.0194607
0.0187241
0.0178591
0.0168673
0.015751
0.0145127
0.0131561
0.0116854
0.0101064
0.00842599
0.00665257
0.00479605
0.00286799
0.000881531
-0.00114856
-0.00320597
-0.00527297
-0.00733051
-0.00935844
-0.0113357
-0.0132407
-0.0150516
-0.0167462
-0.0183033
-0.0197022
-0.0209232
-0.0219487
-0.0227628
-0.0233522
-0.0237064
-0.023818
-0.0236835
-0.0233028
-0.02268
-0.0218236
-0.020746
-0.0194645
-0.0180006
-0.0163801
-0.0146332
-0.0127947
-0.0109033
-0.00900208
-0.00713823
-0.00536328
-0.00373313
-0.00230825
-0.00115375
-0.000339406
5.64247e-05
0.00095697
0.00310263
0.00536774
0.00766586
0.00993113
0.0121117
0.0141682
0.0160721
0.0178039
0.0193514
0.0207079
0.0218715
0.0228429
0.0236253
0.024223
0.0246411
0.0248846
0.0249583
0.0248667
0.0246136
0.0242021
0.023635
0.0229143
0.022042
0.0210202
0.0198508
0.0185364
0.0170802
0.0154864
0.0137602
0.0119081
0.00993838
0.00786067
0.0056865
0.00342921
0.00110396
-0.00127223
-0.00368061
-0.00610076
-0.00851078
-0.0108875
-0.0132067
-0.0154434
-0.0175724
-0.0195683
-0.0214062
-0.023062
-0.0245132
-0.0257388
-0.0267203
-0.0274417
-0.0278907
-0.0280583
-0.0279395
-0.0275341
-0.0268461
-0.0258847
-0.0246639
-0.023203
-0.0215263
-0.0196632
-0.0176481
-0.0155204
-0.0133239
-0.0111074
-0.00892403
-0.00683121
-0.00489085
-0.0031692
-0.00173663
-0.000667475
-4.34564e-05
0.00123372
0.00388362
0.0066079
0.00932336
0.0119667
0.0144883
0.0168504
0.0190263
0.0209976
0.0227535
0.0242885
0.0256016
0.0266946
0.0275716
0.0282378
0.0286989
0.0289605
0.0290282
0.0289068
0.0286004
0.0281126
0.0274463
0.026604
0.0255878
0.0244001
0.0230431
0.0215199
0.0198341
0.0179906
0.0159954
0.013856
0.0115817
0.00918356
0.00667471
0.00407025
0.00138738
-0.00135465
-0.00413458
-0.00692931
-0.009714
-0.0124624
-0.0151469
-0.0177393
-0.0202106
-0.022532
-0.0246749
-0.0266118
-0.0283164
-0.0297646
-0.0309346
-0.031808
-0.0323697
-0.0326089
-0.0325194
-0.0320998
-0.0313544
-0.0302926
-0.0289298
-0.0272873
-0.0253922
-0.0232773
-0.0209813
-0.0185481
-0.0160272
-0.0134728
-0.010944
-0.0085046
-0.00622251
-0.00416984
-0.00242236
-0.00105903
-0.000165152
0.00153935
0.00474308
0.00796832
0.0111358
0.0141854
0.0170706
0.0197562
0.0222177
0.0244389
0.0264107
0.0281295
0.0295954
0.0308119
0.0317841
0.0325181
0.0330207
0.0332982
0.0333567
0.0332016
0.0328375
0.0322682
0.031497
0.0305265
0.0293593
0.0279977
0.0264445
0.024703
0.0227775
0.0206733
0.0183972
0.0159578
0.0133653
0.0106322
0.00777304
0.00480482
0.00174667
-0.00137989
-0.00455115
-0.00774126
-0.0109224
-0.0140653
-0.0171388
-0.0201113
-0.02295
-0.0256224
-0.028096
-0.0303394
-0.0323226
-0.0340179
-0.0354001
-0.0364474
-0.0371423
-0.0374714
-0.0374269
-0.0370062
-0.0362131
-0.0350573
-0.0335553
-0.0317303
-0.0296119
-0.0272364
-0.0246467
-0.0218916
-0.0190258
-0.0161096
-0.0132082
-0.0103917
-0.00773441
-0.00531451
-0.00321343
-0.00151506
-0.000308701
0.00187275
0.00567816
0.00944489
0.0130981
0.0165817
0.0198526
0.0228792
0.0256399
0.0281212
0.0303164
0.032224
0.0338461
0.0351879
0.0362557
0.0370571
0.0375998
0.0378911
0.0379377
0.0377457
0.03732
0.0366649
0.0357837
0.0346796
0.0333552
0.0318131
0.0300564
0.0280888
0.0259148
0.0235405
0.0209734
0.0182227
0.0153
0.0122188
0.00899531
0.00564805
0.00219818
-0.00133063
-0.00491218
-0.00851794
-0.0121172
-0.0156772
-0.0191638
-0.0225413
-0.0257734
-0.0288234
-0.0316549
-0.0342323
-0.0365215
-0.0384907
-0.040111
-0.0413571
-0.0422081
-0.0426481
-0.0426669
-0.0422605
-0.0414317
-0.0401904
-0.0385536
-0.0365463
-0.0342006
-0.0315562
-0.0286601
-0.0255659
-0.0223341
-0.0190309
-0.0157279
-0.0125019
-0.00943389
-0.00660844
-0.00411306
-0.00203707
-0.000474368
0.0022328
0.0066859
0.0110332
0.0152048
0.0191491
0.0228275
0.0262123
0.0292855
0.0320369
0.0344629
0.0365645
0.0383462
0.039815
0.0409792
0.0418477
0.0424295
0.0427329
0.0427655
0.0425337
0.0420433
0.0412987
0.0403037
0.0390616
0.0375751
0.0358472
0.0338811
0.0316809
0.0292514
0.0265993
0.0237325
0.0206612
0.0173977
0.013957
0.0103565
0.0066163
0.00275945
-0.00118826
-0.00519827
-0.00923937
-0.0132779
-0.017278
-0.0212018
-0.0250101
-0.0286625
-0.0321182
-0.0353363
-0.038277
-0.0409017
-0.0431742
-0.0450613
-0.0465336
-0.0475667
-0.0481413
-0.0482446
-0.0478706
-0.0470207
-0.0457043
-0.0439392
-0.0417513
-0.0391753
-0.036254
-0.0330387
-0.0295881
-0.025968
-0.0222512
-0.018516
-0.0148461
-0.0113295
-0.00805794
-0.00512537
-0.00262718
-0.000662691
0.00261834
0.0077632
0.0127286
0.01745
0.021881
0.0259879
0.0297476
0.0331463
0.0361778
0.0388419
0.0411426
0.0430873
0.0446852
0.0459467
0.0468825
0.0475027
0.047817
0.0478338
0.0475604
0.0470028
0.0461661
0.0450544
0.0436709
0.0420188
0.0401012
0.0379214
0.0354836
0.0327933
0.0298571
0.0266838
0.0232841
0.0196713
0.0158612
0.0118725
0.0077269
0.00344911
-0.000933085
-0.00538883
-0.00988435
-0.0143831
-0.0188459
-0.0232316
-0.0274969
-0.0315975
-0.0354881
-0.0391234
-0.0424588
-0.0454508
-0.0480584
-0.0502437
-0.0519729
-0.053217
-0.0539532
-0.0541652
-0.0538446
-0.0529909
-0.0516125
-0.0497273
-0.0473622
-0.044554
-0.0413488
-0.0378017
-0.0339765
-0.0299452
-0.0257868
-0.0215869
-0.0174366
-0.0134314
-0.00967066
-0.00625556
-0.00328829
-0.000874502
0.00302818
0.0089068
0.0145261
0.0198274
0.0247701
0.0293257
0.0334765
0.0372135
0.0405349
0.0434443
0.0459494
0.0480606
0.0497899
0.05115
0.0521533
0.0528118
0.0531363
0.0531364
0.05282
0.0521939
0.0512635
0.0500331
0.0485063
0.0466863
0.0445764
0.04218
0.0395015
0.0365464
0.0333219
0.0298369
0.0261029
0.0221337
0.0179461
0.0135598
0.00899786
0.00428654
-0.000544497
-0.00546226
-0.0104305
-0.0154098
-0.020358
-0.0252301
-0.0299793
-0.0345568
-0.038913
-0.0429976
-0.0467609
-0.0501544
-0.0531317
-0.0556496
-0.0576692
-0.0591567
-0.0600847
-0.0604332
-0.0601902
-0.0593529
-0.0579284
-0.0559338
-0.053397
-0.0503562
-0.0468606
-0.0429695
-0.0387517
-0.0342852
-0.029656
-0.0249571
-0.0202876
-0.0157513
-0.0114557
-0.00750996
-0.00402406
-0.00111095
0.00346104
0.0101133
0.0164205
0.0223304
0.0278085
0.0328324
0.0373899
0.0414775
0.0450983
0.0482602
0.050975
0.0532564
0.0551196
0.0565797
0.0576515
0.0583486
0.0586834
0.0586664
0.0583066
0.0576114
0.0565865
0.0552368
0.0535659
0.0515772
0.0492739
0.0466596
0.0437387
0.0405169
0.0370014
0.0332016
0.029129
0.0247983
0.0202268
0.0154352
0.0104476
0.00529169
-1.21073e-06
-0.00539612
-0.0108544
-0.0163341
-0.0217898
-0.0271731
-0.0324332
-0.0375172
-0.0423705
-0.046938
-0.0511646
-0.0549961
-0.0583803
-0.0612682
-0.0636151
-0.0653818
-0.0665355
-0.0670516
-0.0669141
-0.0661171
-0.0646653
-0.062575
-0.0598739
-0.0566021
-0.0528111
-0.0485642
-0.0439356
-0.0390093
-0.0338787
-0.0286448
-0.0234153
-0.0183027
-0.0134236
-0.00889618
-0.004839
-0.00137349
0.00391561
0.011379
0.0184063
0.0249519
0.0309879
0.0364986
0.0414778
0.0459279
0.0498573
0.0532789
0.0562086
0.0586643
0.0606641
0.0622262
0.0633677
0.0641043
0.0644498
0.0644162
0.0640133
0.0632493
0.0621305
0.0606618
0.0588472
0.0566902
0.054194
0.0513621
0.048199
0.0447101
0.0409029
0.0367867
0.0323734
0.0276779
0.0227181
0.0175153
0.0120945
0.00648466
0.000718436
-0.00516736
-0.011132
-0.0171308
-0.0231156
-0.0290345
-0.0348328
-0.0404531
-0.0458362
-0.0509216
-0.0556485
-0.0599566
-0.0637875
-0.0670859
-0.0698005
-0.0718857
-0.0733029
-0.0740217
-0.0740215
-0.0732922
-0.0718358
-0.0696665
-0.0668117
-0.0633124
-0.0592225
-0.0546092
-0.0495517
-0.0441407
-0.0384771
-0.0326705
-0.0268376
-0.0211008
-0.0155866
-0.0104231
-0.00573852
-0.00166394
0.00439049
0.0127002
0.0204775
0.0276843
0.0342995
0.0403144
0.0457296
0.0505537
0.0548007
0.0584889
0.0616389
0.0642727
0.0664122
0.0680785
0.0692914
0.0700689
0.0704264
0.0703773
0.0699325
0.069101
0.0678895
0.0663035
0.064347
0.0620236
0.0593363
0.0562886
0.0528849
0.0491304
0.0450325
0.0406005
0.0358463
0.0307848
0.0254342
0.0198163
0.0139568
0.0078854
0.00163615
-0.00475268
-0.0112384
-0.0177741
-0.0243086
-0.0307869
-0.0371504
-0.0433372
-0.0492832
-0.0549225
-0.0601882
-0.0650137
-0.0693338
-0.073086
-0.0762119
-0.0786588
-0.0803812
-0.0813422
-0.0815153
-0.0808856
-0.079451
-0.0772232
-0.0742285
-0.070508
-0.0661179
-0.0611287
-0.055625
-0.0497042
-0.043475
-0.0370562
-0.0305744
-0.0241628
-0.0179585
-0.0121009
-0.00672886
-0.00198445
0.00488417
0.0140727
0.022628
0.0305196
0.0377339
0.0442695
0.0501341
0.0553429
0.0599162
0.0638778
0.0672535
0.0700695
0.0723518
0.0741249
0.0754115
0.0762316
0.0766028
0.07654
0.0760554
0.0751585
0.0738568
0.0721561
0.0700606
0.0675737
0.0646987
0.0614387
0.0577977
0.0537809
0.0493953
0.0446498
0.0395564
0.0341297
0.028388
0.0223533
0.0160516
0.00951326
0.00277327
-0.00412885
-0.0111488
-0.0182374
-0.0253411
-0.0324016
-0.0393565
-0.0461398
-0.0526822
-0.0589121
-0.0647565
-0.0701419
-0.0749959
-0.0792482
-0.0828325
-0.0856881
-0.0877615
-0.0890085
-0.0893956
-0.0889018
-0.0875201
-0.0852586
-0.0821415
-0.0782096
-0.0735204
-0.0681478
-0.0621817
-0.055726
-0.048898
-0.0418261
-0.0346478
-0.0275077
-0.020555
-0.0139411
-0.0078172
-0.00233748
0.00539509
0.0154923
0.0248513
0.0334495
0.0412812
0.0483528
0.0546794
0.0602831
0.0651909
0.0694325
0.073039
0.0760415
0.07847
0.0803527
0.0817153
0.0825804
0.0829677
0.0828937
0.0823717
0.0814124
0.0800239
0.0782121
0.0759816
0.0733358
0.0702777
0.0668103
0.062937
0.0586629
0.0539943
0.0489398
0.0435109
0.037722
0.0315911
0.02514
0.0183949
0.0113866
0.00415037
-0.00327312
-0.0108383
-0.0184941
-0.0261847
-0.0338488
-0.0414204
-0.0488293
-0.0560012
-0.0628588
-0.0693226
-0.0753119
-0.0807465
-0.0855478
-0.0896408
-0.0929559
-0.0954306
-0.0970122
-0.0976589
-0.0973425
-0.0960497
-0.0937841
-0.0905666
-0.0864368
-0.081453
-0.075692
-0.0692485
-0.0622336
-0.0547732
-0.0470061
-0.0390814
-0.0311562
-0.023393
-0.0159566
-0.0090116
-0.00272586
0.00592157
0.0169544
0.0271404
0.036465
0.044931
0.0525526
0.0593528
0.0653611
0.0706111
0.075139
0.0789814
0.0821745
0.0847527
0.086748
0.0881893
0.0891022
0.0895083
0.089426
0.0888701
0.087852
0.0863807
0.0844625
0.0821022
0.079303
0.0760678
0.0723992
0.0683003
0.0637754
0.0588304
0.0534733
0.0477148
0.0415688
0.0350529
0.0281883
0.0210012
0.0135221
0.00578671
-0.00216374
-0.0102826
-0.0185177
-0.0268107
-0.0350979
-0.04331
-0.0513725
-0.0592063
-0.0667284
-0.0738525
-0.0804906
-0.0865542
-0.0919558
-0.0966108
-0.10044
-0.10337
-0.10534
-0.106297
-0.106205
-0.105043
-0.102808
-0.0995173
-0.0952078
-0.0899378
-0.0837865
-0.0768531
-0.0692557
-0.0611294
-0.0526238
-0.0439008
-0.0351309
-0.0264913
-0.0181616
-0.010321
-0.00315278
0.00646185
0.0184544
0.029488
0.039557
0.0486723
0.0568567
0.0641412
0.0705628
0.0761624
0.0809824
0.0850656
0.0884533
0.0911847
0.0932957
0.0948188
0.0957823
0.0962104
0.0961232
0.0955371
0.0944646
0.0929154
0.0908962
0.088412
0.0854661
0.082061
0.0781989
0.0738823
0.069115
0.0639019
0.0582504
0.0521703
0.0456747
0.0387802
0.0315076
0.0238822
0.0159344
0.00769976
-0.000780427
-0.00945889
-0.0182822
-0.0271906
-0.036118
-0.044992
-0.0537344
-0.0622611
-0.0704835
-0.0783087
-0.0856409
-0.092383
-0.098438
-0.103711
-0.108112
-0.111557
-0.113973
-0.115297
-0.115482
-0.114498
-0.112335
-0.109004
-0.104539
-0.0989957
-0.0924558
-0.0850227
-0.0768212
-0.067996
-0.0587082
-0.049133
-0.0394561
-0.0298703
-0.0205715
-0.0117554
-0.00362172
0.0070141
0.0199873
0.0318867
0.0427156
0.0524938
0.0612524
0.0690307
0.0758737
0.0818294
0.0869471
0.0912756
0.0948618
0.0977498
0.0999797
0.101588
0.102605
0.103058
0.10297
0.102358
0.101236
0.099614
0.0975
0.0948988
0.0918137
0.0882469
0.0842001
0.0796753
0.0746752
0.0692042
0.0632684
0.0568766
0.0500409
0.0427768
0.0351041
0.0270472
0.0186357
0.00990458
0.000895013
-0.0083456
-0.0177632
-0.0272968
-0.0368784
-0.0464331
-0.0558789
-0.0651274
-0.0740844
-0.0826503
-0.0907217
-0.0981923
-0.104955
-0.110905
-0.115939
-0.119962
-0.122887
-0.124639
-0.12516
-0.124409
-0.122366
-0.119034
-0.114442
-0.108645
-0.101723
-0.0937841
-0.0849596
-0.0754035
-0.0652894
-0.0548069
-0.0441576
-0.0335517
-0.0232031
-0.0133253
-0.00413656
0.00757638
0.0215479
0.0343286
0.045931
0.0563837
0.0657264
0.0740071
0.0812785
0.0875962
0.0930166
0.0975946
0.101383
0.104431
0.106783
0.108478
0.109552
0.110034
0.109949
0.109315
0.108149
0.10646
0.104258
0.101548
0.0983315
0.0946121
0.0903905
0.085668
0.0804465
0.074729
0.0685208
0.0618294
0.0546654
0.0470431
0.0389809
0.0305019
0.0216347
0.0124133
0.00287811
-0.00692369
-0.0169379
-0.0271028
-0.0373492
-0.0475997
-0.0577694
-0.0677658
-0.0774892
-0.0868338
-0.0956881
-0.103937
-0.111463
-0.118149
-0.12388
-0.128547
-0.132049
-0.134298
-0.135221
-0.134763
-0.132895
-0.129609
-0.124928
-0.118901
-0.11161
-0.103163
-0.0936996
-0.0833826
-0.0723986
-0.0609522
-0.0492626
-0.0375588
-0.0260743
-0.0150425
-0.00470149
0.00814672
0.0231308
0.0368056
0.0491928
0.0603297
0.0702651
0.0790553
0.0867613
0.0934463
0.0991737
0.104005
0.107999
0.111209
0.113686
0.115472
0.116606
0.11712
0.117041
0.116391
0.115185
0.113436
0.111153
0.10834
0.105002
0.10114
0.0967548
0.0918462
0.0864155
0.0804648
0.0739977
0.0670205
0.0595421
0.0515753
0.0431368
0.0342483
0.0249365
0.0152344
0.00518108
-0.00517705
-0.0157862
-0.0265844
-0.0375017
-0.0484591
-0.0593692
-0.0701357
-0.0806542
-0.0908125
-0.100492
-0.109567
-0.117911
-0.125395
-0.131888
-0.137269
-0.141421
-0.144239
-0.145635
-0.14554
-0.14391
-0.140725
-0.135999
-0.129775
-0.122133
-0.113183
-0.103069
-0.091964
-0.0800671
-0.0675997
-0.0547996
-0.0419162
-0.0292045
-0.0169195
-0.00532106
0.00872308
0.0247307
0.0393096
0.0524903
0.0643195
0.0748545
0.0841602
0.0923059
0.0993626
0.105401
0.110488
0.11469
0.118066
0.120669
0.122548
0.123745
0.124295
0.124226
0.123563
0.122323
0.12052
0.118163
0.115257
0.111806
0.107812
0.103274
0.0981917
0.0925653
0.0863956
0.0796847
0.0724373
0.0646605
0.0563653
0.0475665
0.0382838
0.028542
0.0183723
0.00781224
-0.00309315
-0.014291
-0.02572
-0.0373096
-0.0489802
-0.0606423
-0.0721967
-0.0835346
-0.094538
-0.105081
-0.115029
-0.124245
-0.132586
-0.13991
-0.146077
-0.150955
-0.154421
-0.156369
-0.156712
-0.155391
-0.152371
-0.147653
-0.141275
-0.133308
-0.123866
-0.113094
-0.101177
-0.0883267
-0.074781
-0.0607981
-0.0466496
-0.0326138
-0.0189694
-0.00600014
0.00930338
0.0263421
0.041832
0.0558129
0.0683403
0.0794803
0.0893063
0.0978957
0.105327
0.111679
0.117025
0.121437
0.12498
0.127712
0.129686
0.130948
0.131536
0.131481
0.13081
0.129541
0.127689
0.125265
0.122274
0.11872
0.114604
0.109925
0.104683
0.098875
0.0925017
0.0855634
0.0780629
0.0700057
0.0614004
0.0522597
0.0426011
0.0324471
0.0218267
0.0107754
-0.00066377
-0.0124394
-0.0244913
-0.0367495
-0.049134
-0.0615543
-0.0739089
-0.0860853
-0.0979605
-0.109401
-0.120266
-0.130405
-0.139664
-0.147885
-0.154912
-0.160595
-0.164792
-0.167376
-0.168242
-0.167309
-0.164527
-0.159882
-0.153399
-0.145144
-0.135227
-0.123799
-0.111051
-0.0972086
-0.0825279
-0.0672884
-0.0517857
-0.0363237
-0.0212065
-0.00674397
0.00988555
0.0279594
0.0443646
0.0591499
0.0723795
0.0841281
0.0944776
0.103514
0.111322
0.117989
0.123596
0.128219
0.13193
0.134792
0.136863
0.138192
0.13882
0.138782
0.138105
0.136812
0.134918
0.132433
0.129365
0.125717
0.12149
0.116683
0.111294
0.10532
0.0987588
0.0916106
0.0838758
0.0755576
0.0666626
0.057201
0.0471877
0.0366427
0.0255922
0.0140692
0.00211442
-0.010223
-0.0228845
-0.0358016
-0.0488949
-0.0620733
-0.075234
-0.0882618
-0.10103
-0.113398
-0.125217
-0.136326
-0.146559
-0.155744
-0.163706
-0.170276
-0.175291
-0.178603
-0.180083
-0.179627
-0.177166
-0.172667
-0.166141
-0.157644
-0.14728
-0.135204
-0.121611
-0.106743
-0.090872
-0.0743014
-0.0573523
-0.0403562
-0.0236455
-0.00755809
0.0104675
0.0295771
0.046899
0.0624906
0.0764245
0.0887837
0.0996586
0.109143
0.11733
0.124313
0.13018
0.135015
0.138894
0.141887
0.144055
0.145451
0.14612
0.146101
0.145423
0.144109
0.142177
0.139638
0.136501
0.132768
0.128441
0.123518
0.117995
0.11187
0.105138
0.0977987
0.0898494
0.0812914
0.072129
0.0623697
0.0520256
0.0411138
0.0296575
0.0176868
0.00523926
-0.00763864
-0.0208909
-0.0344511
-0.048241
-0.0621706
-0.0761363
-0.0900215
-0.103695
-0.117014
-0.129819
-0.141942
-0.153203
-0.163414
-0.172386
-0.179926
-0.185849
-0.189984
-0.192176
-0.192295
-0.190248
-0.185981
-0.179485
-0.170803
-0.160032
-0.147324
-0.132882
-0.116958
-0.0998444
-0.0818679
-0.0633775
-0.0447346
-0.0263021
-0.0084484
0.0110473
0.03119
0.0494271
0.0658245
0.0804627
0.093433
0.104833
0.114766
0.123331
0.13063
0.136757
0.141803
0.14585
0.148972
0.151236
0.152699
0.153411
0.153411
0.152733
0.151402
0.149436
0.146849
0.14365
0.139841
0.135423
0.130395
0.124753
0.118492
0.111608
0.104096
0.0959526
0.0871773
0.0777714
0.0677397
0.0570913
0.0458401
0.0340059
0.0216153
0.00870263
-0.00468919
-0.0185073
-0.0326881
-0.0471559
-0.0618221
-0.0765841
-0.0913244
-0.10591
-0.120193
-0.13401
-0.147182
-0.159518
-0.170817
-0.180868
-0.189461
-0.196386
-0.201444
-0.204452
-0.205253
-0.203725
-0.199786
-0.193406
-0.184609
-0.173482
-0.16017
-0.144882
-0.127879
-0.109475
-0.0900187
-0.0698901
-0.0494826
-0.0291924
-0.0094211
0.0116228
0.0327927
0.0519412
0.0691417
0.0844823
0.0980621
0.109987
0.120366
0.129308
0.136921
0.143306
0.148561
0.152773
0.156022
0.158381
0.15991
0.160662
0.160682
0.160005
0.158658
0.156663
0.154032
0.150776
0.146899
0.142401
0.13728
0.131532
0.12515
0.11813
0.110465
0.102149
0.0931803
0.0835563
0.0732793
0.0623554
0.0507949
0.0386141
0.0258357
0.01249
-0.00138382
-0.015737
-0.0305094
-0.0456288
-0.0610093
-0.07655
-0.0921344
-0.107629
-0.122883
-0.137727
-0.151976
-0.165428
-0.177867
-0.189066
-0.198792
-0.206811
-0.212895
-0.21683
-0.218428
-0.217532
-0.214031
-0.207866
-0.199039
-0.18762
-0.173746
-0.157625
-0.13953
-0.119791
-0.0987836
-0.0769186
-0.0546245
-0.0323333
-0.0104827
0.0121925
0.0343807
0.0544338
0.0724325
0.0884718
0.102658
0.115104
0.125927
0.135243
0.143167
0.149807
0.155266
0.159639
0.163013
0.165462
0.167054
0.167845
0.167883
0.167207
0.165845
0.163821
0.16115
0.157843
0.153904
0.149334
0.144131
0.13829
0.131803
0.124664
0.116866
0.1084
0.0992609
0.0894452
0.0789517
0.067783
0.0559459
0.0434528
0.0303223
0.0165804
0.00226152
-0.0125899
-0.0279183
-0.0436556
-0.0597197
-0.0760131
-0.0924211
-0.108811
-0.125031
-0.140909
-0.156254
-0.170853
-0.184479
-0.196887
-0.207823
-0.217026
-0.22424
-0.229217
-0.231733
-0.231594
-0.228653
-0.222817
-0.21406
-0.202428
-0.188047
-0.17112
-0.151929
-0.130818
-0.108191
-0.0844916
-0.0601848
-0.0357421
-0.01164
0.0127544
0.0359494
0.0568984
0.0756883
0.0924206
0.107208
0.120171
0.131433
0.141118
0.149347
0.156237
0.161896
0.166426
0.169917
0.172453
0.174103
0.174929
0.174982
0.174303
0.172926
0.170874
0.168165
0.164811
0.160816
0.156182
0.150906
0.144984
0.138407
0.131166
0.123253
0.114659
0.105375
0.095395
0.0847149
0.0733339
0.0612551
0.0484869
0.0350434
0.0209459
0.00622391
-0.00908326
-0.0249254
-0.0412395
-0.0579484
-0.074959
-0.0921602
-0.109422
-0.126593
-0.143499
-0.159946
-0.175714
-0.190563
-0.204234
-0.21645
-0.226925
-0.235372
-0.241509
-0.24507
-0.245822
-0.243575
-0.238196
-0.229624
-0.217876
-0.203059
-0.185369
-0.165088
-0.142579
-0.118269
-0.0926368
-0.0661882
-0.0394366
-0.0129002
0.0133073
0.037495
0.059329
0.0789014
0.0963192
0.111702
0.125175
0.13687
0.146917
0.155445
0.162577
0.168428
0.173107
0.176709
0.179324
0.181026
0.181881
0.181944
0.18126
0.179864
0.177783
0.175037
0.171637
0.167591
0.1629
0.15756
0.151568
0.144913
0.137588
0.12958
0.120879
0.111475
0.101358
0.0905222
0.0789627
0.066679
0.0536752
0.0399608
0.0255521
0.0104734
-0.00524175
-0.0215491
-0.0383917
-0.0556983
-0.0733815
-0.0913354
-0.109434
-0.127528
-0.145446
-0.16299
-0.179935
-0.196032
-0.211007
-0.224565
-0.236395
-0.246176
-0.253589
-0.258327
-0.260111
-0.258704
-0.253925
-0.245671
-0.233922
-0.218759
-0.200363
-0.179015
-0.155089
-0.12904
-0.101381
-0.0726594
-0.0434346
-0.0142704
0.01385
0.0390145
0.0617208
0.0820653
0.10016
0.116128
0.130104
0.142223
0.152625
0.161442
0.168807
0.174841
0.179658
0.183363
0.186047
0.187792
0.188668
0.188735
0.188039
0.186621
0.184508
0.181723
0.17828
0.174185
0.169441
0.164045
0.157993
0.151274
0.143878
0.135794
0.127008
0.117509
0.107283
0.096323
0.0846197
0.0721691
0.0589711
0.0450305
0.0303584
0.0149734
-0.00109724
-0.0178155
-0.0351315
-0.0529808
-0.0712829
-0.0899386
-0.108828
-0.127806
-0.146705
-0.165326
-0.183444
-0.2008
-0.21711
-0.232061
-0.245316
-0.256525
-0.26533
-0.27138
-0.274344
-0.273932
-0.269911
-0.262125
-0.250509
-0.23511
-0.216085
-0.193708
-0.168363
-0.140527
-0.110749
-0.0796223
-0.0477545
-0.0157584
0.0143814
0.0405055
0.0640702
0.0851749
0.103935
0.12048
0.134948
0.147482
0.158226
0.167322
0.174908
0.181112
0.186057
0.189851
0.192593
0.194371
0.195258
0.195318
0.194604
0.193156
0.191007
0.188181
0.184692
0.18055
0.175757
0.170312
0.164208
0.157436
0.149986
0.141843
0.132993
0.123422
0.113116
0.102063
0.0902511
0.0776727
0.0643234
0.0502033
0.035318
0.0196804
0.00331121
-0.0137586
-0.0314865
-0.0498161
-0.0686749
-0.0879717
-0.107594