/*--------------------------------*- C++ -*----------------------------------*\
  =========                 |
  \\      /  F ield         | OpenFOAM: The Open Source CFD Toolbox
   \\    /   O peration     | Website:  https://openfoam.org
    \\  /    A nd           | Version:  dev
     \\/     M anipulation  |
\*---------------------------------------------------------------------------*/
FoamFile
{
    format      ascii;
    class       surfaceScalarField;
    location    "19.8";
    object      phi;
}
// * * * * * * * * * * * * * * * * * * * * * * * * * * * * * * * * * * * * * //

dimensions      [0 3 -1 0 0 0 0];

internalField   nonuniform List<scalar> 
10224
(
3.46823e-08
-3.39269e-08
8.81829e-08
-5.35038e-08
1.24448e-07
-3.6264e-08
1.25234e-07
-7.86647e-10
8.35203e-08
4.17139e-08
-1.98779e-09
8.55101e-08
-1.29481e-07
1.27494e-07
-2.95657e-07
1.66176e-07
-4.96461e-07
2.00803e-07
-7.27598e-07
2.31134e-07
-9.84801e-07
2.57201e-07
-1.26398e-06
2.79181e-07
-1.56131e-06
2.97326e-07
-1.87323e-06
3.11919e-07
-2.19647e-06
3.23244e-07
-2.52804e-06
3.31568e-07
-2.86517e-06
3.37128e-07
-3.20529e-06
3.40124e-07
-3.54601e-06
3.40717e-07
-3.88504e-06
3.3903e-07
-4.22019e-06
3.35146e-07
-4.54931e-06
3.2912e-07
-4.87029e-06
3.20977e-07
-5.181e-06
3.10719e-07
-5.47934e-06
2.98334e-07
-5.76314e-06
2.83802e-07
-6.03024e-06
2.671e-07
-6.27846e-06
2.48212e-07
-6.50559e-06
2.27134e-07
-6.70947e-06
2.03879e-07
-6.88795e-06
1.78486e-07
-7.03898e-06
1.51022e-07
-7.16057e-06
1.21589e-07
-7.25089e-06
9.03266e-08
-7.30831e-06
5.74147e-08
-7.33138e-06
2.30755e-08
-7.31896e-06
-1.24259e-08
-7.27018e-06
-4.87813e-08
-7.18453e-06
-8.56419e-08
-7.06191e-06
-1.22621e-07
-6.90261e-06
-1.59299e-07
-6.70739e-06
-1.95226e-07
-6.47745e-06
-2.29934e-07
-6.21451e-06
-2.62941e-07
-5.92075e-06
-2.93758e-07
-5.59885e-06
-3.21905e-07
-5.25193e-06
-3.46916e-07
-4.88358e-06
-3.68354e-07
-4.49776e-06
-3.85816e-07
-4.09881e-06
-3.98949e-07
-3.69136e-06
-4.07458e-07
-3.28024e-06
-4.11113e-07
-2.87049e-06
-4.09757e-07
-2.46717e-06
-4.03316e-07
-2.07537e-06
-3.91799e-07
-1.70007e-06
-3.75302e-07
-1.34606e-06
-3.54009e-07
-1.01787e-06
-3.28194e-07
-7.19649e-07
-2.98218e-07
-4.5512e-07
-2.64529e-07
-2.27455e-07
-2.27664e-07
-3.92008e-08
-1.88255e-07
1.07837e-07
-1.47038e-07
2.1272e-07
-1.04883e-07
2.75558e-07
-6.28387e-08
2.97779e-07
-2.22218e-08
2.82554e-07
1.52246e-08
2.3547e-07
4.70847e-08
1.65574e-07
6.98961e-08
8.71429e-08
7.84305e-08
2.25314e-08
6.4609e-08
2.25282e-08
5.4297e-08
-8.82273e-08
1.12675e-07
-1.1188e-07
1.18234e-07
-4.18235e-08
3.87542e-08
7.86931e-08
-1.42134e-07
2.22603e-07
-4.29739e-07
3.73116e-07
-8.22295e-07
5.20049e-07
-1.31367e-06
6.57545e-07
-1.8953e-06
7.8243e-07
-2.55739e-06
8.93219e-07
-3.28967e-06
9.89478e-07
-4.0819e-06
1.07141e-06
-4.92417e-06
1.1396e-06
-5.80706e-06
1.1948e-06
-6.72167e-06
1.23786e-06
-7.6597e-06
1.2696e-06
-8.61335e-06
1.29077e-06
-9.57527e-06
1.30205e-06
-1.05385e-05
1.30397e-06
-1.14965e-05
1.29697e-06
-1.24427e-05
1.28135e-06
-1.33709e-05
1.25733e-06
-1.42749e-05
1.22503e-06
-1.51487e-05
1.18448e-06
-1.59861e-05
1.1357e-06
-1.67809e-05
1.07866e-06
-1.75272e-05
1.01333e-06
-1.82186e-05
9.39709e-07
-1.88494e-05
8.57846e-07
-1.94133e-05
7.67855e-07
-1.99048e-05
6.69937e-07
-2.03182e-05
5.64404e-07
-2.06483e-05
4.51687e-07
-2.08903e-05
3.32356e-07
-2.104e-05
2.07123e-07
-2.10938e-05
7.68507e-08
-2.10488e-05
-5.74471e-08
-2.09029e-05
-1.94607e-07
-2.06553e-05
-3.33324e-07
-2.03057e-05
-4.72162e-07
-1.98554e-05
-6.09572e-07
-1.93068e-05
-7.43908e-07
-1.86632e-05
-8.73459e-07
-1.79297e-05
-9.9647e-07
-1.71123e-05
-1.11118e-06
-1.62183e-05
-1.21585e-06
-1.52565e-05
-1.30881e-06
-1.42363e-05
-1.38849e-06
-1.31687e-05
-1.45345e-06
-1.20652e-05
-1.50243e-06
-1.09383e-05
-1.53438e-06
-9.80091e-06
-1.5485e-06
-8.66642e-06
-1.54424e-06
-7.54838e-06
-1.52136e-06
-6.46029e-06
-1.4799e-06
-5.41534e-06
-1.42025e-06
-4.42625e-06
-1.3431e-06
-3.50495e-06
-1.2495e-06
-2.66237e-06
-1.1408e-06
-1.9082e-06
-1.0187e-06
-1.25062e-06
-8.85251e-07
-6.96008e-07
-7.42863e-07
-2.48687e-07
-5.9436e-07
8.94972e-08
-4.43068e-07
3.19614e-07
-2.92956e-07
4.46253e-07
-1.48862e-07
4.7839e-07
-1.69132e-08
4.30479e-07
9.49947e-08
3.23935e-07
1.7644e-07
1.88737e-07
2.1363e-07
6.43093e-08
1.8904e-07
8.68359e-08
3.74638e-08
-1.2569e-07
4.34213e-08
-1.1784e-07
-4.32701e-08
4.48685e-08
-2.58765e-07
2.94191e-07
-6.22615e-07
5.86454e-07
-1.1419e-06
8.92402e-07
-1.81488e-06
1.19302e-06
-2.6339e-06
1.47656e-06
-3.58759e-06
1.73612e-06
-4.66245e-06
1.96808e-06
-5.84392e-06
2.17094e-06
-7.11713e-06
2.34462e-06
-8.46738e-06
2.48985e-06
-9.88045e-06
2.60787e-06
-1.13427e-05
2.70014e-06
-1.28413e-05
2.76815e-06
-1.43638e-05
2.81334e-06
-1.58988e-05
2.83697e-06
-1.74349e-05
2.84011e-06
-1.89616e-05
2.82363e-06
-2.04684e-05
2.78817e-06
-2.19452e-05
2.73418e-06
-2.33821e-05
2.66193e-06
-2.47692e-05
2.57159e-06
-2.60967e-05
2.4632e-06
-2.73549e-05
2.33681e-06
-2.8534e-05
2.19243e-06
-2.96244e-05
2.03016e-06
-3.06168e-05
1.85017e-06
-3.15017e-05
1.65282e-06
-3.22704e-05
1.43862e-06
-3.29144e-05
1.20833e-06
-3.34256e-05
9.62949e-07
-3.3797e-05
7.0376e-07
-3.40223e-05
4.32349e-07
-3.4096e-05
1.50607e-07
-3.40142e-05
-1.39266e-07
-3.3774e-05
-4.34767e-07
-3.33742e-05
-7.33107e-07
-3.28152e-05
-1.03123e-06
-3.20989e-05
-1.32586e-06
-3.12293e-05
-1.61354e-06
-3.02121e-05
-1.89065e-06
-2.9055e-05
-2.15355e-06
-2.77676e-05
-2.39853e-06
-2.63615e-05
-2.62199e-06
-2.48498e-05
-2.82045e-06
-2.32477e-05
-2.99066e-06
-2.15715e-05
-3.12963e-06
-1.98392e-05
-3.23476e-06
-1.80696e-05
-3.3039e-06
-1.62828e-05
-3.33539e-06
-1.44989e-05
-3.32811e-06
-1.27387e-05
-3.28159e-06
-1.10226e-05
-3.19596e-06
-9.37079e-06
-3.07206e-06
-7.8025e-06
-2.91139e-06
-6.33583e-06
-2.71617e-06
-4.9873e-06
-2.48933e-06
-3.77149e-06
-2.2345e-06
-2.70065e-06
-1.9561e-06
-1.78423e-06
-1.65928e-06
-1.02847e-06
-1.35012e-06
-4.35842e-07
-1.03569e-06
-4.45248e-09
-7.24346e-07
2.72752e-07
-4.26067e-07
4.08823e-07
-1.52986e-07
4.23969e-07
7.98466e-08
3.46779e-07
2.53626e-07
2.15413e-07
3.44993e-07
7.85384e-08
3.25916e-07
1.65374e-07
1.94677e-09
-1.27636e-07
-7.88821e-08
-3.70112e-08
-2.9753e-07
2.63518e-07
-6.87653e-07
6.84314e-07
-1.26751e-06
1.16631e-06
-2.04335e-06
1.66824e-06
-3.01237e-06
2.16204e-06
-4.1653e-06
2.62949e-06
-5.48855e-06
3.05937e-06
-6.96582e-06
3.44534e-06
-8.57928e-06
3.7844e-06
-1.03105e-05
4.0758e-06
-1.21409e-05
4.32026e-06
-1.40524e-05
4.51936e-06
-1.60274e-05
4.67514e-06
-1.8049e-05
4.78979e-06
-2.01011e-05
4.86544e-06
-2.21682e-05
4.90404e-06
-2.42353e-05
4.90725e-06
-2.62881e-05
4.87644e-06
-2.83126e-05
4.81264e-06
-3.02951e-05
4.71663e-06
-3.2222e-05
4.58889e-06
-3.40802e-05
4.42976e-06
-3.58564e-05
4.23941e-06
-3.75376e-05
4.01799e-06
-3.91108e-05
3.76567e-06
-4.05634e-05
3.4827e-06
-4.18828e-05
3.16956e-06
-4.30569e-05
2.82692e-06
-4.40741e-05
2.45582e-06
-4.49234e-05
2.05765e-06
-4.55947e-05
1.63423e-06
-4.60787e-05
1.18784e-06
-4.63676e-05
7.21235e-07
-4.64547e-05
2.37706e-07
-4.6335e-05
-2.58975e-07
-4.60052e-05
-7.64538e-07
-4.54641e-05
-1.27425e-06
-4.47124e-05
-1.78296e-06
-4.37531e-05
-2.28515e-06
-4.25916e-05
-2.77501e-06
-4.12357e-05
-3.24653e-06
-3.96957e-05
-3.69358e-06
-3.79842e-05
-4.11005e-06
-3.61163e-05
-4.48992e-06
-3.41093e-05
-4.82744e-06
-3.19827e-05
-5.11719e-06
-2.97581e-05
-5.35428e-06
-2.74585e-05
-5.53439e-06
-2.51084e-05
-5.65397e-06
-2.27335e-05
-5.71027e-06
-2.03601e-05
-5.70151e-06
-1.80148e-05
-5.62689e-06
-1.5724e-05
-5.4867e-06
-1.35138e-05
-5.28235e-06
-1.14087e-05
-5.0164e-06
-9.43231e-06
-4.69261e-06
-7.6057e-06
-4.31593e-06
-5.94766e-06
-3.89255e-06
-4.47386e-06
-3.42989e-06
-3.19643e-06
-2.93672e-06
-2.12332e-06
-2.42323e-06
-1.25773e-06
-1.90128e-06
-5.97442e-07
-1.38464e-06
-1.34023e-07
-8.89488e-07
1.47993e-07
-4.35003e-07
2.72036e-07
-4.41959e-08
2.70522e-07
2.55138e-07
1.85902e-07
4.29611e-07
7.20888e-08
4.3973e-07
2.37463e-07
-4.20258e-08
-8.56083e-08
-2.29904e-07
1.50869e-07
-6.06217e-07
6.39832e-07
-1.19751e-06
1.2756e-06
-2.01748e-06
1.98629e-06
-3.06928e-06
2.72004e-06
-4.34772e-06
3.44047e-06
-5.84136e-06
4.12312e-06
-7.53434e-06
4.75236e-06
-9.40788e-06
5.31888e-06
-1.14414e-05
5.81796e-06
-1.36136e-05
6.24798e-06
-1.59028e-05
6.60946e-06
-1.82877e-05
6.90418e-06
-2.07472e-05
7.13469e-06
-2.32612e-05
7.30381e-06
-2.58102e-05
7.41438e-06
-2.83751e-05
7.46902e-06
-3.09379e-05
7.47002e-06
-3.34807e-05
7.41927e-06
-3.59864e-05
7.31826e-06
-3.84379e-05
7.16811e-06
-4.08186e-05
6.96959e-06
-4.3112e-05
6.72324e-06
-4.53021e-05
6.42943e-06
-4.73726e-05
6.08851e-06
-4.93078e-05
5.70086e-06
-5.10921e-05
5.26703e-06
-5.27104e-05
4.78788e-06
-5.41481e-05
4.26461e-06
-5.53912e-05
3.69891e-06
-5.64266e-05
3.09303e-06
-5.72422e-05
2.44982e-06
-5.78271e-05
1.77282e-06
-5.81722e-05
1.06627e-06
-5.82696e-05
3.35157e-07
-5.81138e-05
-4.14825e-07
-5.7701e-05
-1.17727e-06
-5.70302e-05
-1.9451e-06
-5.61025e-05
-2.71065e-06
-5.49219e-05
-3.46574e-06
-5.34951e-05
-4.20179e-06
-5.18318e-05
-4.9099e-06
-4.99443e-05
-5.58108e-06
-4.7848e-05
-6.20632e-06
-4.55611e-05
-6.7768e-06
-4.31045e-05
-7.28406e-06
-4.05015e-05
-7.72018e-06
-3.77778e-05
-8.07799e-06
-3.4961e-05
-8.35118e-06
-3.20804e-05
-8.53454e-06
-2.91666e-05
-8.62407e-06
-2.6251e-05
-8.61716e-06
-2.33652e-05
-8.51266e-06
-2.05409e-05
-8.31102e-06
-1.78089e-05
-8.01434e-06
-1.51989e-05
-7.62644e-06
-1.27386e-05
-7.15289e-06
-1.04534e-05
-6.60107e-06
-8.36586e-06
-5.98014e-06
-6.49461e-06
-5.30114e-06
-4.85427e-06
-4.57705e-06
-3.45459e-06
-3.82292e-06
-2.29978e-06
-3.05608e-06
-1.38792e-06
-2.29651e-06
-7.10167e-07
-1.56724e-06
-2.50086e-07
-8.95085e-07
1.71393e-08
-3.11422e-07
1.25513e-07
1.46764e-07
1.19123e-07
4.36e-07
5.35353e-08
5.05317e-07
2.90999e-07
-8.9387e-08
3.78002e-09
-3.95093e-07
4.56577e-07
-9.44464e-07
1.1892e-06
-1.75405e-06
2.08519e-06
-2.83064e-06
3.06287e-06
-4.17244e-06
4.06184e-06
-5.77061e-06
5.03863e-06
-7.61076e-06
5.96327e-06
-9.67443e-06
6.81603e-06
-1.19404e-05
7.58481e-06
-1.43855e-05
8.2631e-06
-1.69859e-05
8.84837e-06
-1.97172e-05
9.34081e-06
-2.25554e-05
9.74235e-06
-2.54767e-05
1.00559e-05
-2.84579e-05
1.0285e-05
-3.14765e-05
1.04331e-05
-3.45109e-05
1.05033e-05
-3.75396e-05
1.04988e-05
-4.05421e-05
1.04218e-05
-4.34981e-05
1.02743e-05
-4.63879e-05
1.00579e-05
-4.91919e-05
9.77357e-06
-5.18908e-05
9.42218e-06
-5.44657e-05
9.00434e-06
-5.68979e-05
8.52065e-06
-5.91688e-05
7.97182e-06
-6.12606e-05
7.3588e-06
-6.31557e-05
6.68294e-06
-6.48372e-05
5.94612e-06
-6.62891e-05
5.15087e-06
-6.74966e-05
4.30045e-06
-6.84457e-05
3.39899e-06
-6.91244e-05
2.45151e-06
-6.95221e-05
1.46399e-06
-6.96304e-05
4.434e-07
-6.94429e-05
-6.02345e-07
-6.89558e-05
-1.66437e-06
-6.81679e-05
-2.73294e-06
-6.70811e-05
-3.79752e-06
-6.56999e-05
-4.8469e-06
-6.40324e-05
-5.86933e-06
-6.20896e-05
-6.85271e-06
-5.98859e-05
-7.78475e-06
-5.7439e-05
-8.65322e-06
-5.47697e-05
-9.44612e-06
-5.19018e-05
-1.0152e-05
-4.8862e-05
-1.076e-05
-4.56796e-05
-1.12604e-05
-4.2386e-05
-1.16447e-05
-3.90147e-05
-1.19058e-05
-3.56005e-05
-1.20383e-05
-3.21792e-05
-1.20385e-05
-2.87869e-05
-1.19049e-05
-2.54597e-05
-1.16382e-05
-2.22329e-05
-1.12411e-05
-1.91404e-05
-1.0719e-05
-1.62139e-05
-1.00793e-05
-1.34828e-05
-9.33223e-06
-1.09727e-05
-8.49023e-06
-8.70542e-06
-7.5684e-06
-6.69805e-06
-6.58442e-06
-4.96227e-06
-5.55871e-06
-3.50373e-06
-4.51463e-06
-2.32141e-06
-3.47883e-06
-1.40697e-06
-2.48168e-06
-7.44131e-07
-1.55792e-06
-3.08098e-07
-7.47454e-07
-6.49437e-08
-9.63904e-08
2.90262e-08
3.42029e-07
2.82008e-08
5.06142e-07
3.192e-07
-1.37552e-07
1.41333e-07
-5.65896e-07
8.8492e-07
-1.29647e-06
1.91977e-06
-2.33434e-06
3.12306e-06
-3.6778e-06
4.40633e-06
-5.31878e-06
5.70282e-06
-7.24368e-06
6.96353e-06
-9.43439e-06
8.15399e-06
-1.18694e-05
9.25102e-06
-1.45247e-05
1.02401e-05
-1.73748e-05
1.11132e-05
-2.03933e-05
1.18668e-05
-2.35534e-05
1.2501e-05
-2.68288e-05
1.30177e-05
-3.01931e-05
1.34203e-05
-3.36208e-05
1.37127e-05
-3.70867e-05
1.3899e-05
-4.05665e-05
1.39832e-05
-4.40365e-05
1.39687e-05
-4.74733e-05
1.38586e-05
-5.08542e-05
1.36552e-05
-5.41567e-05
1.33604e-05
-5.73588e-05
1.29756e-05
-6.04387e-05
1.25021e-05
-6.33749e-05
1.19406e-05
-6.61464e-05
1.12921e-05
-6.87324e-05
1.05578e-05
-7.11127e-05
9.73909e-06
-7.32677e-05
8.83792e-06
-7.51786e-05
7.85698e-06
-7.68275e-05
6.79978e-06
-7.81978e-05
5.6708e-06
-7.92744e-05
4.47561e-06
-8.00439e-05
3.22093e-06
-8.04946e-05
1.9147e-06
-8.06173e-05
5.6611e-07
-8.04052e-05
-8.14439e-07
-7.98542e-05
-2.21535e-06
-7.89632e-05
-3.62391e-06
-7.77343e-05
-5.02644e-06
-7.61728e-05
-6.40839e-06
-7.42876e-05
-7.75455e-06
-7.2091e-05
-9.04926e-06
-6.95991e-05
-1.02767e-05
-6.68314e-05
-1.14209e-05
-6.38109e-05
-1.24666e-05
-6.0564e-05
-1.33989e-05
-5.71202e-05
-1.42038e-05
-5.35118e-05
-1.48688e-05
-4.97737e-05
-1.53828e-05
-4.59429e-05
-1.57367e-05
-4.20579e-05
-1.59233e-05
-3.81583e-05
-1.59381e-05
-3.42844e-05
-1.57788e-05
-3.04762e-05
-1.54464e-05
-2.6773e-05
-1.49443e-05
-2.32127e-05
-1.42793e-05
-1.98308e-05
-1.34612e-05
-1.66601e-05
-1.25029e-05
-1.37297e-05
-1.14206e-05
-1.10644e-05
-1.02337e-05
-8.68386e-06
-8.96498e-06
-6.602e-06
-7.64056e-06
-4.82639e-06
-6.29024e-06
-3.35753e-06
-4.94769e-06
-2.18833e-06
-3.65087e-06
-1.30364e-06
-2.44262e-06
-6.79752e-07
-1.37134e-06
-2.84082e-07
-4.9206e-07
-7.48343e-08
1.32782e-07
-6.71746e-10
4.31978e-07
3.18528e-07
-1.85278e-07
3.26611e-07
-7.37435e-07
1.43707e-06
-1.65246e-06
2.8348e-06
-2.92336e-06
4.39396e-06
-4.53906e-06
6.02203e-06
-6.48424e-06
7.648e-06
-8.7397e-06
9.21899e-06
-1.12829e-05
1.06972e-05
-1.40888e-05
1.20569e-05
-1.71305e-05
1.32818e-05
-2.03797e-05
1.43624e-05
-2.38078e-05
1.52949e-05
-2.73858e-05
1.6079e-05
-3.10849e-05
1.67168e-05
-3.48768e-05
1.72121e-05
-3.87336e-05
1.75695e-05
-4.26281e-05
1.77935e-05
-4.65336e-05
1.78888e-05
-5.04242e-05
1.78593e-05
-5.42743e-05
1.77087e-05
-5.80588e-05
1.74397e-05
-6.17531e-05
1.70546e-05
-6.53327e-05
1.65553e-05
-6.87738e-05
1.59432e-05
-7.20527e-05
1.52195e-05
-7.51462e-05
1.43856e-05
-7.80314e-05
1.34431e-05
-8.06862e-05
1.23939e-05
-8.30892e-05
1.12409e-05
-8.52197e-05
9.98747e-06
-8.70583e-05
8.63838e-06
-8.85869e-05
7.19942e-06
-8.9789e-05
5.67776e-06
-9.06501e-05
4.08199e-06
-9.11576e-05
2.42221e-06
-9.13015e-05
7.10016e-07
-9.10745e-05
-1.04148e-06
-9.04721e-05
-2.81774e-06
-8.94931e-05
-4.60285e-06
-8.81399e-05
-6.3797e-06
-8.64181e-05
-8.13018e-06
-8.43373e-05
-9.83533e-06
-8.19109e-05
-1.14757e-05
-7.91561e-05
-1.30315e-05
-7.6094e-05
-1.44831e-05
-7.27494e-05
-1.58112e-05
-6.91508e-05
-1.69975e-05
-6.53301e-05
-1.80245e-05
-6.13222e-05
-1.88766e-05
-5.71651e-05
-1.954e-05
-5.28987e-05
-2.00031e-05
-4.85649e-05
-2.02571e-05
-4.4207e-05
-2.0296e-05
-3.98688e-05
-2.01171e-05
-3.5594e-05
-1.97211e-05
-3.14258e-05
-1.91125e-05
-2.74058e-05
-1.82994e-05
-2.35731e-05
-1.72938e-05
-1.99643e-05
-1.61118e-05
-1.66116e-05
-1.47733e-05
-1.35431e-05
-1.33022e-05
-1.07813e-05
-1.17268e-05
-8.34274e-06
-1.00791e-05
-6.23736e-06
-8.39563e-06
-4.46775e-06
-6.7173e-06
-3.02878e-06
-5.08984e-06
-1.90717e-06
-3.56423e-06
-1.08118e-06
-2.19733e-06
-5.20499e-07
-1.05274e-06
-1.86234e-07
-2.01481e-07
-3.11293e-08
2.76873e-07
2.87398e-07
-2.31931e-07
5.58541e-07
-9.06963e-07
2.1121e-06
-2.00648e-06
3.93431e-06
-3.51142e-06
5.8989e-06
-5.40093e-06
7.91154e-06
-7.65189e-06
9.89896e-06
-1.02389e-05
1.1806e-05
-1.31344e-05
1.35928e-05
-1.63095e-05
1.5232e-05
-1.97339e-05
1.67061e-05
-2.33767e-05
1.80052e-05
-2.72067e-05
1.91249e-05
-3.11927e-05
2.00651e-05
-3.53041e-05
2.08282e-05
-3.95104e-05
2.14184e-05
-4.37817e-05
2.18408e-05
-4.80891e-05
2.21008e-05
-5.24038e-05
2.22035e-05
-5.66979e-05
2.21534e-05
-6.09438e-05
2.19546e-05
-6.51146e-05
2.16104e-05
-6.91835e-05
2.11235e-05
-7.31243e-05
2.04961e-05
-7.6911e-05
1.97299e-05
-8.05181e-05
1.88266e-05
-8.39205e-05
1.7788e-05
-8.70936e-05
1.66161e-05
-9.00133e-05
1.53137e-05
-9.26566e-05
1.38842e-05
-9.50014e-05
1.23322e-05
-9.70266e-05
1.06636e-05
-9.87129e-05
8.88571e-06
-0.000100043
7.00737e-06
-0.000101
5.0392e-06
-0.000101571
2.99359e-06
-0.000101746
8.8473e-07
-0.000101516
-1.27141e-06
-0.000100877
-3.45714e-06
-9.98262e-05
-5.65317e-06
-9.83671e-05
-7.83878e-06
-9.65052e-05
-9.99204e-06
-9.42505e-05
-1.209e-05
-9.1617e-05
-1.41092e-05
-8.86228e-05
-1.60257e-05
-8.52901e-05
-1.78158e-05
-8.16452e-05
-1.94561e-05
-7.77184e-05
-2.09243e-05
-7.35434e-05
-2.21994e-05
-6.91576e-05
-2.32624e-05
-6.46014e-05
-2.40962e-05
-5.99175e-05
-2.46869e-05
-5.5151e-05
-2.50236e-05
-5.03484e-05
-2.50986e-05
-4.55568e-05
-2.49087e-05
-4.08237e-05
-2.44542e-05
-3.61958e-05
-2.37404e-05
-3.17185e-05
-2.27767e-05
-2.74347e-05
-2.15776e-05
-2.33846e-05
-2.0162e-05
-1.96039e-05
-1.85539e-05
-1.61242e-05
-1.6782e-05
-1.29712e-05
-1.48798e-05
-1.01644e-05
-1.28859e-05
-7.71662e-06
-1.08434e-05
-5.63314e-06
-8.80078e-06
-3.91135e-06
-6.81162e-06
-2.5405e-06
-4.93508e-06
-1.50148e-06
-3.23635e-06
-7.66906e-07
-1.78732e-06
-3.01363e-07
-6.67022e-07
-6.20716e-08
3.7582e-08
2.25325e-07
-2.77236e-07
8.35775e-07
-1.07295e-06
2.90781e-06
-2.35488e-06
5.21623e-06
-4.09222e-06
7.63624e-06
-6.25427e-06
1.00736e-05
-8.80979e-06
1.24545e-05
-1.17268e-05
1.47229e-05
-1.49725e-05
1.68384e-05
-1.85135e-05
1.8773e-05
-2.23161e-05
2.05087e-05
-2.63465e-05
2.20356e-05
-3.0571e-05
2.33494e-05
-3.49563e-05
2.44504e-05
-3.94696e-05
2.53415e-05
-4.40787e-05
2.60275e-05
-4.87521e-05
2.65142e-05
-5.34589e-05
2.68076e-05
-5.81687e-05
2.69133e-05
-6.2852e-05
2.68366e-05
-6.74794e-05
2.65821e-05
-7.20223e-05
2.61533e-05
-7.64523e-05
2.55535e-05
-8.07413e-05
2.47851e-05
-8.48617e-05
2.38504e-05
-8.87864e-05
2.27513e-05
-9.24885e-05
2.14901e-05
-9.59418e-05
2.00694e-05
-9.91208e-05
1.84927e-05
-0.000102001
1.67642e-05
-0.000104558
1.48897e-05
-0.000106771
1.28763e-05
-0.000108618
1.07328e-05
-0.000110081
8.46987e-06
-0.000111142
6.10034e-06
-0.000111787
3.63896e-06
-0.000112005
1.1026e-06
-0.000111787
-1.48977e-06
-0.000111127
-4.11718e-06
-0.000110023
-6.7568e-06
-0.000108478
-9.38413e-06
-0.000106496
-1.19732e-05
-0.000104089
-1.44971e-05
-0.000101271
-1.69278e-05
-9.80594e-05
-1.92371e-05
-9.44782e-05
-2.1397e-05
-9.05545e-05
-2.33798e-05
-8.63199e-05
-2.51589e-05
-8.18099e-05
-2.67094e-05
-7.70638e-05
-2.80085e-05
-7.2124e-05
-2.9036e-05
-6.70362e-05
-2.97748e-05
-6.18479e-05
-3.02118e-05
-5.66089e-05
-3.03376e-05
-5.13697e-05
-3.01478e-05
-4.61813e-05
-2.96427e-05
-4.10941e-05
-2.88276e-05
-3.61572e-05
-2.77136e-05
-3.14175e-05
-2.63172e-05
-2.69189e-05
-2.46606e-05
-2.27013e-05
-2.27715e-05
-1.87997e-05
-2.06836e-05
-1.52435e-05
-1.8436e-05
-1.20558e-05
-1.60736e-05
-9.2526e-06
-1.36466e-05
-6.84247e-06
-1.12109e-05
-4.82588e-06
-8.82822e-06
-3.19511e-06
-6.56585e-06
-1.93419e-06
-4.49727e-06
-1.01908e-06
-2.70243e-06
-4.18114e-07
-1.26798e-06
-9.29464e-08
-2.87585e-07
1.32379e-07
-3.21079e-07
1.15685e-06
-1.23455e-06
3.82128e-06
-2.69544e-06
6.67712e-06
-4.66166e-06
9.60246e-06
-7.0928e-06
1.25047e-05
-9.94944e-06
1.53111e-05
-1.31928e-05
1.79663e-05
-1.67846e-05
2.04302e-05
-2.06868e-05
2.26753e-05
-2.48622e-05
2.46841e-05
-2.92737e-05
2.64471e-05
-3.38852e-05
2.79609e-05
-3.86611e-05
2.92263e-05
-4.35668e-05
3.02472e-05
-4.85684e-05
3.10291e-05
-5.36327e-05
3.15785e-05
-5.87272e-05
3.19021e-05
-6.38202e-05
3.20064e-05
-6.88806e-05
3.1897e-05
-7.38777e-05
3.15791e-05
-7.87813e-05
3.10568e-05
-8.35614e-05
3.03337e-05
-8.81888e-05
2.94124e-05
-9.26342e-05
2.82958e-05
-9.6869e-05
2.69861e-05
-0.000100865
2.5486e-05
-0.000104594
2.37989e-05
-0.00010803
2.19287e-05
-0.000111147
1.98808e-05
-0.000113919
1.76619e-05
-0.000116323
1.52804e-05
-0.000118337
1.27469e-05
-0.000119941
1.00739e-05
-0.000121117
7.27625e-06
-0.00012185
4.37125e-06
-0.000122126
1.37855e-06
-0.000121936
-1.67982e-06
-0.000121273
-4.7795e-06
-0.000120136
-7.89402e-06
-0.000118525
-1.0995e-05
-0.000116446
-1.40522e-05
-0.000113909
-1.70345e-05
-0.000110927
-1.99093e-05
-0.00010752
-2.2644e-05
-0.000103712
-2.52057e-05
-9.9529e-05
-2.75623e-05
-9.50051e-05
-2.96828e-05
-9.01768e-05
-3.15377e-05
-8.50849e-05
-3.31004e-05
-7.9774e-05
-3.43469e-05
-7.42919e-05
-3.52569e-05
-6.8689e-05
-3.58146e-05
-6.3018e-05
-3.60087e-05
-5.73327e-05
-3.58331e-05
-5.16877e-05
-3.52877e-05
-4.61373e-05
-3.43781e-05
-4.07344e-05
-3.31165e-05
-3.55302e-05
-3.15214e-05
-3.05727e-05
-2.96181e-05
-2.59059e-05
-2.74383e-05
-2.15691e-05
-2.50204e-05
-1.75958e-05
-2.24094e-05
-1.4013e-05
-1.96564e-05
-1.08405e-05
-1.6819e-05
-8.0907e-06
-1.39608e-05
-5.76754e-06
-1.11514e-05
-3.86685e-06
-8.46654e-06
-2.37616e-06
-5.98795e-06
-1.27502e-06
-3.80358e-06
-5.35559e-07
-2.00745e-06
-1.23551e-07
-6.99593e-07
8.82753e-09
-3.63421e-07
1.52027e-06
-1.3913e-06
4.84915e-06
-3.02676e-06
8.31258e-06
-5.21699e-06
1.17927e-05
-7.91213e-06
1.51999e-05
-1.10647e-05
1.84637e-05
-1.46291e-05
2.15307e-05
-1.85612e-05
2.43624e-05
-2.28186e-05
2.69327e-05
-2.736e-05
2.92255e-05
-3.21454e-05
3.12325e-05
-3.71359e-05
3.29514e-05
-4.22939e-05
3.43843e-05
-4.75828e-05
3.55361e-05
-5.29671e-05
3.64133e-05
-5.84121e-05
3.70235e-05
-6.3884e-05
3.73741e-05
-6.93498e-05
3.74722e-05
-7.47771e-05
3.73243e-05
-8.01339e-05
3.6936e-05
-8.53889e-05
3.63118e-05
-9.05108e-05
3.54556e-05
-9.54691e-05
3.43707e-05
-0.000100233
3.306e-05
-0.000104773
3.15263e-05
-0.00010906
2.97728e-05
-0.000113065
2.78032e-05
-0.000116758
2.56225e-05
-0.000120114
2.32367e-05
-0.000123106
2.06536e-05
-0.000125709
1.78833e-05
-0.000127899
1.49375e-05
-0.000129656
1.18309e-05
-0.000130961
8.5805e-06
-0.000131795
5.20602e-06
-0.000132147
1.72994e-06
-0.000132004
-1.82258e-06
-0.00013136
-5.42377e-06
-0.00013021
-9.04341e-06
-0.000128556
-1.26491e-05
-0.000126402
-1.62064e-05
-0.000123757
-1.96796e-05
-0.000120635
-2.30316e-05
-0.000117054
-2.62248e-05
-0.000113038
-2.92215e-05
-0.000108616
-3.19848e-05
-0.00010382
-3.44787e-05
-9.86884e-05
-3.66693e-05
-9.32634e-05
-3.85254e-05
-8.75913e-05
-4.00189e-05
-8.17221e-05
-4.11262e-05
-7.57088e-05
-4.18279e-05
-6.96069e-05
-4.21105e-05
-6.34738e-05
-4.19663e-05
-5.73675e-05
-4.13939e-05
-5.13464e-05
-4.03992e-05
-4.54678e-05
-3.89951e-05
-3.97871e-05
-3.72021e-05
-3.4357e-05
-3.50482e-05
-2.92261e-05
-3.25692e-05
-2.44384e-05
-2.98082e-05
-2.00318e-05
-2.68159e-05
-1.6038e-05
-2.36502e-05
-1.24811e-05
-2.03758e-05
-9.37767e-06
-1.70642e-05
-6.73571e-06
-1.37933e-05
-4.55498e-06
-1.06473e-05
-2.82679e-06
-7.71614e-06
-1.53438e-06
-5.09598e-06
-6.53596e-07
-2.88823e-06
-1.53912e-07
-1.19928e-06
-1.45084e-07
-4.04249e-07
1.92452e-06
-1.54288e-06
5.98779e-06
-3.3479e-06
1.01176e-05
-5.75627e-06
1.42011e-05
-8.70907e-06
1.81527e-05
-1.21509e-05
2.19055e-05
-1.60293e-05
2.54091e-05
-2.02948e-05
2.86278e-05
-2.48999e-05
3.15378e-05
-2.97997e-05
3.41252e-05
-3.49508e-05
3.63836e-05
-4.03118e-05
3.83125e-05
-4.5843e-05
3.99155e-05
-5.15058e-05
4.1199e-05
-5.72634e-05
4.21709e-05
-6.30795e-05
4.28397e-05
-6.89194e-05
4.32139e-05
-7.47486e-05
4.33015e-05
-8.05338e-05
4.31095e-05
-8.6242e-05
4.26442e-05
-9.18408e-05
4.19105e-05
-9.72979e-05
4.09127e-05
-0.000102582
3.96545e-05
-0.000107661
3.8139e-05
-0.000112504
3.63695e-05
-0.000117081
3.43496e-05
-0.000121361
3.20837e-05
-0.000125316
2.95772e-05
-0.000128916
2.68372e-05
-0.000132135
2.38725e-05
-0.000134946
2.06944e-05
-0.000137325
1.73164e-05
-0.000139249
1.37549e-05
-0.000140698
1.00291e-05
-0.000141653
6.16117e-06
-0.0001421
2.17638e-06
-0.000142025
-1.89698e-06
-0.000141421
-6.02769e-06
-0.000140283
-1.01818e-05
-0.000138609
-1.43227e-05
-0.000136404
-1.84119e-05
-0.000133675
-2.24087e-05
-0.000130435
-2.62713e-05
-0.000126703
-2.99572e-05
-0.000122501
-3.34235e-05
-0.000117857
-3.66281e-05
-0.000112806
-3.95298e-05
-0.000107386
-4.20898e-05
-0.000101639
-4.42719e-05
-9.56145e-05
-4.60437e-05
-8.93635e-05
-4.73771e-05
-8.29419e-05
-4.82496e-05
-7.6408e-05
-4.86444e-05
-6.98227e-05
-4.85516e-05
-6.32478e-05
-4.79688e-05
-5.67459e-05
-4.69011e-05
-5.03788e-05
-4.53621e-05
-4.42069e-05
-4.3374e-05
-3.82878e-05
-4.09674e-05
-3.26752e-05
-3.81817e-05
-2.74182e-05
-3.50652e-05
-2.25601e-05
-3.1674e-05
-1.81375e-05
-2.80729e-05
-1.41794e-05
-2.43339e-05
-1.0707e-05
-2.05366e-05
-7.73303e-06
-1.67674e-05
-5.26134e-06
-1.3119e-05
-3.28731e-06
-9.69017e-06
-1.79797e-06
-6.58532e-06
-7.72694e-07
-3.9135e-06
-1.84207e-07
-1.78777e-06
-3.29291e-07
-4.43552e-07
2.36807e-06
-1.6891e-06
7.23333e-06
-3.65816e-06
1.20867e-05
-6.27804e-06
1.6821e-05
-9.4811e-06
2.13557e-05
-1.32043e-05
2.56286e-05
-1.73886e-05
2.95935e-05
-2.19789e-05
3.32181e-05
-2.69231e-05
3.64821e-05
-3.21723e-05
3.93744e-05
-3.76801e-05
4.18914e-05
-4.34025e-05
4.40348e-05
-4.92975e-05
4.58105e-05
-5.53249e-05
4.72264e-05
-6.14463e-05
4.82922e-05
-6.76243e-05
4.90177e-05
-7.3823e-05
4.94125e-05
-8.0007e-05
4.94856e-05
-8.61421e-05
4.92446e-05
-9.21945e-05
4.86965e-05
-9.81306e-05
4.78467e-05
-0.000103918
4.66998e-05
-0.000109523
4.52599e-05
-0.000114915
4.35305e-05
-0.00012006
4.15151e-05
-0.000124929
3.92178e-05
-0.000129488
3.66434e-05
-0.000133709
3.37981e-05
-0.000137562
3.06897e-05
-0.000141017
2.73281e-05
-0.000144049
2.37258e-05
-0.00014663
1.98977e-05
-0.000148737
1.58621e-05
-0.000150348
1.16402e-05
-0.000151444
7.25673e-06
-0.000152007
2.73956e-06
-0.000152024
-1.87991e-06
-0.000151485
-6.56703e-06
-0.000150382
-1.12841e-05
-0.000148715
-1.59904e-05
-0.000146484
-2.0643e-05
-0.000143696
-2.51965e-05
-0.000140363
-2.96042e-05
-0.000136502
-3.38181e-05
-0.000132135
-3.77902e-05
-0.000127291
-4.14727e-05
-0.000122001
-4.48191e-05
-0.000116306
-4.77849e-05
-0.000110249
-5.03288e-05
-0.00010388
-5.24131e-05
-9.72515e-05
-5.40053e-05
-9.04225e-05
-5.50786e-05
-8.34541e-05
-5.56128e-05
-7.64104e-05
-5.55953e-05
-6.93576e-05
-5.50216e-05
-6.23626e-05
-5.38961e-05
-5.54921e-05
-5.22326e-05
-4.88118e-05
-5.00543e-05
-4.23847e-05
-4.73944e-05
-3.62704e-05
-4.42961e-05
-3.05236e-05
-4.0812e-05
-2.51933e-05
-3.70043e-05
-2.03218e-05
-3.29444e-05
-1.59438e-05
-2.8712e-05
-1.20855e-05
-2.43949e-05
-8.7646e-06
-2.00882e-05
-5.9897e-06
-1.58939e-05
-3.76037e-06
-1.19195e-05
-2.06746e-06
-8.27822e-06
-8.93728e-07
-5.08724e-06
-2.14713e-07
-2.46678e-06
-5.44005e-07
-4.81311e-07
2.84939e-06
-1.82975e-06
8.58177e-06
-3.95694e-06
1.42138e-05
-6.78103e-06
1.9645e-05
-1.02261e-05
2.48008e-05
-1.42217e-05
2.96243e-05
-1.87026e-05
3.40744e-05
-2.3608e-05
3.81236e-05
-2.88815e-05
4.17556e-05
-3.44703e-05
4.49631e-05
-4.03248e-05
4.77459e-05
-4.63984e-05
5.01085e-05
-5.26472e-05
5.20593e-05
-5.90294e-05
5.36086e-05
-6.55049e-05
5.47678e-05
-7.20355e-05
5.55483e-05
-7.85841e-05
5.59611e-05
-8.51147e-05
5.60162e-05
-9.15922e-05
5.57221e-05
-9.7982e-05
5.50863e-05
-0.00010425
5.41148e-05
-0.000110363
5.28127e-05
-0.000116287
5.11843e-05
-0.00012199
4.92333e-05
-0.000127439
4.69637e-05
-0.000132601
4.43799e-05
-0.000137445
4.14871e-05
-0.000141939
3.8292e-05
-0.000146052
3.48033e-05
-0.000149756
3.10317e-05
-0.000153021
2.69908e-05
-0.00015582
2.26971e-05
-0.000158129
1.81704e-05
-0.000159922
1.34339e-05
-0.00016118
8.51457e-06
-0.000161884
3.44301e-06
-0.000162017
-1.74643e-06
-0.000161568
-7.01576e-06
-0.000160529
-1.23235e-05
-0.000158894
-1.7625e-05
-0.000156665
-2.28726e-05
-0.000153845
-2.80163e-05
-0.000150445
-3.30042e-05
-0.00014648
-3.7783e-05
-0.000141971
-4.22988e-05
-0.000136946
-4.64982e-05
-0.000131436
-5.03286e-05
-0.000125482
-5.37397e-05
-0.000119126
-5.66842e-05
-0.00011242
-5.91191e-05
-0.000105419
-6.10064e-05
-9.81833e-05
-6.23145e-05
-9.0777e-05
-6.30191e-05
-8.32681e-05
-6.31042e-05
-7.57268e-05
-6.25629e-05
-6.82248e-05
-6.13981e-05
-6.08342e-05
-5.96231e-05
-5.36263e-05
-5.72622e-05
-4.66703e-05
-5.43505e-05
-4.00318e-05
-5.09345e-05
-3.37722e-05
-4.70716e-05
-2.79469e-05
-4.28297e-05
-2.26043e-05
-3.82869e-05
-1.77853e-05
-3.3531e-05
-1.3522e-05
-2.86582e-05
-9.83745e-06
-2.37728e-05
-6.74531e-06
-1.8986e-05
-4.24962e-06
-1.44152e-05
-2.34514e-06
-1.01827e-05
-1.01785e-06
-6.41453e-06
-2.45778e-07
-3.23885e-06
-7.89784e-07
-5.1749e-07
3.36688e-06
-1.96461e-06
1.00289e-05
-4.24365e-06
1.64929e-05
-7.26407e-06
2.26655e-05
-1.09421e-05
2.84788e-05
-1.52003e-05
3.38825e-05
-1.99673e-05
3.88414e-05
-2.51772e-05
4.33334e-05
-3.0769e-05
4.73474e-05
-3.66863e-05
5.08804e-05
-4.28764e-05
5.3936e-05
-4.92905e-05
5.65225e-05
-5.58824e-05
5.86512e-05
-6.26088e-05
6.0335e-05
-6.94284e-05
6.15874e-05
-7.63019e-05
6.24218e-05
-8.31914e-05
6.28507e-05
-9.00603e-05
6.2885e-05
-9.68727e-05
6.25345e-05
-0.000103594
6.18072e-05
-0.000110189
6.07098e-05
-0.000116624
5.92477e-05
-0.000122865
5.74254e-05
-0.000128879
5.52471e-05
-0.000134632
5.27169e-05
-0.000140091
4.98394e-05
-0.000145224
4.66203e-05
-0.000149999
4.30668e-05
-0.000154384
3.91881e-05
-0.000158348
3.49958e-05
-0.000161862
3.05045e-05
-0.000164896
2.57318e-05
-0.000167425
2.06991e-05
-0.000169423
1.54315e-05
-0.000170866
9.95808e-06
-0.000171735
4.31184e-06
-0.000172012
-1.46996e-06
-0.000171681
-7.3461e-06
-0.000170733
-1.32715e-05
-0.000169161
-1.91973e-05
-0.000166962
-2.50716e-05
-0.000164139
-3.08394e-05
-0.000160699
-3.64436e-05
-0.000156657
-4.18253e-05
-0.000152031
-4.69247e-05
-0.000146847
-5.16821e-05
-0.000141137
-5.60386e-05
-0.000134939
-5.99376e-05
-0.000128298
-6.33253e-05
-0.000121265
-6.61524e-05
-0.000113896
-6.8375e-05
-0.000106255
-6.99561e-05
-9.84075e-05
-7.08664e-05
-9.0426e-05
-7.10857e-05
-8.23851e-05
-7.06039e-05
-7.43613e-05
-6.94218e-05
-6.64327e-05
-6.75518e-05
-5.86765e-05
-6.50183e-05
-5.11687e-05
-6.18584e-05
-4.39818e-05
-5.81214e-05
-3.71843e-05
-5.38691e-05
-3.08385e-05
-4.91754e-05
-2.50002e-05
-4.41252e-05
-1.97169e-05
-3.88143e-05
-1.50272e-05
-3.33479e-05
-1.096e-05
-2.78399e-05
-7.53451e-06
-2.24115e-05
-4.75948e-06
-1.71902e-05
-2.63372e-06
-1.23085e-05
-1.14641e-06
-7.90184e-06
-2.77795e-07
-4.10746e-06
-1.06758e-06
-5.52034e-07
3.91891e-06
-2.09343e-06
1.15703e-05
-4.51764e-06
1.89171e-05
-7.72596e-06
2.58738e-05
-1.16272e-05
3.238e-05
-1.61372e-05
3.83926e-05
-2.1179e-05
4.38831e-05
-2.66815e-05
4.8836e-05
-3.25796e-05
5.32455e-05
-3.88133e-05
5.7114e-05
-4.53271e-05
6.04498e-05
-5.20696e-05
6.32651e-05
-5.8993e-05
6.55746e-05
-6.60524e-05
6.73943e-05
-7.32054e-05
6.87404e-05
-8.04117e-05
6.96281e-05
-8.76327e-05
7.00717e-05
-9.48312e-05
7.00835e-05
-0.000101971