/*--------------------------------*- C++ -*----------------------------------*\
  =========                 |
  \\      /  F ield         | OpenFOAM: The Open Source CFD Toolbox
   \\    /   O peration     | Website:  https://openfoam.org
    \\  /    A nd           | Version:  dev
     \\/     M anipulation  |
\*---------------------------------------------------------------------------*/
FoamFile
{
    format      ascii;
    class       volScalarField;
    location    "48.15";
    object      p;
}
// * * * * * * * * * * * * * * * * * * * * * * * * * * * * * * * * * * * * * //

dimensions      [0 2 -2 0 0 0 0];

internalField   nonuniform List<scalar> 
5184
(
7.42779e-07
-1.13074e-05
-9.73163e-05
-0.000250272
-0.000449772
-0.00067854
-0.000922346
-0.00116921
-0.00140998
-0.00163752
-0.0018464
-0.00203261
-0.00219319
-0.00232605
-0.00242973
-0.0025032
-0.0025458
-0.00255708
-0.00253678
-0.00248473
-0.00240083
-0.00228507
-0.00213751
-0.00195827
-0.00174759
-0.00150586
-0.00123362
-0.000931607
-0.00060082
-0.000242532
0.000141675
0.000549871
0.000979766
0.00142868
0.00189356
0.00237096
0.00285705
0.00334767
0.00383833
0.00432431
0.00480064
0.00526226
0.00570405
0.0061209
0.00650788
0.00686027
0.00717369
0.00744424
0.00766852
0.0078438
0.00796807
0.00804014
0.00805964
0.00802715
0.00794417
0.00781314
0.00763746
0.00742145
0.00717032
0.00689014
0.00658776
0.0062708
0.00594757
0.00562704
0.00531876
0.00503283
0.00477976
0.00457016
0.00441399
0.00431968
0.00429272
0.00431998
1.3767e-05
1.22478e-06
-7.3421e-05
-0.00020125
-0.000366587
-0.000556952
-0.000761416
-0.000970371
-0.00117589
-0.00137158
-0.00155239
-0.00171442
-0.00185468
-0.00197096
-0.0020616
-0.00212541
-0.00216153
-0.00216936
-0.00214846
-0.00209855
-0.00201946
-0.00191109
-0.00177346
-0.00160667
-0.00141094
-0.00118664
-0.000934299
-0.000654645
-0.000348639
-1.74983e-05
0.000337271
0.000713851
0.00111009
0.0015235
0.00195123
0.00239011
0.00283661
0.00328691
0.00373692
0.0041823
0.00461857
0.00504111
0.00544528
0.0058265
0.0061803
0.00650247
0.00678909
0.00703669
0.00724228
0.00740346
0.00751853
0.00758649
0.00760714
0.0075811
0.00750986
0.00739574
0.00724193
0.00705244
0.00683207
0.00658638
0.00632163
0.00604468
0.00576299
0.00548447
0.00521745
0.00497049
0.00475227
0.00457119
0.00443455
0.00434826
0.00431968
0.00434723
0.000100364
7.56541e-05
2.86348e-07
-0.000117311
-0.000265095
-0.000433424
-0.000613588
-0.000797749
-0.000979206
-0.0011524
-0.00131282
-0.00145687
-0.00158174
-0.00168527
-0.00176581
-0.00182211
-0.00185324
-0.00185852
-0.00183745
-0.00178967
-0.00171494
-0.0016131
-0.00148414
-0.0013281
-0.00114517
-0.00093569
-0.000700136
-0.000439192
-0.000153756
0.00015503
0.000485753
0.000836711
0.00120589
0.00159097
0.00198929
0.00239788
0.00281348
0.00323252
0.00365119
0.00406549
0.00447123
0.00486415
0.00523996
0.0055944
0.00592337
0.00622297
0.00648962
0.00672011
0.00691173
0.00706231
0.00717032
0.00723492
0.00725597
0.00723414
0.00717087
0.00706839
0.00692971
0.00675861
0.00655958
0.00633779
0.00609899
0.00584949
0.00559605
0.0053458
0.0051061
0.00488439
0.00468819
0.00452453
0.00439949
0.00431828
0.00429052
0.00432114
0.000255443
0.000204045
0.000116216
-2.78676e-06
-0.000145289
-0.00030351
-0.000470321
-0.000639352
-0.000805058
-0.000962752
-0.00110856
-0.00123934
-0.00135259
-0.00144635
-0.00151908
-0.0015696
-0.00159701
-0.00160061
-0.00157989
-0.00153444
-0.00146399
-0.00136834
-0.00124741
-0.00110121
-0.00092987
-0.000733656
-0.000512992
-0.000268482
-9.4138e-07
0.000288585
0.000598794
0.000928108
0.00127466
0.00163626
0.00201045
0.00239444
0.00278514
0.00317923
0.00357312
0.00396302
0.00434499
0.00471502
0.00506904
0.00540305
0.00571315
0.00599568
0.00624724
0.00646483
0.00664588
0.00678838
0.00689088
0.00695261
0.00697349
0.00695419
0.00689608
0.00680133
0.00667281
0.00651409
0.00632942
0.00612365
0.00590216
0.0056708
0.00543578
0.00520359
0.0049809
0.00477437
0.00459061
0.0044359
0.00431569
0.00423505
0.00420405
0.00422933
0.000460273
0.000371669
0.000263046
0.000135301
-9.11432e-06
-0.000164032
-0.000323679
-0.000483052
-0.000637739
-0.00078394
-0.000918472
-0.00103872
-0.00114258
-0.00122835
-0.00129471
-0.00134061
-0.00136521
-0.00136786
-0.00134806
-0.00130539
-0.00123954
-0.00115029
-0.0010375
-0.000901116
-0.000741204
-0.000557952
-0.000351698
-0.000122955
0.000127569
0.000398943
0.000689988
0.000999262
0.00132504
0.00166531
0.00201775
0.00237976
0.00274845
0.00312065
0.00349298
0.00386185
0.0042235
0.0045741
0.00490977
0.00522668
0.00552111
0.00578951
0.00602865
0.00623563
0.006408
0.00654379
0.00664165
0.00670082
0.00672124
0.00670353
0.00664905
0.00655984
0.00643867
0.00628894
0.00611467
0.00592044
0.00571132
0.00549274
0.00527045
0.00505043
0.00483872
0.00464135
0.00446424
0.00431298
0.00419256
0.00410775
0.00406738
0.00407725
0.000698682
0.000566642
0.000431445
0.00028936
0.000137376
-1.9731e-05
-0.000177355
-0.000331751
-0.000479582
-0.000617924
-0.000744302
-0.000856668
-0.000953348
-0.00103299
-0.00109451
-0.00113704
-0.00115986
-0.00116241
-0.0011442
-0.00110484
-0.001044
-0.000961415
-0.000856893
-0.000730322
-0.000581685
-0.000411082
-0.000218748
-5.08616e-06
0.000229316
0.000483655
0.000756891
0.00104773
0.00135459
0.00167562
0.00200866
0.00235127
0.00270073
0.00305403
0.00340795
0.00375904
0.0041037
0.00443824
0.0047589
0.00506196
0.0053438
0.00560098
0.00583032
0.00602898
0.00619455
0.00632511
0.0064193
0.00647636
0.00649621
0.00647942
0.00642728
0.00634176
0.00622549
0.00608173
0.00591432
0.00572761
0.00552638
0.00531574
0.00510107
0.00488788
0.00468171
0.00448807
0.00431229
0.00415941
0.00403399
0.00394043
0.00388525
0.00387221
0.000956877
0.000778083
0.000612504
0.000451914
0.00028794
0.000124191
-3.57095e-05
-0.00018916
-0.000333826
-0.000467619
-0.000588766
-0.000695795
-0.000787499
-0.000862893
-0.000921176
-0.000961687
-0.00098387
-0.000987249
-0.000971405
-0.000935963
-0.000880588
-0.000804984
-0.000708904
-0.000592164
-0.000454658
-0.000296385
-0.000117468
8.18178e-05
0.000301015
0.000539463
0.000796269
0.00107029
0.0013601
0.001664
0.00197999
0.00230577
0.00263878
0.00297614
0.00331476
0.0036513
0.00398229
0.0043041
0.00461307
0.00490552
0.0051779
0.00542677
0.00564898
0.0058417
0.00600249
0.00612941
0.00622107
0.00627667
0.00629606
0.00627976
0.00622897
0.00614557
0.00603208
0.00589163
0.00572791
0.00554506
0.00534765
0.00514053
0.00492875
0.00471748
0.00451185
0.00431694
0.0041376
0.0039784
0.00384357
0.00373715
0.00366283
0.00362184
0.00122272
0.000995844
0.000797624
0.000615672
0.000436501
0.000262752
9.72157e-05
-5.85352e-05
-0.000203092
-0.000335158
-0.000453636
-0.000557626
-0.000646392
-0.000719332
-0.000775946
-0.000815803
-0.000838519
-0.000843734
-0.000831099
-0.000800272
-0.000750913
-0.000682697
-0.00059532
-0.000488519
-0.000362095
-0.000215931
-5.00281e-05
0.000135475
0.000340266
0.000563836
0.000805446
0.00106411
0.00133856
0.00162726
0.00192835
0.00223968
0.00255879
0.00288296
0.00320917
0.00353419
0.0038546
0.00416683
0.00446725
0.00475219
0.00501808
0.00526149
0.00547921
0.00566835
0.00582642
0.00595141
0.00604184
0.00609684
0.00611616
0.00610023
0.00605017
0.00596774
0.00585536
0.00571605
0.00555335
0.00537126
0.00517417
0.00496671
0.00475371
0.00454006
0.00433058
0.00413
0.00394279
0.00377314
0.00362505
0.00350225
0.00340546
0.0033333
0.00148596
0.00121077
0.00097874
0.000773592
0.000577001
0.0003908
0.000217074
5.6464e-05
-9.0472e-05
-0.000223177
-0.0003412
-0.000444195
-0.00053189
-0.000604065
-0.000660527
-0.000701086
-0.000725533
-0.000733634
-0.000725118
-0.000699675
-0.000656968
-0.000596637
-0.000518318
-0.000421666
-0.000306376
-0.000172211
-1.90362e-05
0.000153155
0.000344208
0.00055377
0.00078127
0.00102588
0.0012865
0.00156174
0.00184988
0.00214892
0.0024565
0.00277001
0.00308651
0.00340283
0.00371559
0.00402122
0.00431609
0.00459651
0.00485884
0.00509959
0.00531545
0.00550344
0.00566096
0.00578587
0.00587657
0.00593206
0.00595199
0.00593666
0.00588707
0.00580488
0.0056924
0.00555252
0.00538869
0.00520478
0.00500504
0.00479395
0.00457616
0.00435636
0.00413917
0.00392906
0.00373021
0.00354651
0.00338183
0.0032397
0.00311794
0.00301261
0.00173759
0.0014146
0.00114835
0.000918944
0.000703467
0.00050308
0.000319259
0.000151803
4.82041e-07
-0.000134835
-0.000254307
-0.000358116
-0.000446439
-0.000519432
-0.000577202
-0.000619797
-0.000647188
-0.000659264
-0.000655831
-0.000636616
-0.000601277
-0.000549417
-0.000480609
-0.000394416
-0.00029042
-0.000168256
-2.76432e-05
0.000131582
0.000309427
0.000505712
0.000720033
0.000951735
0.00119988
0.00146322
0.00174021
0.00202893
0.00232718
0.0026324
0.00294172
0.00325201
0.0035599
0.00386181
0.00415406
0.00443288
0.00469456
0.00493547
0.00515217
0.00534154
0.00550082
0.0056277
0.00572041
0.00577779
0.00579933
0.00578518
0.00573619
0.00565392
0.00554055
0.00539887
0.00523222
0.00504438
0.0048395
0.00462196
0.0043963
0.00416708
0.00393878
0.00371572
0.00350189
0.00330099
0.00311685
0.00295293
0.00280427
0.00266455
0.00196969
0.00159982
0.00129948
0.00104532
0.000810077
0.000594339
0.000399049
0.000223232
6.59337e-05
-7.36228e-05
-0.000196168
-0.000302384
-0.000392879
-0.000468164
-0.000528639
-0.00057458
-0.000606131
-0.000623302
-0.00062597
-0.000613893
-0.000586718
-0.000544009
-0.000485265
-0.00040995
-0.000317528
-0.000207492
-7.94076e-05
6.70546e-05
0.000232077
0.000415656
0.000617569
0.000837334
0.00107418
0.00132703
0.00159445
0.00187469
0.0021656
0.00246473
0.00276926
0.00307606
0.00338176
0.00368275
0.00397524
0.00425539
0.00451933
0.00476329
0.00498365
0.00517708
0.00534062
0.00547174
0.00556848
0.00562945
0.00565394
0.00564193
0.0055941
0.00551185
0.00539724
0.00525296
0.00508226
0.00488884
0.00467679
0.00445044
0.00421426
0.00397275
0.00373036
0.00349132
0.00325956
0.00303866
0.00283256
0.00264474
0.00246764
0.00229271
0.00217509
0.00175956
0.00142561
0.00114661
0.000891179
0.000659374
0.000451668
0.000266369
0.000101845
-4.32811e-05
-0.000170279
-0.000280303
-0.000374365
-0.000453315
-0.000517829
-0.0005684
-0.000605332
-0.000628744
-0.000638581
-0.000634618
-0.00061649
-0.000583707
-0.000535689
-0.000471792
-0.000391351
-0.00029371
-0.000178269
-4.45232e-05
0.000107894
0.000279167
0.000469262
0.000677879
0.000904425
0.00114798
0.00140726
0.00168063
0.00196605
0.00226114
0.00256311
0.00286885
0.00317495
0.00347773
0.00377331
0.00405771
0.0043269
0.00457688
0.00480385
0.00500421
0.00517474
0.00531267
0.00541576
0.00548236
0.00551154
0.00550303
0.00545732
0.00537564
0.0052599
0.00511268
0.00493714
0.00473694
0.00451612
0.00427899
0.00403005
0.00377379
0.00351468
0.00325698
0.00300464
0.00276124
0.00253092
0.00231734
0.00211046
0.00189964
0.00234724
0.00188742
0.0015206
0.00121701
0.000941301
0.000693062
0.000472332
0.000276745
0.000104035
-4.77432e-05
-0.000180364
-0.000295428
-0.000394325
-0.000478223
-0.000548055
-0.000604513
-0.00064805
-0.000678882
-0.000697003
-0.000702204
-0.00069409
-0.000672113
-0.0006356
-0.000583793
-0.000515883
-0.000431058
-0.00032854
-0.00020764
-6.77937e-05
9.13817e-05
0.000270049
0.000468103
0.000685135
0.00092039
0.00117275
0.00144069
0.00172228
0.00201521
0.00231672
0.00262371
0.00293271
0.00323996
0.00354147
0.00383308
0.00411056
0.00436969
0.00460638
0.00481676
0.00499729
0.00514489
0.00525701
0.00533169
0.00536768
0.00536448
0.00532231
0.0052422
0.00512591
0.00497587
0.00479517
0.00458741
0.00435664
0.00410719
0.0038436
0.00357046
0.00329232
0.00301357
0.00273824
0.00247006
0.00221345
0.00197237
0.00173444
0.00148702
0.00248006
0.00197745
0.00157869
0.00125097
0.000955153
0.000690383
0.000456286
0.00024986
6.82326e-05
-9.1076e-05
-0.000230319
-0.000351513
-0.000456405
-0.000546457
-0.000622839
-0.000686426
-0.0007378
-0.00077726
-0.000804841
-0.000820329
-0.000823293
-0.000813113
-0.000789014
-0.000750109
-0.00069544
-0.000624022
-0.000534892
-0.000427159
-0.000300055
-0.000152984
1.4427e-05
0.00020228
0.000410359
0.000638095
0.000884524
0.00114827
0.0014275
0.00171997
0.00202298
0.0023334
0.00264772
0.00296208
0.00327235
0.00357418
0.00386311
0.00413464
0.00438438
0.00460812
0.00480197
0.00496246
0.00508667
0.00517228
0.00521769
0.00522207
0.00518536
0.00510833
0.00499254
0.00484028
0.00465456
0.00443892
0.00419743
0.00393449
0.00365474
0.00336291
0.00306372
0.00276176
0.00246125
0.00216614
0.00188127
0.00161099
0.00134068
0.00105574
0.00256782
0.00202401
0.00159437
0.00124318
0.000927627
0.000646438
0.00039884
0.00018122
-9.87285e-06
-0.000177428
-0.000324151
-0.000452452
-0.000564412
-0.000661764
-0.000745896
-0.000817844
-0.000878305
-0.000927644
-0.00096592
-0.000992904
-0.00100811
-0.00101084
-0.00100021
-0.000975177
-0.000934631
-0.000877401
-0.000802326
-0.000708302
-0.000594339
-0.000459615
-0.000303534
-0.000125772
7.36684e-05
0.000294411
0.00053567
0.000796214
0.00107434
0.00136788
0.00167417
0.00199008
0.00231205
0.00263612
0.00295799
0.00327311
0.00357675
0.00386412
0.00413046
0.00437119
0.00458199
0.00475898
0.00489878
0.00499865
0.00505657
0.00507132
0.0050425
0.00497059
0.00485689
0.00470354
0.00451341
0.00429004
0.0040375
0.00376029
0.00346321
0.00315117
0.00282916
0.00250202
0.0021743
0.00185022
0.00153515
0.00123394
0.000929779
0.000606138
0.00260511
0.00202179
0.00156246
0.00118856
0.000853802
0.000556464
0.00029539
6.63744e-05
-0.000134589
-0.00031098
-0.000465934
-0.000602232
-0.000722266
-0.000828022
-0.000921083
-0.00100263
-0.00107345
-0.00113397
-0.00118425
-0.00122403
-0.00125277
-0.00126966
-0.00127369
-0.00126368
-0.00123833
-0.00119628
-0.00113615
-0.00105661
-0.000956444
-0.000834577
-0.000690172
-0.000522666
-0.000331834
-0.000117834
0.000118742
0.000376831
0.000654871
0.000950779
0.00126195
0.00158527
0.00191711
0.00225342
0.00258973
0.00292126
0.003243
0.00354982
0.00383656
0.00409821
0.00432998
0.00452748
0.00468685
0.00480482
0.00487889
0.00490737
0.00488946
0.00482528
0.00471584
0.00456305
0.00436968
0.00413919
0.00387572
0.00358387
0.00326862
0.00293517
0.0025888
0.00223472
0.00187785
0.00152281
0.00117559
0.000841647
0.000501953
0.000138064
0.00258678
0.00196572
0.00147797
0.00108228
0.000728946
0.000415852
0.00014145
-9.90467e-05
-0.00031018
-0.000495901
-0.000659756
-0.000804879
-0.000933949
-0.00104919
-0.00115235
-0.00124475
-0.00132725
-0.00140031
-0.00146398
-0.00151797
-0.00156163
-0.00159408
-0.00161415
-0.00162049
-0.00161162
-0.00158597
-0.00154193
-0.00147793
-0.00139249
-0.00128428
-0.0011522
-0.000995425
-0.000813481
-0.000606285
-0.00037421
-0.000118125
0.000160567
0.000459904
0.000777352
0.00110981
0.00145362
0.00180463
0.0021582
0.00250931
0.00285264
0.0031827
0.00349389
0.00378072
0.00403786
0.00426036
0.00444377
0.00458423
0.00467868
0.00472489
0.00472155
0.00466834
0.00456594
0.00441601
0.00422111
0.00398468
0.00371086
0.00340441
0.00307054
0.00271476
0.00234272
0.00196009
0.00157222
0.00118426
0.000802897
0.000434261
5.71154e-05
-0.000348969
0.00250793
0.001851
0.00133621
0.000919691
0.000548528
0.000220167
-6.7327e-05
-0.000319303
-0.000540829
-0.000736307
-0.000909678
-0.00106441
-0.00120345
-0.00132924
-0.00144369
-0.00154823
-0.00164377
-0.0017308
-0.00180935
-0.00187905
-0.0019392
-0.00198875
-0.00202641
-0.00205065
-0.00205978
-0.00205199
-0.00202545
-0.00197832
-0.00190884
-0.00181542
-0.00169665
-0.00155143
-0.00137901
-0.00117902
-0.00095161
-0.00069741
-0.000417636
-0.000114104
0.000210754
0.000553879
0.000911597
0.00127965
0.00165325
0.00202713
0.00239565
0.00275291
0.00309287
0.00340946
0.00369678
0.00394924
0.00416171
0.00432968
0.00444939
0.00451798
0.00453356
0.00449529
0.00440343
0.00425928
0.00406522
0.00382458
0.00354154
0.003221
0.00286843
0.00248971
0.00209094
0.00167829
0.00125768
0.000834827
0.000417222
1.17892e-05
-0.000405016
-0.000855683
0.00236388
0.00167306
0.00113269
0.000696413
0.000308231
-3.48373e-05
-0.000335118
-0.000598512
-0.000830596
-0.00103621
-0.00121968
-0.00138478
-0.00153472
-0.00167214
-0.00179909
-0.00191708
-0.0020271
-0.0021296
-0.00222461
-0.00231168
-0.00239
-0.00245839
-0.00251539
-0.00255928
-0.00258816
-0.00259998
-0.00259264
-0.00256403
-0.00251209
-0.00243493
-0.00233083
-0.00219837
-0.00203648
-0.00184451
-0.0016223
-0.00137025
-0.00108932
-0.000781161
-0.000448061
-9.30076e-05
0.000280333
0.000667633
0.00106395
0.00146377
0.00186115
0.00224974
0.002623
0.00297428
0.00329702
0.00358491
0.00383205
0.00403316
0.00418372
0.0042801
0.00431973
0.00430114
0.00422405
0.00408938
0.00389923
0.00365677
0.00336621
0.0030326
0.00266169
0.00225976
0.00183344
0.00138948
0.00093445
0.000474708
1.86772e-05
-0.000425848
-0.000884826
-0.00138293
0.00215024
0.0014276
0.000863194
0.000408292
3.96762e-06
-0.000353192
-0.000665904
-0.000940612
-0.00118339
-0.0013995
-0.00159362
-0.00176985
-0.00193163
-0.00208176
-0.00222245
-0.00235528
-0.00248125
-0.00260084
-0.00271399
-0.00282021
-0.00291854
-0.00300768
-0.00308598
-0.00315152
-0.00320217
-0.00323562
-0.0032495
-0.00324139
-0.00320894
-0.00314989
-0.00306221
-0.00294412
-0.00279422
-0.0026115
-0.00239548
-0.00214625
-0.00186452
-0.00155168
-0.00120987
-0.000841945
-0.00045153
-4.29933e-05
0.000378588
0.000807486
0.0012374
0.00166157
0.0020729
0.00246411
0.00282792
0.00315721
0.00344523
0.00368583
0.00387356
0.00400396
0.00407359
0.00408027
0.00402307
0.0039024
0.00372
0.00347885
0.00318314
0.00283804
0.00244963
0.00202462
0.00157021
0.00109384
0.000602767
0.000104137
-0.000392618
-0.000878726
-0.00138272
-0.00193157
0.00186283
0.00111058
0.000523772
5.14387e-05
-0.0003681
-0.00073869
-0.00106344
-0.00134933
-0.00160291
-0.00182986
-0.0020352
-0.00222332
-0.00239787
-0.00256185
-0.00271756
-0.00286665
-0.00301015
-0.00314851
-0.00328163
-0.0034089
-0.00352927
-0.00364125
-0.00374302
-0.00383245
-0.00390715
-0.00396456
-0.004002
-0.00401674
-0.00400608
-0.00396742
-0.00389834
-0.0037967
-0.00366068
-0.00348892
-0.00328056
-0.00303531
-0.00275359
-0.00243649
-0.00208592
-0.00170456
-0.00129595
-0.000864465
-0.000415268
4.57007e-05
0.00051182
0.000975882
0.00143023
0.0018669
0.00227783
0.00265501
0.00299075
0.00327787
0.00350992
0.0036814
0.00378793
0.00382641
0.00379515
0.00369393
0.00352402
0.00328814
0.00299037
0.00263604
0.00223151
0.00178398
0.00130128
0.000791574
0.000262964
-0.00027657
-0.000816456
-0.00134684
-0.00189901
-0.00250244
0.00149779
0.000718245
0.000110754
-0.000377755
-0.000811533
-0.00119486
-0.00153124
-0.00182816
-0.00209265
-0.00233077
-0.00254789
-0.00274867
-0.00293697
-0.00311595
-0.00328801
-0.00345485
-0.00361753
-0.00377646
-0.00393147
-0.00408185
-0.00422642
-0.00436354
-0.00449117
-0.00460696
-0.00470828
-0.00479228
-0.00485596
-0.00489627
-0.00491012
-0.00489455
-0.00484672
-0.00476407
-0.00464435
-0.00448578
-0.00428706
-0.0040475
-0.00376712
-0.00344668
-0.00308778
-0.00269289
-0.00226539
-0.00180959
-0.00133071
-0.000834871
-0.000328988
0.000179288
0.000681719
0.00116963
0.0016341
0.00206616
0.00245706
0.00279849
0.00308283
0.00330339
0.00345467
0.00353251
0.00353429
0.003459
0.00330732
0.00308158
0.00278573
0.00242516
0.00200652
0.00153754
0.0010267
0.000483032
-8.44981e-05
-0.000666942
-0.00125247
-0.00183003
-0.00243388
-0.00309618
0.00105155
0.000247159
-0.000379216
-0.000882594
-0.0013296
-0.00172494
-0.00207251
-0.00238031
-0.0026558
-0.00290544
-0.00313492
-0.00334914
-0.00355219
-0.00374736
-0.00393714
-0.0041233
-0.00430687
-0.00448824
-0.00466718
-0.00484287
-0.00501398
-0.0051787
-0.0053348
-0.0054797
-0.00561048
-0.005724
-0.00581696
-0.00588591
-0.00592742
-0.00593807
-0.00591461
-0.005854
-0.00575354
-0.00561094
-0.00542442
-0.00519283
-0.00491572
-0.00459345
-0.00422723
-0.00381924
-0.00337263
-0.0028916
-0.00238135
-0.00184813
-0.00129911
-0.000742384
-0.000186761
0.000358335
0.00088308
0.00137747
0.00183158
0.00223583
0.00258128
0.00285989
0.00306483
0.00319071
0.00323375
0.00319201
0.0030654
0.00285575
0.00256674
0.00220377
0.00177378
0.00128501
0.000746675
0.000168689
-0.000438969
-0.00106629
-0.00170005
-0.00232787
-0.00298724
-0.00371321
0.000520889
-0.000305781
-0.000949163
-0.00146605
-0.00192523
-0.00233184
-0.00269016
-0.00300867
-0.00329526
-0.00355677
-0.00379919
-0.00402767
-0.00424648
-0.00445906
-0.00466798
-0.00487505
-0.00508131
-0.0052871
-0.00549211
-0.00569542
-0.00589555
-0.00609053
-0.00627792
-0.00645487
-0.00661823
-0.00676453
-0.00689013
-0.00699121
-0.00706391
-0.00710438
-0.0071089
-0.00707391
-0.00699621
-0.00687294
-0.0067018
-0.00648109
-0.00620983
-0.00588787
-0.00551598
-0.00509594
-0.0046306
-0.00412395
-0.00358112
-0.0030084
-0.00241319
-0.00180396
-0.00119009
-0.00058178
1.02167e-05
0.000574775
0.00110069
0.00157699
0.00199323
0.00233984
0.00260847
0.00279222
0.00288601
0.00288669
0.00279323
0.00260678
0.00233062
0.00197009
0.00153236
0.00102615
0.00046148
-0.000150779
-0.00079955
-0.00147365
-0.00215828
-0.00283963
-0.00355867
-0.0043536
-9.70473e-05
-0.000943315
-0.00160175
-0.00213074
-0.00260102
-0.00301813
-0.00338674
-0.00371579
-0.00401359
-0.00428732
-0.00454326
-0.00478681
-0.00502243
-0.00525366
-0.00548317
-0.0057128
-0.00594358
-0.00617582
-0.00640914
-0.0066425
-0.00687428
-0.00710232
-0.00732398
-0.00753619
-0.00773549
-0.00791811
-0.00808004
-0.00821708
-0.00832492
-0.00839927
-0.00843586
-0.00843061
-0.00837973
-0.00827978
-0.00812784
-0.00792158
-0.00765942
-0.00734063
-0.00696542
-0.00653509
-0.00605209
-0.00552008
-0.00494404
-0.00433022
-0.00368618
-0.00302071
-0.00234374
-0.00166621
-0.000999857
-0.000356989
0.000249822
0.000808056
0.00130561
0.00173118
0.00207462
0.00232736
0.00248268
0.00253601
0.00248514
0.00233032
0.00207428
0.00172214
0.00128123
0.000760775
0.000171572
-0.000474455
-0.00116503
-0.00188767
-0.00262586
-0.00336414
-0.00414732
-0.00501697
-0.000804708
-0.00166778
-0.00233925
-0.00287891
-0.00335918
-0.00378601
-0.00416444
-0.00450385
-0.00481295
-0.00509925
-0.00536931
-0.00562875
-0.0058822
-0.00613333
-0.00638489
-0.00663874
-0.00689593
-0.00715671
-0.00742063
-0.00768654
-0.00795269
-0.00821674
-0.00847585
-0.00872668
-0.00896552
-0.00918825
-0.00939051
-0.00956768
-0.00971502
-0.00982771
-0.00990095
-0.00993008
-0.00991066
-0.00983862
-0.00971035
-0.00952282
-0.00927376
-0.00896175
-0.00858635
-0.00814827
-0.00764942
-0.00709308
-0.0064839
-0.00582804
-0.00513308
-0.00440809
-0.00366347
-0.00291091
-0.00216311
-0.00143361
-0.000736442
-8.58018e-05
0.000504372
0.00102081
0.00145138
0.00178548
0.00201452
0.00213219
0.00213482
0.00202152
0.00179424
0.00145772
0.00101934
0.000488761
-0.000122405
-0.000801128
-0.00153383
-0.00230659
-0.00310097
-0.00389974
-0.00475181
-0.00570244
-0.00160411
-0.00248111
-0.00316354
-0.00371238
-0.00420151
-0.00463726
-0.00502504
-0.00537463
-0.00569511
-0.0059943
-0.00627905
-0.00655518
-0.00682749
-0.00709976
-0.00737481
-0.00765456
-0.00794003
-0.00823145
-0.0085283
-0.00882932
-0.00913263
-0.00943573
-0.00973556
-0.0100286
-0.0103107
-0.0105776
-0.0108244
-0.0110462
-0.0112377
-0.0113936
-0.0115086
-0.0115772
-0.0115945
-0.0115555
-0.011456
-0.0112922
-0.011061
-0.0107602
-0.0103886
-0.0099461
-0.0094341
-0.00885528
-0.00821389
-0.0075158
-0.00676856
-0.00598138
-0.00516508
-0.004332
-0.00349583
-0.00267135
-0.00187414
-0.00112016
-0.000425371
0.00019478
0.000725872
0.00115503
0.0014714
0.00166666
0.00173531
0.00167501
0.00148666
0.00117442
0.000745554
0.000210087
-0.000419574
-0.00112924
-0.00190393
-0.00272811
-0.00358127
-0.00444414
-0.00537012
-0.00640844
-0.00249679
-0.00338477
-0.00407603
-0.00463256
-0.00512941
-0.00557327
-0.0059699
-0.00632945
-0.00666137
-0.00697377
-0.00727374
-0.00756732
-0.00785946
-0.00815406
-0.00845402
-0.00876129
-0.00907689
-0.00940104
-0.00973312
-0.0100718
-0.0104151
-0.0107604
-0.0111043
-0.011443
-0.0117724
-0.0120876
-0.0123835
-0.0126547
-0.0128954
-0.0130997
-0.0132618
-0.0133755
-0.0134351
-0.0134351
-0.0133702
-0.0132358
-0.0130279
-0.0127435
-0.0123804
-0.0119379
-0.0114164
-0.0108179
-0.0101461
-0.00940654
-0.00860651
-0.00775526
-0.0068639
-0.00594538
-0.0050143
-0.00408666
-0.00317964
-0.00231109
-0.00149914
-0.000761642
-0.000115558
0.000423605
0.000842422
0.00113011
0.00127899
0.00128489
0.00114733
0.000869633
0.000458719
-7.51382e-05
-0.00071878
-0.00145682
-0.00227276
-0.00314933
-0.00406368
-0.00499433
-0.00599949
-0.00713265
-0.00348382
-0.00437978
-0.00507773
-0.00564043
-0.00614383
-0.00659496
-0.00699992
-0.00736921
-0.00771258
-0.00803844
-0.00835412
-0.00866585
-0.00897872
-0.00929677
-0.00962297
-0.00995929
-0.0103068
-0.0106657
-0.0110353
-0.0114142
-0.0118002
-0.0121907
-0.012582
-0.0129703
-0.0133509
-0.0137187
-0.0140683
-0.0143938
-0.0146889
-0.0149472
-0.0151621
-0.0153269
-0.0154351
-0.0154803
-0.0154563
-0.0153576
-0.0151794
-0.0149174
-0.0145686
-0.0141312
-0.0136047
-0.0129904
-0.0122911
-0.0115119
-0.0106596
-0.00974331
-0.0087744
-0.00776625
-0.00673428
-0.00569571
-0.00466929
-0.00367485
-0.00273283
-0.00186367
-0.00108719
-0.000421855
0.000115938
0.000512528
0.000757614
0.000844756
0.000771707
0.000540558
0.000157666
-0.000366639
-0.00101853
-0.0017814
-0.00263715
-0.00356663
-0.00454438
-0.00554644
-0.00663626
-0.00787184
-0.00456573
-0.00546665
-0.00616913
-0.00673648
-0.00724527
-0.00770283
-0.00811557
-0.00849431
-0.0088491
-0.00918861
-0.00952039
-0.00985085
-0.0101853
-0.0105278
-0.0108814
-0.0112482
-0.0116293
-0.0120247
-0.012434
-0.0128555
-0.013287
-0.0137257
-0.0141678
-0.0146091
-0.0150449
-0.0154697
-0.0158777
-0.0162624
-0.0166173
-0.0169353
-0.0172091
-0.0174314
-0.0175947
-0.0176918
-0.0177157
-0.0176598
-0.017518
-0.0172852
-0.0169573
-0.0165311
-0.0160054
-0.0153801
-0.0146574
-0.0138414
-0.0129384
-0.0119574
-0.0109095
-0.00980852
-0.00867052
-0.00751389
-0.00635891
-0.00522741
-0.00414226
-0.00312671
-0.00220366
-0.0013949
-0.000720218
-0.000196628
0.000162446
0.000347794
0.000354913
0.000184262
-0.000158727
-0.000663911
-0.00131692
-0.00209995
-0.00299324
-0.00397555
-0.00501859
-0.00609564
-0.00727574
-0.00862175
-0.00574254
-0.00664541
-0.00735029
-0.00792077
-0.00843377
-0.00889691
-0.00931684
-0.0097047
-0.0100708
-0.010424
-0.0107722
-0.0111218
-0.0114784
-0.0118462
-0.0122283
-0.0126268
-0.0130429
-0.0134767
-0.0139275
-0.0143938
-0.0148733
-0.015363
-0.0158591
-0.0163571
-0.0168519
-0.0173379
-0.0178089
-0.018258
-0.0186781
-0.0190616
-0.0194005
-0.0196867
-0.019912
-0.0200682
-0.0201473
-0.0201416
-0.0200439
-0.0198479
-0.0195481
-0.0191403
-0.0186218
-0.0179916
-0.0172506
-0.016402
-0.0154514
-0.0144071
-0.01328
-0.0120842
-0.0108361
-0.00955519
-0.00826319
-0.00698394
-0.00574277
-0.00456588
-0.00347955
-0.00250922
-0.00167851
-0.00100827
-0.000515634
-0.00021314
-0.000108118
-0.000202254
-0.000491477
-0.00096615
-0.00161156
-0.00240878
-0.00333631
-0.00437069
-0.00548049
-0.00663594
-0.00791207
-0.00937686
-0.00701372
-0.0079156
-0.00862077
-0.0091929
-0.00970895
-0.0101768
-0.0106033
-0.0109998
-0.011377
-0.0117439
-0.0121086
-0.0124777
-0.0128569
-0.0132505
-0.0136618
-0.014093
-0.0145453
-0.0150188
-0.015513
-0.0160261
-0.0165559
-0.0170992
-0.0176521
-0.01821
-0.0187677
-0.019319
-0.0198575
-0.0203759
-0.0208666
-0.0213214
-0.0217316
-0.0220884
-0.0223827
-0.0226053
-0.0227472
-0.0227996
-0.022754
-0.0226029
-0.0223393
-0.0219578
-0.0214542
-0.0208262
-0.0200732
-0.0191975
-0.0182035
-0.0170988
-0.0158939
-0.0146026
-0.0132417
-0.0118315
-0.0103951
-0.00895813
-0.00754853
-0.00619553
-0.00492896
-0.00377826
-0.00277133
-0.0019334
-0.00128589
-0.00084533
-0.000622532
-0.000621944
-0.000841385
-0.00127215
-0.00189946
-0.00270339
-0.00366068
-0.00474551
-0.00592303
-0.00716005
-0.008538
-0.0101303
-0.00837821
-0.00927625
-0.00997969
-0.010552
-0.01107
-0.0115416
-0.0119739
-0.0123787
-0.0127666
-0.013147
-0.013528
-0.0139166
-0.0143186
-0.0147384
-0.0151794
-0.015644
-0.0161333
-0.0166477
-0.0171864
-0.017748
-0.01833
-0.0189291
-0.0195416
-0.0201624
-0.0207862
-0.0214067
-0.0220169
-0.0226094
-0.0231758
-0.0237075
-0.0241951
-0.0246291
-0.0249994
-0.0252959
-0.0255085
-0.0256271
-0.0256421
-0.0255444
-0.0253259
-0.0249793
-0.024499
-0.0238812
-0.0231239
-0.0222277
-0.0211961
-0.0200354
-0.0187555
-0.0173696
-0.0158948
-0.0143519
-0.0127649
-0.0111615
-0.00957191
-0.00802851
-0.00656488
-0.00521471
-0.0040106
-0.00298272
-0.00215743
-0.00155596
-0.00119336
-0.00107755
-0.0012089
-0.00158018
-0.0021769
-0.00297836
-0.00395958
-0.00509224
-0.00633775
-0.00765917
-0.00914473
-0.0108735
-0.00983442
-0.0107259
-0.0114257
-0.0119969
-0.0125156
-0.01299
-0.0134275
-0.0138398
-0.0142379
-0.0146313
-0.0150284
-0.0154362
-0.0158608
-0.0163067
-0.0167776
-0.0172758
-0.0178026
-0.0183584
-0.0189427
-0.0195539
-0.0201895
-0.0208464
-0.0215205
-0.0222069
-0.0228998
-0.0235928
-0.0242787
-0.0249496
-0.0255966
-0.0262105
-0.0267815
-0.0272989
-0.0277521
-0.0281299
-0.0284209
-0.028614
-0.0286982
-0.028663
-0.0284985
-0.0281961
-0.0277484
-0.0271497
-0.0263966
-0.0254881
-0.0244259
-0.0232152
-0.0218647
-0.0203871
-0.0187991
-0.0171215
-0.0153797
-0.0136025
-0.0118226
-0.0100755
-0.00839849
-0.00682982
-0.00540718
-0.00416618
-0.00313881
-0.00235181
-0.00182525
-0.0015714
-0.00159396
-0.0018878
-0.00243928
-0.00322718
-0.00422493
-0.0054016
-0.00671458
-0.00812279
-0.00972165
-0.0115962
-0.0113802
-0.0122627
-0.0129571
-0.0135257
-0.0140441
-0.0145204
-0.0149622
-0.0153813
-0.0157889
-0.0161946
-0.016607
-0.0170335
-0.0174801
-0.0179517
-0.018452
-0.0189835
-0.0195478
-0.0201453
-0.0207755
-0.0214369
-0.0221272
-0.0228431
-0.0235804
-0.0243343
-0.0250988
-0.0258673
-0.0266323
-0.0273853
-0.0281174
-0.0288185
-0.0294781
-0.0300851
-0.0306277
-0.0310938
-0.031471
-0.0317468
-0.0319088
-0.031945
-0.031844
-0.0315953
-0.0311899
-0.0306202
-0.0298809
-0.028969
-0.0278847
-0.0266315
-0.0252166
-0.0236518
-0.0219531
-0.0201413
-0.0182421
-0.0162858
-0.014307
-0.0123441
-0.0104384
-0.00863275
-0.00697021
-0.0054924
-0.00423758
-0.00323881
-0.00252215
-0.00210512
-0.00199569
-0.00219168
-0.00268089
-0.00344205
-0.00444715
-0.00566266
-0.00704163
-0.00853844
-0.0102561
-0.0122858
-0.0130131
-0.0138843
-0.0145717
-0.0151366
-0.0156536
-0.0161309
-0.016576
-0.0170009
-0.017417
-0.017834
-0.0182608
-0.0187048
-0.0191724
-0.0196687
-0.0201975
-0.0207616
-0.0213627
-0.0220013
-0.0226771
-0.0233888
-0.024134
-0.0249095