/*--------------------------------*- C++ -*----------------------------------*\
  =========                 |
  \\      /  F ield         | OpenFOAM: The Open Source CFD Toolbox
   \\    /   O peration     | Website:  https://openfoam.org
    \\  /    A nd           | Version:  dev
     \\/     M anipulation  |
\*---------------------------------------------------------------------------*/
FoamFile
{
    format      ascii;
    class       surfaceScalarField;
    location    "48.15";
    object      phi;
}
// * * * * * * * * * * * * * * * * * * * * * * * * * * * * * * * * * * * * * //

dimensions      [0 3 -1 0 0 0 0];

internalField   nonuniform List<scalar> 
10224
(
3.41104e-08
-3.4597e-08
8.80483e-08
-5.39376e-08
1.24572e-07
-3.65238e-08
1.25522e-07
-9.49546e-10
8.38812e-08
4.1641e-08
-1.63189e-09
8.55136e-08
-1.29192e-07
1.27561e-07
-2.95501e-07
1.66309e-07
-4.96495e-07
2.00995e-07
-7.27873e-07
2.31378e-07
-9.85362e-07
2.5749e-07
-1.26487e-06
2.79508e-07
-1.56255e-06
2.97685e-07
-1.87486e-06
3.12305e-07
-2.19851e-06
3.23654e-07
-2.53051e-06
3.31997e-07
-2.86808e-06
3.37571e-07
-3.20866e-06
3.40578e-07
-3.54983e-06
3.41178e-07
-3.88933e-06
3.39494e-07
-4.22494e-06
3.35611e-07
-4.55452e-06
3.29582e-07
-4.87595e-06
3.21432e-07
-5.18711e-06
3.11164e-07
-5.48588e-06
2.98766e-07
-5.77009e-06
2.84216e-07
-6.03759e-06
2.67492e-07
-6.28616e-06
2.48578e-07
-6.51363e-06
2.27469e-07
-6.71781e-06
2.0418e-07
-6.89656e-06
1.78748e-07
-7.0478e-06
1.51241e-07
-7.16956e-06
1.21762e-07
-7.26001e-06
9.04492e-08
-7.31749e-06
5.74841e-08
-7.34058e-06
2.30893e-08
-7.32811e-06
-1.24693e-08
-7.27923e-06
-4.8883e-08
-7.19343e-06
-8.58023e-08
-7.07059e-06
-1.2284e-07
-6.91101e-06
-1.59574e-07
-6.71545e-06
-1.95557e-07
-6.48514e-06
-2.30317e-07
-6.22177e-06
-2.63371e-07
-5.92753e-06
-2.94231e-07
-5.60512e-06
-3.22415e-07
-5.25766e-06
-3.47457e-07
-4.88874e-06
-3.68919e-07
-4.50234e-06
-3.86397e-07
-4.1028e-06
-3.99538e-07
-3.69476e-06
-4.08046e-07
-3.28307e-06
-4.11691e-07
-2.87275e-06
-4.10318e-07
-2.46889e-06
-4.03852e-07
-2.07659e-06
-3.92302e-07
-1.70082e-06
-3.75765e-07
-1.3464e-06
-3.54425e-07
-1.01784e-06
-3.28558e-07
-7.19314e-07
-2.98524e-07
-4.54538e-07
-2.64774e-07
-2.2669e-07
-2.27846e-07
-3.83147e-08
-1.88373e-07
1.08781e-07
-1.47095e-07
2.13661e-07
-1.0488e-07
2.76439e-07
-6.27788e-08
2.98548e-07
-2.21078e-08
2.83173e-07
1.53834e-08
2.3592e-07
4.72692e-08
1.65857e-07
7.00745e-08
8.72802e-08
7.85671e-08
2.25659e-08
6.46769e-08
2.2526e-08
5.40927e-08
-8.86893e-08
1.12665e-07
-1.12508e-07
1.18479e-07
-4.23368e-08
3.91597e-08
7.83713e-08
-1.41707e-07
2.22509e-07
-4.2945e-07
3.73258e-07
-8.22311e-07
5.20423e-07
-1.31414e-06
6.58142e-07
-1.89638e-06
7.83234e-07
-2.55921e-06
8.94208e-07
-3.29235e-06
9.9063e-07
-4.08555e-06
1.07271e-06
-4.92887e-06
1.14101e-06
-5.81289e-06
1.19632e-06
-6.7287e-06
1.23947e-06
-7.66797e-06
1.27127e-06
-8.6229e-06
1.2925e-06
-9.58613e-06
1.30381e-06
-1.05507e-05
1.30576e-06
-1.151e-05
1.29877e-06
-1.24575e-05
1.28315e-06
-1.3387e-05
1.25911e-06
-1.42924e-05
1.22678e-06
-1.51674e-05
1.18619e-06
-1.6006e-05
1.13735e-06
-1.6802e-05
1.08023e-06
-1.75493e-05
1.01481e-06
-1.82418e-05
9.41086e-07
-1.88735e-05
8.59102e-07
-1.94383e-05
7.68974e-07
-1.99304e-05
6.70904e-07
-2.03444e-05
5.65204e-07
-2.06749e-05
4.52308e-07
-2.09173e-05
3.32785e-07
-2.10671e-05
2.0735e-07
-2.11209e-05
7.68664e-08
-2.10757e-05
-5.76479e-08
-2.09296e-05
-1.95028e-07
-2.06814e-05
-3.33965e-07
-2.03312e-05
-4.73021e-07
-1.98802e-05
-6.10643e-07
-1.93305e-05
-7.45183e-07
-1.86859e-05
-8.74925e-07
-1.79512e-05
-9.98113e-07
-1.71324e-05
-1.11298e-06
-1.62371e-05
-1.21779e-06
-1.52737e-05
-1.31086e-06
-1.42519e-05
-1.39062e-06
-1.31827e-05
-1.45564e-06
-1.20776e-05
-1.50465e-06
-1.0949e-05
-1.53661e-06
-9.81002e-06
-1.55069e-06
-8.67397e-06
-1.54637e-06
-7.55442e-06
-1.52339e-06
-6.46491e-06
-1.48181e-06
-5.41865e-06
-1.42202e-06
-4.42837e-06
-1.3447e-06
-3.50602e-06
-1.25091e-06
-2.66254e-06
-1.142e-06
-1.90763e-06
-1.01968e-06
-1.24946e-06
-8.86007e-07
-6.94442e-07
-7.43388e-07
-2.46872e-07
-5.94659e-07
9.14057e-08
-4.43152e-07
3.21474e-07
-2.92844e-07
4.4793e-07
-1.48571e-07
4.79779e-07
-1.64794e-08
4.31515e-07
9.55296e-08
3.2461e-07
1.7701e-07
1.89096e-07
2.14138e-07
6.44411e-08
1.89382e-07
8.69364e-08
3.74471e-08
-1.26136e-07
4.35076e-08
-1.18568e-07
-4.30679e-08
4.42397e-08
-2.58559e-07
2.93863e-07
-6.22585e-07
5.86536e-07
-1.14227e-06
8.9294e-07
-1.81587e-06
1.19403e-06
-2.63574e-06
1.47801e-06
-3.5905e-06
1.738e-06
-4.66663e-06
1.97034e-06
-5.84955e-06
2.17355e-06
-7.12437e-06
2.34752e-06
-8.47636e-06
2.49301e-06
-9.89129e-06
2.61125e-06
-1.13555e-05
2.7037e-06
-1.28561e-05
2.77186e-06
-1.43808e-05
2.81715e-06
-1.59178e-05
2.84086e-06
-1.74561e-05
2.84405e-06
-1.89849e-05
2.82759e-06
-2.04939e-05
2.79211e-06
-2.19728e-05
2.73807e-06
-2.34118e-05
2.66575e-06
-2.48009e-05
2.5753e-06
-2.61304e-05
2.46678e-06
-2.73903e-05
2.34021e-06
-2.85712e-05
2.19563e-06
-2.96632e-05
2.03312e-06
-3.06569e-05
1.85286e-06
-3.15432e-05
1.65521e-06
-3.23129e-05
1.44067e-06
-3.29577e-05
1.21001e-06
-3.34697e-05
9.64233e-07
-3.38415e-05
7.04625e-07
-3.40669e-05
4.32775e-07
-3.41406e-05
1.50577e-07
-3.40585e-05
-1.39763e-07
-3.38178e-05
-4.35737e-07
-3.34172e-05
-7.34549e-07
-3.28571e-05
-1.03314e-06
-3.21395e-05
-1.32822e-06
-3.12684e-05
-1.61633e-06
-3.02495e-05
-1.89386e-06
-2.90904e-05
-2.15712e-06
-2.7801e-05
-2.40244e-06
-2.63926e-05
-2.62619e-06
-2.48785e-05
-2.82489e-06
-2.32739e-05
-2.99527e-06
-2.15952e-05
-3.13437e-06
-1.98602e-05
-3.23957e-06
-1.80881e-05
-3.30871e-06
-1.62987e-05
-3.34013e-06
-1.45124e-05
-3.33272e-06
-1.27497e-05
-3.28601e-06
-1.10314e-05
-3.20013e-06
-9.37751e-06
-3.07592e-06
-7.80731e-06
-2.9149e-06
-6.33893e-06
-2.71929e-06
-4.98891e-06
-2.49201e-06
-3.77186e-06
-2.23673e-06
-2.70002e-06
-1.95785e-06
-1.78285e-06
-1.66055e-06
-1.02659e-06
-1.35092e-06
-4.33695e-07
-1.03604e-06
-2.25569e-09
-7.24272e-07
2.74821e-07
-4.2564e-07
4.10599e-07
-1.52266e-07
4.25333e-07
8.07697e-08
3.47685e-07
2.54641e-07
2.15898e-07
3.45946e-07
7.87122e-08
3.26618e-07
1.65643e-07
1.96849e-09
-1.28105e-07
-7.88377e-08
-3.77607e-08
-2.97546e-07
2.62949e-07
-6.87901e-07
6.84219e-07
-1.26823e-06
1.16686e-06
-2.04481e-06
1.66952e-06
-3.01485e-06
2.16407e-06
-4.16909e-06
2.63225e-06
-5.49392e-06
3.06283e-06
-6.97302e-06
3.44944e-06
-8.58854e-06
3.78906e-06
-1.0322e-05
4.08097e-06
-1.21548e-05
4.32586e-06
-1.40689e-05
4.52532e-06
-1.60466e-05
4.68141e-06
-1.8071e-05
4.7963e-06
-2.0126e-05
4.87213e-06
-2.2196e-05
4.91084e-06
-2.42661e-05
4.91412e-06
-2.63218e-05
4.88332e-06
-2.83492e-05
4.81949e-06
-3.03345e-05
4.72338e-06
-3.22642e-05
4.59551e-06
-3.41251e-05
4.43617e-06
-3.59039e-05
4.24557e-06
-3.75875e-05
4.02384e-06
-3.9163e-05
3.77114e-06
-4.06177e-05
3.48776e-06
-4.19389e-05
3.17412e-06
-4.31147e-05
2.83095e-06
-4.41333e-05
2.45926e-06
-4.49837e-05
2.06045e-06
-4.56558e-05
1.63635e-06
-4.61404e-05
1.18923e-06
-4.64295e-05
7.2187e-07
-4.65165e-05
2.37558e-07
-4.63964e-05
-2.59922e-07
-4.60658e-05
-7.66292e-07
-4.55235e-05
-1.27681e-06
-4.47704e-05
-1.78631e-06
-4.38093e-05
-2.28927e-06
-4.26458e-05
-2.77986e-06
-4.12876e-05
-3.25206e-06
-3.9745e-05
-3.69975e-06
-3.80306e-05
-4.11678e-06
-3.61597e-05
-4.49714e-06
-3.41495e-05
-4.83506e-06
-3.20197e-05
-5.12512e-06
-2.97916e-05
-5.36241e-06
-2.74885e-05
-5.54264e-06
-2.5135e-05
-5.66221e-06
-2.27567e-05
-5.71842e-06
-2.038e-05
-5.70944e-06
-1.80315e-05
-5.63451e-06
-1.57377e-05
-5.4939e-06
-1.35246e-05
-5.28905e-06
-1.1417e-05
-5.02251e-06
-9.43821e-06
-4.69807e-06
-7.60955e-06
-4.32068e-06
-5.94974e-06
-3.89653e-06
-4.47451e-06
-3.43308e-06
-3.19595e-06
-2.93911e-06
-2.12202e-06
-2.42484e-06
-1.25593e-06
-1.90213e-06
-5.95396e-07
-1.3848e-06
-1.31984e-07
-8.89035e-07
1.49823e-07
-4.3406e-07
2.73495e-07
-4.29104e-08
2.71518e-07
2.56591e-07
1.86436e-07
4.31014e-07
7.22672e-08
4.40812e-07
2.3792e-07
-4.20261e-08
-8.60782e-08
-2.30005e-07
1.50218e-07
-6.06598e-07
6.39543e-07
-1.19842e-06
1.27604e-06
-2.01922e-06
1.98766e-06
-3.07217e-06
2.72247e-06
-4.35209e-06
3.44399e-06
-5.84755e-06
4.12771e-06
-7.54267e-06
4.75796e-06
-9.41864e-06
5.32541e-06
-1.14549e-05
5.82532e-06
-1.363e-05
6.25608e-06
-1.59224e-05
6.61819e-06
-1.83105e-05
6.91344e-06
-2.07735e-05
7.14439e-06
-2.3291e-05
7.31386e-06
-2.58436e-05
7.42468e-06
-2.84122e-05
7.47949e-06
-3.09787e-05
7.48057e-06
-3.35252e-05
7.42982e-06
-3.60344e-05
7.32874e-06
-3.84895e-05
7.17843e-06
-4.08736e-05
6.97966e-06
-4.31704e-05
6.73298e-06
-4.53636e-05
6.43877e-06
-4.74371e-05
6.09735e-06
-4.93751e-05
5.70911e-06
-5.1162e-05
5.27462e-06
-5.27826e-05
4.79472e-06
-5.42222e-05
4.27062e-06
-5.5467e-05
3.70401e-06
-5.65037e-05
3.09715e-06
-5.73202e-05
2.45289e-06
-5.79058e-05
1.77479e-06
-5.8251e-05
1.0671e-06
-5.83482e-05
3.348e-07
-5.81918e-05
-4.16386e-07
-5.7778e-05
-1.18004e-06
-5.71058e-05
-1.94908e-06
-5.61762e-05
-2.71582e-06
-5.49935e-05
-3.47206e-06
-5.35641e-05
-4.20919e-06
-5.18979e-05
-4.91833e-06
-5.00072e-05
-5.59045e-06
-4.79074e-05
-6.21652e-06
-4.56168e-05
-6.78773e-06
-4.31563e-05
-7.29558e-06
-4.05492e-05
-7.73218e-06
-3.78214e-05
-8.0903e-06
-3.50003e-05
-8.36365e-06
-3.21155e-05
-8.54702e-06
-2.91975e-05
-8.6364e-06
-2.62778e-05
-8.62919e-06
-2.33881e-05
-8.52423e-06
-2.056e-05
-8.32199e-06
-1.78245e-05
-8.02457e-06
-1.52112e-05
-7.63581e-06
-1.27479e-05
-7.16131e-06
-1.04602e-05
-6.60844e-06
-8.37029e-06
-5.9864e-06
-6.49713e-06
-5.30624e-06
-4.85525e-06
-4.58098e-06
-3.4544e-06
-3.8257e-06
-2.29878e-06
-3.05775e-06
-1.38644e-06
-2.29714e-06
-7.08503e-07
-1.56697e-06
-2.48481e-07
-8.94063e-07
1.84895e-08
-3.09865e-07
1.26473e-07
1.486e-07
1.1965e-07
4.37816e-07
5.37042e-08
5.06755e-07
2.91635e-07
-8.94408e-08
3.36303e-09
-3.95409e-07
4.56187e-07
-9.45322e-07
1.18946e-06
-1.75578e-06
2.0865e-06
-2.8336e-06
3.06548e-06
-4.17702e-06
4.06589e-06
-5.77719e-06
5.04416e-06
-7.61972e-06
5.97024e-06
-9.68613e-06
6.82436e-06
-1.19551e-05
7.5944e-06
-1.44036e-05
8.27382e-06
-1.70076e-05
8.86008e-06
-1.97428e-05
9.35337e-06
-2.2585e-05
9.75562e-06
-2.55104e-05
1.00698e-05
-2.84958e-05
1.02993e-05
-3.15189e-05
1.04477e-05
-3.45576e-05
1.05182e-05
-3.75907e-05
1.05137e-05
-4.05976e-05
1.04367e-05
-4.35579e-05
1.02891e-05
-4.64519e-05
1.00724e-05
-4.926e-05
9.78772e-06
-5.19628e-05
9.43584e-06
-5.45414e-05
9.0174e-06
-5.69771e-05
8.53298e-06
-5.92513e-05
7.98331e-06
-6.1346e-05
7.36933e-06
-6.32436e-05
6.6924e-06
-6.49274e-05
5.95439e-06
-6.63812e-05
5.15785e-06
-6.75901e-05
4.30605e-06
-6.85404e-05
3.40312e-06
-6.92197e-05
2.45409e-06
-6.96175e-05
1.46497e-06
-6.97255e-05
4.4273e-07
-6.95372e-05
-6.04689e-07
-6.90488e-05
-1.6684e-06
-6.82592e-05
-2.73864e-06
-6.71702e-05
-3.80485e-06
-6.57865e-05
-4.85581e-06
-6.41159e-05
-5.87975e-06
-6.21697e-05
-6.86454e-06
-5.99622e-05
-7.79788e-06
-5.75113e-05
-8.6675e-06
-5.48376e-05
-9.46139e-06
-5.19651e-05
-1.01681e-05
-4.89206e-05
-1.07767e-05
-4.57333e-05
-1.12776e-05
-4.24348e-05
-1.16621e-05
-3.90586e-05
-1.19233e-05
-3.56394e-05
-1.20555e-05
-3.22133e-05
-1.20553e-05
-2.88163e-05
-1.19212e-05
-2.54847e-05
-1.16536e-05
-2.22537e-05
-1.12556e-05
-1.91572e-05
-1.07323e-05
-1.62272e-05
-1.00913e-05
-1.34929e-05
-9.3428e-06
-1.098e-05
-8.49929e-06
-8.71031e-06
-7.5759e-06
-6.70096e-06
-6.59033e-06
-4.96361e-06
-5.56304e-06
-3.50391e-06
-4.51745e-06
-2.32081e-06
-3.48024e-06
-1.40594e-06
-2.48184e-06
-7.42964e-07
-1.55703e-06
-3.07022e-07
-7.45789e-07
-6.41281e-08
-9.42824e-08
2.94952e-08
3.44187e-07
2.83533e-08
5.07888e-07
3.19993e-07
-1.37675e-07
1.41038e-07
-5.66472e-07
8.84986e-07
-1.29788e-06
1.92087e-06
-2.337e-06
3.12562e-06
-3.68216e-06
4.41064e-06
-5.32527e-06
5.70901e-06
-7.25273e-06
6.97162e-06
-9.44641e-06
8.16393e-06
-1.18848e-05
9.26271e-06
-1.45438e-05
1.02534e-05
-1.73979e-05
1.11279e-05
-2.04206e-05
1.18829e-05
-2.35854e-05
1.25181e-05
-2.68654e-05
1.30357e-05
-3.02346e-05
1.3439e-05
-3.36672e-05
1.3732e-05
-3.71382e-05
1.39187e-05
-4.06232e-05
1.40031e-05
-4.40982e-05
1.39887e-05
-4.754e-05
1.38785e-05
-5.09258e-05
1.36749e-05
-5.42332e-05
1.33797e-05
-5.74399e-05
1.29945e-05
-6.05242e-05
1.25202e-05
-6.34647e-05
1.19579e-05
-6.62402e-05
1.13084e-05
-6.88298e-05
1.0573e-05
-7.12134e-05
9.75291e-06
-7.33713e-05
8.85029e-06
-7.52847e-05
7.86776e-06
-7.69356e-05
6.80883e-06
-7.83076e-05
5.67801e-06
-7.93853e-05
4.48086e-06
-8.01554e-05
3.22413e-06
-8.06062e-05
1.91578e-06
-8.07285e-05
5.65019e-07
-8.05154e-05
-8.17734e-07
-7.9963e-05
-2.22085e-06
-7.907e-05
-3.63161e-06
-7.78386e-05
-5.03628e-06
-7.62741e-05
-6.42029e-06
-7.43854e-05
-7.76842e-06
-7.2185e-05
-9.06498e-06
-6.96888e-05
-1.02941e-05
-6.69165e-05
-1.14398e-05
-6.3891e-05
-1.24868e-05
-6.06389e-05
-1.34201e-05
-5.71897e-05
-1.42259e-05
-5.35758e-05
-1.48915e-05
-4.98321e-05
-1.54058e-05
-4.59957e-05
-1.57597e-05
-4.2105e-05
-1.59461e-05
-3.82e-05
-1.59604e-05
-3.43207e-05
-1.58004e-05
-3.05074e-05
-1.54669e-05
-2.67994e-05
-1.49636e-05
-2.32345e-05
-1.42972e-05
-1.98485e-05
-1.34774e-05
-1.6674e-05
-1.25173e-05
-1.37403e-05
-1.1433e-05
-1.10721e-05
-1.02441e-05
-8.68906e-06
-8.97333e-06
-6.60521e-06
-7.64688e-06
-4.82805e-06
-6.2946e-06
-3.35807e-06
-4.95022e-06
-2.18815e-06
-3.65177e-06
-1.30307e-06
-2.44212e-06
-6.79069e-07
-1.36978e-06
-2.83493e-07
-4.89845e-07
-7.44665e-08
1.35166e-07
-5.44594e-10
4.33963e-07
3.1945e-07
-1.85482e-07
3.2652e-07
-7.38304e-07
1.43781e-06
-1.65449e-06
2.83705e-06
-2.92706e-06
4.39819e-06
-4.54493e-06
6.02851e-06
-6.49278e-06
7.65686e-06
-8.75138e-06
9.23022e-06
-1.12982e-05
1.07107e-05
-1.41081e-05
1.20726e-05
-1.71541e-05
1.32994e-05
-2.04081e-05
1.43819e-05
-2.38411e-05
1.53159e-05
-2.74243e-05
1.61013e-05
-3.11289e-05
1.67402e-05
-3.49263e-05
1.72364e-05
-3.87888e-05
1.75944e-05
-4.2689e-05
1.78189e-05
-4.66003e-05
1.79144e-05
-5.04967e-05
1.78851e-05
-5.43524e-05
1.77343e-05
-5.81424e-05
1.74649e-05
-6.1842e-05
1.70793e-05
-6.54269e-05
1.65793e-05
-6.88729e-05
1.59662e-05
-7.21565e-05
1.52414e-05
-7.52543e-05
1.44062e-05
-7.81436e-05
1.34622e-05
-8.0802e-05
1.24113e-05
-8.32081e-05
1.12564e-05
-8.53413e-05
1.0001e-05
-8.71822e-05
8.64966e-06
-8.87125e-05
7.20834e-06
-8.99158e-05
5.68418e-06
-9.07775e-05
4.08581e-06
-9.1285e-05
2.42334e-06
-9.14284e-05
7.08391e-07
-9.12003e-05
-1.04589e-06
-9.05962e-05
-2.82493e-06
-8.9615e-05
-4.6128e-06
-8.82589e-05
-6.39235e-06
-8.65338e-05
-8.14542e-06
-8.44492e-05
-9.85305e-06
-8.20184e-05
-1.14957e-05
-7.92589e-05
-1.30536e-05
-7.61916e-05
-1.45071e-05
-7.28415e-05
-1.58369e-05
-6.92372e-05
-1.70245e-05
-6.54105e-05
-1.80526e-05
-6.13966e-05
-1.89054e-05
-5.72332e-05
-1.95692e-05
-5.29605e-05
-2.00324e-05
-4.86205e-05
-2.02861e-05
-4.42565e-05
-2.03244e-05
-3.99123e-05
-2.01446e-05
-3.56318e-05
-1.97474e-05
-3.14581e-05
-1.91373e-05
-2.74329e-05
-1.83224e-05
-2.35955e-05
-1.73148e-05
-1.99823e-05
-1.61305e-05
-1.66258e-05
-1.47896e-05
-1.35538e-05
-1.33161e-05
-1.07891e-05
-1.17381e-05
-8.34808e-06
-1.00879e-05
-6.24074e-06
-8.40195e-06
-4.46963e-06
-6.72132e-06
-3.0296e-06
-5.09179e-06
-1.90731e-06
-3.56441e-06
-1.08097e-06
-2.19612e-06
-5.20191e-07
-1.05062e-06
-1.85998e-07
-1.99019e-07
-3.10366e-08
2.79004e-07
2.88414e-07
-2.32222e-07
5.58742e-07
-9.08143e-07
2.11373e-06
-2.00916e-06
3.93806e-06
-3.5162e-06
5.90523e-06
-5.40839e-06
7.9207e-06
-7.66257e-06
9.91104e-06
-1.02533e-05
1.18209e-05
-1.31531e-05
1.36105e-05
-1.63328e-05
1.52524e-05
-1.97622e-05
1.67289e-05
-2.34104e-05
1.803e-05
-2.72461e-05
1.91516e-05
-3.12381e-05
2.00933e-05
-3.53556e-05
2.08577e-05
-3.95681e-05
2.14489e-05
-4.38458e-05
2.18722e-05
-4.81595e-05
2.21326e-05
-5.24806e-05
2.22355e-05
-5.6781e-05
2.21855e-05
-6.10332e-05
2.19864e-05
-6.52101e-05
2.16418e-05
-6.92849e-05
2.11542e-05
-7.32314e-05
2.05258e-05
-7.70235e-05
1.97584e-05
-8.06357e-05
1.88537e-05
-8.40428e-05
1.78134e-05
-8.72202e-05
1.66396e-05
-9.01439e-05
1.5335e-05
-9.27906e-05
1.39032e-05
-9.51383e-05
1.23486e-05
-9.71659e-05
1.06773e-05
-9.8854e-05
8.89643e-06
-0.000100185
7.015e-06
-0.000101143
5.04362e-06
-0.000101714
2.9947e-06
-0.000101888
8.82466e-07
-0.000101657
-1.27708e-06
-0.000101016
-3.46622e-06
-9.99627e-05
-5.66562e-06
-9.85005e-05
-7.85452e-06
-9.6635e-05
-1.00109e-05
-9.43761e-05
-1.21119e-05
-9.17379e-05
-1.41339e-05
-8.87385e-05
-1.6053e-05
-8.54002e-05
-1.78454e-05
-8.17494e-05
-1.94877e-05
-7.78163e-05
-2.09576e-05
-7.36348e-05
-2.2234e-05
-6.92424e-05
-2.32979e-05
-6.46793e-05
-2.41323e-05
-5.99886e-05
-2.47231e-05
-5.52153e-05
-2.50595e-05
-5.04058e-05
-2.51338e-05
-4.56077e-05
-2.49428e-05
-4.08682e-05
-2.44869e-05
-3.62343e-05
-2.37712e-05
-3.17512e-05
-2.28054e-05
-2.74621e-05
-2.16038e-05
-2.3407e-05
-2.01856e-05
-1.96219e-05
-1.85746e-05
-1.61382e-05
-1.67997e-05
-1.29817e-05
-1.48945e-05
-1.01721e-05
-1.28975e-05
-7.72189e-06
-1.08521e-05
-5.63651e-06
-8.8067e-06
-3.9133e-06
-6.815e-06
-2.54145e-06
-4.93625e-06
-1.50181e-06
-3.23576e-06
-7.66915e-07
-1.78552e-06
-3.01278e-07
-6.64652e-07
-6.20196e-08
3.97493e-08
2.26395e-07
-2.77615e-07
8.36357e-07
-1.07445e-06
2.91057e-06
-2.35823e-06
5.22184e-06
-4.09811e-06
7.64512e-06
-6.26336e-06
1.00859e-05
-8.82268e-06
1.24704e-05
-1.1744e-05
1.47423e-05
-1.49946e-05
1.68611e-05
-1.85409e-05
1.87987e-05
-2.23493e-05
2.05372e-05
-2.63857e-05
2.20665e-05
-3.06166e-05
2.33825e-05
-3.50085e-05
2.44852e-05
-3.95286e-05
2.53778e-05
-4.41446e-05
2.6065e-05
-4.8825e-05
2.65525e-05
-5.35388e-05
2.68464e-05
-5.82556e-05
2.69524e-05
-6.29458e-05
2.68756e-05
-6.758e-05
2.66207e-05
-7.21295e-05
2.61913e-05
-7.65659e-05
2.55905e-05
-8.0861e-05
2.48209e-05
-8.49873e-05
2.38847e-05
-8.89175e-05
2.27838e-05
-9.26246e-05
2.15205e-05
-9.60826e-05
2.00975e-05
-9.92657e-05
1.85182e-05
-0.000102149
1.67868e-05
-0.00010471
1.49092e-05
-0.000106925
1.28924e-05
-0.000108774
1.07453e-05
-0.000110238
8.47875e-06
-0.000111299
6.10536e-06
-0.000111945
3.64e-06
-0.000112162
1.0996e-06
-0.000111942
-1.49685e-06
-0.00011128
-4.12832e-06
-0.000110174
-6.77196e-06
-0.000108625
-9.40321e-06
-0.00010664
-1.19961e-05
-0.000104228
-1.45235e-05
-0.000101405
-1.69575e-05
-9.81878e-05
-1.927e-05
-9.46006e-05
-2.14326e-05
-9.06705e-05
-2.34178e-05
-8.64292e-05
-2.51989e-05
-8.19122e-05
-2.6751e-05
-7.71589e-05
-2.80512e-05
-7.22118e-05
-2.90794e-05
-6.71165e-05
-2.98184e-05
-6.19209e-05
-3.02551e-05
-5.66745e-05
-3.03802e-05
-5.14282e-05
-3.01891e-05
-4.62328e-05
-2.96823e-05
-4.11389e-05
-2.88651e-05
-3.61957e-05
-2.77487e-05
-3.14501e-05
-2.63494e-05
-2.6946e-05
-2.46897e-05
-2.27233e-05
-2.27973e-05
-1.88172e-05
-2.07059e-05
-1.5257e-05
-1.84547e-05
-1.20659e-05
-1.60886e-05
-9.25989e-06
-1.36581e-05
-6.84744e-06
-1.12192e-05
-4.82903e-06
-8.8334e-06
-3.19693e-06
-6.56836e-06
-1.9351e-06
-4.49759e-06
-1.01943e-06
-2.70119e-06
-4.18188e-07
-1.26589e-06
-9.29375e-08
-2.85498e-07
1.33459e-07
-3.21548e-07
1.1579e-06
-1.23638e-06
3.8254e-06
-2.69947e-06
6.68493e-06
-4.66868e-06
9.61433e-06
-7.10354e-06
1.25208e-05
-9.96456e-06
1.53314e-05
-1.32129e-05
1.79906e-05
-1.68102e-05
2.04584e-05
-2.07185e-05
2.2707e-05
-2.49002e-05
2.47189e-05
-2.93184e-05
2.64848e-05
-3.3937e-05
2.8001e-05
-3.87202e-05
2.92684e-05
-4.36333e-05
3.02909e-05
-4.86424e-05
3.10741e-05
-5.37143e-05
3.16244e-05
-5.88164e-05
3.19486e-05
-6.39171e-05
3.2053e-05
-6.89849e-05
3.19435e-05
-7.39893e-05
3.16251e-05
-7.88999e-05
3.11019e-05
-8.3687e-05
3.03776e-05
-8.83209e-05
2.94548e-05
-9.27725e-05
2.83363e-05
-9.70131e-05
2.70244e-05
-0.000101014
2.55218e-05
-0.000104749
2.38319e-05
-0.000108189
2.19585e-05
-0.000111309
1.99072e-05
-0.000114085
1.76846e-05
-0.000116492
1.52992e-05
-0.000118508
1.27614e-05
-0.000120113
1.0084e-05
-0.00012129
7.28185e-06
-0.000122022
4.37218e-06
-0.000122297
1.37473e-06
-0.000122105
-1.68841e-06
-0.000121441
-4.79286e-06
-0.000120301
-7.91208e-06
-0.000118686
-1.10176e-05
-0.000116603
-1.40793e-05
-0.000114061
-1.70657e-05
-0.000111074
-1.99445e-05
-0.000107661
-2.26828e-05
-0.000103846
-2.52477e-05
-9.96566e-05
-2.76071e-05
-9.51256e-05
-2.97299e-05
-9.02898e-05
-3.15868e-05
-8.51903e-05
-3.31508e-05
-7.98716e-05
-3.43981e-05
-7.43815e-05
-3.53085e-05
-6.87707e-05
-3.58659e-05
-6.30918e-05
-3.60591e-05
-5.73988e-05
-3.58821e-05
-5.17463e-05
-3.53348e-05
-4.61886e-05
-3.44229e-05
-4.07788e-05
-3.31584e-05
-3.55681e-05
-3.15602e-05
-3.06045e-05
-2.96533e-05
-2.59321e-05
-2.74696e-05
-2.15903e-05
-2.50477e-05
-1.76124e-05
-2.24325e-05
-1.40257e-05
-1.96754e-05
-1.085e-05
-1.68339e-05
-8.09735e-06
-1.39718e-05
-5.77197e-06
-1.11588e-05
-3.86959e-06
-8.47074e-06
-2.37768e-06
-5.98949e-06
-1.27573e-06
-3.80314e-06
-5.358e-07
-2.00581e-06
-1.23587e-07
-6.9771e-07
9.87312e-09
-3.63979e-07
1.52188e-06
-1.39345e-06
4.85487e-06
-3.03147e-06
8.32295e-06
-5.22514e-06
1.1808e-05
-7.92452e-06
1.52202e-05
-1.1082e-05
1.84889e-05
-1.4652e-05
2.15606e-05
-1.85903e-05
2.43967e-05
-2.28544e-05
2.6971e-05
-2.74028e-05
2.92674e-05
-3.21956e-05
3.12775e-05
-3.71938e-05
3.29992e-05
-4.23597e-05
3.44343e-05
-4.76567e-05
3.55879e-05
-5.30491e-05
3.64665e-05
-5.85022e-05
3.70776e-05
-6.39824e-05
3.74287e-05
-6.94563e-05
3.75269e-05
-7.48915e-05
3.73787e-05
-8.02561e-05
3.69897e-05
-8.55186e-05
3.63644e-05
-9.06478e-05
3.55068e-05
-9.5613e-05
3.442e-05
-0.000100384
3.31071e-05
-0.00010493
3.15707e-05
-0.000109223
2.98142e-05
-0.000113232
2.78413e-05
-0.00011693
2.56569e-05
-0.00012029
2.3267e-05
-0.000123285
2.06797e-05
-0.000125891
1.79047e-05
-0.000128083
1.49541e-05
-0.000129842
1.18424e-05
-0.000131147
8.58668e-06
-0.000131981
5.2068e-06
-0.000132332
1.72523e-06
-0.000132187
-1.83279e-06
-0.000131541
-5.43947e-06
-0.000130388
-9.06452e-06
-0.00012873
-1.26755e-05
-0.000126572
-1.62379e-05
-0.000123922
-1.97159e-05
-0.000120794
-2.30723e-05
-0.000117207
-2.62697e-05
-0.000113184
-2.92702e-05
-0.000108755
-3.20367e-05
-0.000103951
-3.45333e-05
-9.88121e-05
-3.67262e-05
-9.3379e-05
-3.85839e-05
-8.76986e-05
-4.00785e-05
-8.1821e-05
-4.11861e-05
-7.57993e-05
-4.18876e-05
-6.9689e-05
-4.21693e-05
-6.35475e-05
-4.20236e-05
-5.74332e-05
-4.14492e-05
-5.14043e-05
-4.04518e-05
-4.55181e-05
-3.90446e-05
-3.98304e-05
-3.72479e-05
-3.43936e-05
-3.509e-05
-2.92566e-05
-3.26066e-05
-2.44632e-05
-2.98411e-05
-2.00516e-05
-2.68441e-05
-1.60534e-05
-2.36736e-05
-1.24927e-05
-2.03945e-05
-9.38604e-06
-1.70784e-05
-6.74146e-06
-1.38034e-05
-4.55866e-06
-1.06535e-05
-2.82893e-06
-7.71923e-06
-1.53545e-06
-5.09661e-06
-6.54007e-07
-2.88726e-06
-1.53992e-07
-1.19772e-06
-1.44118e-07
-4.04895e-07
1.92678e-06
-1.54535e-06
5.99533e-06
-3.35327e-06
1.01309e-05
-5.76553e-06
1.42202e-05
-8.72306e-06
1.81777e-05
-1.21704e-05
2.19362e-05
-1.6055e-05
2.54452e-05
-2.03272e-05
2.86689e-05
-2.49397e-05
3.15834e-05
-2.98471e-05
3.41748e-05
-3.50062e-05
3.64367e-05
-4.03756e-05
3.83685e-05
-4.59152e-05
3.9974e-05
-5.15868e-05
4.12594e-05
-5.7353e-05
4.22327e-05
-6.31779e-05
4.29025e-05
-6.90264e-05
4.32772e-05
-7.48643e-05
4.33648e-05
-8.0658e-05
4.31724e-05
-8.63744e-05
4.27061e-05
-9.19811e-05
4.19711e-05
-9.74459e-05
4.09715e-05
-0.000102737
3.97111e-05
-0.000107823
3.81929e-05
-0.000112672
3.64204e-05
-0.000117255
3.4397e-05
-0.000121541
3.21271e-05
-0.0001255
2.96163e-05
-0.000129105
2.68717e-05
-0.000132327
2.3902e-05
-0.000135141
2.07186e-05
-0.000137522
1.7335e-05
-0.000139448
1.37677e-05
-0.000140897
1.00359e-05
-0.000141852
6.16178e-06
-0.000142297
2.17075e-06
-0.000142221
-1.90887e-06
-0.000141615
-6.04582e-06
-0.000140473
-1.0206e-05
-0.000138796
-1.4353e-05
-0.000136586
-1.84479e-05
-0.000133852
-2.24502e-05
-0.000130606
-2.63179e-05
-0.000126867
-3.00085e-05
-0.000122658
-3.34791e-05
-0.000118008
-3.66874e-05
-0.000112949
-3.95923e-05
-0.00010752
-4.21549e-05
-0.000101765
-4.43389e-05
-9.57314e-05
-4.61119e-05
-8.94716e-05
-4.74459e-05
-8.30411e-05
-4.83181e-05
-7.64983e-05
-4.87121e-05
-6.99041e-05
-4.86178e-05
-6.33206e-05
-4.80327e-05
-5.68104e-05
-4.69621e-05
-5.04353e-05
-4.54197e-05
-4.42557e-05
-4.34275e-05
-3.83293e-05
-4.10164e-05
-3.271e-05
-3.82259e-05
-2.74469e-05
-3.51042e-05
-2.25832e-05
-3.17078e-05
-1.81556e-05
-2.81012e-05
-1.41932e-05
-2.43569e-05
-1.07172e-05
-2.05545e-05
-7.74011e-06
-1.67804e-05
-5.26598e-06
-1.31277e-05
-3.29009e-06
-9.69512e-06
-1.79942e-06
-6.58728e-06
-7.73278e-07
-3.91339e-06
-1.84332e-07
-1.78667e-06
-3.2845e-07
-4.44283e-07
2.37106e-06
-1.69188e-06
7.24293e-06
-3.66418e-06
1.21032e-05
-6.28836e-06
1.68444e-05
-9.49664e-06
2.1386e-05
-1.32259e-05
2.56654e-05
-1.7417e-05
2.96363e-05
-2.20146e-05
3.32665e-05
-2.69667e-05
3.65356e-05
-3.22242e-05
3.94323e-05
-3.77406e-05
4.19531e-05
-4.34719e-05
4.40998e-05
-4.9376e-05
4.58781e-05
-5.54126e-05
4.72961e-05
-6.15432e-05
4.83634e-05
-6.77305e-05
4.90898e-05
-7.39384e-05
4.9485e-05
-8.01315e-05
4.95579e-05
-8.62755e-05
4.93164e-05
-9.23364e-05
4.87671e-05
-9.82809e-05
4.79156e-05
-0.000104076
4.67666e-05
-0.000109689
4.53241e-05
-0.000115088
4.35916e-05
-0.00012024
4.15726e-05
-0.000125114
3.92713e-05
-0.00012968
3.66924e-05
-0.000133905
3.38422e-05
-0.000137762
3.07284e-05
-0.000141221
2.73612e-05
-0.000144256
2.37528e-05
-0.000146839
1.99184e-05
-0.000148947
1.58762e-05
-0.000150559
1.16476e-05
-0.000151655
7.25716e-06
-0.000152217
2.73297e-06
-0.000152232
-1.89353e-06
-0.00015169
-6.58766e-06
-0.000150585
-1.13116e-05
-0.000148913
-1.60247e-05
-0.000146677
-2.06837e-05
-0.000143884
-2.52434e-05
-0.000140545
-2.96568e-05
-0.000136678
-3.38761e-05
-0.000132304
-3.7853e-05
-0.000127451
-4.15398e-05
-0.000122154
-4.48898e-05
-0.00011645
-4.78585e-05
-0.000110385
-5.04046e-05
-0.000104006
-5.24904e-05
-9.73686e-05
-5.40833e-05
-9.05302e-05
-5.51565e-05
-8.35524e-05
-5.56899e-05
-7.64995e-05
-5.56707e-05
-6.94376e-05
-5.50946e-05
-6.24336e-05
-5.3966e-05
-5.55546e-05
-5.22987e-05
-4.88661e-05
-5.0116e-05
-4.24312e-05
-4.74513e-05
-3.63096e-05
-4.43476e-05
-3.05561e-05
-4.08578e-05
-2.52197e-05
-3.70442e-05
-2.03427e-05
-3.29782e-05
-1.59598e-05
-2.87398e-05
-1.20974e-05
-2.44169e-05
-8.77304e-06
-2.01048e-05
-5.99532e-06
-1.59054e-05
-3.76379e-06
-1.19266e-05
-2.06928e-06
-8.28178e-06
-8.94482e-07
-5.08819e-06
-2.14884e-07
-2.46626e-06
-5.43333e-07
-4.82122e-07
2.85318e-06
-1.83282e-06
8.59363e-06
-3.96357e-06
1.42339e-05
-6.79236e-06
1.96732e-05
-1.02431e-05
2.48367e-05
-1.42453e-05
2.96676e-05
-1.87335e-05
3.41245e-05
-2.36468e-05
3.81799e-05
-2.89288e-05
4.18175e-05
-3.45264e-05
4.50299e-05
-4.03901e-05
4.78168e-05
-4.64732e-05
5.01829e-05
-5.27316e-05
5.21365e-05
-5.91235e-05
5.36879e-05
-6.56088e-05
5.48486e-05
-7.21491e-05
5.56301e-05
-7.87073e-05
5.60432e-05
-8.52474e-05
5.6098e-05
-9.17341e-05
5.58031e-05
-9.81328e-05
5.51658e-05
-0.00010441
5.41924e-05
-0.000110531
5.28878e-05
-0.000116463
5.12563e-05
-0.000122173
4.93018e-05
-0.000127629
4.70281e-05
-0.000132797
4.44397e-05
-0.000137646
4.15418e-05
-0.000142145
3.83412e-05
-0.000146263
3.48464e-05
-0.000149971
3.10685e-05
-0.000153239
2.70208e-05
-0.00015604
2.272e-05
-0.00015835
1.81859e-05
-0.000160144
1.34419e-05
-0.000161402
8.51483e-06
-0.000162104
3.43546e-06
-0.000162236
-1.76181e-06
-0.000161785
-7.03892e-06
-0.000160742
-1.23543e-05
-0.000159104
-1.76633e-05
-0.000156869
-2.29181e-05
-0.000154044
-2.80687e-05
-0.000150638
-3.3063e-05
-0.000146666
-3.78477e-05
-0.00014215
-4.23689e-05
-0.000137117
-4.65731e-05
-0.000131599
-5.04076e-05
-0.000125636
-5.3822e-05
-0.000119271
-5.67691e-05
-0.000112556
-5.92057e-05
-0.000105545
-6.10939e-05
-9.82994e-05
-6.24021e-05
-9.08834e-05
-6.31059e-05
-8.33647e-05
-6.31894e-05
-7.58138e-05
-6.26455e-05
-6.83024e-05
-6.14774e-05
-6.09027e-05
-5.96984e-05
-5.3686e-05
-5.73327e-05
-4.67217e-05
-5.44156e-05
-4.00754e-05
-5.09938e-05
-3.38085e-05
-4.71246e-05
-2.79765e-05
-4.28762e-05
-2.26279e-05
-3.83268e-05
-1.78036e-05
-3.35641e-05
-1.35357e-05
-2.86848e-05
-9.84725e-06
-2.37932e-05
-6.75191e-06
-1.90007e-05
-4.25369e-06
-1.44249e-05
-2.34733e-06
-1.01881e-05
-1.01877e-06
-6.41674e-06
-2.45993e-07
-3.23904e-06
-7.89325e-07
-5.18377e-07
3.37156e-06
-1.96796e-06
1.00432e-05
-4.25085e-06
1.65168e-05
-7.27634e-06
2.26987e-05
-1.09605e-05
2.85209e-05
-1.52257e-05
3.39329e-05
-2.00006e-05
3.88993e-05
-2.52189e-05
4.33983e-05
-3.08197e-05
4.74183e-05
-3.67463e-05
5.09565e-05
-4.29462e-05
5.40167e-05
-4.93702e-05
5.66069e-05
-5.59722e-05
5.87385e-05
-6.27087e-05
6.04245e-05
-6.95386e-05
6.16785e-05
-7.64222e-05
6.25137e-05
-8.33217e-05
6.29428e-05
-9.02004e-05
6.29767e-05
-9.70224e-05
6.26251e-05
-0.000103753
6.18961e-05
-0.000110357
6.07963e-05
-0.0001168
5.93313e-05
-0.000123049
5.75055e-05
-0.000129071
5.53231e-05
-0.000134831
5.27883e-05
-0.000140297
4.99056e-05
-0.000145436
4.66808e-05
-0.000150216
4.31211e-05
-0.000154605
3.92357e-05
-0.000158573
3.50363e-05
-0.000162089
3.05374e-05
-0.000165126
2.57569e-05
-0.000167657
2.07161e-05
-0.000169655
1.54402e-05
-0.000171098
9.95819e-06
-0.000171966
4.30335e-06
-0.000172241
-1.48708e-06
-0.000171908
-7.37179e-06
-0.000170957
-1.33056e-05
-0.00016938
-1.92397e-05
-0.000167177
-2.51219e-05
-0.000164348
-3.08973e-05
-0.000160902
-3.65086e-05
-0.000156853
-4.18968e-05
-0.00015222
-4.70022e-05
-0.000147028
-5.17649e-05
-0.000141309
-5.61261e-05
-0.000135103
-6.00289e-05
-0.000128452
-6.34195e-05
-0.000121409
-6.62487e-05
-0.000114031
-6.84725e-05
-0.000106379
-7.00537e-05
-9.85216e-05
-7.09633e-05
-9.053e-05
-7.11809e-05
-8.2479e-05
-7.06966e-05
-7.44454e-05
-6.9511e-05
-6.65071e-05
-6.76366e-05
-5.87417e-05
-6.50981e-05
-5.1225e-05
-6.19324e-05
-4.40297e-05
-5.8189e-05
-3.72244e-05
-5.393e-05
-3.08715e-05
-4.92291e-05
-2.50267e-05
-4.41716e-05
-1.97375e-05
-3.88533e-05
-1.50427e-05
-3.33797e-05
-1.09712e-05
-2.78647e-05
-7.54208e-06
-2.24298e-05
-4.76419e-06
-1.72028e-05
-2.63628e-06
-1.2316e-05
-1.1475e-06
-7.90552e-06
-2.78054e-07
-4.10849e-06
-1.06738e-06
-5.52991e-07
3.92455e-06
-2.09703e-06
1.15873e-05
-4.52537e-06
1.89451e-05
-7.73911e-06
2.59124e-05
-1.16468e-05
3.24286e-05
-1.61644e-05
3.84504e-05
-2.12144e-05
4.39494e-05
-2.67258e-05
4.89097e-05
-3.26334e-05
5.33258e-05
-3.88769e-05
5.72001e-05
-4.54009e-05
6.05406e-05
-5.21538e-05
6.33598e-05
-5.90878e-05
6.56724e-05
-6.61577e-05
6.74945e-05
-7.33212e-05
6.8842e-05
-8.0538e-05
6.97305e-05
-8.77694e-05
7.01741e-05
-9.4978e-05
7.01853e-05
-0.000102128