/*--------------------------------*- C++ -*----------------------------------*\
  =========                 |
  \\      /  F ield         | OpenFOAM: The Open Source CFD Toolbox
   \\    /   O peration     | Website:  https://openfoam.org
    \\  /    A nd           | Version:  dev
     \\/     M anipulation  |
\*---------------------------------------------------------------------------*/
FoamFile
{
    format      ascii;
    class       volVectorField;
    location    "48.15";
    object      U;
}
// * * * * * * * * * * * * * * * * * * * * * * * * * * * * * * * * * * * * * //

dimensions      [0 1 -1 0 0 0 0];

internalField   nonuniform List<vector> 
5184
(
(1.24414e-05 -1.26023e-05 0)
(4.53572e-05 -2.08323e-05 0)
(8.04593e-05 -1.72293e-05 0)
(9.60948e-05 -8.19087e-06 0)
(8.22601e-05 2.67146e-06 0)
(3.65552e-05 1.3621e-05 0)
(-4.04793e-05 2.3851e-05 0)
(-0.000146826 3.30565e-05 0)
(-0.00027969 4.11171e-05 0)
(-0.000436016 4.80381e-05 0)
(-0.00061268 5.38813e-05 0)
(-0.000806649 5.87313e-05 0)
(-0.00101505 6.26808e-05 0)
(-0.00123523 6.58209e-05 0)
(-0.00146471 6.82366e-05 0)
(-0.00170124 7.00032e-05 0)
(-0.00194275 7.11849e-05 0)
(-0.00218732 7.18344e-05 0)
(-0.00243317 7.19924e-05 0)
(-0.0026786 7.16885e-05 0)
(-0.00292203 7.0942e-05 0)
(-0.00316187 6.97635e-05 0)
(-0.00339661 6.81559e-05 0)
(-0.00362472 6.61162e-05 0)
(-0.00384467 6.36371e-05 0)
(-0.00405492 6.0709e-05 0)
(-0.00425391 5.73211e-05 0)
(-0.00444007 5.3464e-05 0)
(-0.00461182 4.91306e-05 0)
(-0.00476759 4.43179e-05 0)
(-0.0049058 3.90282e-05 0)
(-0.00502493 3.3271e-05 0)
(-0.00512353 2.70634e-05 0)
(-0.00520021 2.04314e-05 0)
(-0.00525372 1.34107e-05 0)
(-0.00528294 6.04712e-06 0)
(-0.00528692 -1.60318e-06 0)
(-0.00526494 -9.4737e-06 0)
(-0.00521649 -1.74879e-05 0)
(-0.00514136 -2.55599e-05 0)
(-0.00503959 -3.35953e-05 0)
(-0.00491156 -4.14925e-05 0)
(-0.00475799 -4.9144e-05 0)
(-0.00457992 -5.64388e-05 0)
(-0.00437877 -6.32644e-05 0)
(-0.00415628 -6.95087e-05 0)
(-0.00391455 -7.50631e-05 0)
(-0.00365601 -7.98246e-05 0)
(-0.00338339 -8.36985e-05 0)
(-0.0030997 -8.66009e-05 0)
(-0.00280817 -8.8461e-05 0)
(-0.00251223 -8.92239e-05 0)
(-0.00221546 -8.88514e-05 0)
(-0.0019215 -8.73238e-05 0)
(-0.00163404 -8.46409e-05 0)
(-0.00135672 -8.0822e-05 0)
(-0.00109307 -7.59061e-05 0)
(-0.000846468 -6.9952e-05 0)
(-0.000620062 -6.30376e-05 0)
(-0.000416703 -5.52592e-05 0)
(-0.000238889 -4.67309e-05 0)
(-8.86978e-05 -3.75859e-05 0)
(3.22819e-05 -2.79791e-05 0)
(0.000123036 -1.8093e-05 0)
(0.000183234 -8.15241e-06 0)
(0.000213378 1.54863e-06 0)
(0.000215057 1.0585e-05 0)
(0.000191328 1.8317e-05 0)
(0.000147226 2.37292e-05 0)
(9.08468e-05 2.51303e-05 0)
(3.66563e-05 1.98409e-05 0)
(6.23474e-06 6.23565e-06 0)
(2.09236e-05 -4.57362e-05 0)
(6.57912e-05 -6.56254e-05 0)
(9.48996e-05 -4.05282e-05 0)
(7.29942e-05 7.64839e-06 0)
(-1.8762e-05 6.56975e-05 0)
(-0.000187192 0.000126024 0)
(-0.000432883 0.000184344 0)
(-0.00075262 0.00023841 0)
(-0.00114086 0.000287077 0)
(-0.00159081 0.000329903 0)
(-0.00209513 0.000366849 0)
(-0.00264637 0.000398103 0)
(-0.00323721 0.000423976 0)
(-0.00386066 0.000444837 0)
(-0.00451011 0.000461062 0)
(-0.00517937 0.00047301 0)
(-0.00586262 0.000481004 0)
(-0.00655443 0.00048532 0)
(-0.00724965 0.00048618 0)
(-0.0079434 0.000483757 0)
(-0.00863099 0.000478171 0)
(-0.00930784 0.0004695 0)
(-0.00996949 0.000457781 0)
(-0.0106115 0.000443024 0)
(-0.0112295 0.000425217 0)
(-0.011819 0.000404337 0)
(-0.0123757 0.000380358 0)
(-0.0128951 0.000353265 0)
(-0.0133729 0.000323057 0)
(-0.0138046 0.000289762 0)
(-0.0141861 0.00025344 0)
(-0.0145133 0.000214193 0)
(-0.0147822 0.000172173 0)
(-0.0149892 0.000127581 0)
(-0.0151311 8.06776e-05 0)
(-0.015205 3.17825e-05 0)
(-0.0152085 -1.87256e-05 0)
(-0.0151399 -7.04082e-05 0)
(-0.014998 -0.00012277 0)
(-0.0147825 -0.000175263 0)
(-0.0144937 -0.000227293 0)
(-0.0141329 -0.000278228 0)
(-0.0137022 -0.000327406 0)
(-0.0132047 -0.000374147 0)
(-0.0126443 -0.000417768 0)
(-0.0120258 -0.000457591 0)
(-0.011355 -0.000492966 0)
(-0.0106386 -0.000523277 0)
(-0.00988384 -0.000547962 0)
(-0.00909895 -0.000566527 0)
(-0.0082926 -0.00057856 0)
(-0.00747396 -0.000583739 0)
(-0.00665258 -0.000581851 0)
(-0.00583819 -0.000572791 0)
(-0.00504058 -0.000556577 0)
(-0.00426943 -0.000533347 0)
(-0.00353412 -0.000503365 0)
(-0.00284357 -0.000467021 0)
(-0.00220606 -0.000424828 0)
(-0.00162908 -0.00037743 0)
(-0.0011191 -0.000325594 0)
(-0.000681419 -0.000270226 0)
(-0.000319953 -0.000212388 0)
(-3.69846e-05 -0.000153333 0)
(0.000167123 -9.45721e-05 0)
(0.000294292 -3.79804e-05 0)
(0.000349272 1.39796e-05 0)
(0.000340343 5.79993e-05 0)
(0.000280011 8.94774e-05 0)
(0.000186148 0.000101912 0)
(8.64261e-05 8.65405e-05 0)
(1.97004e-05 3.64828e-05 0)
(1.76772e-05 -8.12697e-05 0)
(4.14418e-05 -9.50104e-05 0)
(1.97496e-05 -1.91222e-05 0)
(-8.38509e-05 0.000105957 0)
(-0.000290147 0.000254714 0)
(-0.000607888 0.000410695 0)
(-0.00103834 0.000563582 0)
(-0.00157768 0.000707234 0)
(-0.00221875 0.000838198 0)
(-0.00295236 0.000954766 0)
(-0.00376822 0.00105634 0)
(-0.00465562 0.00114302 0)
(-0.00560384 0.0012153 0)
(-0.00660241 0.00127393 0)
(-0.00764126 0.00131973 0)
(-0.00871084 0.00135351 0)
(-0.00980206 0.00137604 0)
(-0.0109063 0.00138801 0)
(-0.0120154 0.00138997 0)
(-0.0131214 0.00138236 0)
(-0.0142169 0.00136552 0)
(-0.0152943 0.00133967 0)
(-0.0163466 0.00130494 0)
(-0.0173664 0.00126138 0)
(-0.0183468 0.00120902 0)
(-0.0192808 0.00114784 0)
(-0.0201612 0.00107782 0)
(-0.0209811 0.000998989 0)
(-0.0217337 0.000911407 0)
(-0.0224121 0.000815211 0)
(-0.0230098 0.000710636 0)
(-0.0235205 0.000598024 0)
(-0.0239383 0.000477851 0)
(-0.0242576 0.000350732 0)
(-0.0244737 0.000217433 0)
(-0.0245822 7.88782e-05 0)
(-0.0245797 -6.38519e-05 0)
(-0.0244639 -0.000209521 0)
(-0.0242331 -0.000356744 0)
(-0.023887 -0.000504005 0)
(-0.0234265 -0.000649665 0)
(-0.0228537 -0.000791991 0)
(-0.0221721 -0.000929181 0)
(-0.0213864 -0.00105939 0)
(-0.0205031 -0.00118077 0)
(-0.0195297 -0.00129149 0)
(-0.0184751 -0.00138981 0)
(-0.0173496 -0.00147407 0)
(-0.0161645 -0.00154278 0)
(-0.0149323 -0.00159462 0)
(-0.0136663 -0.0016285 0)
(-0.0123806 -0.00164356 0)
(-0.0110897 -0.00163926 0)
(-0.00980838 -0.00161533 0)
(-0.00855163 -0.00157184 0)
(-0.00733414 -0.00150919 0)
(-0.00617014 -0.00142815 0)
(-0.00507317 -0.00132979 0)
(-0.00405578 -0.00121558 0)
(-0.00312925 -0.00108732 0)
(-0.00230332 -0.000947188 0)
(-0.00158588 -0.000797749 0)
(-0.000982663 -0.000642014 0)
(-0.000496903 -0.000483517 0)
(-0.000128905 -0.000326459 0)
(0.000124402 -0.000175932 0)
(0.000270117 -3.82492e-05 0)
(0.000320094 7.85709e-05 0)
(0.000291477 0.000164224 0)
(0.000207521 0.000205531 0)
(0.000102513 0.000186375 0)
(2.49959e-05 9.04199e-05 0)
(8.86225e-06 -9.7768e-05 0)
(-6.94428e-06 -7.31741e-05 0)
(-0.000107494 8.47865e-05 0)
(-0.000322304 0.000318425 0)
(-0.000669624 0.000590236 0)
(-0.00115786 0.000874587 0)
(-0.00178777 0.00115444 0)
(-0.00255457 0.001419 0)
(-0.00344973 0.00166179 0)
(-0.0044622 0.00187928 0)
(-0.0055795 0.0020699 0)
(-0.00678843 0.0022334 0)
(-0.00807557 0.00237035 0)
(-0.00942765 0.00248178 0)
(-0.0108318 0.00256896 0)
(-0.0122755 0.00263323 0)
(-0.0137469 0.00267586 0)
(-0.0152346 0.00269801 0)
(-0.0167277 0.00270066 0)
(-0.0182155 0.00268459 0)
(-0.0196879 0.00265042 0)
(-0.0211349 0.00259855 0)
(-0.0225467 0.00252927 0)
(-0.0239137 0.00244273 0)
(-0.0252264 0.00233901 0)
(-0.0264752 0.00221815 0)
(-0.0276508 0.00208021 0)
(-0.0287439 0.0019253 0)
(-0.0297454 0.00175363 0)
(-0.0306465 0.00156555 0)
(-0.0314384 0.00136157 0)
(-0.0321132 0.00114244 0)
(-0.032663 0.000909141 0)
(-0.033081 0.0006629 0)
(-0.0333608 0.000405236 0)
(-0.0334972 0.000137954 0)
(-0.033486 -0.000136859 0)
(-0.0333241 -0.000416829 0)
(-0.03301 -0.00069932 0)
(-0.0325433 -0.000981454 0)
(-0.0319254 -0.00126014 0)
(-0.0311594 -0.00153212 0)
(-0.0302499 -0.00179402 0)
(-0.0292036 -0.00204239 0)
(-0.0280286 -0.00227379 0)
(-0.026735 -0.00248483 0)
(-0.0253345 -0.00267225 0)
(-0.0238404 -0.00283301 0)
(-0.0222676 -0.00296433 0)
(-0.0206321 -0.00306378 0)
(-0.0189513 -0.00312935 0)
(-0.0172432 -0.0031595 0)
(-0.0155266 -0.00315319 0)
(-0.0138208 -0.00310998 0)
(-0.0121449 -0.00303002 0)
(-0.0105179 -0.00291411 0)
(-0.00895815 -0.00276366 0)
(-0.00748306 -0.00258078 0)
(-0.0061088 -0.00236824 0)
(-0.00484988 -0.00212949 0)
(-0.00371877 -0.00186867 0)
(-0.0027256 -0.00159069 0)
(-0.00187769 -0.00130128 0)
(-0.00117918 -0.00100709 0)
(-0.000630516 -0.000715951 0)
(-0.000228 -0.00043715 0)
(3.68536e-05 -0.000181828 0)
(0.000177946 3.64051e-05 0)
(0.000215008 0.000200829 0)
(0.00017423 0.00029104 0)
(9.30858e-05 0.000282727 0)
(2.40415e-05 0.00014735 0)
(-2.11313e-06 -8.4459e-05 0)
(-6.72641e-05 2.08534e-05 0)
(-0.000264098 0.00029548 0)
(-0.000609829 0.000668169 0)
(-0.00111696 0.0010911 0)
(-0.00179171 0.00153035 0)
(-0.00263308 0.00196246 0)
(-0.0036347 0.00237195 0)
(-0.00478643 0.0027491 0)
(-0.00607557 0.00308826 0)
(-0.00748774 0.00338666 0)
(-0.00900769 0.00364347 0)
(-0.0106198 0.00385917 0)
(-0.0123086 0.00403498 0)
(-0.0140587 0.00417258 0)
(-0.0158552 0.00427377 0)
(-0.0176839 0.00434035 0)
(-0.0195309 0.00437398 0)
(-0.0213828 0.00437607 0)
(-0.0232266 0.0043478 0)
(-0.0250497 0.00429007 0)
(-0.0268399 0.00420355 0)
(-0.028585 0.00408869 0)
(-0.030273 0.00394579 0)
(-0.0318923 0.00377505 0)
(-0.0334312 0.00357661 0)
(-0.0348782 0.00335067 0)
(-0.0362219 0.00309749 0)
(-0.0374512 0.00281753 0)
(-0.0385555 0.00251145 0)
(-0.0395243 0.00218019 0)
(-0.0403479 0.00182504 0)
(-0.0410171 0.00144763 0)
(-0.0415236 0.00105002 0)
(-0.0418602 0.000634695 0)
(-0.0420207 0.000204579 0)
(-0.0420002 -0.000236968 0)
(-0.0417954 -0.000686156 0)
(-0.0414044 -0.00113879 0)
(-0.0408273 -0.00159032 0)
(-0.0400659 -0.00203587 0)
(-0.039124 -0.00247032 0)
(-0.0380076 -0.00288838 0)
(-0.0367246 -0.00328466 0)
(-0.0352851 -0.00365377 0)
(-0.033701 -0.00399044 0)
(-0.0319867 -0.00428962 0)
(-0.030158 -0.00454655 0)
(-0.0282326 -0.00475694 0)
(-0.0262299 -0.00491701 0)
(-0.0241705 -0.00502366 0)
(-0.0220759 -0.00507447 0)
(-0.0199687 -0.00506789 0)
(-0.0178716 -0.00500324 0)
(-0.0158076 -0.00488077 0)
(-0.0137993 -0.00470174 0)
(-0.0118686 -0.00446844 0)
(-0.0100362 -0.00418418 0)
(-0.00832158 -0.00385336 0)
(-0.00674193 -0.00348142 0)
(-0.00531224 -0.00307496 0)
(-0.00404463 -0.00264171 0)
(-0.00294797 -0.00219067 0)
(-0.00202741 -0.00173226 0)
(-0.00128388 -0.00127853 0)
(-0.000713615 -0.000843534 0)
(-0.000307604 -0.000443779 0)
(-5.10703e-05 -9.88274e-05 0)
(7.68669e-05 0.000167983 0)
(0.000103726 0.000328915 0)
(6.756e-05 0.000351216 0)
(1.9676e-05 0.000194242 0)
(-1.36913e-05 -3.75803e-05 0)
(-0.000132843 0.000197349 0)
(-0.000435898 0.000627009 0)
(-0.000924842 0.00117062 0)
(-0.00160431 0.00177222 0)
(-0.00247687 0.00239092 0)
(-0.00353869 0.00299765 0)
(-0.00478105 0.0035726 0)
(-0.00619186 0.00410292 0)
(-0.0077566 0.00458084 0)
(-0.00945912 0.00500228 0)
(-0.0112824 0.00536574 0)
(-0.0132088 0.00567147 0)
(-0.015221 0.00592083 0)
(-0.0173015 0.00611581 0)
(-0.0194335 0.00625867 0)
(-0.0216006 0.00635169 0)
(-0.0237867 0.00639701 0)
(-0.0259763 0.00639649 0)
(-0.0281544 0.0063517 0)
(-0.0303062 0.00626388 0)
(-0.0324173 0.00613396 0)
(-0.0344735 0.0059626 0)
(-0.0364609 0.00575028 0)
(-0.0383656 0.00549736 0)
(-0.040174 0.00520415 0)
(-0.0418729 0.00487103 0)
(-0.0434489 0.00449854 0)
(-0.0448892 0.00408743 0)
(-0.0461815 0.00363881 0)
(-0.0473138 0.00315415 0)
(-0.0482749 0.00263542 0)
(-0.0490545 0.0020851 0)
(-0.0496432 0.00150623 0)
(-0.0500327 0.000902479 0)
(-0.0502161 0.000278089 0)
(-0.0501881 -0.00036207 0)
(-0.0499449 -0.00101254 0)
(-0.0494848 -0.00166731 0)
(-0.0488079 -0.00231988 0)
(-0.0479166 -0.00296331 0)
(-0.0468153 -0.00359033 0)
(-0.045511 -0.00419344 0)
(-0.0440128 -0.00476501 0)
(-0.0423323 -0.00529744 0)
(-0.0404834 -0.00578331 0)
(-0.0384823 -0.00621546 0)
(-0.0363471 -0.00658723 0)
(-0.0340982 -0.00689256 0)
(-0.0317575 -0.00712613 0)
(-0.0293485 -0.00728357 0)
(-0.0268958 -0.00736151 0)
(-0.0244251 -0.00735773 0)
(-0.0219623 -0.00727129 0)
(-0.0195336 -0.00710258 0)
(-0.0171648 -0.00685337 0)
(-0.014881 -0.00652693 0)
(-0.012706 -0.00612796 0)
(-0.0106619 -0.00566271 0)
(-0.00876863 -0.00513897 0)
(-0.00704341 -0.00456608 0)
(-0.00550037 -0.00395503 0)
(-0.00414997 -0.00331853 0)
(-0.00299859 -0.00267117 0)
(-0.00204799 -0.0020297 0)
(-0.0012949 -0.00141331 0)
(-0.000730528 -0.000844161 0)
(-0.000340131 -0.000347936 0)
(-0.000102746 4.53786e-05 0)
(9.27244e-06 0.000300836 0)
(3.25474e-05 0.000377614 0)
(1.36306e-05 0.000224651 0)
(-2.51889e-05 4.40607e-05 0)
(-0.000200056 0.000461322 0)
(-0.000614237 0.0010873 0)
(-0.00125326 0.0018352 0)
(-0.00211265 0.00264313 0)
(-0.00319028 0.00346483 0)
(-0.00447856 0.00426665 0)
(-0.00596577 0.00502512 0)
(-0.00763742 0.00572462 0)
(-0.00947694 0.00635546 0)
(-0.0114663 0.00691232 0)
(-0.0135868 0.00739303 0)
(-0.0158191 0.00779761 0)
(-0.018144 0.00812748 0)
(-0.0205424 0.00838492 0)
(-0.0229956 0.00857259 0)
(-0.0254853 0.00869322 0)
(-0.0279938 0.00874942 0)
(-0.0305036 0.00874349 0)
(-0.0329978 0.0086774 0)
(-0.0354599 0.0085527 0)
(-0.0378734 0.00837061 0)
(-0.0402224 0.00813203 0)
(-0.0424911 0.00783766 0)
(-0.0446638 0.00748803 0)
(-0.0467253 0.0070837 0)
(-0.0486605 0.00662531 0)
(-0.0504544 0.00611369 0)
(-0.0520928 0.00555004 0)
(-0.0535617 0.00493596 0)
(-0.054848 0.00427362 0)
(-0.0559391 0.00356578 0)
(-0.0568235 0.00281591 0)
(-0.057491 0.00202821 0)
(-0.0579323 0.00120767 0)
(-0.0581401 0.000360065 0)
(-0.0581084 -0.000508022 0)
(-0.0578333 -0.00138926 0)
(-0.0573128 -0.00227559 0)
(-0.0565474 -0.00315833 0)
(-0.0555396 -0.00402825 0)
(-0.0542945 -0.00487566 0)
(-0.0528199 -0.00569063 0)
(-0.0511259 -0.00646304 0)
(-0.0492254 -0.00718283 0)
(-0.0471338 -0.00784016 0)
(-0.0448688 -0.00842559 0)
(-0.0424508 -0.00893029 0)
(-0.0399021 -0.00934625 0)
(-0.0372469 -0.00966644 0)
(-0.0345112 -0.00988504 0)
(-0.0317225 -0.00999759 0)
(-0.0289089 -0.0100012 0)
(-0.0260993 -0.00989444 0)
(-0.0233229 -0.00967796 0)
(-0.0206083 -0.00935405 0)
(-0.0179834 -0.008927 0)
(-0.0154749 -0.00840308 0)
(-0.0131076 -0.00779055 0)
(-0.0109038 -0.00709974 0)
(-0.00888306 -0.00634304 0)
(-0.00706158 -0.00553498 0)
(-0.00545156 -0.00469229 0)
(-0.00406084 -0.0038341 0)
(-0.00289243 -0.0029821 0)
(-0.00194403 -0.00216089 0)
(-0.00120769 -0.00139842 0)
(-0.000669459 -0.000726554 0)
(-0.0003091 -0.000181794 0)
(-9.97724e-05 0.00019404 0)
(-7.67234e-06 0.000352818 0)
(6.86972e-06 0.000235147 0)
(-3.63487e-05 0.000160459 0)
(-0.000267017 0.000814646 0)
(-0.00079399 0.00168015 0)
(-0.00158613 0.00266692 0)
(-0.00262929 0.00370924 0)
(-0.00391589 0.00475703 0)
(-0.00543398 0.00577324 0)
(-0.00716825 0.00673158 0)
(-0.00910138 0.00761422 0)
(-0.0112145 0.0084099 0)
(-0.0134876 0.00911228 0)
(-0.0159001 0.00971862 0)
(-0.0184312 0.0102288 0)
(-0.0210599 0.0106442 0)
(-0.0237657 0.0109675 0)
(-0.0265282 0.0112017 0)
(-0.0293277 0.01135 0)
(-0.0321446 0.0114154 0)
(-0.03496 0.0114006 0)
(-0.0377553 0.011308 0)
(-0.0405122 0.0111395 0)
(-0.0432129 0.0108966 0)
(-0.0458397 0.0105804 0)
(-0.0483751 0.0101918 0)
(-0.050802 0.00973171 0)
(-0.0531034 0.00920086 0)
(-0.0552628 0.0086002 0)
(-0.0572639 0.00793098 0)
(-0.0590909 0.00719488 0)
(-0.0607287 0.00639413 0)
(-0.0621627 0.00553164 0)
(-0.0633794 0.00461112 0)
(-0.0643663 0.00363713 0)
(-0.0651121 0.00261518 0)
(-0.0656071 0.00155174 0)
(-0.065843 0.000454268 0)
(-0.0658135 -0.000668773 0)
(-0.0655144 -0.00180799 0)
(-0.0649436 -0.00295311 0)
(-0.0641014 -0.00409306 0)
(-0.0629908 -0.0052161 0)
(-0.0616172 -0.00630996 0)
(-0.0599889 -0.00736201 0)
(-0.058117 -0.00835947 0)
(-0.0560152 -0.00928959 0)
(-0.0537002 -0.0101399 0)
(-0.0511912 -0.0108985 0)
(-0.04851 -0.0115541 0)
(-0.0456808 -0.0120966 0)
(-0.04273 -0.0125171 0)
(-0.0396857 -0.0128081 0)
(-0.0365775 -0.012964 0)
(-0.0334362 -0.012981 0)
(-0.0302934 -0.0128574 0)
(-0.0271807 -0.0125938 0)
(-0.0241295 -0.012193 0)
(-0.0211707 -0.0116604 0)
(-0.0183333 -0.0110039 0)
(-0.0156449 -0.010234 0)
(-0.0131304 -0.00936355 0)
(-0.0108115 -0.00840832 0)
(-0.00870679 -0.00738655 0)
(-0.00683032 -0.00631925 0)
(-0.00519176 -0.00523026 0)
(-0.00379571 -0.00414645 0)
(-0.00264133 -0.00309797 0)
(-0.00172202 -0.00211864 0)
(-0.0010252 -0.00124643 0)
(-0.000532041 -0.000524173 0)
(-0.000217162 -9.15349e-08 0)
(-5.04313e-05 0.000271256 0)
(-7.67888e-08 0.000224024 0)
(-4.70745e-05 0.000310978 0)
(-0.000332744 0.00125723 0)
(-0.000972157 0.00240651 0)
(-0.00191785 0.00366765 0)
(-0.0031458 0.00497285 0)
(-0.00464265 0.00626976 0)
(-0.00639157 0.00751908 0)
(-0.00837328 0.0086926 0)
(-0.0105673 0.00977097 0)
(-0.0129521 0.0107418 0)
(-0.0155056 0.0115981 0)
(-0.0182054 0.0123367 0)
(-0.021029 0.0129575 0)
(-0.0239539 0.0134621 0)
(-0.0269581 0.0138533 0)
(-0.0300199 0.0141347 0)
(-0.0331181 0.0143097 0)
(-0.0362317 0.0143818 0)
(-0.0393404 0.0143543 0)
(-0.0424243 0.0142297 0)
(-0.0454636 0.0140104 0)
(-0.048439 0.0136981 0)
(-0.0513313 0.0132943 0)
(-0.0541219 0.0128001 0)
(-0.056792 0.0122165 0)
(-0.0593234 0.0115447 0)
(-0.0616982 0.0107859 0)
(-0.0638988 0.00994193 0)
(-0.0659083 0.00901494 0)
(-0.0677101 0.00800789 0)
(-0.0692888 0.00692452 0)
(-0.0706298 0.00576956 0)
(-0.0717196 0.00454879 0)
(-0.0725462 0.00326912 0)
(-0.0730988 0.00193863 0)
(-0.0733689 0.000566607 0)
(-0.0733494 -0.00083649 0)
(-0.0730359 -0.00225906 0)
(-0.0724259 -0.00368844 0)
(-0.0715198 -0.00511102 0)
(-0.0703204 -0.00651238 0)
(-0.0688334 -0.00787748 0)
(-0.0670676 -0.00919083 0)
(-0.0650344 -0.0104368 0)
(-0.0627484 -0.0115997 0)
(-0.0602273 -0.0126642 0)
(-0.0574913 -0.0136158 0)
(-0.0545637 -0.0144407 0)
(-0.0514701 -0.0151263 0)
(-0.0482386 -0.0156617 0)
(-0.0448994 -0.0160377 0)
(-0.0414841 -0.0162472 0)
(-0.0380259 -0.0162854 0)
(-0.0345587 -0.0161501 0)
(-0.0311167 -0.0158419 0)
(-0.027734 -0.0153642 0)
(-0.0244439 -0.0147234 0)
(-0.0212784 -0.013929 0)
(-0.0182677 -0.0129936 0)
(-0.0154391 -0.0119332 0)
(-0.0128172 -0.0107667 0)
(-0.0104226 -0.00951622 0)
(-0.00827188 -0.00820731 0)
(-0.00637668 -0.00686866 0)
(-0.00474361 -0.00553246 0)
(-0.00337369 -0.00423449 0)
(-0.00226213 -0.00301447 0)
(-0.00139823 -0.00191642 0)
(-0.000764993 -0.000989227 0)
(-0.000338987 -0.000287089 0)
(-9.41678e-05 0.000129814 0)
(-6.93844e-06 0.000190629 0)
(-5.73546e-05 0.000494714 0)
(-0.000396755 0.00178784 0)
(-0.001147 0.00326551 0)
(-0.00224487 0.004837 0)
(-0.00365661 0.00643397 0)
(-0.00536288 0.00800305 0)
(-0.00734174 0.00950391 0)
(-0.00956961 0.0109073 0)
(-0.0120226 0.0121931 0)
(-0.0146763 0.0133483 0)
(-0.0175066 0.0143657 0)
(-0.0204889 0.0152421 0)
(-0.023599 0.0159773 0)
(-0.0268132 0.0165734 0)
(-0.030108 0.0170336 0)
(-0.0334603 0.0173617 0)
(-0.0368477 0.0175618 0)
(-0.0402482 0.0176378 0)
(-0.04364 0.0175933 0)
(-0.047002 0.0174312 0)
(-0.0503133 0.0171542 0)
(-0.0535533 0.0167644 0)
(-0.0567017 0.0162634 0)
(-0.0597383 0.0156526 0)
(-0.0626435 0.0149334 0)
(-0.0653977 0.0141072 0)
(-0.0679818 0.0131757 0)
(-0.0703771 0.0121411 0)
(-0.0725655 0.0110063 0)
(-0.0745296 0.00977483 0)
(-0.0762527 0.00845149 0)
(-0.0777193 0.00704205 0)
(-0.0789151 0.00555359 0)
(-0.079827 0.00399451 0)
(-0.0804439 0.00237459 0)
(-0.0807562 0.00070502 0)
(-0.0807565 -0.0010016 0)
(-0.0804397 -0.00273137 0)
(-0.079803 -0.0044691 0)
(-0.0788465 -0.00619851 0)
(-0.0775729 -0.00790238 0)
(-0.0759879 -0.00956271 0)
(-0.0741003 -0.011161 0)
(-0.0719219 -0.0126786 0)
(-0.0694679 -0.0140967 0)
(-0.0667563 -0.015397 0)
(-0.0638086 -0.0165621 0)
(-0.0606489 -0.0175753 0)
(-0.0573043 -0.0184217 0)
(-0.0538042 -0.0190879 0)
(-0.0501806 -0.0195627 0)
(-0.0464671 -0.0198376 0)
(-0.042699 -0.0199066 0)
(-0.0389125 -0.0197668 0)
(-0.0351443 -0.0194186 0)
(-0.0314312 -0.0188659 0)
(-0.0278092 -0.018116 0)
(-0.0243131 -0.0171802 0)
(-0.0209756 -0.0160733 0)
(-0.0178273 -0.0148141 0)
(-0.0148951 -0.0134248 0)
(-0.0122025 -0.0119319 0)
(-0.00976845 -0.0103652 0)
(-0.00760724 -0.00875847 0)
(-0.00572775 -0.00714936 0)
(-0.00413326 -0.00557934 0)
(-0.00282119 -0.00409404 0)
(-0.00178305 -0.00274345 0)
(-0.00100408 -0.00158234 0)
(-0.00046303 -0.000670498 0)
(-0.000138062 -7.31279e-05 0)
(-1.35988e-05 0.000134881 0)
(-6.72065e-05 0.000710634 0)
(-0.000458822 0.00240457 0)
(-0.00131751 0.00425507 0)
(-0.00256499 0.00617303 0)
(-0.00415801 0.00809077 0)
(-0.00607125 0.00995517 0)
(-0.00827755 0.0117258 0)
(-0.0107489 0.0133734 0)
(-0.0134577 0.0148777 0)
(-0.0163768 0.0162259 0)
(-0.0194794 0.0174107 0)
(-0.0227391 0.0184293 0)
(-0.02613 0.0192819 0)
(-0.0296269 0.0199711 0)
(-0.033205 0.0205005 0)
(-0.0368401 0.0208744 0)
(-0.0405085 0.0210975 0)
(-0.0441872 0.0211741 0)
(-0.0478534 0.0211082 0)
(-0.0514849 0.0209031 0)
(-0.0550597 0.0205618 0)
(-0.0585563 0.0200865 0)
(-0.0619531 0.0194794 0)
(-0.0652291 0.018742 0)
(-0.0683634 0.0178759 0)
(-0.0713355 0.016883 0)
(-0.0741253 0.0157654 0)
(-0.0767129 0.0145257 0)
(-0.0790794 0.0131675 0)
(-0.0812062 0.0116952 0)
(-0.0830759 0.0101144 0)
(-0.0846719 0.00843207 0)
(-0.085979 0.00665667 0)
(-0.0869835 0.00479811 0)
(-0.0876731 0.00286795 0)
(-0.0880378 0.000879364 0)
(-0.0880693 -0.00115286 0)
(-0.0877619 -0.0032124 0)
(-0.0871123 -0.00528148 0)
(-0.08612 -0.00734104 0)
(-0.0847875 -0.00937091 0)
(-0.0831202 -0.01135 0)
(-0.0811267 -0.0132568 0)
(-0.078819 -0.0150691 0)
(-0.0762123 -0.0167652 0)
(-0.0733253 -0.0183235 0)
(-0.0701797 -0.0197233 0)
(-0.0668007 -0.0209451 0)
(-0.0632163 -0.0219711 0)
(-0.0594574 -0.0227855 0)
(-0.0555574 -0.0233749 0)
(-0.0515519 -0.0237289 0)
(-0.047478 -0.0238401 0)
(-0.0433744 -0.0237049 0)
(-0.0392802 -0.0233233 0)
(-0.0352348 -0.0226994 0)
(-0.0312772 -0.0218416 0)
(-0.0274449 -0.0207626 0)
(-0.0237738 -0.0194795 0)
(-0.0202973 -0.0180138 0)
(-0.0170457 -0.0163915 0)
(-0.0140451 -0.0146428 0)
(-0.0113176 -0.0128025 0)
(-0.00888019 -0.0109093 0)
(-0.00674448 -0.00900635 0)
(-0.00491638 -0.00714095 0)
(-0.00339588 -0.00536464 0)
(-0.00217701 -0.00373338 0)
(-0.00124746 -0.00230771 0)
(-0.000588278 -0.00115276 0)
(-0.000181788 -0.000338408 0)
(-2.0031e-05 5.69458e-05 0)
(-7.66545e-05 0.000957659 0)
(-0.000518841 0.00310512 0)
(-0.0014831 0.00537229 0)
(-0.00287676 0.00767262 0)
(-0.00464744 0.00994013 0)
(-0.00676395 0.0121229 0)
(-0.00919388 0.0141815 0)
(-0.0119047 0.0160874 0)
(-0.0148651 0.017821 0)
(-0.018045 0.0193701 0)
(-0.0214149 0.020728 0)
(-0.0249466 0.0218928 0)
(-0.0286123 0.0228652 0)
(-0.0323855 0.0236484 0)
(-0.03624 0.0242468 0)
(-0.0401506 0.0246652 0)
(-0.0440926 0.024909 0)
(-0.048042 0.0249828 0)
(-0.0519751 0.024891 0)
(-0.0558688 0.0246376 0)
(-0.0597002 0.0242256 0)
(-0.0634467 0.0236578 0)
(-0.0670862 0.0229362 0)
(-0.0705966 0.022063 0)
(-0.0739561 0.0210399 0)
(-0.0771434 0.0198691 0)
(-0.0801372 0.0185532 0)
(-0.082917 0.0170953 0)
(-0.0854627 0.0154997 0)
(-0.0877551 0.0137715 0)
(-0.0897757 0.0119173 0)
(-0.091507 0.00994533 0)
(-0.092933 0.0078653 0)
(-0.0940389 0.00568875 0)
(-0.0948118 0.00342901 0)
(-0.0952407 0.0011013 0)
(-0.0953165 -0.00127737 0)
(-0.0950327 -0.00368821 0)
(-0.0943853 -0.00611077 0)
(-0.0933732 -0.00852314 0)
(-0.091998 -0.0109021 0)
(-0.0902647 -0.0132234 0)
(-0.0881817 -0.0154621 0)
(-0.0857606 -0.0175929 0)
(-0.0830166 -0.0195904 0)
(-0.0799683 -0.0214296 0)
(-0.0766381 -0.0230867 0)
(-0.0730515 -0.0245388 0)
(-0.0692374 -0.025765 0)
(-0.0652279 -0.0267468 0)
(-0.0610578 -0.0274683 0)
(-0.0567643 -0.0279171 0)
(-0.0523866 -0.0280842 0)
(-0.0479656 -0.0279647 0)
(-0.0435431 -0.0275582 0)
(-0.0391611 -0.026869 0)
(-0.0348615 -0.0259061 0)
(-0.0306852 -0.0246836 0)
(-0.0266712 -0.0232209 0)
(-0.0228563 -0.0215422 0)
(-0.019274 -0.0196771 0)
(-0.0159539 -0.0176599 0)
(-0.0129213 -0.01553 0)
(-0.0101964 -0.0133315 0)
(-0.00779389 -0.0111131 0)
(-0.00572269 -0.00892784 0)
(-0.00398563 -0.00683341 0)
(-0.00257956 -0.00489172 0)
(-0.00149474 -0.00316907 0)
(-0.000714574 -0.00173589 0)
(-0.000225346 -0.00066659 0)
(-2.62616e-05 -4.29587e-05 0)
(-8.57199e-05 0.0012347 0)
(-0.000576762 0.00388693 0)
(-0.00164338 0.00661376 0)
(-0.0031792 0.00933186 0)
(-0.00512308 0.0119779 0)
(-0.00743813 0.014502 0)
(-0.0100868 0.0168666 0)
(-0.013032 0.0190446 0)
(-0.0162388 0.021018 0)
(-0.019674 0.0227757 0)
(-0.0233056 0.0243123 0)
(-0.0271032 0.0256267 0)
(-0.0310375 0.0267209 0)
(-0.0350803 0.0275988 0)
(-0.0392045 0.0282656 0)
(-0.0433838 0.0287271 0)
(-0.0475924 0.0289889 0)
(-0.0518056 0.0290566 0)
(-0.055999 0.028935 0)
(-0.0601485 0.0286282 0)
(-0.0642307 0.0281398 0)
(-0.0682222 0.0274727 0)
(-0.0721 0.0266293 0)
(-0.0758413 0.0256119 0)
(-0.0794237 0.0244227 0)
(-0.0828248 0.0230641 0)
(-0.0860228 0.0215391 0)
(-0.0889963 0.0198514 0)
(-0.0917244 0.0180057 0)
(-0.0941869 0.0160082 0)
(-0.0963645 0.0138664 0)
(-0.0982389 0.0115895 0)
(-0.0997931 0.00918873 0)
(-0.101011 0.00667714 0)
(-0.10188 0.00406988 0)
(-0.102386 0.00138418 0)
(-0.102521 -0.00136067 0)
(-0.102277 -0.00414342 0)
(-0.101648 -0.00694089 0)
(-0.100633 -0.00972826 0)
(-0.0992324 -0.0124792 0)
(-0.0974506 -0.0151662 0)
(-0.095295 -0.0177608 0)
(-0.0927769 -0.0202342 0)
(-0.0899111 -0.0225574 0)
(-0.0867161 -0.0247019 0)
(-0.0832141 -0.0266401 0)
(-0.0794312 -0.0283458 0)
(-0.0753968 -0.0297947 0)
(-0.071144 -0.0309652 0)
(-0.0667088 -0.0318386 0)
(-0.0621301 -0.0324001 0)
(-0.057449 -0.0326389 0)
(-0.0527086 -0.0325485 0)
(-0.0479535 -0.0321279 0)
(-0.0432285 -0.031381 0)
(-0.0385788 -0.0303176 0)
(-0.0340485 -0.028953 0)
(-0.0296803 -0.0273084 0)
(-0.0255146 -0.0254111 0)
(-0.0215886 -0.0232939 0)
(-0.0179357 -0.0209955 0)
(-0.0145849 -0.01856 0)
(-0.01156 -0.0160366 0)
(-0.00887905 -0.01348 0)
(-0.00655439 -0.0109491 0)
(-0.00459202 -0.00850782 0)
(-0.00299177 -0.00622414 0)
(-0.00174664 -0.00417024 0)
(-0.000842366 -0.00242196 0)
(-0.000268956 -0.00105832 0)
(-3.23491e-05 -0.000164699 0)
(-9.44177e-05 0.00154066 0)
(-0.000632547 0.00474732 0)
(-0.00179807 0.00797564 0)
(-0.00347156 0.0111462 0)
(-0.00558353 0.0141989 0)
(-0.00809157 0.017087 0)
(-0.0109531 0.0197754 0)
(-0.0141268 0.0222394 0)
(-0.0175738 0.0244629 0)
(-0.0212579 0.0264368 0)
(-0.0251446 0.0281572 0)
(-0.0292016 0.0296247 0)
(-0.0333977 0.0308424 0)
(-0.0377035 0.0318155 0)
(-0.0420905 0.0325502 0)
(-0.0465316 0.0330531 0)
(-0.0510003 0.0333308 0)
(-0.0554709 0.0333893 0)
(-0.0599185 0.0332339 0)
(-0.0643183 0.0328693 0)
(-0.0686462 0.0322993 0)
(-0.0728784 0.0315271 0)
(-0.0769912 0.0305554 0)
(-0.0809612 0.0293867 0)
(-0.0847652 0.0280234 0)
(-0.0883804 0.0264684 0)
(-0.0917842 0.0247248 0)
(-0.0949544 0.022797 0)
(-0.0978694 0.0206904 0)
(-0.100508 0.0184117 0)
(-0.102851 0.0159694 0)
(-0.104877 0.013374 0)
(-0.106571 0.0106379 0)
(-0.107914 0.00777567 0)
(-0.108891 0.00480427 0)
(-0.109491 0.00174293 0)
(-0.109701 -0.00138683 0)
(-0.109513 -0.00456125 0)
(-0.108921 -0.00775447 0)
(-0.107921 -0.0109387 0)
(-0.106513 -0.0140844 0)
(-0.104701 -0.0171607 0)
(-0.102491 -0.0201356 0)
(-0.0998932 -0.0229767 0)
(-0.0969217 -0.0256512 0)
(-0.0935948 -0.0281266 0)
(-0.0899344 -0.0303715 0)
(-0.0859665 -0.032356 0)
(-0.0817212 -0.0340521 0)
(-0.077232 -0.0354348 0)
(-0.0725363 -0.0364824 0)
(-0.0676742 -0.037177 0)
(-0.0626891 -0.0375057 0)
(-0.0576264 -0.0374603 0)
(-0.0525331 -0.0370384 0)
(-0.0474573 -0.0362438 0)
(-0.0424475 -0.0350862 0)
(-0.0375516 -0.0335822 0)
(-0.0328161 -0.0317549 0)
(-0.0282855 -0.029634 0)
(-0.0240011 -0.027256 0)
(-0.0200005 -0.0246636 0)
(-0.0163167 -0.0219058 0)
(-0.0129776 -0.0190373 0)
(-0.0100053 -0.0161186 0)
(-0.00741568 -0.0132148 0)
(-0.00521818 -0.0103961 0)
(-0.00341591 -0.00773696 0)
(-0.0020047 -0.00531557 0)
(-0.000972531 -0.00321346 0)
(-0.00031299 -0.00151458 0)
(-3.83715e-05 -0.000308313 0)
(-0.000102756 0.00187442 0)
(-0.000686151 0.00568342 0)
(-0.00194691 0.00945382 0)
(-0.0037532 0.0131106 0)
(-0.00602757 0.0165977 0)
(-0.00872237 0.019872 0)
(-0.0117902 0.0229017 0)
(-0.0151854 0.0256652 0)
(-0.0188656 0.028149 0)
(-0.0227914 0.0303465 0)
(-0.0269262 0.032256 0)
(-0.0312352 0.0338797 0)
(-0.0356859 0.0352227 0)
(-0.0402474 0.0362916 0)
(-0.0448902 0.0370937 0)
(-0.0495863 0.0376368 0)
(-0.0543083 0.0379282 0)
(-0.0590302 0.0379748 0)
(-0.0637261 0.0377823 0)
(-0.068371 0.037356 0)
(-0.0729404 0.0366999 0)
(-0.0774097 0.0358176 0)
(-0.0817549 0.0347121 0)
(-0.0859521 0.033386 0)
(-0.0899776 0.031842 0)
(-0.093808 0.0300832 0)
(-0.09742 0.0281132 0)
(-0.100791 0.0259367 0)
(-0.103899 0.0235596 0)
(-0.106721 0.0209895 0)
(-0.109237 0.0182357 0)
(-0.111427 0.0153097 0)
(-0.113271 0.0122251 0)
(-0.114753 0.00899813 0)
(-0.115855 0.00564733 0)
(-0.116564 0.00219388 0)
(-0.116866 -0.00133848 0)
(-0.116753 -0.00492357 0)
(-0.116217 -0.00853279 0)
(-0.115252 -0.0121354 0)
(-0.113857 -0.0156987 0)
(-0.112034 -0.0191883 0)
(-0.109788 -0.0225686 0)
(-0.107129 -0.0258033 0)
(-0.104069 -0.0288557 0)
(-0.100626 -0.0316892 0)
(-0.0968213 -0.0342683 0)
(-0.0926806 -0.0365589 0)
(-0.0882339 -0.0385292 0)
(-0.0835157 -0.0401501 0)
(-0.0785639 -0.0413965 0)
(-0.0734205 -0.0422473 0)
(-0.0681305 -0.0426868 0)
(-0.0627416 -0.0427047 0)
(-0.0573037 -0.0422971 0)
(-0.0518683 -0.0414667 0)
(-0.0464874 -0.0402234 0)
(-0.0412129 -0.0385844 0)
(-0.0360956 -0.0365746 0)
(-0.0311843 -0.0342262 0)
(-0.0265251 -0.031579 0)
(-0.0221601 -0.0286799 0)
(-0.018127 -0.0255828 0)
(-0.0144581 -0.022348 0)
(-0.0111799 -0.0190418 0)
(-0.00831227 -0.0157362 0)
(-0.00586851 -0.0125077 0)
(-0.00385516 -0.0094375 0)
(-0.00227099 -0.00661028 0)
(-0.00110625 -0.00411361 0)
(-0.00035792 -0.00203687 0)
(-4.44191e-05 -0.000474066 0)
(-0.000110734 0.00223487 0)
(-0.000737514 0.00669228 0)
(-0.00208966 0.0110439 0)
(-0.00402353 0.0152196 0)
(-0.00645411 0.019168 0)
(-0.00932878 0.0228501 0)
(-0.0125955 0.0262384 0)
(-0.0162046 0.0293146 0)
(-0.02011 0.0320689 0)
(-0.0242697 0.0344973 0)
(-0.0286445 0.0366009 0)
(-0.0331976 0.0383843 0)
(-0.0378951 0.0398545 0)
(-0.0427046 0.0410198 0)
(-0.0475958 0.041889 0)
(-0.0525396 0.0424712 0)
(-0.0575083 0.0427747 0)
(-0.062475 0.042807 0)
(-0.0674136 0.0425748 0)
(-0.0722987 0.0420836 0)
(-0.0771052 0.0413379 0)
(-0.0818085 0.0403416 0)
(-0.0863839 0.0390978 0)
(-0.0908073 0.0376094 0)
(-0.0950546 0.0358794 0)