/*--------------------------------*- C++ -*----------------------------------*\
  =========                 |
  \\      /  F ield         | OpenFOAM: The Open Source CFD Toolbox
   \\    /   O peration     | Website:  https://openfoam.org
    \\  /    A nd           | Version:  dev
     \\/     M anipulation  |
\*---------------------------------------------------------------------------*/
FoamFile
{
    format      ascii;
    class       volScalarField;
    location    "48.15";
    object      Ux;
}
// * * * * * * * * * * * * * * * * * * * * * * * * * * * * * * * * * * * * * //

dimensions      [0 1 -1 0 0 0 0];

internalField   nonuniform List<scalar> 
5184
(
1.24414e-05
4.53572e-05
8.04593e-05
9.60948e-05
8.22601e-05
3.65552e-05
-4.04793e-05
-0.000146826
-0.00027969
-0.000436016
-0.00061268
-0.000806649
-0.00101505
-0.00123523
-0.00146471
-0.00170124
-0.00194275
-0.00218732
-0.00243317
-0.0026786
-0.00292203
-0.00316187
-0.00339661
-0.00362472
-0.00384467
-0.00405492
-0.00425391
-0.00444007
-0.00461182
-0.00476759
-0.0049058
-0.00502493
-0.00512353
-0.00520021
-0.00525372
-0.00528294
-0.00528692
-0.00526494
-0.00521649
-0.00514136
-0.00503959
-0.00491156
-0.00475799
-0.00457992
-0.00437877
-0.00415628
-0.00391455
-0.00365601
-0.00338339
-0.0030997
-0.00280817
-0.00251223
-0.00221546
-0.0019215
-0.00163404
-0.00135672
-0.00109307
-0.000846468
-0.000620062
-0.000416703
-0.000238889
-8.86978e-05
3.22819e-05
0.000123036
0.000183234
0.000213378
0.000215057
0.000191328
0.000147226
9.08468e-05
3.66563e-05
6.23474e-06
2.09236e-05
6.57912e-05
9.48996e-05
7.29942e-05
-1.8762e-05
-0.000187192
-0.000432883
-0.00075262
-0.00114086
-0.00159081
-0.00209513
-0.00264637
-0.00323721
-0.00386066
-0.00451011
-0.00517937
-0.00586262
-0.00655443
-0.00724965
-0.0079434
-0.00863099
-0.00930784
-0.00996949
-0.0106115
-0.0112295
-0.011819
-0.0123757
-0.0128951
-0.0133729
-0.0138046
-0.0141861
-0.0145133
-0.0147822
-0.0149892
-0.0151311
-0.015205
-0.0152085
-0.0151399
-0.014998
-0.0147825
-0.0144937
-0.0141329
-0.0137022
-0.0132047
-0.0126443
-0.0120258
-0.011355
-0.0106386
-0.00988384
-0.00909895
-0.0082926
-0.00747396
-0.00665258
-0.00583819
-0.00504058
-0.00426943
-0.00353412
-0.00284357
-0.00220606
-0.00162908
-0.0011191
-0.000681419
-0.000319953
-3.69846e-05
0.000167123
0.000294292
0.000349272
0.000340343
0.000280011
0.000186148
8.64261e-05
1.97004e-05
1.76772e-05
4.14418e-05
1.97496e-05
-8.38509e-05
-0.000290147
-0.000607888
-0.00103834
-0.00157768
-0.00221875
-0.00295236
-0.00376822
-0.00465562
-0.00560384
-0.00660241
-0.00764126
-0.00871084
-0.00980206
-0.0109063
-0.0120154
-0.0131214
-0.0142169
-0.0152943
-0.0163466
-0.0173664
-0.0183468
-0.0192808
-0.0201612
-0.0209811
-0.0217337
-0.0224121
-0.0230098
-0.0235205
-0.0239383
-0.0242576
-0.0244737
-0.0245822
-0.0245797
-0.0244639
-0.0242331
-0.023887
-0.0234265
-0.0228537
-0.0221721
-0.0213864
-0.0205031
-0.0195297
-0.0184751
-0.0173496
-0.0161645
-0.0149323
-0.0136663
-0.0123806
-0.0110897
-0.00980838
-0.00855163
-0.00733414
-0.00617014
-0.00507317
-0.00405578
-0.00312925
-0.00230332
-0.00158588
-0.000982663
-0.000496903
-0.000128905
0.000124402
0.000270117
0.000320094
0.000291477
0.000207521
0.000102513
2.49959e-05
8.86225e-06
-6.94428e-06
-0.000107494
-0.000322304
-0.000669624
-0.00115786
-0.00178777
-0.00255457
-0.00344973
-0.0044622
-0.0055795
-0.00678843
-0.00807557
-0.00942765
-0.0108318
-0.0122755
-0.0137469
-0.0152346
-0.0167277
-0.0182155
-0.0196879
-0.0211349
-0.0225467
-0.0239137
-0.0252264
-0.0264752
-0.0276508
-0.0287439
-0.0297454
-0.0306465
-0.0314384
-0.0321132
-0.032663
-0.033081
-0.0333608
-0.0334972
-0.033486
-0.0333241
-0.03301
-0.0325433
-0.0319254
-0.0311594
-0.0302499
-0.0292036
-0.0280286
-0.026735
-0.0253345
-0.0238404
-0.0222676
-0.0206321
-0.0189513
-0.0172432
-0.0155266
-0.0138208
-0.0121449
-0.0105179
-0.00895815
-0.00748306
-0.0061088
-0.00484988
-0.00371877
-0.0027256
-0.00187769
-0.00117918
-0.000630516
-0.000228
3.68536e-05
0.000177946
0.000215008
0.00017423
9.30858e-05
2.40415e-05
-2.11313e-06
-6.72641e-05
-0.000264098
-0.000609829
-0.00111696
-0.00179171
-0.00263308
-0.0036347
-0.00478643
-0.00607557
-0.00748774
-0.00900769
-0.0106198
-0.0123086
-0.0140587
-0.0158552
-0.0176839
-0.0195309
-0.0213828
-0.0232266
-0.0250497
-0.0268399
-0.028585
-0.030273
-0.0318923
-0.0334312
-0.0348782
-0.0362219
-0.0374512
-0.0385555
-0.0395243
-0.0403479
-0.0410171
-0.0415236
-0.0418602
-0.0420207
-0.0420002
-0.0417954
-0.0414044
-0.0408273
-0.0400659
-0.039124
-0.0380076
-0.0367246
-0.0352851
-0.033701
-0.0319867
-0.030158
-0.0282326
-0.0262299
-0.0241705
-0.0220759
-0.0199687
-0.0178716
-0.0158076
-0.0137993
-0.0118686
-0.0100362
-0.00832158
-0.00674193
-0.00531224
-0.00404463
-0.00294797
-0.00202741
-0.00128388
-0.000713615
-0.000307604
-5.10703e-05
7.68669e-05
0.000103726
6.756e-05
1.9676e-05
-1.36913e-05
-0.000132843
-0.000435898
-0.000924842
-0.00160431
-0.00247687
-0.00353869
-0.00478105
-0.00619186
-0.0077566
-0.00945912
-0.0112824
-0.0132088
-0.015221
-0.0173015
-0.0194335
-0.0216006
-0.0237867
-0.0259763
-0.0281544
-0.0303062
-0.0324173
-0.0344735
-0.0364609
-0.0383656
-0.040174
-0.0418729
-0.0434489
-0.0448892
-0.0461815
-0.0473138
-0.0482749
-0.0490545
-0.0496432
-0.0500327
-0.0502161
-0.0501881
-0.0499449
-0.0494848
-0.0488079
-0.0479166
-0.0468153
-0.045511
-0.0440128
-0.0423323
-0.0404834
-0.0384823
-0.0363471
-0.0340982
-0.0317575
-0.0293485
-0.0268958
-0.0244251
-0.0219623
-0.0195336
-0.0171648
-0.014881
-0.012706
-0.0106619
-0.00876863
-0.00704341
-0.00550037
-0.00414997
-0.00299859
-0.00204799
-0.0012949
-0.000730528
-0.000340131
-0.000102746
9.27244e-06
3.25474e-05
1.36306e-05
-2.51889e-05
-0.000200056
-0.000614237
-0.00125326
-0.00211265
-0.00319028
-0.00447856
-0.00596577
-0.00763742
-0.00947694
-0.0114663
-0.0135868
-0.0158191
-0.018144
-0.0205424
-0.0229956
-0.0254853
-0.0279938
-0.0305036
-0.0329978
-0.0354599
-0.0378734
-0.0402224
-0.0424911
-0.0446638
-0.0467253
-0.0486605
-0.0504544
-0.0520928
-0.0535617
-0.054848
-0.0559391
-0.0568235
-0.057491
-0.0579323
-0.0581401
-0.0581084
-0.0578333
-0.0573128
-0.0565474
-0.0555396
-0.0542945
-0.0528199
-0.0511259
-0.0492254
-0.0471338
-0.0448688
-0.0424508
-0.0399021
-0.0372469
-0.0345112
-0.0317225
-0.0289089
-0.0260993
-0.0233229
-0.0206083
-0.0179834
-0.0154749
-0.0131076
-0.0109038
-0.00888306
-0.00706158
-0.00545156
-0.00406084
-0.00289243
-0.00194403
-0.00120769
-0.000669459
-0.0003091
-9.97724e-05
-7.67234e-06
6.86972e-06
-3.63487e-05
-0.000267017
-0.00079399
-0.00158613
-0.00262929
-0.00391589
-0.00543398
-0.00716825
-0.00910138
-0.0112145
-0.0134876
-0.0159001
-0.0184312
-0.0210599
-0.0237657
-0.0265282
-0.0293277
-0.0321446
-0.03496
-0.0377553
-0.0405122
-0.0432129
-0.0458397
-0.0483751
-0.050802
-0.0531034
-0.0552628
-0.0572639
-0.0590909
-0.0607287
-0.0621627
-0.0633794
-0.0643663
-0.0651121
-0.0656071
-0.065843
-0.0658135
-0.0655144
-0.0649436
-0.0641014
-0.0629908
-0.0616172
-0.0599889
-0.058117
-0.0560152
-0.0537002
-0.0511912
-0.04851
-0.0456808
-0.04273
-0.0396857
-0.0365775
-0.0334362
-0.0302934
-0.0271807
-0.0241295
-0.0211707
-0.0183333
-0.0156449
-0.0131304
-0.0108115
-0.00870679
-0.00683032
-0.00519176
-0.00379571
-0.00264133
-0.00172202
-0.0010252
-0.000532041
-0.000217162
-5.04313e-05
-7.67888e-08
-4.70745e-05
-0.000332744
-0.000972157
-0.00191785
-0.0031458
-0.00464265
-0.00639157
-0.00837328
-0.0105673
-0.0129521
-0.0155056
-0.0182054
-0.021029
-0.0239539
-0.0269581
-0.0300199
-0.0331181
-0.0362317
-0.0393404
-0.0424243
-0.0454636
-0.048439
-0.0513313
-0.0541219
-0.056792
-0.0593234
-0.0616982
-0.0638988
-0.0659083
-0.0677101
-0.0692888
-0.0706298
-0.0717196
-0.0725462
-0.0730988
-0.0733689
-0.0733494
-0.0730359
-0.0724259
-0.0715198
-0.0703204
-0.0688334
-0.0670676
-0.0650344
-0.0627484
-0.0602273
-0.0574913
-0.0545637
-0.0514701
-0.0482386
-0.0448994
-0.0414841
-0.0380259
-0.0345587
-0.0311167
-0.027734
-0.0244439
-0.0212784
-0.0182677
-0.0154391
-0.0128172
-0.0104226
-0.00827188
-0.00637668
-0.00474361
-0.00337369
-0.00226213
-0.00139823
-0.000764993
-0.000338987
-9.41678e-05
-6.93844e-06
-5.73546e-05
-0.000396755
-0.001147
-0.00224487
-0.00365661
-0.00536288
-0.00734174
-0.00956961
-0.0120226
-0.0146763
-0.0175066
-0.0204889
-0.023599
-0.0268132
-0.030108
-0.0334603
-0.0368477
-0.0402482
-0.04364
-0.047002
-0.0503133
-0.0535533
-0.0567017
-0.0597383
-0.0626435
-0.0653977
-0.0679818
-0.0703771
-0.0725655
-0.0745296
-0.0762527
-0.0777193
-0.0789151
-0.079827
-0.0804439
-0.0807562
-0.0807565
-0.0804397
-0.079803
-0.0788465
-0.0775729
-0.0759879
-0.0741003
-0.0719219
-0.0694679
-0.0667563
-0.0638086
-0.0606489
-0.0573043
-0.0538042
-0.0501806
-0.0464671
-0.042699
-0.0389125
-0.0351443
-0.0314312
-0.0278092
-0.0243131
-0.0209756
-0.0178273
-0.0148951
-0.0122025
-0.00976845
-0.00760724
-0.00572775
-0.00413326
-0.00282119
-0.00178305
-0.00100408
-0.00046303
-0.000138062
-1.35988e-05
-6.72065e-05
-0.000458822
-0.00131751
-0.00256499
-0.00415801
-0.00607125
-0.00827755
-0.0107489
-0.0134577
-0.0163768
-0.0194794
-0.0227391
-0.02613
-0.0296269
-0.033205
-0.0368401
-0.0405085
-0.0441872
-0.0478534
-0.0514849
-0.0550597
-0.0585563
-0.0619531
-0.0652291
-0.0683634
-0.0713355
-0.0741253
-0.0767129
-0.0790794
-0.0812062
-0.0830759
-0.0846719
-0.085979
-0.0869835
-0.0876731
-0.0880378
-0.0880693
-0.0877619
-0.0871123
-0.08612
-0.0847875
-0.0831202
-0.0811267
-0.078819
-0.0762123
-0.0733253
-0.0701797
-0.0668007
-0.0632163
-0.0594574
-0.0555574
-0.0515519
-0.047478
-0.0433744
-0.0392802
-0.0352348
-0.0312772
-0.0274449
-0.0237738
-0.0202973
-0.0170457
-0.0140451
-0.0113176
-0.00888019
-0.00674448
-0.00491638
-0.00339588
-0.00217701
-0.00124746
-0.000588278
-0.000181788
-2.0031e-05
-7.66545e-05
-0.000518841
-0.0014831
-0.00287676
-0.00464744
-0.00676395
-0.00919388
-0.0119047
-0.0148651
-0.018045
-0.0214149
-0.0249466
-0.0286123
-0.0323855
-0.03624
-0.0401506
-0.0440926
-0.048042
-0.0519751
-0.0558688
-0.0597002
-0.0634467
-0.0670862
-0.0705966
-0.0739561
-0.0771434
-0.0801372
-0.082917
-0.0854627
-0.0877551
-0.0897757
-0.091507
-0.092933
-0.0940389
-0.0948118
-0.0952407
-0.0953165
-0.0950327
-0.0943853
-0.0933732
-0.091998
-0.0902647
-0.0881817
-0.0857606
-0.0830166
-0.0799683
-0.0766381
-0.0730515
-0.0692374
-0.0652279
-0.0610578
-0.0567643
-0.0523866
-0.0479656
-0.0435431
-0.0391611
-0.0348615
-0.0306852
-0.0266712
-0.0228563
-0.019274
-0.0159539
-0.0129213
-0.0101964
-0.00779389
-0.00572269
-0.00398563
-0.00257956
-0.00149474
-0.000714574
-0.000225346
-2.62616e-05
-8.57199e-05
-0.000576762
-0.00164338
-0.0031792
-0.00512308
-0.00743813
-0.0100868
-0.013032
-0.0162388
-0.019674
-0.0233056
-0.0271032
-0.0310375
-0.0350803
-0.0392045
-0.0433838
-0.0475924
-0.0518056
-0.055999
-0.0601485
-0.0642307
-0.0682222
-0.0721
-0.0758413
-0.0794237
-0.0828248
-0.0860228
-0.0889963
-0.0917244
-0.0941869
-0.0963645
-0.0982389
-0.0997931
-0.101011
-0.10188
-0.102386
-0.102521
-0.102277
-0.101648
-0.100633
-0.0992324
-0.0974506
-0.095295
-0.0927769
-0.0899111
-0.0867161
-0.0832141
-0.0794312
-0.0753968
-0.071144
-0.0667088
-0.0621301
-0.057449
-0.0527086
-0.0479535
-0.0432285
-0.0385788
-0.0340485
-0.0296803
-0.0255146
-0.0215886
-0.0179357
-0.0145849
-0.01156
-0.00887905
-0.00655439
-0.00459202
-0.00299177
-0.00174664
-0.000842366
-0.000268956
-3.23491e-05
-9.44177e-05
-0.000632547
-0.00179807
-0.00347156
-0.00558353
-0.00809157
-0.0109531
-0.0141268
-0.0175738
-0.0212579
-0.0251446
-0.0292016
-0.0333977
-0.0377035
-0.0420905
-0.0465316
-0.0510003
-0.0554709
-0.0599185
-0.0643183
-0.0686462
-0.0728784
-0.0769912
-0.0809612
-0.0847652
-0.0883804
-0.0917842
-0.0949544
-0.0978694
-0.100508
-0.102851
-0.104877
-0.106571
-0.107914
-0.108891
-0.109491
-0.109701
-0.109513
-0.108921
-0.107921
-0.106513
-0.104701
-0.102491
-0.0998932
-0.0969217
-0.0935948
-0.0899344
-0.0859665
-0.0817212
-0.077232
-0.0725363
-0.0676742
-0.0626891
-0.0576264
-0.0525331
-0.0474573
-0.0424475
-0.0375516
-0.0328161
-0.0282855
-0.0240011
-0.0200005
-0.0163167
-0.0129776
-0.0100053
-0.00741568
-0.00521818
-0.00341591
-0.0020047
-0.000972531
-0.00031299
-3.83715e-05
-0.000102756
-0.000686151
-0.00194691
-0.0037532
-0.00602757
-0.00872237
-0.0117902
-0.0151854
-0.0188656
-0.0227914
-0.0269262
-0.0312352
-0.0356859
-0.0402474
-0.0448902
-0.0495863
-0.0543083
-0.0590302
-0.0637261
-0.068371
-0.0729404
-0.0774097
-0.0817549
-0.0859521
-0.0899776
-0.093808
-0.09742
-0.100791
-0.103899
-0.106721
-0.109237
-0.111427
-0.113271
-0.114753
-0.115855
-0.116564
-0.116866
-0.116753
-0.116217
-0.115252
-0.113857
-0.112034
-0.109788
-0.107129
-0.104069
-0.100626
-0.0968213
-0.0926806
-0.0882339
-0.0835157
-0.0785639
-0.0734205
-0.0681305
-0.0627416
-0.0573037
-0.0518683
-0.0464874
-0.0412129
-0.0360956
-0.0311843
-0.0265251
-0.0221601
-0.018127
-0.0144581
-0.0111799
-0.00831227
-0.00586851
-0.00385516
-0.00227099
-0.00110625
-0.00035792
-4.44191e-05
-0.000110734
-0.000737514
-0.00208966
-0.00402353
-0.00645411
-0.00932878
-0.0125955
-0.0162046
-0.02011
-0.0242697
-0.0286445
-0.0331976
-0.0378951
-0.0427046
-0.0475958
-0.0525396
-0.0575083
-0.062475
-0.0674136
-0.0722987
-0.0771052
-0.0818085
-0.0863839
-0.0908073
-0.0950546
-0.0991019
-0.102926
-0.106502
-0.109809
-0.112823
-0.115522
-0.117887
-0.119895
-0.12153
-0.122773
-0.123608
-0.124023
-0.124004
-0.123543
-0.122634
-0.121273
-0.11946
-0.1172
-0.114499
-0.111369
-0.107827
-0.103893
-0.0995921
-0.0949549
-0.0900156
-0.0848131
-0.0793906
-0.0737949
-0.0680761
-0.0622871
-0.0564828
-0.0507189
-0.0450518
-0.0395368
-0.0342278
-0.0291758
-0.0244282
-0.0200277
-0.0160116
-0.0124113
-0.00925101
-0.00654829
-0.00431334
-0.00254804
-0.00124491
-0.000404287
-5.05894e-05
-0.000118347
-0.000786552
-0.00222602
-0.0042819
-0.00686205
-0.00990913
-0.0133668
-0.0171812
-0.0213033
-0.0256881
-0.0302941
-0.0350827
-0.0400184
-0.0450677
-0.0501992
-0.0553832
-0.0605914
-0.0657965
-0.0709719
-0.0760921
-0.0811316
-0.0860655
-0.0908691
-0.095518
-0.0999876
-0.104254
-0.108293
-0.11208
-0.115592
-0.118807
-0.1217
-0.124251
-0.126438
-0.128241
-0.129642
-0.130622
-0.131167
-0.131264
-0.130901
-0.130069
-0.128765
-0.126985
-0.124731
-0.122009
-0.11883
-0.115207
-0.111161
-0.106715
-0.101899
-0.0967485
-0.0913018
-0.0856034
-0.0797021
-0.0736504
-0.0675039
-0.0613212
-0.0551622
-0.0490879
-0.0431587
-0.0374337
-0.0319696
-0.0268195
-0.0220319
-0.0176495
-0.0137089
-0.0102396
-0.00726344
-0.00479474
-0.00283865
-0.00139007
-0.000452682
-5.69849e-05
-0.000125581
-0.000833161
-0.00235566
-0.00452764
-0.00725024
-0.0104617
-0.0141015
-0.0181122
-0.0224416
-0.0270419
-0.0318696
-0.0368843
-0.0420489
-0.047329
-0.0526923
-0.0581084
-0.0635484
-0.0689848
-0.0743908
-0.0797406
-0.0850086
-0.0901697
-0.0951993
-0.100073
-0.104765
-0.109252
-0.113509
-0.117513
-0.121238
-0.124661
-0.127759
-0.130509
-0.132888
-0.134875
-0.136451
-0.137596
-0.138292
-0.138526
-0.138283
-0.137552
-0.136327
-0.134604
-0.13238
-0.129661
-0.126454
-0.122772
-0.118632
-0.114057
-0.109078
-0.103727
-0.0980438
-0.0920746
-0.0858692
-0.0794824
-0.072973
-0.066403
-0.059837
-0.0533407
-0.04698
-0.04082
-0.0349234
-0.0293496
-0.0241534
-0.0193838
-0.0150831
-0.0112863
-0.0080204
-0.005304
-0.00314586
-0.00154338
-0.000503724
-6.37105e-05
-0.000132418
-0.000877215
-0.00247821
-0.00476003
-0.0076175
-0.0109847
-0.0147973
-0.0189945
-0.0235209
-0.0283265
-0.0333655
-0.0385961
-0.0439797
-0.0494808
-0.0550665
-0.0607058
-0.0663694
-0.0720294
-0.0776591
-0.0832324
-0.0887239
-0.0941083
-0.099361
-0.104457
-0.109372
-0.114082
-0.118561
-0.122785
-0.126729
-0.13037
-0.133682
-0.136643
-0.139229
-0.141416
-0.143185
-0.144513
-0.145382
-0.145774
-0.145674
-0.145069
-0.143949
-0.142307
-0.140139
-0.137447
-0.134236
-0.130517
-0.126305
-0.121621
-0.116494
-0.110956
-0.105048
-0.0988153
-0.0923093
-0.0855872
-0.0787107
-0.0717458
-0.0647614
-0.0578286
-0.0510191
-0.0444045
-0.0380541
-0.0320342
-0.0264065
-0.0212269
-0.0165444
-0.0123999
-0.00882588
-0.00584598
-0.00347283
-0.00170655
-0.000558056
-7.08729e-05
-0.000138836
-0.000918569
-0.00259328
-0.00497828
-0.00796256
-0.0114764
-0.0154518
-0.0198248
-0.0245374
-0.0295372
-0.0347764
-0.0402117
-0.0458033
-0.051515
-0.0573129
-0.0631656
-0.0690437
-0.074919
-0.0807647
-0.0865547
-0.0922637
-0.0978667
-0.103339
-0.108656
-0.113793
-0.118725
-0.123428
-0.127877
-0.132046
-0.135912
-0.139449
-0.142632
-0.145437
-0.147841
-0.149819
-0.15135
-0.152412
-0.152985
-0.153053
-0.152598
-0.151609
-0.150075
-0.14799
-0.145352
-0.142163
-0.138432
-0.134171
-0.129401
-0.124145
-0.118438
-0.112318
-0.105832
-0.0990311
-0.0919757
-0.0847302
-0.0773642
-0.0699515
-0.0625685
-0.0552934
-0.0482043
-0.0413782
-0.0348888
-0.0288054
-0.0231916
-0.0181036
-0.0135891
-0.00968679
-0.00642569
-0.00382281
-0.00188135
-0.000616332
-7.85797e-05
-0.000144811
-0.000957064
-0.00270041
-0.00518157
-0.00828412
-0.0119348
-0.0160625
-0.0206001
-0.0254871
-0.030669
-0.0360965
-0.0417246
-0.0475126
-0.0534233
-0.0594223
-0.0654779
-0.0715602
-0.0776413
-0.0836943
-0.0896932
-0.0956128
-0.101428
-0.107116
-0.11265
-0.118007
-0.123161
-0.128089
-0.132766
-0.137165
-0.141262
-0.145032
-0.148448
-0.151485
-0.154119
-0.156324
-0.158076
-0.159352
-0.160129
-0.160388
-0.16011
-0.159278
-0.15788
-0.155906
-0.153351
-0.150213
-0.146498
-0.142215
-0.137382
-0.132021
-0.126165
-0.11985
-0.113123
-0.106038
-0.0986543
-0.0910405
-0.0832698
-0.0754205
-0.0675751
-0.0598182
-0.0522355
-0.0449115
-0.0379285
-0.0313642
-0.0252905
-0.0197716
-0.0148629
-0.0106101
-0.00704821
-0.00419912
-0.00206957
-0.000679217
-8.69393e-05
-0.000150312
-0.000992531
-0.00279916
-0.00536904
-0.00858082
-0.0123581
-0.0166267
-0.0213169
-0.0263659
-0.0317174
-0.0373202
-0.0431283
-0.0490999
-0.0551971
-0.0613851
-0.0676318
-0.0739074
-0.0801836
-0.086434
-0.0926326
-0.0987548
-0.104776
-0.110672
-0.116418
-0.121991
-0.127367
-0.132519
-0.137424
-0.142057
-0.14639
-0.150399
-0.154058
-0.157339
-0.160216
-0.162663
-0.164654
-0.166164
-0.167167
-0.167641
-0.167564
-0.166918
-0.165684
-0.163851
-0.161409
-0.158353
-0.154685
-0.15041
-0.145543
-0.140103
-0.134121
-0.127633
-0.120683
-0.113326
-0.105623
-0.0976456
-0.0894695
-0.0811783
-0.0728602
-0.064607
-0.056512
-0.0486685
-0.0411675
-0.0340962
-0.0275356
-0.021559
-0.0162303
-0.0116029
-0.00771864
-0.00460509
-0.00227302
-0.000747379
-9.60607e-05
-0.000155312
-0.0010248
-0.00288905
-0.00553981
-0.00885132
-0.0127443
-0.0171419
-0.0219721
-0.02717
-0.0326773
-0.0384418
-0.0444161
-0.0505577
-0.056828
-0.0631917
-0.0696167
-0.076073
-0.0825326
-0.088969
-0.0953569
-0.101672
-0.10789
-0.113987
-0.119939
-0.125723
-0.131315
-0.13669
-0.141823
-0.146689
-0.151262
-0.155516
-0.159423
-0.162957
-0.16609
-0.168793
-0.171039
-0.172801
-0.174052
-0.174764
-0.174915
-0.174481
-0.173442
-0.17178
-0.169483
-0.166542
-0.162953
-0.158719
-0.15385
-0.148363
-0.142283
-0.135646
-0.128496
-0.120885
-0.112877
-0.104544
-0.0959653
-0.08723
-0.078432
-0.0696701
-0.0610459
-0.0526618
-0.0446188
-0.037014
-0.0299387
-0.0234762
-0.0177
-0.012672
-0.00844205
-0.00504404
-0.0024935
-0.000821489
-0.000106054
-0.00015978
-0.00105368
-0.00296962
-0.00569304
-0.00909428
-0.0130916
-0.0176057
-0.0225625
-0.0278952
-0.0335442
-0.0394557
-0.0455816
-0.0518784
-0.0583072
-0.0648323
-0.0714214
-0.0780447
-0.0846743
-0.0912841
-0.0978492
-0.104345
-0.110749
-0.117038
-0.123187
-0.129175
-0.134977
-0.14057
-0.145928
-0.151026
-0.155839
-0.16034
-0.164502
-0.168295
-0.171692
-0.174664
-0.17718
-0.179211
-0.180728
-0.181702
-0.182105
-0.181911
-0.181096
-0.179638
-0.17752
-0.174728
-0.171254
-0.167097
-0.162261
-0.156761
-0.150617
-0.143862
-0.136538
-0.128696
-0.120401
-0.111726
-0.102753
-0.0935759
-0.0842942
-0.0750142
-0.0658461
-0.0569021
-0.0482936
-0.0401289
-0.0325106
-0.0255331
-0.0192803
-0.0138242
-0.00922341
-0.00551926
-0.00273283
-0.00090222
-0.000117029
-0.000163687
-0.00107902
-0.00304043
-0.00582791
-0.00930843
-0.0133981
-0.0180157
-0.023085
-0.028538
-0.0343134
-0.0403566
-0.0466183
-0.0530547
-0.0596262
-0.0662972
-0.073035
-0.0798101
-0.086595
-0.0933638
-0.100092
-0.106756
-0.113334
-0.119802
-0.126138
-0.132319
-0.138323
-0.144126
-0.149703
-0.15503
-0.160081
-0.164829
-0.169246
-0.173303
-0.176971
-0.18022
-0.183017
-0.185333
-0.187134
-0.18839
-0.189069
-0.189142
-0.18858
-0.187358
-0.185453
-0.182847
-0.179527
-0.175485
-0.170723
-0.165247
-0.159077
-0.15224
-0.144775
-0.136732
-0.128174
-0.119176
-0.109822
-0.10021
-0.0904454
-0.0806417
-0.0709181
-0.061397
-0.0522012
-0.0434509
-0.0352611
-0.0277386
-0.0209791
-0.0150659
-0.0100676
-0.00603402
-0.00299278
-0.000990244
-0.000129097
-0.000167005
-0.00110066
-0.00310106
-0.00594365
-0.00949261
-0.0136622
-0.0183696
-0.023537
-0.0290948
-0.0349808
-0.0411392
-0.0475203
-0.0540795
-0.060777
-0.0675768
-0.0744467
-0.081357
-0.0882805
-0.0951921
-0.102068
-0.108885
-0.115621
-0.122255
-0.128764
-0.135127
-0.141321
-0.147324
-0.153111
-0.158659
-0.163942
-0.168933
-0.173604
-0.177926
-0.181868
-0.1854
-0.188488
-0.1911
-0.193201
-0.194758
-0.195735
-0.1961
-0.19582
-0.194865
-0.193209
-0.190826
-0.187699
-0.183815
-0.179168
-0.173762
-0.167608
-0.160729
-0.153162
-0.144953
-0.136164
-0.126868
-0.117153
-0.10712
-0.0968784
-0.0865502
-0.0762634
-0.0661512
-0.0563482
-0.0469879
-0.0381987
-0.030101
-0.022804
-0.0164034
-0.0109793
-0.00659147
-0.00327514
-0.00108623
-0.000142373
-0.000169711
-0.00111845
-0.00315116
-0.00603962
-0.00964579
-0.0138825
-0.0186655
-0.0239158
-0.0295625
-0.0355424
-0.0417991
-0.048282
-0.0549462
-0.0617516
-0.0686623
-0.0756459
-0.0826732
-0.0897174
-0.0967538
-0.103759
-0.110711
-0.117589
-0.124371
-0.131037
-0.137566
-0.143937
-0.150126
-0.156112
-0.161871
-0.167376
-0.172603
-0.177523
-0.182106
-0.186323
-0.19014
-0.193524
-0.19644
-0.198853
-0.200726
-0.20202
-0.202701
-0.20273
-0.202075
-0.200701
-0.198581
-0.195689
-0.192006
-0.187522
-0.182231
-0.176141
-0.169268
-0.161644
-0.153311
-0.144328
-0.134768
-0.12472
-0.114284
-0.103579
-0.0927313
-0.0818787
-0.0711652
-0.0607384
-0.0507457
-0.0413302
-0.0326274
-0.0247615
-0.0178424
-0.0119631
-0.0071947
-0.00358163
-0.00119085
-0.000156972
-0.000171784
-0.00113229
-0.00319043
-0.00611527
-0.00976715
-0.0140578
-0.0189019
-0.0242194
-0.0299384
-0.0359951
-0.0423321
-0.0488985
-0.055649
-0.0625432
-0.0695453
-0.076623
-0.0837475
-0.0908925
-0.0980337
-0.105149
-0.112216
-0.119216
-0.126128
-0.132932
-0.139609
-0.146137
-0.152497
-0.158665
-0.164619
-0.170335
-0.175786
-0.180945
-0.185783
-0.190269
-0.194369
-0.198051
-0.201277
-0.20401
-0.20621
-0.207839
-0.208855
-0.20922
-0.208893
-0.207837
-0.206017
-0.203402
-0.199968
-0.195694
-0.19057
-0.184596
-0.177782
-0.170152
-0.161745
-0.152615
-0.142832
-0.132484
-0.121675
-0.110526
-0.0991702
-0.0877549
-0.0764353
-0.065372
-0.0547272
-0.0446605
-0.0353237
-0.0268576
-0.019388
-0.013023
-0.00784667
-0.00391395
-0.00130477
-0.000173009
-0.000173209
-0.0011421
-0.00321867
-0.00617025
-0.00985612
-0.0141873
-0.0190776
-0.0244462
-0.0302206
-0.0363361
-0.0427349
-0.0493656
-0.0561826
-0.0631455
-0.0702183
-0.0773692
-0.0845695
-0.0917935
-0.0990177
-0.10622
-0.113381
-0.120481
-0.1275
-0.13442
-0.141223
-0.147889
-0.154398
-0.160729
-0.166861
-0.172769
-0.178429
-0.183814
-0.188894
-0.19364
-0.198018
-0.201993
-0.205529
-0.208585
-0.211122
-0.213098
-0.214468
-0.215189
-0.215218
-0.214512
-0.213031
-0.210736
-0.207596
-0.203585
-0.198682
-0.192881
-0.186184
-0.178607
-0.170182
-0.160958
-0.151001
-0.140398
-0.129253
-0.117688
-0.105845
-0.0938773
-0.0819525
-0.070245
-0.0589327
-0.0481922
-0.038194
-0.029097
-0.021045
-0.0141631
-0.00855018
-0.00427376
-0.00142864
-0.000190605
-0.000173978
-0.00114784
-0.00323579
-0.00620439
-0.00991242
-0.0142705
-0.019192
-0.0245955
-0.0304078
-0.0365638
-0.0430052
-0.0496803
-0.0565432
-0.0635535
-0.0706753
-0.0778769
-0.0851301
-0.0924097
-0.0996929
-0.106959
-0.114188
-0.121363
-0.128465
-0.135477
-0.142381
-0.149159
-0.155794
-0.162265
-0.168551
-0.174631
-0.180479
-0.186071
-0.191378
-0.196369
-0.201013
-0.205273
-0.209113
-0.212493
-0.21537
-0.2177
-0.219437
-0.220534
-0.220943
-0.220618
-0.21951
-0.217578
-0.214781
-0.211084
-0.206461
-0.200893
-0.194376
-0.186916
-0.178537
-0.169281
-0.15921
-0.148404
-0.136969
-0.125027
-0.112724
-0.100224
-0.0877023
-0.075349
-0.0633584
-0.0519256
-0.0412407
-0.0314833
-0.0228173
-0.0153867
-0.00930784
-0.00466263
-0.00156311
-0.000209882
-0.00017409
-0.00114951
-0.00324182
-0.00621774
-0.00993613
-0.0143076
-0.0192451
-0.0246669
-0.0304995
-0.0366774
-0.0431418
-0.0498407
-0.0567282
-0.0637636
-0.0709113
-0.0781398
-0.0854215
-0.0927315
-0.100048
-0.107351
-0.114622
-0.121844
-0.129001
-0.136076
-0.143054
-0.149917
-0.15665
-0.163233
-0.169647
-0.175872
-0.181884
-0.187659
-0.193171
-0.198389
-0.203281
-0.207814
-0.211948
-0.215644
-0.218859
-0.221547
-0.223659
-0.225146
-0.225956
-0.226038
-0.225339
-0.223809
-0.221401
-0.218072
-0.213786
-0.208516
-0.202246
-0.194974
-0.186713
-0.177496
-0.167377
-0.156433
-0.144763
-0.132493
-0.11977
-0.106764
-0.0936636
-0.0806705
-0.0679968
-0.0558574
-0.0444641
-0.0340187
-0.0247077
-0.0166968
-0.010122
-0.00508207
-0.00170882
-0.000230963
-0.000173555
-0.00114719
-0.00323694
-0.00621064
-0.00992773
-0.014299
-0.0192375
-0.0246612
-0.0304965
-0.0366772
-0.0431446
-0.0498464
-0.0567363
-0.0637738
-0.0709233
-0.0781538
-0.0854379
-0.0927516
-0.100074
-0.107385
-0.114669
-0.121909
-0.12909
-0.136198
-0.143217
-0.150134
-0.156933
-0.163596
-0.170108
-0.176447
-0.182594
-0.188525
-0.194214
-0.199634
-0.204753
-0.209538
-0.213951
-0.217951
-0.221496
-0.224539
-0.227029
-0.228915
-0.230142
-0.230654
-0.230393
-0.229303
-0.227329
-0.224421
-0.220532
-0.215626
-0.209675
-0.202665
-0.194599
-0.1855
-0.175411
-0.164401
-0.152566
-0.140027
-0.126934
-0.113462
-0.0998084
-0.0861899
-0.0728357
-0.0599814
-0.0478619
-0.0367038
-0.0267183
-0.0180959
-0.0109949
-0.00553347
-0.00186638
-0.000253974
-0.000172392
-0.00114099
-0.00322151
-0.00618373
-0.00988821
-0.0142462
-0.0191709
-0.0245803
-0.0304005
-0.0365652
-0.0430154
-0.0496984
-0.0565681
-0.0635838
-0.0707102
-0.0779164
-0.0851757
-0.0924646
-0.0997629
-0.107053
-0.114317
-0.121543
-0.128715
-0.135821
-0.142849
-0.149784
-0.156613
-0.163323
-0.169896
-0.176316
-0.182563
-0.188616
-0.194452
-0.200044
-0.205362
-0.210373
-0.215042
-0.219329
-0.223191
-0.22658
-0.229445
-0.231733
-0.233386
-0.234345
-0.234547
-0.233931
-0.232434
-0.229997
-0.226565
-0.222089
-0.21653
-0.209862
-0.202076
-0.19318
-0.183207
-0.172215
-0.160293
-0.147557
-0.134156
-0.120269
-0.106101
-0.0918814
-0.0778578
-0.0642872
-0.0514291
-0.039537
-0.0288499
-0.0195856
-0.0119281
-0.00601812
-0.00203639
-0.000279045
-0.000170631
-0.00113113
-0.00319606
-0.00613801
-0.00981904
-0.0141511
-0.0190476
-0.0244268
-0.0302146
-0.0363445
-0.0427572
-0.0493999
-0.0562263
-0.0631958
-0.0702732
-0.0774279
-0.0846337
-0.091868
-0.0991113
-0.106347
-0.113559
-0.120735
-0.127863
-0.134932
-0.141929
-0.148845
-0.155667
-0.162383
-0.168979
-0.17544
-0.181749
-0.187887
-0.193833
-0.199561
-0.205044
-0.210252
-0.21515
-0.219698
-0.223856
-0.227576
-0.230806
-0.233493
-0.235576
-0.236993
-0.237679
-0.237565
-0.236582
-0.234664
-0.231745
-0.227766
-0.222674
-0.216431
-0.209012
-0.200412
-0.190649
-0.17977
-0.167851
-0.155002
-0.141368
-0.127129
-0.112496
-0.0977122
-0.0830403
-0.0687602
-0.0551576
-0.0425149
-0.0311019
-0.021167
-0.0129232
-0.00653713
-0.00221941
-0.000306304
-0.000168317
-0.00111787
-0.00316135
-0.00607486
-0.00972233
-0.0140165
-0.0188713
-0.0242051
-0.0299435
-0.0360201
-0.0423752
-0.0489559
-0.0557156
-0.062614
-0.0696158
-0.0766909
-0.0838136
-0.0909621
-0.0981176
-0.105264
-0.112389
-0.119479
-0.126525
-0.133516
-0.140444
-0.147299
-0.154072
-0.160752
-0.167328
-0.173788
-0.180117
-0.186297
-0.192311
-0.198135
-0.203746
-0.209113
-0.214205
-0.218985
-0.223412
-0.22744
-0.23102
-0.234094
-0.236604
-0.238484
-0.239665
-0.240075
-0.23964
-0.238284
-0.235931
-0.232513
-0.227963
-0.222228
-0.215268
-0.207061
-0.197611
-0.186947
-0.175133
-0.162267
-0.148489
-0.133975
-0.118943
-0.103642
-0.0883541
-0.0733809
-0.0590355
-0.0456315
-0.033472
-0.02284
-0.0139811
-0.00709146
-0.00241597
-0.000335882
-0.000165508
-0.00110157
-0.00311837
-0.0059961
-0.00960084
-0.0138462
-0.0186467
-0.0239205
-0.0295935
-0.0355989
-0.0418766
-0.0483737
-0.0550434
-0.0618453
-0.0687444
-0.075711
-0.08272
-0.0897502
-0.0967839
-0.103807
-0.110806
-0.117771
-0.124695
-0.131567
-0.138383
-0.145134
-0.151813
-0.158412
-0.164923
-0.171335
-0.177636
-0.183813
-0.189849
-0.195725
-0.201418
-0.206903
-0.21215
-0.217125
-0.221788
-0.226096
-0.23
-0.233444
-0.236369
-0.238708
-0.240391
-0.241341
-0.241478
-0.24072
-0.238983
-0.236185
-0.232249
-0.227105
-0.220698
-0.212987
-0.203957
-0.19362
-0.182023
-0.16925
-0.155429
-0.140732
-0.125377
-0.109622
-0.0937637
-0.0781249
-0.0630474
-0.048878
-0.0359565
-0.0246036
-0.015102
-0.00768184
-0.00262654
-0.000367909
-0.000162279
-0.00108272
-0.00306838
-0.00590402
-0.00945805
-0.0136449
-0.0183795
-0.0235802
-0.0291726
-0.0350896
-0.0412708
-0.047663
-0.0542194
-0.0608994
-0.0676684
-0.0744971
-0.0813608
-0.0882393
-0.0951159
-0.101977
-0.108813
-0.115613
-0.122372
-0.129083
-0.135741
-0.142341
-0.148879
-0.15535
-0.161746
-0.168061
-0.174286
-0.180409
-0.186418
-0.192296
-0.198024
-0.20358
-0.208937
-0.214063
-0.218923
-0.223475
-0.227672
-0.231461
-0.234782
-0.23757
-0.239751
-0.241247
-0.241974
-0.241843
-0.240763
-0.238641
-0.235386
-0.230915
-0.225153
-0.218041
-0.209544
-0.199653
-0.188394
-0.175834
-0.162085
-0.147312
-0.131728
-0.115597
-0.0992262
-0.0829617
-0.0671733
-0.0522427
-0.0385493
-0.0264557
-0.016286
-0.00830879
-0.00285154
-0.000402515
-0.00015872
-0.00106186
-0.00301292
-0.00580147
-0.00929827
-0.0134185
-0.0180774
-0.023193
-0.0286909
-0.0345034
-0.0405698
-0.0468364
-0.0532564
-0.0597892
-0.0664004
-0.0730611
-0.0797474
-0.0864399
-0.0931231
-0.0997849
-0.106416
-0.113009
-0.11956
-0.126064
-0.132518
-0.138921
-0.145269
-0.15156
-0.15779
-0.163956
-0.170052
-0.176068
-0.181997
-0.187825
-0.193536
-0.199111
-0.204528
-0.209758