/*--------------------------------*- C++ -*----------------------------------*\
  =========                 |
  \\      /  F ield         | OpenFOAM: The Open Source CFD Toolbox
   \\    /   O peration     | Website:  https://openfoam.org
    \\  /    A nd           | Version:  dev
     \\/     M anipulation  |
\*---------------------------------------------------------------------------*/
FoamFile
{
    format      ascii;
    class       volScalarField;
    location    "48.15";
    object      Uy;
}
// * * * * * * * * * * * * * * * * * * * * * * * * * * * * * * * * * * * * * //

dimensions      [0 1 -1 0 0 0 0];

internalField   nonuniform List<scalar> 
5184
(
-1.26023e-05
-2.08323e-05
-1.72293e-05
-8.19087e-06
2.67146e-06
1.3621e-05
2.3851e-05
3.30565e-05
4.11171e-05
4.80381e-05
5.38813e-05
5.87313e-05
6.26808e-05
6.58209e-05
6.82366e-05
7.00032e-05
7.11849e-05
7.18344e-05
7.19924e-05
7.16885e-05
7.0942e-05
6.97635e-05
6.81559e-05
6.61162e-05
6.36371e-05
6.0709e-05
5.73211e-05
5.3464e-05
4.91306e-05
4.43179e-05
3.90282e-05
3.3271e-05
2.70634e-05
2.04314e-05
1.34107e-05
6.04712e-06
-1.60318e-06
-9.4737e-06
-1.74879e-05
-2.55599e-05
-3.35953e-05
-4.14925e-05
-4.9144e-05
-5.64388e-05
-6.32644e-05
-6.95087e-05
-7.50631e-05
-7.98246e-05
-8.36985e-05
-8.66009e-05
-8.8461e-05
-8.92239e-05
-8.88514e-05
-8.73238e-05
-8.46409e-05
-8.0822e-05
-7.59061e-05
-6.9952e-05
-6.30376e-05
-5.52592e-05
-4.67309e-05
-3.75859e-05
-2.79791e-05
-1.8093e-05
-8.15241e-06
1.54863e-06
1.0585e-05
1.8317e-05
2.37292e-05
2.51303e-05
1.98409e-05
6.23565e-06
-4.57362e-05
-6.56254e-05
-4.05282e-05
7.64839e-06
6.56975e-05
0.000126024
0.000184344
0.00023841
0.000287077
0.000329903
0.000366849
0.000398103
0.000423976
0.000444837
0.000461062
0.00047301
0.000481004
0.00048532
0.00048618
0.000483757
0.000478171
0.0004695
0.000457781
0.000443024
0.000425217
0.000404337
0.000380358
0.000353265
0.000323057
0.000289762
0.00025344
0.000214193
0.000172173
0.000127581
8.06776e-05
3.17825e-05
-1.87256e-05
-7.04082e-05
-0.00012277
-0.000175263
-0.000227293
-0.000278228
-0.000327406
-0.000374147
-0.000417768
-0.000457591
-0.000492966
-0.000523277
-0.000547962
-0.000566527
-0.00057856
-0.000583739
-0.000581851
-0.000572791
-0.000556577
-0.000533347
-0.000503365
-0.000467021
-0.000424828
-0.00037743
-0.000325594
-0.000270226
-0.000212388
-0.000153333
-9.45721e-05
-3.79804e-05
1.39796e-05
5.79993e-05
8.94774e-05
0.000101912
8.65405e-05
3.64828e-05
-8.12697e-05
-9.50104e-05
-1.91222e-05
0.000105957
0.000254714
0.000410695
0.000563582
0.000707234
0.000838198
0.000954766
0.00105634
0.00114302
0.0012153
0.00127393
0.00131973
0.00135351
0.00137604
0.00138801
0.00138997
0.00138236
0.00136552
0.00133967
0.00130494
0.00126138
0.00120902
0.00114784
0.00107782
0.000998989
0.000911407
0.000815211
0.000710636
0.000598024
0.000477851
0.000350732
0.000217433
7.88782e-05
-6.38519e-05
-0.000209521
-0.000356744
-0.000504005
-0.000649665
-0.000791991
-0.000929181
-0.00105939
-0.00118077
-0.00129149
-0.00138981
-0.00147407
-0.00154278
-0.00159462
-0.0016285
-0.00164356
-0.00163926
-0.00161533
-0.00157184
-0.00150919
-0.00142815
-0.00132979
-0.00121558
-0.00108732
-0.000947188
-0.000797749
-0.000642014
-0.000483517
-0.000326459
-0.000175932
-3.82492e-05
7.85709e-05
0.000164224
0.000205531
0.000186375
9.04199e-05
-9.7768e-05
-7.31741e-05
8.47865e-05
0.000318425
0.000590236
0.000874587
0.00115444
0.001419
0.00166179
0.00187928
0.0020699
0.0022334
0.00237035
0.00248178
0.00256896
0.00263323
0.00267586
0.00269801
0.00270066
0.00268459
0.00265042
0.00259855
0.00252927
0.00244273
0.00233901
0.00221815
0.00208021
0.0019253
0.00175363
0.00156555
0.00136157
0.00114244
0.000909141
0.0006629
0.000405236
0.000137954
-0.000136859
-0.000416829
-0.00069932
-0.000981454
-0.00126014
-0.00153212
-0.00179402
-0.00204239
-0.00227379
-0.00248483
-0.00267225
-0.00283301
-0.00296433
-0.00306378
-0.00312935
-0.0031595
-0.00315319
-0.00310998
-0.00303002
-0.00291411
-0.00276366
-0.00258078
-0.00236824
-0.00212949
-0.00186867
-0.00159069
-0.00130128
-0.00100709
-0.000715951
-0.00043715
-0.000181828
3.64051e-05
0.000200829
0.00029104
0.000282727
0.00014735
-8.4459e-05
2.08534e-05
0.00029548
0.000668169
0.0010911
0.00153035
0.00196246
0.00237195
0.0027491
0.00308826
0.00338666
0.00364347
0.00385917
0.00403498
0.00417258
0.00427377
0.00434035
0.00437398
0.00437607
0.0043478
0.00429007
0.00420355
0.00408869
0.00394579
0.00377505
0.00357661
0.00335067
0.00309749
0.00281753
0.00251145
0.00218019
0.00182504
0.00144763
0.00105002
0.000634695
0.000204579
-0.000236968
-0.000686156
-0.00113879
-0.00159032
-0.00203587
-0.00247032
-0.00288838
-0.00328466
-0.00365377
-0.00399044
-0.00428962
-0.00454655
-0.00475694
-0.00491701
-0.00502366
-0.00507447
-0.00506789
-0.00500324
-0.00488077
-0.00470174
-0.00446844
-0.00418418
-0.00385336
-0.00348142
-0.00307496
-0.00264171
-0.00219067
-0.00173226
-0.00127853
-0.000843534
-0.000443779
-9.88274e-05
0.000167983
0.000328915
0.000351216
0.000194242
-3.75803e-05
0.000197349
0.000627009
0.00117062
0.00177222
0.00239092
0.00299765
0.0035726
0.00410292
0.00458084
0.00500228
0.00536574
0.00567147
0.00592083
0.00611581
0.00625867
0.00635169
0.00639701
0.00639649
0.0063517
0.00626388
0.00613396
0.0059626
0.00575028
0.00549736
0.00520415
0.00487103
0.00449854
0.00408743
0.00363881
0.00315415
0.00263542
0.0020851
0.00150623
0.000902479
0.000278089
-0.00036207
-0.00101254
-0.00166731
-0.00231988
-0.00296331
-0.00359033
-0.00419344
-0.00476501
-0.00529744
-0.00578331
-0.00621546
-0.00658723
-0.00689256
-0.00712613
-0.00728357
-0.00736151
-0.00735773
-0.00727129
-0.00710258
-0.00685337
-0.00652693
-0.00612796
-0.00566271
-0.00513897
-0.00456608
-0.00395503
-0.00331853
-0.00267117
-0.0020297
-0.00141331
-0.000844161
-0.000347936
4.53786e-05
0.000300836
0.000377614
0.000224651
4.40607e-05
0.000461322
0.0010873
0.0018352
0.00264313
0.00346483
0.00426665
0.00502512
0.00572462
0.00635546
0.00691232
0.00739303
0.00779761
0.00812748
0.00838492
0.00857259
0.00869322
0.00874942
0.00874349
0.0086774
0.0085527
0.00837061
0.00813203
0.00783766
0.00748803
0.0070837
0.00662531
0.00611369
0.00555004
0.00493596
0.00427362
0.00356578
0.00281591
0.00202821
0.00120767
0.000360065
-0.000508022
-0.00138926
-0.00227559
-0.00315833
-0.00402825
-0.00487566
-0.00569063
-0.00646304
-0.00718283
-0.00784016
-0.00842559
-0.00893029
-0.00934625
-0.00966644
-0.00988504
-0.00999759
-0.0100012
-0.00989444
-0.00967796
-0.00935405
-0.008927
-0.00840308
-0.00779055
-0.00709974
-0.00634304
-0.00553498
-0.00469229
-0.0038341
-0.0029821
-0.00216089
-0.00139842
-0.000726554
-0.000181794
0.00019404
0.000352818
0.000235147
0.000160459
0.000814646
0.00168015
0.00266692
0.00370924
0.00475703
0.00577324
0.00673158
0.00761422
0.0084099
0.00911228
0.00971862
0.0102288
0.0106442
0.0109675
0.0112017
0.01135
0.0114154
0.0114006
0.011308
0.0111395
0.0108966
0.0105804
0.0101918
0.00973171
0.00920086
0.0086002
0.00793098
0.00719488
0.00639413
0.00553164
0.00461112
0.00363713
0.00261518
0.00155174
0.000454268
-0.000668773
-0.00180799
-0.00295311
-0.00409306
-0.0052161
-0.00630996
-0.00736201
-0.00835947
-0.00928959
-0.0101399
-0.0108985
-0.0115541
-0.0120966
-0.0125171
-0.0128081
-0.012964
-0.012981
-0.0128574
-0.0125938
-0.012193
-0.0116604
-0.0110039
-0.010234
-0.00936355
-0.00840832
-0.00738655
-0.00631925
-0.00523026
-0.00414645
-0.00309797
-0.00211864
-0.00124643
-0.000524173
-9.15349e-08
0.000271256
0.000224024
0.000310978
0.00125723
0.00240651
0.00366765
0.00497285
0.00626976
0.00751908
0.0086926
0.00977097
0.0107418
0.0115981
0.0123367
0.0129575
0.0134621
0.0138533
0.0141347
0.0143097
0.0143818
0.0143543
0.0142297
0.0140104
0.0136981
0.0132943
0.0128001
0.0122165
0.0115447
0.0107859
0.00994193
0.00901494
0.00800789
0.00692452
0.00576956
0.00454879
0.00326912
0.00193863
0.000566607
-0.00083649
-0.00225906
-0.00368844
-0.00511102
-0.00651238
-0.00787748
-0.00919083
-0.0104368
-0.0115997
-0.0126642
-0.0136158
-0.0144407
-0.0151263
-0.0156617
-0.0160377
-0.0162472
-0.0162854
-0.0161501
-0.0158419
-0.0153642
-0.0147234
-0.013929
-0.0129936
-0.0119332
-0.0107667
-0.00951622
-0.00820731
-0.00686866
-0.00553246
-0.00423449
-0.00301447
-0.00191642
-0.000989227
-0.000287089
0.000129814
0.000190629
0.000494714
0.00178784
0.00326551
0.004837
0.00643397
0.00800305
0.00950391
0.0109073
0.0121931
0.0133483
0.0143657
0.0152421
0.0159773
0.0165734
0.0170336
0.0173617
0.0175618
0.0176378
0.0175933
0.0174312
0.0171542
0.0167644
0.0162634
0.0156526
0.0149334
0.0141072
0.0131757
0.0121411
0.0110063
0.00977483
0.00845149
0.00704205
0.00555359
0.00399451
0.00237459
0.00070502
-0.0010016
-0.00273137
-0.0044691
-0.00619851
-0.00790238
-0.00956271
-0.011161
-0.0126786
-0.0140967
-0.015397
-0.0165621
-0.0175753
-0.0184217
-0.0190879
-0.0195627
-0.0198376
-0.0199066
-0.0197668
-0.0194186
-0.0188659
-0.018116
-0.0171802
-0.0160733
-0.0148141
-0.0134248
-0.0119319
-0.0103652
-0.00875847
-0.00714936
-0.00557934
-0.00409404
-0.00274345
-0.00158234
-0.000670498
-7.31279e-05
0.000134881
0.000710634
0.00240457
0.00425507
0.00617303
0.00809077
0.00995517
0.0117258
0.0133734
0.0148777
0.0162259
0.0174107
0.0184293
0.0192819
0.0199711
0.0205005
0.0208744
0.0210975
0.0211741
0.0211082
0.0209031
0.0205618
0.0200865
0.0194794
0.018742
0.0178759
0.016883
0.0157654
0.0145257
0.0131675
0.0116952
0.0101144
0.00843207
0.00665667
0.00479811
0.00286795
0.000879364
-0.00115286
-0.0032124
-0.00528148
-0.00734104
-0.00937091
-0.01135
-0.0132568
-0.0150691
-0.0167652
-0.0183235
-0.0197233
-0.0209451
-0.0219711
-0.0227855
-0.0233749
-0.0237289
-0.0238401
-0.0237049
-0.0233233
-0.0226994
-0.0218416
-0.0207626
-0.0194795
-0.0180138
-0.0163915
-0.0146428
-0.0128025
-0.0109093
-0.00900635
-0.00714095
-0.00536464
-0.00373338
-0.00230771
-0.00115276
-0.000338408
5.69458e-05
0.000957659
0.00310512
0.00537229
0.00767262
0.00994013
0.0121229
0.0141815
0.0160874
0.017821
0.0193701
0.020728
0.0218928
0.0228652
0.0236484
0.0242468
0.0246652
0.024909
0.0249828
0.024891
0.0246376
0.0242256
0.0236578
0.0229362
0.022063
0.0210399
0.0198691
0.0185532
0.0170953
0.0154997
0.0137715
0.0119173
0.00994533
0.0078653
0.00568875
0.00342901
0.0011013
-0.00127737
-0.00368821
-0.00611077
-0.00852314
-0.0109021
-0.0132234
-0.0154621
-0.0175929
-0.0195904
-0.0214296
-0.0230867
-0.0245388
-0.025765
-0.0267468
-0.0274683
-0.0279171
-0.0280842
-0.0279647
-0.0275582
-0.026869
-0.0259061
-0.0246836
-0.0232209
-0.0215422
-0.0196771
-0.0176599
-0.01553
-0.0133315
-0.0111131
-0.00892784
-0.00683341
-0.00489172
-0.00316907
-0.00173589
-0.00066659
-4.29587e-05
0.0012347
0.00388693
0.00661376
0.00933186
0.0119779
0.014502
0.0168666
0.0190446
0.021018
0.0227757
0.0243123
0.0256267
0.0267209
0.0275988
0.0282656
0.0287271
0.0289889
0.0290566
0.028935
0.0286282
0.0281398
0.0274727
0.0266293
0.0256119
0.0244227
0.0230641
0.0215391
0.0198514
0.0180057
0.0160082
0.0138664
0.0115895
0.00918873
0.00667714
0.00406988
0.00138418
-0.00136067
-0.00414342
-0.00694089
-0.00972826
-0.0124792
-0.0151662
-0.0177608
-0.0202342
-0.0225574
-0.0247019
-0.0266401
-0.0283458
-0.0297947
-0.0309652
-0.0318386
-0.0324001
-0.0326389
-0.0325485
-0.0321279
-0.031381
-0.0303176
-0.028953
-0.0273084
-0.0254111
-0.0232939
-0.0209955
-0.01856
-0.0160366
-0.01348
-0.0109491
-0.00850782
-0.00622414
-0.00417024
-0.00242196
-0.00105832
-0.000164699
0.00154066
0.00474732
0.00797564
0.0111462
0.0141989
0.017087
0.0197754
0.0222394
0.0244629
0.0264368
0.0281572
0.0296247
0.0308424
0.0318155
0.0325502
0.0330531
0.0333308
0.0333893
0.0332339
0.0328693
0.0322993
0.0315271
0.0305554
0.0293867
0.0280234
0.0264684
0.0247248
0.022797
0.0206904
0.0184117
0.0159694
0.013374
0.0106379
0.00777567
0.00480427
0.00174293
-0.00138683
-0.00456125
-0.00775447
-0.0109387
-0.0140844
-0.0171607
-0.0201356
-0.0229767
-0.0256512
-0.0281266
-0.0303715
-0.032356
-0.0340521
-0.0354348
-0.0364824
-0.037177
-0.0375057
-0.0374603
-0.0370384
-0.0362438
-0.0350862
-0.0335822
-0.0317549
-0.029634
-0.027256
-0.0246636
-0.0219058
-0.0190373
-0.0161186
-0.0132148
-0.0103961
-0.00773696
-0.00531557
-0.00321346
-0.00151458
-0.000308313
0.00187442
0.00568342
0.00945382
0.0131106
0.0165977
0.019872
0.0229017
0.0256652
0.028149
0.0303465
0.032256
0.0338797
0.0352227
0.0362916
0.0370937
0.0376368
0.0379282
0.0379748
0.0377823
0.037356
0.0366999
0.0358176
0.0347121
0.033386
0.031842
0.0300832
0.0281132
0.0259367
0.0235596
0.0209895
0.0182357
0.0153097
0.0122251
0.00899813
0.00564733
0.00219388
-0.00133848
-0.00492357
-0.00853279
-0.0121354
-0.0156987
-0.0191883
-0.0225686
-0.0258033
-0.0288557
-0.0316892
-0.0342683
-0.0365589
-0.0385292
-0.0401501
-0.0413965
-0.0422473
-0.0426868
-0.0427047
-0.0422971
-0.0414667
-0.0402234
-0.0385844
-0.0365746
-0.0342262
-0.031579
-0.0286799
-0.0255828
-0.022348
-0.0190418
-0.0157362
-0.0125077
-0.0094375
-0.00661028
-0.00411361
-0.00203687
-0.000474066
0.00223487
0.00669228
0.0110439
0.0152196
0.019168
0.0228501
0.0262384
0.0293146
0.0320689
0.0344973
0.0366009
0.0383843
0.0398545
0.0410198
0.041889
0.0424712
0.0427747
0.042807
0.0425748
0.0420836
0.0413379
0.0403416
0.0390978
0.0376094
0.0358794
0.0339109
0.031708
0.0292756
0.0266203
0.0237502
0.0206754
0.0174084
0.0139639
0.0103595
0.00661541
0.00275461
-0.00119704
-0.00521095
-0.00925588
-0.0132981
-0.0173018
-0.021229
-0.0250404
-0.0286957
-0.032154
-0.0353744
-0.0383171
-0.0409433
-0.043217
-0.0451048
-0.0465775
-0.0476105
-0.0481847
-0.0482871
-0.0479117
-0.0470601
-0.0457417
-0.0439741
-0.0417835
-0.0392046
-0.0362803
-0.0330617
-0.0296077
-0.0259844
-0.0222643
-0.0185261
-0.0148534
-0.0113344
-0.00806069
-0.00512653
-0.00262733
-0.000662494
0.00262085
0.00777078
0.0127411
0.0174673
0.0219029
0.0260139
0.0297774
0.0331796
0.0362141
0.0388808
0.0411838
0.0431303
0.0447296
0.0459922
0.0469287
0.0475493
0.0478636
0.0478801
0.047606
0.0470475
0.0462096
0.0450963
0.043711
0.0420567
0.0401367
0.0379541
0.0355134
0.0328198
0.0298802
0.0267032
0.0232997
0.0196829
0.0158687
0.0118757
0.00772585
0.00344373
-0.000942777
-0.0054028
-0.0099025
-0.0144053
-0.018872
-0.0232614
-0.0275302
-0.031634
-0.0355275
-0.0391654
-0.0425029
-0.0454967
-0.0481056
-0.0502918
-0.0520215
-0.0532656
-0.0540013
-0.0542125
-0.0538905
-0.0530349
-0.0516544
-0.0497666
-0.0473986
-0.0445873
-0.0413787
-0.037828
-0.0339993
-0.0299643
-0.0258024
-0.0215991
-0.0174456
-0.0134376
-0.00967444
-0.00625742
-0.00328884
-0.00087443
0.00303115
0.00891566
0.0145406
0.0198474
0.0247951
0.0293554
0.0335104
0.0372511
0.0405757
0.0434879
0.0459954
0.0481086
0.0498394
0.0512005
0.0522045
0.0528634
0.0531879
0.0531875
0.0528704
0.0522432
0.0513113
0.0500791
0.0485502
0.0467279
0.0446152
0.0422158
0.0395341
0.0365754
0.0333471
0.0298581
0.0261199
0.0221463
0.0179542
0.0135633
0.00899668
0.00428066
-0.000555071
-0.00547748
-0.0104503
-0.015434
-0.0203864
-0.0252626
-0.0300156
-0.0345966
-0.0389559
-0.0430433
-0.0468091
-0.0502046
-0.0531834
-0.0557024
-0.0577226
-0.0592102
-0.0601378
-0.0604853
-0.060241
-0.0594019
-0.0579751
-0.0559778
-0.0534378
-0.0503937
-0.0468945
-0.0429995
-0.0387778
-0.0343073
-0.0296742
-0.0249715
-0.0202985
-0.0157591
-0.0114606
-0.00751263
-0.00402507
-0.00111102
0.0034645
0.0101235
0.0164371
0.0223531
0.0278368
0.0328658
0.0374279
0.0415195
0.0451438
0.0483087
0.051026
0.0533095
0.0551742
0.0566355
0.0577079
0.0584053
0.0587399
0.0587224
0.0583617
0.0576652
0.0566387
0.055287
0.0536138
0.0516224
0.0493161
0.0466985
0.0437741
0.0405484
0.0370287
0.0332245
0.0291474
0.0248119
0.0202356
0.015439
0.0104463
0.00528533
-1.26267e-05
-0.00541254
-0.0108758
-0.0163602
-0.0218205
-0.0272082
-0.0324724
-0.0375602
-0.042417
-0.0469876
-0.0512168
-0.0550505
-0.0584364
-0.0613257
-0.0636733
-0.0654402
-0.0665936
-0.0671088
-0.0669699
-0.066171
-0.0647169
-0.0626237
-0.0599194
-0.0566439
-0.0528491
-0.0485981
-0.0439652
-0.0390346
-0.0338998
-0.0286618
-0.0234282
-0.0183121
-0.0134298
-0.00889974
-0.00484054
-0.00137373
0.00391958
0.0113906
0.0184251
0.0249774
0.0310196
0.0365358
0.04152
0.0459745
0.0499076
0.0533324
0.0562648
0.0587226
0.060724
0.0622872
0.0634294
0.0641661
0.0645114
0.0644772
0.0640733
0.0633078
0.0621871
0.0607162
0.0588991
0.0567392
0.0542397
0.0514042
0.0482371
0.044744
0.0409323
0.0368114
0.0323932
0.0276926
0.0227275
0.0175194
0.0120932
0.00647788
0.000706228
-0.00518493
-0.0111548
-0.0171588
-0.0231485
-0.0290721
-0.0348748
-0.0404993
-0.0458862
-0.0509749
-0.0557047
-0.0600152
-0.0638482
-0.067148
-0.0698635
-0.071949
-0.073366
-0.074084
-0.0740824
-0.0733513
-0.0718924
-0.0697201
-0.066862
-0.0633588
-0.0592648
-0.0546471
-0.0495851
-0.0441695
-0.0385012
-0.03269
-0.0268528
-0.021112
-0.0155942
-0.0104276
-0.00574063
-0.00166437
0.00439498
0.0127132
0.0204986
0.0277127
0.0343347
0.0403556
0.0457762
0.0506049
0.0548559
0.0585475
0.0617004
0.0643363
0.0664774
0.0681449
0.0693584
0.070136
0.0704931
0.0704433
0.0699973
0.0691641
0.0679506
0.0663622
0.0644028
0.0620762
0.0593853
0.0563337
0.0529257
0.0491668
0.045064
0.040627
0.0358675
0.0308005
0.0254443
0.0198207
0.0139554
0.00787824
0.00162321
-0.00477134
-0.0112627
-0.0178039
-0.0243436
-0.030827
-0.0371951
-0.0433864
-0.0493365
-0.0549794
-0.0602483
-0.0650766
-0.0693989
-0.0731527
-0.0762798
-0.0787272
-0.0804494
-0.0814097
-0.0815815
-0.0809498
-0.0795127
-0.0772819
-0.0742837
-0.0705592
-0.0661648
-0.0611709
-0.0556624
-0.0497365
-0.0435023
-0.0370785
-0.0305921
-0.024176
-0.0179677
-0.0121065
-0.00673161
-0.00198508
0.00488921
0.0140872
0.0226514
0.030551
0.0377727
0.0443148
0.0501852
0.0553989
0.0599765
0.0639416
0.0673202
0.0701385
0.0724225
0.0741967
0.0754838
0.076304
0.0766748
0.0766111
0.076125
0.0752263
0.0739223
0.0722189
0.0701203
0.06763
0.0647511
0.0614869
0.0578413
0.0538197
0.0494289
0.0446781
0.039579
0.0341465
0.0283988
0.022358
0.0160502
0.00950578
0.00275967
-0.00414851
-0.0111744
-0.0182689
-0.0253781
-0.032444
-0.0394039
-0.0461919
-0.0527387
-0.0589725
-0.0648204
-0.0702088
-0.0750652
-0.0793194
-0.082905
-0.0857613
-0.0878348
-0.0890812
-0.0894671
-0.0889714
-0.0875872
-0.0853226
-0.0822018
-0.0782657
-0.073572
-0.0681945
-0.0622232
-0.0557621
-0.0489287
-0.0418515
-0.034668
-0.0275229
-0.0205657
-0.0139479
-0.00782064
-0.00233833
0.00540067
0.0155083
0.024877
0.0334839
0.0413236
0.0484022
0.0547349
0.0603439
0.0652562
0.0695016
0.0731111
0.0761159
0.0785461
0.0804299
0.081793
0.082658
0.0830448
0.0829697
0.0824462
0.0814848
0.0800938
0.0782791
0.0760452
0.0733957
0.0703334
0.0668614
0.0629834
0.058704
0.0540299
0.0489697
0.0435349
0.0377398
0.0316026
0.0251452
0.0183937
0.0113788
0.00413617
-0.0032937
-0.0108651
-0.0185271
-0.0262235
-0.0338933
-0.0414703
-0.0488843
-0.0560608
-0.0629226
-0.0693902
-0.0753827
-0.08082
-0.0856235
-0.089718
-0.0930339
-0.0955089
-0.09709
-0.0977355
-0.0974173
-0.0961221
-0.0938533
-0.0906321
-0.086498
-0.0815095
-0.0757434
-0.0692944
-0.0622738
-0.0548076
-0.0470347
-0.0391043
-0.0311737
-0.0234055
-0.0159646
-0.00901579
-0.00272697
0.0059277
0.016972
0.0271684
0.0365025
0.044977
0.0526061
0.0594128
0.0654267
0.0706815
0.0752133
0.0790588
0.0822543
0.0848342
0.0868305
0.0882723
0.089185
0.0895904
0.0895069
0.0889492
0.0879289
0.0864549
0.0845335
0.0821696
0.0793664
0.0761267
0.0724533
0.0683492
0.0638188
0.058868
0.0535049
0.0477401
0.0415877
0.0350651
0.0281939
0.021
0.0135141
0.00577198
-0.00218515
-0.0103106
-0.018552
-0.0268512
-0.0351444
-0.0433621
-0.05143
-0.0592688
-0.0667953
-0.0739235
-0.0805651
-0.0866317
-0.0920357
-0.0966925
-0.100523
-0.103454
-0.105423
-0.106379
-0.106285
-0.105121
-0.102883
-0.0995881
-0.0952742
-0.0899993
-0.0838426
-0.0769034
-0.0693
-0.0611675
-0.0526557
-0.0439265
-0.0351508
-0.0265057
-0.0181709
-0.010326
-0.00315415
0.00646854
0.0184735
0.0295183
0.0395974
0.0487219
0.0569143
0.0642057
0.0706332
0.0762377
0.0810618
0.0851482
0.0885384
0.0912715
0.0933836
0.094907
0.0958702
0.0962975
0.0962089
0.0956209
0.0945459
0.0929937
0.0909712
0.0884831
0.0855329
0.0821231
0.0782558
0.0739338
0.0691606
0.0639415
0.0582836
0.0521969
0.0456945
0.0387931
0.0315135
0.0238811
0.0159262
0.00768456
-0.000802583
-0.00948789
-0.0183179
-0.0272327
-0.0361663
-0.0450463
-0.0537943
-0.0623262
-0.0705534
-0.0783829
-0.0857189
-0.0924643
-0.0985219
-0.103797
-0.108199
-0.111645
-0.114061
-0.115384
-0.115567
-0.114581
-0.112415
-0.10908
-0.10461
-0.0990622
-0.0925168
-0.0850776
-0.0768698
-0.068038
-0.0587436
-0.0491618
-0.0394786
-0.0298866
-0.0205823
-0.0117612
-0.00362338
0.00702133
0.0200078
0.0319193
0.0427591
0.0525469
0.061314
0.0690996
0.0759488
0.0819096
0.0870316
0.0913635
0.0949522
0.0978418
0.100073
0.101681
0.102698
0.10315
0.10306
0.102446
0.101321
0.0996964
0.0975788
0.0949735
0.0918838
0.0883119
0.0842597
0.0797291
0.074723
0.0692456
0.0633031
0.0569045
0.0500617
0.0427904
0.0351105
0.0270462
0.0186274
0.00988898
0.000872198
-0.00837551
-0.0178
-0.0273403
-0.0369284
-0.0464893
-0.0559409
-0.065195
-0.074157
-0.0827275
-0.0908029
-0.0982771
-0.105043
-0.110995
-0.116031
-0.120054
-0.122979
-0.124731
-0.125251
-0.124498
-0.122451
-0.119116
-0.114519
-0.108717
-0.101789
-0.0938437
-0.0850125
-0.0754496
-0.0653284
-0.0548388
-0.0441827
-0.0335702
-0.0232154
-0.0133321
-0.00413853
0.00758415
0.0215698
0.0343634
0.0459774
0.0564402
0.0657919
0.0740802
0.0813581
0.0876813
0.093106
0.0976875
0.101478
0.104528
0.106881
0.108576
0.10965
0.110131
0.110044
0.109408
0.108238
0.106547
0.104341
0.101626
0.0984047
0.09468
0.0904527
0.0857242
0.0804962
0.0747721
0.068557
0.0618584
0.0546871
0.0470573
0.0389876
0.0305011
0.0216263
0.0123973
0.00285471
-0.00695441
-0.0169758
-0.0271477
-0.0374007
-0.0476576
-0.0578334
-0.0678355
-0.0775642
-0.0869136
-0.0957723
-0.104025
-0.111554
-0.118243
-0.123976
-0.128644
-0.132146
-0.134394
-0.135316
-0.134857
-0.132985
-0.129696
-0.12501
-0.118978
-0.11168
-0.103227
-0.093757
-0.0834329
-0.0724413
-0.0609874
-0.0492904
-0.0375795
-0.0260883
-0.0150503
-0.00470379
0.008155
0.0231542
0.0368426
0.0492419
0.0603896
0.0703344
0.0791326
0.0868454
0.093536
0.099268
0.104103
0.108099
0.111311
0.113789
0.115575
0.116708
0.117221
0.117141
0.116487
0.115279
0.113526
0.111239
0.108422
0.105079
0.101211
0.0968193
0.0919044
0.0864671
0.0805094
0.0740352
0.0670505
0.0595646
0.0515901
0.0431439
0.0342475
0.024928
0.0152181
0.00515717
-0.00520847
-0.0158249
-0.0266303
-0.0375545
-0.0485185
-0.0594348
-0.0702073
-0.0807313
-0.0908947
-0.100578
-0.109658
-0.118006
-0.125492
-0.131988
-0.13737
-0.141522
-0.14434
-0.145735
-0.145638
-0.144005
-0.140817
-0.136086
-0.129857
-0.122209
-0.113252
-0.103131
-0.0920184
-0.0801137
-0.0676383
-0.0548302
-0.0419391
-0.0292201
-0.0169282
-0.0053237
0.00873184
0.0247554
0.0393486
0.0525421
0.0643826
0.0749274
0.0842415
0.0923943
0.0994567
0.105499
0.110591
0.114795
0.118172
0.120777
0.122656
0.123852
0.1244
0.12433
0.123664
0.122421
0.120614
0.118252
0.115341
0.111885
0.107885
0.103341
0.0982518
0.0926186
0.0864416
0.0797233
0.0724682
0.0646837
0.0563806
0.0475738
0.0382831
0.0285334
0.0183557
0.00778787
-0.0031252
-0.0143306
-0.0257668
-0.0373635
-0.0490409
-0.0607094
-0.0722699
-0.0836134
-0.0946222
-0.10517
-0.115123
-0.124342
-0.132686
-0.140013
-0.146181
-0.15106
-0.154526
-0.156473
-0.156815
-0.15549
-0.152467
-0.147745
-0.141361
-0.133389
-0.123939
-0.113161
-0.101236
-0.0883772
-0.074823
-0.0608317
-0.0466749
-0.0326312
-0.0189792
-0.00600315
0.0093126
0.0263681
0.041873
0.0558673
0.0684064
0.0795566
0.0893913
0.097988
0.105426
0.111782
0.117132
0.121547
0.125091
0.127824
0.129798
0.131059
0.131645
0.131588
0.130914
0.129642
0.127786
0.125357
0.122361
0.118801
0.114679
0.109994
0.104745
0.0989297
0.0925489
0.085603
0.0780946
0.0700294
0.061416
0.0522672
0.0426004
0.0324383
0.0218098
0.0107506
-0.000696378
-0.0124796
-0.0245389
-0.0368043
-0.0491957
-0.0616226
-0.0739833
-0.0861656
-0.0980462
-0.109492
-0.120361
-0.130504
-0.139766
-0.14799
-0.155019
-0.160703
-0.1649
-0.167484
-0.168349
-0.167413
-0.164628
-0.159979
-0.15349
-0.14523
-0.135306
-0.12387
-0.111114
-0.097263
-0.0825734
-0.067325
-0.0518135
-0.0363428
-0.0212174
-0.00674736
0.0098952
0.0279865
0.0444074
0.0592067
0.0724485
0.0842077
0.0945662
0.10361
0.111425
0.118097
0.123707
0.128333
0.132045
0.134908
0.136979
0.138307
0.138933
0.138892
0.138213
0.136916
0.135017
0.132528
0.129455
0.125801
0.121567
0.116753
0.111357
0.105375
0.098807
0.091651
0.0839081
0.0755817
0.0666784
0.0572085
0.0471869
0.0366336
0.025575
0.014044
0.00208131
-0.0102638
-0.0229328
-0.0358572
-0.0489573
-0.0621424
-0.0753094
-0.0883433
-0.101117
-0.11349
-0.125314
-0.136427
-0.146664
-0.155851
-0.163816
-0.170387
-0.175403
-0.178715
-0.180193
-0.179735
-0.177271
-0.172768
-0.166237
-0.157734
-0.147364
-0.135279
-0.121679
-0.106801
-0.0909211
-0.074341
-0.0573825
-0.0403772
-0.0236576
-0.00756189
0.0104775
0.0296053
0.0469435
0.0625495
0.076496
0.0888662
0.0997504
0.109242
0.117436
0.124424
0.130295
0.135133
0.139013
0.142007
0.144174
0.145569
0.146237
0.146215
0.145533
0.144216
0.142279
0.139736
0.136593
0.132854
0.12852
0.123589
0.118059
0.111927
0.105187
0.0978397
0.089882
0.0813158
0.0721449
0.0623772
0.0520247
0.0411045
0.02964
0.0176611
0.00520568
-0.00767996
-0.0209398
-0.0345072
-0.0483041
-0.0622404
-0.0762125
-0.0901037
-0.103783
-0.117107
-0.129917
-0.142044
-0.153309
-0.163524
-0.172497
-0.180039
-0.185964
-0.190099
-0.192289
-0.192407
-0.190358
-0.186086
-0.179585
-0.170897
-0.16012
-0.147404
-0.132953
-0.11702
-0.0998969
-0.0819106
-0.0634103
-0.0447575
-0.0263153
-0.00845261
0.0110576
0.0312191
0.0494731
0.0658854
0.0805366
0.0935182
0.104928
0.114868
0.12344
0.130744
0.136876
0.141924
0.145972
0.149095
0.151359
0.152821
0.15353
0.153528
0.152846
0.151511
0.149541
0.146949
0.143743
0.139928
0.135503
0.130468
0.124819
0.11855
0.111657
0.104137
0.0959854
0.0872016
0.0777872
0.067747
0.05709
0.0458304
0.0339879
0.0215892
0.00866858
-0.00473097
-0.0185566
-0.0327447
-0.0472195
-0.0618923
-0.0766607
-0.091407
-0.105999
-0.120287
-0.134109
-0.147285
-0.159625
-0.170927
-0.180981
-0.189576
-0.196502
-0.201561
-0.204568
-0.205368
-0.203837
-0.199895
-0.19351
-0.184708
-0.173573
-0.160254
-0.144957
-0.127945
-0.109531
-0.0900644
-0.0699253
-0.0495074
-0.0292069
-0.00942574
0.0116335
0.0328227
0.0519884
0.0692042
0.0845582
0.0981496
0.110084
0.120471
0.12942
0.137038
0.143428
0.148685
0.152898
0.156149
0.158506
0.160034
0.160785
0.160802
0.160121
0.15877
0.156769
0.154133
0.150871
0.146987
0.142482
0.137354
0.131598
0.125208
0.11818
0.110506
0.102182
0.0932044
0.0835718
0.0732862
0.0623537
0.0507847
0.0385956
0.0258091
0.0124555
-0.00142604
-0.0157866
-0.0305663
-0.0456926
-0.0610797
-0.0766268
-0.0922172
-0.107717
-0.122976
-0.137826
-0.152079
-0.165536
-0.177978
-0.18918
-0.198909
-0.206929
-0.213013
-0.216949
-0.218545
-0.217647
-0.214143
-0.207974
-0.199142
-0.187715
-0.173834
-0.157704
-0.1396
-0.11985
-0.0988324
-0.0769564
-0.0546512
-0.032349
-0.0104878
0.0122034
0.0344113
0.0544822
0.0724965
0.0885495
0.102747
0.115204
0.126035
0.135358
0.143287
0.149931
0.155393
0.159768
0.163142
0.165591
0.167181
0.16797
0.168005
0.167324
0.165958
0.163929
0.161252
0.157939
0.153993
0.149416
0.144205
0.138356
0.131861
0.124714
0.116907
0.108432
0.0992846
0.0894602
0.078958
0.0677807
0.0559352
0.0434338
0.0302952
0.0165454
0.00221888
-0.0126399
-0.0279754
-0.0437195
-0.0597902
-0.0760897
-0.0925037
-0.108899
-0.125124
-0.141008
-0.156357
-0.17096
-0.18459
-0.197001
-0.207939
-0.217145
-0.22436
-0.229337
-0.231852
-0.231712
-0.228768
-0.222928
-0.214165
-0.202527
-0.188138
-0.171203
-0.152002
-0.130881
-0.108243
-0.0845318
-0.0602134
-0.0357591
-0.0116456
0.0127656
0.0359806
0.0569476
0.0757535
0.0924997
0.107299
0.120273
0.131543
0.141235
0.14947
0.156363
0.162025
0.166556
0.170048
0.172583
0.174232
0.175055
0.175105
0.174423
0.17304
0.170983
0.168269
0.164907
0.160906
0.156264
0.150981
0.14505
0.138465
0.131216
0.123294
0.114691
0.105398
0.0954093
0.0847205
0.0733308
0.0612437
0.0484672
0.0350156
0.0209103
0.00618085
-0.00913356
-0.0249826
-0.0413034
-0.0580187
-0.0750353
-0.0922424
-0.109509
-0.126685
-0.143597
-0.160048
-0.175821
-0.190674
-0.204347
-0.216566
-0.227044
-0.235492
-0.241629
-0.24519
-0.245941
-0.243692
-0.238309
-0.229732
-0.217978
-0.203154
-0.185455
-0.165165
-0.142645
-0.118324
-0.0926795
-0.0662188
-0.0394548
-0.0129062
0.0133186
0.0375267
0.0593789
0.0789674
0.0963995
0.111794
0.125278
0.136982
0.147036
0.15557
0.162705
0.168559
0.173239
0.176842
0.179456
0.181156
0.182009
0.182069
0.18138
0.17998
0.177893
0.175141
0.171734
0.167681
0.162982
0.157635
0.151634
0.144971
0.137636
0.12962
0.12091
0.111497
0.101372
0.0905269
0.0789588
0.0666667
0.0536546
0.0399323
0.025516
0.0104299
-0.00529232
-0.0216064
-0.0384555
-0.0557683
-0.0734573
-0.0914168
-0.10952
-0.12762
-0.145543
-0.163091
-0.18004
-0.196141
-0.21112
-0.224681
-0.236512
-0.246295
-0.253709
-0.258448
-0.260231
-0.258822
-0.25404
-0.245781
-0.234027
-0.218857
-0.200452
-0.179094
-0.155158
-0.129098
-0.101426
-0.0726917
-0.043454
-0.0142769
0.0138613
0.0390464
0.0617711
0.0821319
0.100241
0.116222
0.130208
0.142336
0.152744
0.161568
0.168937
0.174973
0.179792
0.183497
0.18618
0.187924
0.188797
0.18886
0.18816
0.186737
0.184619
0.181827
0.178377
0.174274
0.169522
0.164119
0.158058
0.151331
0.143926
0.135833
0.127038
0.11753
0.107296
0.0963266
0.0846147
0.0721558
0.0589497
0.0450012
0.0303216
0.0149294
-0.0011481
-0.0178729
-0.0351951
-0.0530503
-0.0713581
-0.0900191
-0.108913
-0.127897
-0.1468
-0.165426
-0.183547
-0.200907
-0.217221
-0.232174
-0.245433
-0.256644
-0.26545
-0.271501
-0.274464
-0.274051
-0.270027
-0.262237
-0.250616
-0.23521
-0.216176
-0.19379
-0.168435
-0.140587
-0.110796
-0.0796565
-0.0477751
-0.0157653
0.0143928
0.0405374
0.0641206
0.0852418
0.104016
0.120574
0.135052
0.147595
0.158346
0.167448
0.175038
0.181246
0.186192
0.189986
0.192728
0.194503
0.195387
0.195444
0.194725
0.193272
0.191117
0.188284
0.184789
0.180639
0.175838
0.170385
0.164272
0.157492
0.150033
0.14188
0.133022
0.123442
0.113127
0.102065
0.0902449
0.0776583
0.064301
0.0501731
0.0352805
0.0196359
0.00326006
-0.013816
-0.0315499
-0.0498851
-0.0687493
-0.0880512