/*--------------------------------*- C++ -*----------------------------------*\
  =========                 |
  \\      /  F ield         | OpenFOAM: The Open Source CFD Toolbox
   \\    /   O peration     | Website:  https://openfoam.org
    \\  /    A nd           | Version:  dev
     \\/     M anipulation  |
\*---------------------------------------------------------------------------*/
FoamFile
{
    format      ascii;
    class       volScalarField;
    location    "37.8";
    object      p;
}
// * * * * * * * * * * * * * * * * * * * * * * * * * * * * * * * * * * * * * //

dimensions      [0 2 -2 0 0 0 0];

internalField   nonuniform List<scalar> 
5184
(
1.51514e-06
-9.98878e-06
-9.58631e-05
-0.000248767
-0.000448212
-0.000676927
-0.000920679
-0.00116749
-0.00140821
-0.00163569
-0.00184451
-0.00203065
-0.00219117
-0.00232397
-0.00242758
-0.00250099
-0.00254354
-0.00255477
-0.00253442
-0.00248232
-0.00239839
-0.00228259
-0.00213499
-0.00195572
-0.00174502
-0.00150327
-0.00123101
-0.000928987
-0.000598194
-0.000239905
0.000144296
0.000552484
0.000982365
0.00143127
0.00189613
0.00237351
0.00285958
0.00335018
0.00384082
0.00432677
0.00480309
0.00526469
0.00570646
0.0061233
0.00651027
0.00686265
0.00717607
0.00744662
0.00767091
0.00784622
0.00797052
0.00804262
0.00806216
0.00802972
0.00794679
0.00781582
0.00764021
0.00742426
0.00717321
0.0068931
0.00659079
0.00627391
0.00595076
0.0056303
0.00532209
0.0050362
0.00478316
0.00457358
0.00441743
0.00432315
0.00429623
0.00432353
1.50896e-05
2.62961e-06
-7.19686e-05
-0.000199752
-0.000365038
-0.000555357
-0.000759775
-0.000968684
-0.00117416
-0.00136979
-0.00155054
-0.00171251
-0.00185271
-0.00196893
-0.00205951
-0.00212327
-0.00215934
-0.00216711
-0.00214617
-0.00209622
-0.00201708
-0.00190867
-0.001771
-0.00160418
-0.00140843
-0.0011841
-0.000931741
-0.000652072
-0.000346055
-1.49088e-05
0.000339861
0.000716438
0.00111267
0.00152607
0.0019538
0.00239266
0.00283915
0.00328944
0.00373943
0.0041848
0.00462105
0.00504358
0.00544775
0.00582895
0.00618275
0.00650492
0.00679155
0.00703915
0.00724475
0.00740596
0.00752105
0.00758904
0.00760973
0.00758374
0.00751255
0.00739848
0.00724473
0.0070553
0.006835
0.00658938
0.00632469
0.00604782
0.00576619
0.00548773
0.00522077
0.00497386
0.00475568
0.00457462
0.00443796
0.00435165
0.0043231
0.00435072
0.000101799
7.70863e-05
1.745e-06
-0.000115814
-0.000263556
-0.000431846
-0.000611969
-0.000796088
-0.0009775
-0.00115064
-0.00131101
-0.001455
-0.00157982
-0.00168329
-0.00176377
-0.00182001
-0.0018511
-0.00185633
-0.00183522
-0.00178739
-0.00171261
-0.00161074
-0.00148173
-0.00132566
-0.00114271
-0.000933196
-0.000697619
-0.000436656
-0.000151206
0.000157589
0.000488318
0.000839277
0.00120846
0.00159353
0.00199185
0.00240044
0.00281603
0.00323506
0.00365373
0.00406802
0.00447375
0.00486666
0.00524246
0.0055969
0.00592587
0.00622547
0.00649212
0.00672262
0.00691426
0.00706486
0.00717291
0.00723753
0.00725863
0.00723684
0.00717361
0.00707118
0.00693256
0.00676152
0.00656256
0.00634083
0.00610209
0.00585266
0.00559927
0.00534907
0.00510942
0.00488776
0.0046916
0.00452798
0.00440294
0.00432171
0.00429392
0.00432458
0.000256878
0.000205477
0.000117671
-1.29867e-06
-0.000143765
-0.000301951
-0.000468725
-0.000637717
-0.00080338
-0.000961027
-0.00110678
-0.00123751
-0.0013507
-0.0014444
-0.00151708
-0.00156755
-0.00159491
-0.00159847
-0.0015777
-0.0015322
-0.00146171
-0.00136602
-0.00124505
-0.00109881
-0.000927441
-0.000731199
-0.00051051
-0.000265979
1.57938e-06
0.000291119
0.000601338
0.000930659
0.00127721
0.00163882
0.00201301
0.002397
0.00278771
0.00318179
0.00357567
0.00396556
0.00434753
0.00471756
0.00507158
0.00540558
0.00571569
0.00599822
0.00624979
0.00646739
0.00664846
0.00679098
0.00689351
0.00695527
0.0069762
0.00695693
0.00689888
0.00680417
0.0066757
0.00651705
0.00633244
0.00612673
0.00590531
0.005674
0.00543903
0.00520689
0.00498424
0.00477774
0.00459402
0.00443935
0.00431917
0.00423852
0.00420749
0.00423276
0.000461684
0.000373085
0.000264482
0.000136767
-7.61531e-06
-0.000162499
-0.000322111
-0.000481446
-0.000636092
-0.000782247
-0.000916729
-0.00103693
-0.00114073
-0.00122645
-0.00129276
-0.0013386
-0.00136315
-0.00136576
-0.00134591
-0.00130319
-0.0012373
-0.00114801
-0.00103518
-0.000898756
-0.000738811
-0.000555529
-0.000349247
-0.000120479
0.000130066
0.000401456
0.000692515
0.0010018
0.00132759
0.00166787
0.00202032
0.00238233
0.00275102
0.00312323
0.00349555
0.00386441
0.00422606
0.00457666
0.00491234
0.00522925
0.00552368
0.00579209
0.00603124
0.00623823
0.00641062
0.00654644
0.00664432
0.00670353
0.00672399
0.00670633
0.00665189
0.00656274
0.00644161
0.00629194
0.00611773
0.00592356
0.00571449
0.00549597
0.00527374
0.00505376
0.00484209
0.00464475
0.00446765
0.00431643
0.00419604
0.00411125
0.00407085
0.0040807
0.000700048
0.000568022
0.000432847
0.000290792
0.000138842
-1.82312e-05
-0.00017582
-0.000330178
-0.000477969
-0.000616265
-0.000742594
-0.000854907
-0.000951534
-0.00103113
-0.0010926
-0.00113507
-0.00115785
-0.00116035
-0.00114209
-0.00110268
-0.00104179
-0.000959166
-0.000854605
-0.000727997
-0.000579325
-0.000408688
-0.000216323
-2.63251e-06
0.000231795
0.000486155
0.00075941
0.00105026
0.00135714
0.00167818
0.00201124
0.00235386
0.00270332
0.00305663
0.00341054
0.00376163
0.00410629
0.00444083
0.00476149
0.00506456
0.0053464
0.00560359
0.00583294
0.00603162
0.00619721
0.0063278
0.00642201
0.00647911
0.006499
0.00648226
0.00643016
0.00634469
0.00622847
0.00608477
0.00591742
0.00573077
0.00552959
0.00531901
0.00510438
0.00489123
0.00468511
0.0044915
0.00431574
0.00416288
0.00403748
0.00394394
0.00388876
0.0038757
0.000958182
0.000779412
0.000613861
0.000453304
0.000289366
0.000125652
-3.4212e-05
-0.000187624
-0.000332248
-0.000465995
-0.000587092
-0.000694069
-0.000785721
-0.000861065
-0.000919299
-0.000959762
-0.000981897
-0.000985227
-0.000969332
-0.000933841
-0.000878418
-0.00080277
-0.000706649
-0.00058987
-0.000452326
-0.000294015
-0.000115062
8.42565e-05
0.000303484
0.000541958
0.000798787
0.00107283
0.00136266
0.00166658
0.00198258
0.00230838
0.00264139
0.00297876
0.00331737
0.00365392
0.00398491
0.00430673
0.0046157
0.00490816
0.00518054
0.00542942
0.00565164
0.00584437
0.00600518
0.00613213
0.00622383
0.00627946
0.00629889
0.00628264
0.0062319
0.00614855
0.00603511
0.00589471
0.00573104
0.00554825
0.00535089
0.00514382
0.00493209
0.00472086
0.00451528
0.0043204
0.00414109
0.0039819
0.00384709
0.00374068
0.00366637
0.00362537
0.00122396
0.000997114
0.00079893
0.000617014
0.000437881
0.00026417
9.8673e-05
-5.70372e-05
-0.00020155
-0.000333568
-0.000451996
-0.000555934
-0.00064465
-0.000717542
-0.000774109
-0.000813919
-0.000836585
-0.000841749
-0.000829062
-0.000798183
-0.000748775
-0.000680513
-0.000593093
-0.00048625
-0.000359783
-0.000213578
-4.76345e-05
0.000137906
0.000342733
0.000566333
0.000807973
0.00106666
0.00134114
0.00162986
0.00193097
0.00224231
0.00256144
0.00288561
0.00321182
0.00353684
0.00385725
0.00416949
0.00446991
0.00475486
0.00502076
0.00526418
0.00548191
0.00567106
0.00582916
0.00595418
0.00604464
0.00609967
0.00611903
0.00610315
0.00605313
0.00597075
0.00585842
0.00571917
0.00555652
0.00537449
0.00517745
0.00497004
0.00475709
0.00454347
0.00433404
0.00413349
0.00394632
0.00377669
0.00362861
0.00350582
0.00340904
0.00333687
0.00148712
0.00121198
0.000979991
0.000774885
0.000578334
0.000392174
0.00021849
5.79236e-05
-8.89662e-05
-0.000221622
-0.000339595
-0.000442539
-0.000530185
-0.000602313
-0.000658728
-0.000699238
-0.000723635
-0.000731683
-0.000723112
-0.000697617
-0.000654859
-0.00059448
-0.000516115
-0.000419416
-0.000304079
-0.000169867
-1.66462e-05
0.000155589
0.000346681
0.000556281
0.000783815
0.00102846
0.00128911
0.00156437
0.00185254
0.00215159
0.00245919
0.0027727
0.0030892
0.00340553
0.00371828
0.00402392
0.0043188
0.00459922
0.00486157
0.00510232
0.00531819
0.0055062
0.00566374
0.00578867
0.00587941
0.00593494
0.00595491
0.00593962
0.00589008
0.00580793
0.0056955
0.00555568
0.0053919
0.00520804
0.00500835
0.00479732
0.00457958
0.00435982
0.00414267
0.00393259
0.00373377
0.0035501
0.00338544
0.00324332
0.00312157
0.00301623
0.00173868
0.00141574
0.00114955
0.000920186
0.000704754
0.000504411
0.000320635
0.000153225
1.9523e-06
-0.000133315
-0.000252736
-0.000356495
-0.000444771
-0.000517716
-0.000575438
-0.000617983
-0.00064532
-0.000657341
-0.000653853
-0.000634583
-0.000599191
-0.00054728
-0.000478421
-0.000392176
-0.000288129
-0.000165912
-2.52476e-05
0.000134027
0.000311918
0.000508246
0.000722607
0.000954347
0.00120253
0.0014659
0.00174291
0.00203165
0.00232991
0.00263513
0.00294446
0.00325476
0.00356265
0.00386456
0.00415682
0.00443565
0.00469733
0.00493825
0.00515497
0.00534435
0.00550365
0.00563055
0.00572329
0.00578071
0.00580229
0.00578818
0.00573924
0.00565701
0.00554369
0.00540206
0.00523546
0.00504768
0.00484285
0.00462536
0.00439976
0.00417058
0.00394232
0.00371929
0.0035055
0.00330462
0.00312051
0.0029566
0.00280795
0.00266823
0.0019707
0.00160091
0.00130063
0.00104651
0.000811319
0.000595629
0.000400387
0.000224619
6.73701e-05
-7.21355e-05
-0.00019463
-0.000300797
-0.000391243
-0.000466479
-0.000526904
-0.000572793
-0.000604289
-0.000621402
-0.000624012
-0.000611877
-0.000584646
-0.000541882
-0.000483082
-0.000407712
-0.000315232
-0.000205138
-7.69961e-05
6.95212e-05
0.000234595
0.000418224
0.000620183
0.000839991
0.00107688
0.00132976
0.00159721
0.00187746
0.0021684
0.00246753
0.00277206
0.00307887
0.00338458
0.00368556
0.00397806
0.00425821
0.00452216
0.00476613
0.0049865
0.00517995
0.0053435
0.00547465
0.00557142
0.00563242
0.00565695
0.00564498
0.00559719
0.00551499
0.00540042
0.00525619
0.00508554
0.00489218
0.00468018
0.00445388
0.00421775
0.0039763
0.00373395
0.00349494
0.00326322
0.00304235
0.00283627
0.00264847
0.00247138
0.00229646
0.00217603
0.00176058
0.0014267
0.00114776
0.000892381
0.000660627
0.000452971
0.000267723
0.000103251
-4.18242e-05
-0.000168771
-0.000278744
-0.000372756
-0.000451656
-0.000516118
-0.000566633
-0.000603507
-0.000626859
-0.000636634
-0.00063261
-0.000614422
-0.000581579
-0.0005335
-0.000469542
-0.000389038
-0.000291334
-0.00017583
-4.20226e-05
0.000110453
0.000281782
0.000471928
0.000680592
0.000907181
0.00115077
0.00141008
0.00168347
0.00196892
0.00226401
0.00256599
0.00287173
0.00317783
0.00348061
0.0037762
0.00406061
0.0043298
0.00457979
0.00480676
0.00500714
0.00517769
0.00531564
0.00541876
0.0054854
0.0055146
0.00550613
0.00546046
0.00537882
0.00526313
0.00511596
0.00494047
0.00474032
0.00451955
0.00428248
0.00403358
0.00377738
0.00351831
0.00326066
0.00300835
0.00276498
0.00253469
0.00232113
0.00211427
0.00190347
0.00234812
0.0018884
0.00152165
0.00121812
0.000942468
0.000694283
0.000473605
0.000278071
0.000105413
-4.63123e-05
-0.000178881
-0.000293892
-0.000392737
-0.000476582
-0.000546358
-0.000602759
-0.000646234
-0.000677002
-0.000695059
-0.000700193
-0.000692014
-0.000669971
-0.000633392
-0.000581518
-0.00051354
-0.000428646
-0.000326059
-0.000205091
-6.51799e-05
9.40568e-05
0.000272781
0.000470887
0.000687965
0.000923261
0.00117565
0.00144362
0.00172523
0.00201817
0.00231969
0.00262668
0.00293568
0.00324293
0.00354444
0.00383606
0.00411354
0.00437267
0.00460937
0.00481976
0.00500031
0.00514793
0.00526007
0.00533478
0.00537081
0.00536763
0.00532551
0.00524544
0.00512919
0.0049792
0.00479855
0.00459084
0.00436012
0.00411072
0.00384718
0.0035741
0.00329601
0.0030173
0.00274201
0.00247386
0.00221728
0.00197623
0.00173833
0.00149092
0.00248089
0.00197838
0.0015797
0.00125205
0.000956291
0.000691579
0.000457537
0.000251164
6.95901e-05
-8.96648e-05
-0.000228853
-0.000349992
-0.000454829
-0.000544825
-0.000621149
-0.000684675
-0.000735984
-0.000775377
-0.000802887
-0.000818303
-0.000821195
-0.000810943
-0.000786772
-0.000747795
-0.000693052
-0.000621558
-0.000532353
-0.000424546
-0.00029737
-0.000150232
1.72411e-05
0.00020515
0.00041328
0.000641059
0.000887524
0.00115129
0.00143055
0.00172303
0.00202605
0.00233647
0.00265079
0.00296515
0.00327542
0.00357726
0.00386618
0.00413772
0.00438746
0.00461121
0.00480507
0.00496558
0.00508981
0.00517544
0.00522089
0.00522529
0.00518862
0.00511162
0.00499587
0.00484366
0.00465798
0.0044424
0.00420096
0.00393807
0.00365838
0.0033666
0.00306746
0.00276554
0.00246508
0.00217001
0.00188517
0.00161492
0.00134464
0.00105973
0.00256861
0.00202491
0.00159536
0.00124423
0.000928745
0.000647615
0.000400074
0.000182508
-8.52895e-06
-0.000176028
-0.000322694
-0.000450938
-0.000562839
-0.000660133
-0.000744204
-0.000816088
-0.00087648
-0.000925746
-0.000963945
-0.00099085
-0.00100598
-0.00100863
-0.000997917
-0.000972807
-0.000932181
-0.000874869
-0.000799711
-0.000705606
-0.000591565
-0.000456769
-0.00030062
-0.000122797
7.66971e-05
0.000297487
0.000538784
0.000799359
0.00107751
0.00137106
0.00167736
0.00199327
0.00231524
0.00263931
0.00296118
0.0032763
0.00357994
0.0038673
0.00413364
0.00437437
0.00458518
0.00476218
0.00490199
0.00500189
0.00505983
0.00507461
0.00504582
0.00497394
0.00486028
0.00470697
0.00451689
0.00429356
0.00404108
0.00376392
0.00346689
0.00315492
0.00283296
0.00250587
0.00217819
0.00185415
0.00153913
0.00123796
0.00093383
0.000610223
0.00260587
0.00202267
0.00156342
0.0011896
0.000854907
0.00055763
0.000296616
6.76567e-05
-0.00013325
-0.000309582
-0.000464477
-0.000600716
-0.000720689
-0.000826383
-0.00091938
-0.00100086
-0.00107161
-0.00113205
-0.00118224
-0.00122194
-0.00125059
-0.00126739
-0.00127133
-0.00126123
-0.0012358
-0.00119366
-0.00113344
-0.00105382
-0.000953562
-0.000831616
-0.000687139
-0.000519568
-0.000328678
-0.000114627
0.000121991
0.000380114
0.000658178
0.000954104
0.00126529
0.00158861
0.00192045
0.00225675
0.00259306
0.00292458
0.00324632
0.00355313
0.00383986
0.0041015
0.00433327
0.00453078
0.00469015
0.00480814
0.00488223
0.00491073
0.00489285
0.00482869
0.00471928
0.00456654
0.00437321
0.00414278
0.00387935
0.00358756
0.00327237
0.00293897
0.00259266
0.00223863
0.0018818
0.00152682
0.00117965
0.000845745
0.000506093
0.000142245
0.00258752
0.00196658
0.00147893
0.00108331
0.000730048
0.000417019
0.000142677
-9.77605e-05
-0.000308835
-0.000494496
-0.00065829
-0.00080335
-0.000932357
-0.00104753
-0.00115063
-0.00124295
-0.00132538
-0.00139835
-0.00146193
-0.00151581
-0.00155939
-0.00159174
-0.00161171
-0.00161796
-0.00160899
-0.00158324
-0.00153911
-0.00147501
-0.00138947
-0.00128118
-0.00114903
-0.000992184
-0.000810177
-0.000602927
-0.000370805
-0.000114683
0.000164036
0.000463391
0.00078085
0.00111331
0.00145713
0.00180813
0.00216169
0.00251279
0.00285611
0.00318616
0.00349734
0.00378415
0.00404128
0.00426378
0.00444718
0.00458765
0.00468211
0.00472833
0.00472501
0.00467183
0.00456946
0.00441956
0.00422471
0.00398832
0.00371455
0.00340816
0.00307435
0.00271862
0.00234664
0.00196406
0.00157625
0.00118834
0.00080703
0.000438445
6.13469e-05
-0.000344692
0.00250866
0.00185186
0.00133717
0.00092073
0.00054964
0.000221345
-6.6086e-05
-0.000318001
-0.000539466
-0.000734882
-0.00090819
-0.00106286
-0.00120183
-0.00132756
-0.00144194
-0.00154639
-0.00164185
-0.00172878
-0.00180723
-0.00187683
-0.00193687
-0.00198632
-0.00202388
-0.00204801
-0.00205703
-0.00204914
-0.00202249
-0.00197526
-0.00190568
-0.00181217
-0.00169332
-0.00154803
-0.00137553
-0.00117549
-0.000948027
-0.000693786
-0.000413983
-0.00011043
0.00021444
0.00055757
0.000915287
0.00128334
0.00165692
0.00203079
0.0023993
0.00275654
0.00309647
0.00341304
0.00370034
0.00395279
0.00416525
0.00433321
0.00445293
0.00452152
0.00453712
0.00449887
0.00440702
0.0042629
0.00406888
0.00382828
0.00354529
0.00322481
0.0028723
0.00249364
0.00209492
0.00168233
0.00126178
0.000838984
0.000421437
1.60601e-05
-0.000400691
-0.000851306
0.00236462
0.00167393
0.00113367
0.000697472
0.000309366
-3.36332e-05
-0.000333849
-0.00059718
-0.000829202
-0.00103476
-0.00121816
-0.00138319
-0.00153307
-0.00167041
-0.00179728
-0.00191519
-0.00202511
-0.00212751
-0.00222241
-0.00230937
-0.00238757
-0.00245585
-0.00251274
-0.00255651
-0.00258527
-0.00259698
-0.00258953
-0.0025608
-0.00250877
-0.0024315
-0.00232731
-0.00219477
-0.00203281
-0.00184078
-0.00161852
-0.00136642
-0.00108546
-0.000777277
-0.000444164
-8.91054e-05
0.000284234
0.000671527
0.00106783
0.00146764
0.00186499
0.00225356
0.00262679
0.00297804
0.00330075
0.00358861
0.00383573
0.00403683
0.00418738
0.00428376
0.00432338
0.0043048
0.00422773
0.00409309
0.00390296
0.00366055
0.00337003
0.00303648
0.00266563
0.00226376
0.0018375
0.0013936
0.000938623
0.000478944
2.29758e-05
-0.000421488
-0.000880407
-0.00137845
0.002151
0.0014285
0.000864203
0.000409388
5.14169e-06
-0.000351947
-0.000664592
-0.000939237
-0.00118195
-0.00139799
-0.00159205
-0.00176821
-0.00192991
-0.00207997
-0.00222057
-0.00235331
-0.00247918
-0.00259866
-0.0027117
-0.00281779
-0.002916
-0.00300502
-0.00308319
-0.00314861
-0.00319913
-0.00323246
-0.00324621
-0.00323799
-0.00320542
-0.00314627
-0.00305849
-0.00294032
-0.00279033
-0.00260755
-0.00239147
-0.00214219
-0.00186042
-0.00154757
-0.00120574
-0.000837806
-0.000447393
-3.8866e-05
0.0003827
0.000811575
0.00124146
0.0016656
0.00207689
0.00246806
0.00283183
0.00316108
0.00344908
0.00368964
0.00387736
0.00400774
0.00407736
0.00408404
0.00402685
0.0039062
0.00372382
0.00348272
0.00318704
0.002842
0.00245364
0.00202869
0.00157434
0.00109803
0.000607019
0.000108454
-0.000388233
-0.000874276
-0.0013782
-0.00192699
0.00186363
0.00111152
0.000524831
5.25875e-05
-0.00036687
-0.000737388
-0.00106207
-0.0013479
-0.00160141
-0.00182829
-0.00203357
-0.00222161
-0.00239608
-0.00255998
-0.0027156
-0.00286459
-0.00300798
-0.00314622
-0.00327922
-0.00340636
-0.00352659
-0.00363844
-0.00374008
-0.00382937
-0.00390393
-0.0039612
-0.00399851
-0.00401313
-0.00400235
-0.00396358
-0.0038944
-0.00379266
-0.00365656
-0.00348473
-0.0032763
-0.00303101
-0.00274924
-0.00243212
-0.00208152
-0.00170016
-0.00129156
-0.000860079
-0.000410903
5.00377e-05
0.000516121
0.000980143
0.00143444
0.00187107
0.00228195
0.00265908
0.00299478
0.00328186
0.00351388
0.00368533
0.00379183
0.0038303
0.00379904
0.00369783
0.00352794
0.00329209
0.00299437
0.00264009
0.00223561
0.00178813
0.00130548
0.000795844
0.000267299
-0.000272167
-0.000811983
-0.0013423
-0.0018944
-0.00249776
0.00149865
0.000719257
0.000111881
-0.000376537
-0.000810233
-0.00119348
-0.0015298
-0.00182665
-0.00209107
-0.00232912
-0.00254618
-0.00274687
-0.00293509
-0.00311398
-0.00328594
-0.00345268
-0.00361524
-0.00377404
-0.00392891
-0.00407916
-0.00422359
-0.00436056
-0.00448804
-0.00460369
-0.00470486
-0.00478872
-0.00485226
-0.00489243
-0.00490616
-0.00489047
-0.00484253
-0.00475977
-0.00463997
-0.00448131
-0.00428252
-0.00404291
-0.00376249
-0.00344202
-0.00308311
-0.00268821
-0.00226071
-0.00180492
-0.00132607
-0.000830261
-0.000324421
0.000183806
0.000686181
0.00117403
0.00163844
0.00207045
0.00246129
0.00280267
0.00308696
0.00330748
0.00345873
0.00353655
0.00353831
0.00346302
0.00331135
0.00308564
0.00278982
0.00242929
0.0020107
0.00154177
0.001031
0.000487385
-8.00782e-05
-0.000662452
-0.0012479
-0.00182539
-0.00242917
-0.0030914
0.0010525
0.000248254
-0.000378005
-0.00088129
-0.00132821
-0.00172347
-0.00207098
-0.00237871
-0.00265413
-0.0029037
-0.0031331
-0.00334724
-0.0035502
-0.00374527
-0.00393495
-0.00412099
-0.00430444
-0.00448568
-0.00466447
-0.00484001
-0.00501097
-0.00517553
-0.00533148
-0.00547621
-0.00560684
-0.00572021
-0.00581302
-0.00588183
-0.0059232
-0.00593373
-0.00591015
-0.00584943
-0.00574887
-0.00560618
-0.00541958
-0.00518793
-0.00491078
-0.00458848
-0.00422224
-0.00381424
-0.00336764
-0.00288662
-0.0023764
-0.00184322
-0.00129426
-0.000737585
-0.000182027
0.000363
0.000887674
0.00138199
0.00183604
0.00224022
0.00258561
0.00286416
0.00306906
0.0031949
0.00323792
0.00319616
0.00306956
0.00285992
0.00257093
0.002208
0.00177806
0.00128933
0.000751055
0.00017313
-0.000434461
-0.00106171
-0.0016954
-0.00232314
-0.00298244
-0.00370833
0.000521934
-0.000304587
-0.000947853
-0.00146465
-0.00192374
-0.00233028
-0.00268853
-0.00300697
-0.00329349
-0.00355492
-0.00379725
-0.00402564
-0.00424437
-0.00445684
-0.00466565
-0.0048726
-0.00507872
-0.00528437
-0.00548923
-0.00569238
-0.00589235
-0.00608716
-0.00627437
-0.00645116
-0.00661435
-0.0067605
-0.00688593
-0.00698686
-0.00705941
-0.00709975
-0.00710414
-0.00706904
-0.00699122
-0.00686786
-0.00669664
-0.00647586
-0.00620455
-0.00588255
-0.00551064
-0.00509059
-0.00462527
-0.00411864
-0.00357584
-0.00300316
-0.00240802
-0.00179885
-0.00118506
-0.000576828
1.5084e-05
0.000579557
0.00110539
0.00158161
0.00199777
0.00234432
0.00261288
0.00279659
0.00289033
0.00289099
0.00279752
0.00261107
0.00233493
0.00197443
0.00153673
0.00103057
0.000465952
-0.000146247
-0.000794952
-0.00146898
-0.00215354
-0.00283481
-0.00355377
-0.00434861
-9.58853e-05
-0.000942005
-0.00160033
-0.00212923
-0.00259942
-0.00301645
-0.003385
-0.00371397
-0.0040117
-0.00428534
-0.0045412
-0.00478466
-0.00502018
-0.0052513
-0.00548069
-0.00571019
-0.00594083
-0.00617292
-0.00640607
-0.00663926
-0.00687086
-0.00709872
-0.00732021
-0.00753224
-0.00773136
-0.00791381
-0.00807557
-0.00821244
-0.00832013
-0.00839433
-0.00843078
-0.0084254
-0.0083744
-0.00827435
-0.00812232
-0.00791599
-0.00765377
-0.00733494
-0.00695971
-0.00652938
-0.00604638
-0.0055144
-0.0049384
-0.00432464
-0.00368066
-0.00301526
-0.00233838
-0.00166094
-0.000994691
-0.000351923
0.000254787
0.000812925
0.00131039
0.00173587
0.00207924
0.00233191
0.00248718
0.00254047
0.00248957
0.00233474
0.0020787
0.00172659
0.00128571
0.000765291
0.000176139
-0.00046983
-0.00116034
-0.00188291
-0.00262102
-0.00335923
-0.00414232
-0.00501189
-0.000803413
-0.00166634
-0.0023377
-0.00287727
-0.00335745
-0.00378421
-0.00416257
-0.00450191
-0.00481093
-0.00509714
-0.00536711
-0.00562645
-0.0058798
-0.00613081
-0.00638225
-0.00663596
-0.006893
-0.00715362
-0.00741736
-0.00768308
-0.00794904
-0.0082129
-0.00847182
-0.00872246
-0.00896111
-0.00918366
-0.00938574
-0.00956274
-0.00970991
-0.00982244
-0.00989553
-0.00992452
-0.00990498
-0.00983283
-0.00970445
-0.00951684
-0.00926772
-0.00895566
-0.00858024
-0.00814215
-0.00764332
-0.007087
-0.00647788
-0.00582207
-0.00512719
-0.00440228
-0.00365776
-0.0029053
-0.00215762
-0.00142823
-0.000731184
-8.06577e-05
0.000509407
0.00102575
0.00145622
0.00179024
0.0020192
0.00213682
0.00213941
0.00202608
0.00179879
0.00146228
0.00102392
0.000493379
-0.000117741
-0.000796409
-0.00152905
-0.00230173
-0.00309604
-0.00389474
-0.00474672
-0.00569725
-0.00160266
-0.00247953
-0.00316184
-0.0037106
-0.00419965
-0.00463532
-0.00502303
-0.00537254
-0.00569294
-0.00599205
-0.0062767
-0.00655273
-0.00682492
-0.00709707
-0.00737199
-0.00765159
-0.0079369
-0.00822815
-0.0085248
-0.00882563
-0.00912874
-0.00943164
-0.00973126
-0.0100241
-0.010306
-0.0105727
-0.0108193
-0.011041
-0.0112323
-0.011388
-0.0115028
-0.0115713
-0.0115884
-0.0115493
-0.0114498
-0.0112859
-0.0110546
-0.0107537
-0.010382
-0.00993956
-0.00942758
-0.00884879
-0.00820745
-0.00750943
-0.00676227
-0.00597518
-0.00515899
-0.00432603
-0.00348999
-0.00266565
-0.00186856
-0.00111471
-0.000420054
0.000199976
0.000730956
0.00116001
0.0014763
0.00167148
0.00174007
0.00167972
0.00149135
0.00117911
0.000750251
0.000214811
-0.00041481
-0.00112442
-0.00189905
-0.00272316
-0.00357624
-0.00443904
-0.00536494
-0.00640315
-0.00249518
-0.00338303
-0.00407418
-0.00463063
-0.0051274
-0.00557118
-0.00596773
-0.00632721
-0.00665904
-0.00697135
-0.00727123
-0.0075647
-0.00785672
-0.00815119
-0.00845101
-0.00875812
-0.00907355
-0.00939751
-0.0097294
-0.0100679
-0.010411
-0.010756
-0.0110997
-0.0114383
-0.0117674
-0.0120824
-0.0123781
-0.0126491
-0.0128896
-0.0130938
-0.0132556
-0.0133692
-0.0134287
-0.0134285
-0.0133635
-0.013229
-0.013021
-0.0127366
-0.0123735
-0.0119309
-0.0114094
-0.0108109
-0.0101392
-0.00939975
-0.00859981
-0.00774865
-0.00685742
-0.00593903
-0.00500808
-0.0040806
-0.00317372
-0.00230532
-0.00149352
-0.000756159
-0.000110207
0.000428834
0.000847541
0.00113513
0.00128393
0.00128977
0.00115217
0.000874452
0.000463537
-7.0302e-05
-0.00071391
-0.0014519
-0.00226778
-0.00314429
-0.00405857
-0.00498914
-0.00599421
-0.00712726
-0.00348202
-0.00437785
-0.0050757
-0.00563832
-0.00614165
-0.00659271
-0.00699759
-0.0073668
-0.00771009
-0.00803586
-0.00835143
-0.00866304
-0.00897579
-0.0092937
-0.00961974
-0.00995591
-0.0103032
-0.0106619
-0.0110313
-0.01141
-0.0117958
-0.012186
-0.0125772
-0.0129652
-0.0133455
-0.0137132
-0.0140625
-0.0143878
-0.0146827
-0.0149408
-0.0151555
-0.0153202
-0.0154283
-0.0154733
-0.0154492
-0.0153504
-0.015172
-0.01491
-0.0145612
-0.0141237
-0.0135973
-0.012983
-0.0122838
-0.0115046
-0.0106524
-0.00973627
-0.0087675
-0.00775949
-0.00672766
-0.00568926
-0.00466301
-0.00366874
-0.00272688
-0.00185788
-0.00108156
-0.000416361
0.0001213
0.000517771
0.000762756
0.000849815
0.000776706
0.00054552
0.000162614
-0.000361684
-0.00101355
-0.00177638
-0.00263208
-0.00356149
-0.00453917
-0.00554116
-0.00663089
-0.00786636
-0.00456373
-0.00546453
-0.00616692
-0.00673419
-0.0072429
-0.00770039
-0.00811306
-0.00849172
-0.00884642
-0.00918584
-0.00951751
-0.00984785
-0.0101821
-0.0105245
-0.0108779
-0.0112446
-0.0116255
-0.0120207
-0.0124298
-0.012851
-0.0132823
-0.0137207
-0.0141626
-0.0146037
-0.0150393
-0.0154638
-0.0158716
-0.0162561
-0.0166108
-0.0169286
-0.0172022
-0.0174243
-0.0175874
-0.0176844
-0.0177082
-0.0176521
-0.0175102
-0.0172774
-0.0169494
-0.0165233
-0.0159975
-0.0153723
-0.0146496
-0.0138337
-0.0129308
-0.0119499
-0.0109022
-0.00980133
-0.0086635
-0.00750704
-0.00635224
-0.00522094
-0.00413597
-0.0031206
-0.00219772
-0.00138912
-0.000714597
-0.000191148
0.0001678
0.000353044
0.000360083
0.000189377
-0.000153642
-0.000658831
-0.00131182
-0.00209482
-0.00298806
-0.00397031
-0.00501329
-0.00609026
-0.00727027
-0.00861616
-0.00574032
-0.00664308
-0.00734787
-0.00791828
-0.00843121
-0.00889427
-0.00931414
-0.00970192
-0.0100679
-0.0104211
-0.0107691
-0.0111186
-0.0114751
-0.0118427
-0.0122246
-0.0126229
-0.0130388
-0.0134724
-0.013923
-0.0143891
-0.0148684
-0.0153578
-0.0158536
-0.0163513
-0.0168459
-0.0173317
-0.0178024
-0.0182514
-0.0186712
-0.0190545
-0.0193932
-0.0196792
-0.0199043
-0.0200604
-0.0201393
-0.0201334
-0.0200357
-0.0198396
-0.0195397
-0.019132
-0.0186135
-0.0179833
-0.0172424
-0.0163938
-0.0154433
-0.0143991
-0.0132723
-0.0120765
-0.0108287
-0.00954793
-0.00825614
-0.00697709
-0.00573612
-0.00455943
-0.0034733
-0.00250315
-0.00167261
-0.00100255
-0.000510054
-0.000207687
-0.000102767
-0.000196978
-0.000486248
-0.00096094
-0.00160634
-0.00240354
-0.00333103
-0.00436535
-0.0054751
-0.00663047
-0.00790651
-0.00937119
-0.00701126
-0.00791304
-0.00861814
-0.0091902
-0.00970618
-0.0101739
-0.0106004
-0.0109968
-0.0113739
-0.0117407
-0.0121053
-0.0124742
-0.0128533
-0.0132468
-0.0136579
-0.0140889
-0.014541
-0.0150143
-0.0155082
-0.0160211
-0.0165506
-0.0170937
-0.0176463
-0.018204
-0.0187614
-0.0193125
-0.0198507
-0.0203689
-0.0208593
-0.0213138
-0.0217238
-0.0220804
-0.0223745
-0.022597
-0.0227388
-0.022791
-0.0227453
-0.0225941
-0.0223306
-0.021949
-0.0214455
-0.0208174
-0.0200645
-0.0191889
-0.018195
-0.0170904
-0.0158857
-0.0145945
-0.0132338
-0.0118238
-0.0103876
-0.0089509
-0.00754152
-0.00618873
-0.00492238
-0.00377189
-0.00276516
-0.00192742
-0.00128007
-0.000839667
-0.000616993
-0.000616499
-0.000836006
-0.00126681
-0.00189412
-0.00269804
-0.00365531
-0.00474009
-0.00591755
-0.00715449
-0.00853235
-0.0101245
-0.00837551
-0.00927345
-0.00997683
-0.0105491
-0.011067
-0.0115385
-0.0119708
-0.0123755
-0.0127633
-0.0131436
-0.0135245
-0.013913
-0.0143148
-0.0147344
-0.0151753
-0.0156396
-0.0161288
-0.0166429
-0.0171814
-0.0177427
-0.0183244
-0.0189233
-0.0195355
-0.0201561
-0.0207796
-0.0213998
-0.0220098
-0.022602
-0.0231682
-0.0236996
-0.024187
-0.0246207
-0.0249908
-0.0252872
-0.0254996
-0.0256181
-0.025633
-0.0255352
-0.0253166
-0.02497
-0.0244898
-0.023872
-0.0231147
-0.0222186
-0.0211871
-0.0200266
-0.0187468
-0.0173611
-0.0158866
-0.0143438
-0.0127571
-0.0111539
-0.00956454
-0.00802137
-0.00655797
-0.00520803
-0.00400415
-0.00297648
-0.00215137
-0.00155008
-0.00118763
-0.00107193
-0.00120337
-0.0015747
-0.00217145
-0.00297291
-0.00395411
-0.00508672
-0.00633218
-0.00765353
-0.009139
-0.0108677
-0.00983145
-0.0107229
-0.0114226
-0.0119937
-0.0125123
-0.0129867
-0.0134242
-0.0138364
-0.0142344
-0.0146277
-0.0150246
-0.0154324
-0.0158568
-0.0163025
-0.0167732
-0.0172712
-0.0177978
-0.0183534
-0.0189374
-0.0195483
-0.0201837
-0.0208403
-0.0215141
-0.0222002
-0.0228928
-0.0235856
-0.0242712
-0.0249418
-0.0255886
-0.0262022
-0.0267729
-0.0272902
-0.0277432
-0.0281207
-0.0284116
-0.0286046
-0.0286887
-0.0286534
-0.0284888
-0.0281864
-0.0277387
-0.0271401
-0.0263871
-0.0254786
-0.0244165
-0.0232059
-0.0218556
-0.0203782
-0.0187904
-0.0171131
-0.0153714
-0.0135945
-0.0118149
-0.010068
-0.00839126
-0.00682284
-0.00540044
-0.00415967
-0.00313252
-0.00234571
-0.00181932
-0.00156561
-0.00158827
-0.00188218
-0.0024337
-0.00322163
-0.00421936
-0.005396
-0.00670893
-0.00811707
-0.00971584
-0.0115903
-0.011377
-0.0122594
-0.0129537
-0.0135223
-0.0140407
-0.0145169
-0.0149587
-0.0153777
-0.0157852
-0.0161908
-0.0166031
-0.0170294
-0.0174759
-0.0179473
-0.0184474
-0.0189787
-0.0195428
-0.02014
-0.0207699
-0.0214311
-0.0221211
-0.0228367
-0.0235738
-0.0243273
-0.0250916
-0.0258598
-0.0266244
-0.0273772
-0.028109
-0.0288098
-0.0294692
-0.030076
-0.0306184
-0.0310843
-0.0314613
-0.031737
-0.0318989
-0.031935
-0.0318339
-0.0315853
-0.0311798
-0.0306102
-0.0298709
-0.0289591
-0.0278749
-0.0266218
-0.0252072
-0.0236425
-0.021944
-0.0201325
-0.0182335
-0.0162774
-0.0142989
-0.0123363
-0.0104309
-0.00862546
-0.00696319
-0.00548563
-0.00423105
-0.0032325
-0.00251602
-0.00209916
-0.00198985
-0.00218593
-0.0026752
-0.00343639
-0.00444149
-0.00565698
-0.0070359
-0.00853265
-0.0102502
-0.0122798
-0.0130095
-0.0138808
-0.0145681
-0.015133
-0.0156499
-0.0161271
-0.0165722
-0.0169971
-0.017413
-0.01783
-0.0182566
-0.0187005
-0.0191679
-0.019664
-0.0201926
-0.0207565
-0.0213574
-0.0219958
-0.0226713
-0.0233827
-0.0241276
-0.0249028