/*--------------------------------*- C++ -*----------------------------------*\
  =========                 |
  \\      /  F ield         | OpenFOAM: The Open Source CFD Toolbox
   \\    /   O peration     | Website:  https://openfoam.org
    \\  /    A nd           | Version:  dev
     \\/     M anipulation  |
\*---------------------------------------------------------------------------*/
FoamFile
{
    format      ascii;
    class       surfaceScalarField;
    location    "37.8";
    object      phi;
}
// * * * * * * * * * * * * * * * * * * * * * * * * * * * * * * * * * * * * * //

dimensions      [0 3 -1 0 0 0 0];

internalField   nonuniform List<scalar> 
10224
(
3.38492e-08
-3.48449e-08
8.7904e-08
-5.40539e-08
1.2447e-07
-3.65676e-08
1.25439e-07
-9.70923e-10
8.38124e-08
4.1627e-08
-1.68532e-09
8.54992e-08
-1.29228e-07
1.27544e-07
-2.95514e-07
1.66286e-07
-4.9648e-07
2.00966e-07
-7.27825e-07
2.31344e-07
-9.85275e-07
2.57451e-07
-1.26474e-06
2.79464e-07
-1.56238e-06
2.97638e-07
-1.87463e-06
3.12255e-07
-2.19823e-06
3.23601e-07
-2.53018e-06
3.31943e-07
-2.86769e-06
3.37516e-07
-3.20821e-06
3.40522e-07
-3.54933e-06
3.41121e-07
-3.88877e-06
3.39437e-07
-4.22432e-06
3.35555e-07
-4.55385e-06
3.29527e-07
-4.87523e-06
3.21379e-07
-5.18634e-06
3.11113e-07
-5.48506e-06
2.98716e-07
-5.76922e-06
2.84169e-07
-6.03667e-06
2.67448e-07
-6.28521e-06
2.48538e-07
-6.51264e-06
2.27433e-07
-6.71679e-06
2.04149e-07
-6.89551e-06
1.78722e-07
-7.04673e-06
1.5122e-07
-7.16847e-06
1.21746e-07
-7.25891e-06
9.04399e-08
-7.31639e-06
5.74811e-08
-7.33948e-06
2.30927e-08
-7.32703e-06
-1.24593e-08
-7.27816e-06
-4.88663e-08
-7.19238e-06
-8.57789e-08
-7.06957e-06
-1.2281e-07
-6.91003e-06
-1.59538e-07
-6.71452e-06
-1.95514e-07
-6.48425e-06
-2.30268e-07
-6.22093e-06
-2.63317e-07
-5.92675e-06
-2.94173e-07
-5.6044e-06
-3.22353e-07
-5.25701e-06
-3.47392e-07
-4.88816e-06
-3.68851e-07
-4.50183e-06
-3.86328e-07
-4.10236e-06
-3.99469e-07
-3.69438e-06
-4.07978e-07
-3.28276e-06
-4.11625e-07
-2.8725e-06
-4.10254e-07
-2.46871e-06
-4.03792e-07
-2.07646e-06
-3.92245e-07
-1.70075e-06
-3.75713e-07
-1.34637e-06
-3.54379e-07
-1.01785e-06
-3.28518e-07
-7.19364e-07
-2.98492e-07
-4.54615e-07
-2.6475e-07
-2.26787e-07
-2.2783e-07
-3.84239e-08
-1.88364e-07
1.08667e-07
-1.47092e-07
2.13549e-07
-1.04883e-07
2.76336e-07
-6.27879e-08
2.98463e-07
-2.21262e-08
2.83108e-07
1.53549e-08
2.35871e-07
4.7237e-08
1.65817e-07
7.00538e-08
8.7246e-08
7.85714e-08
2.25444e-08
6.47027e-08
2.25461e-08
5.39481e-08
-8.87935e-08
1.12496e-07
-1.12606e-07
1.18323e-07
-4.23976e-08
3.9024e-08
7.83258e-08
-1.41811e-07
2.22462e-07
-4.2951e-07
3.73199e-07
-8.22312e-07
5.20346e-07
-1.31407e-06
6.58044e-07
-1.89622e-06
7.83114e-07
-2.55895e-06
8.94068e-07
-3.29197e-06
9.90472e-07
-4.08504e-06
1.07253e-06
-4.92823e-06
1.14083e-06
-5.8121e-06
1.19612e-06
-6.72776e-06
1.23926e-06
-7.66688e-06
1.27106e-06
-8.62164e-06
1.29228e-06
-9.58472e-06
1.30359e-06
-1.05491e-05
1.30554e-06
-1.15082e-05
1.29855e-06
-1.24556e-05
1.28293e-06
-1.3385e-05
1.2589e-06
-1.42902e-05
1.22657e-06
-1.51651e-05
1.18599e-06
-1.60035e-05
1.13716e-06
-1.67994e-05
1.08005e-06
-1.75466e-05
1.01464e-06
-1.8239e-05
9.40934e-07
-1.88705e-05
8.58967e-07
-1.94352e-05
7.68856e-07
-1.99273e-05
6.70806e-07
-2.03412e-05
5.65126e-07
-2.06717e-05
4.52252e-07
-2.0914e-05
3.32752e-07
-2.10639e-05
2.07341e-07
-2.11177e-05
7.68829e-08
-2.10725e-05
-5.76058e-08
-2.09264e-05
-1.9496e-07
-2.06783e-05
-3.33872e-07
-2.03282e-05
-4.72903e-07
-1.98773e-05
-6.105e-07
-1.93278e-05
-7.45018e-07
-1.86833e-05
-8.74739e-07
-1.79487e-05
-9.97907e-07
-1.71301e-05
-1.11276e-06
-1.62349e-05
-1.21755e-06
-1.52717e-05
-1.31061e-06
-1.42502e-05
-1.39037e-06
-1.31811e-05
-1.45538e-06
-1.20762e-05
-1.50439e-06
-1.09478e-05
-1.53635e-06
-9.80901e-06
-1.55044e-06
-8.67314e-06
-1.54613e-06
-7.55377e-06
-1.52316e-06
-6.46442e-06
-1.4816e-06
-5.41831e-06
-1.42182e-06
-4.42816e-06
-1.34453e-06
-3.50593e-06
-1.25076e-06
-2.66255e-06
-1.14187e-06
-1.90772e-06
-1.01958e-06
-1.24962e-06
-8.85935e-07
-6.9464e-07
-7.43342e-07
-2.47095e-07
-5.94638e-07
9.1175e-08
-4.43153e-07
3.21251e-07
-2.92864e-07
4.47733e-07
-1.48609e-07
4.79626e-07
-1.65378e-08
4.31412e-07
9.54501e-08
3.24543e-07
1.7692e-07
1.89046e-07
2.14065e-07
6.43953e-08
1.8935e-07
8.69422e-08
3.73752e-08
-1.26171e-07
4.33843e-08
-1.18618e-07
-4.31987e-08
4.41868e-08
-2.58666e-07
2.93795e-07
-6.22641e-07
5.86439e-07
-1.14225e-06
8.92804e-07
-1.81575e-06
1.19385e-06
-2.63549e-06
1.47779e-06
-3.5901e-06
1.73773e-06
-4.66606e-06
1.97003e-06
-5.84878e-06
2.1732e-06
-7.12339e-06
2.34714e-06
-8.47516e-06
2.4926e-06
-9.88985e-06
2.61082e-06
-1.13538e-05
2.70324e-06
-1.28542e-05
2.77139e-06
-1.43786e-05
2.81668e-06
-1.59153e-05
2.84038e-06
-1.74534e-05
2.84357e-06
-1.89819e-05
2.82711e-06
-2.04906e-05
2.79164e-06
-2.19693e-05
2.73761e-06
-2.34081e-05
2.6653e-06
-2.4797e-05
2.57487e-06
-2.61262e-05
2.46637e-06
-2.73859e-05
2.33983e-06
-2.85666e-05
2.19527e-06
-2.96584e-05
2.03279e-06
-3.0652e-05
1.85257e-06
-3.15381e-05
1.65495e-06
-3.23078e-05
1.44046e-06
-3.29525e-05
1.20985e-06
-3.34644e-05
9.64119e-07
-3.38362e-05
7.04562e-07
-3.40616e-05
4.32764e-07
-3.41353e-05
1.5062e-07
-3.40533e-05
-1.39665e-07
-3.38126e-05
-4.35584e-07
-3.34122e-05
-7.34341e-07
-3.28522e-05
-1.03288e-06
-3.21348e-05
-1.32791e-06
-3.12638e-05
-1.61597e-06
-3.02451e-05
-1.89345e-06
-2.90863e-05
-2.15667e-06
-2.77971e-05
-2.40196e-06
-2.6389e-05
-2.62568e-06
-2.48753e-05
-2.82436e-06
-2.32709e-05
-2.99472e-06
-2.15925e-05
-3.13381e-06
-1.98579e-05
-3.239e-06
-1.80861e-05
-3.30815e-06
-1.62969e-05
-3.33958e-06
-1.45109e-05
-3.33219e-06
-1.27485e-05
-3.2855e-06
-1.10305e-05
-3.19966e-06
-9.3768e-06
-3.07549e-06
-7.80682e-06
-2.91451e-06
-6.33863e-06
-2.71895e-06
-4.98878e-06
-2.49172e-06
-3.77187e-06
-2.2365e-06
-2.70013e-06
-1.95767e-06
-1.78304e-06
-1.66043e-06
-1.02683e-06
-1.35085e-06
-4.33958e-07
-1.03602e-06
-2.52194e-09
-7.24301e-07
2.7457e-07
-4.25701e-07
4.10387e-07
-1.52356e-07
4.25183e-07
8.06555e-08
3.47599e-07
2.54507e-07
2.15853e-07
3.45813e-07
7.8675e-08
3.26525e-07
1.65617e-07
1.92885e-09
-1.28101e-07
-7.89118e-08
-3.77783e-08
-2.97619e-07
2.62895e-07
-6.87933e-07
6.84112e-07
-1.26818e-06
1.16669e-06
-2.04464e-06
1.66927e-06
-3.01453e-06
2.16373e-06
-4.16859e-06
2.63184e-06
-5.49321e-06
3.06235e-06
-6.97206e-06
3.44888e-06
-8.58731e-06
3.78844e-06
-1.03205e-05
4.08029e-06
-1.2153e-05
4.32513e-06
-1.40667e-05
4.52456e-06
-1.60441e-05
4.68061e-06
-1.80682e-05
4.79548e-06
-2.01228e-05
4.8713e-06
-2.21924e-05
4.91001e-06
-2.42622e-05
4.91329e-06
-2.63175e-05
4.88249e-06
-2.83446e-05
4.81867e-06
-3.03295e-05
4.72258e-06
-3.2259e-05
4.59473e-06
-3.41195e-05
4.43543e-06
-3.5898e-05
4.24486e-06
-3.75814e-05
4.02318e-06
-3.91566e-05
3.77053e-06
-4.0611e-05
3.4872e-06
-4.19321e-05
3.17363e-06
-4.31077e-05
2.83053e-06
-4.41261e-05
2.45891e-06
-4.49764e-05
2.06018e-06
-4.56485e-05
1.63616e-06
-4.61331e-05
1.18913e-06
-4.64221e-05
7.21861e-07
-4.65092e-05
2.37642e-07
-4.63891e-05
-2.59744e-07
-4.60587e-05
-7.6602e-07
-4.55166e-05
-1.27644e-06
-4.47636e-05
-1.78585e-06
-4.38028e-05
-2.28872e-06
-4.26395e-05
-2.77923e-06
-4.12816e-05
-3.25136e-06
-3.97393e-05
-3.69898e-06
-3.80253e-05
-4.11595e-06
-3.61547e-05
-4.49626e-06
-3.41449e-05
-4.83414e-06
-3.20155e-05
-5.12417e-06
-2.97878e-05
-5.36145e-06
-2.74852e-05
-5.54167e-06
-2.51321e-05
-5.66125e-06
-2.27542e-05
-5.71747e-06
-2.03778e-05
-5.70853e-06
-1.80297e-05
-5.63364e-06
-1.57363e-05
-5.49309e-06
-1.35235e-05
-5.28829e-06
-1.14161e-05
-5.02183e-06
-9.43762e-06
-4.69747e-06
-7.60918e-06
-4.32016e-06
-5.94957e-06
-3.89611e-06
-4.47449e-06
-3.43275e-06
-3.19605e-06
-2.93887e-06
-2.12221e-06
-2.42469e-06
-1.25616e-06
-1.90207e-06
-5.95648e-07
-1.38481e-06
-1.32234e-07
-8.89116e-07
1.49597e-07
-4.34188e-07
2.73319e-07
-4.30684e-08
2.71411e-07
2.56414e-07
1.86391e-07
4.30836e-07
7.2246e-08
4.4067e-07
2.37864e-07
-4.20441e-08
-8.60569e-08
-2.3003e-07
1.50209e-07
-6.06597e-07
6.39464e-07
-1.19834e-06
1.27586e-06
-2.01903e-06
1.98737e-06
-3.07182e-06
2.72206e-06
-4.35153e-06
3.44345e-06
-5.84675e-06
4.12705e-06
-7.54158e-06
4.75718e-06
-9.41724e-06
5.32453e-06
-1.14531e-05
5.82435e-06
-1.36279e-05
6.25503e-06
-1.59198e-05
6.61707e-06
-1.83075e-05
6.91227e-06
-2.07701e-05
7.14317e-06
-2.32872e-05
7.31261e-06
-2.58393e-05
7.42341e-06
-2.84075e-05
7.47821e-06
-3.09735e-05
7.47929e-06
-3.35196e-05
7.42855e-06
-3.60284e-05
7.32749e-06
-3.8483e-05
7.17721e-06
-4.08668e-05
6.97848e-06
-4.31632e-05
6.73185e-06
-4.5356e-05
6.4377e-06
-4.74292e-05
6.09635e-06
-4.93668e-05
5.70819e-06
-5.11534e-05
5.27379e-06
-5.27738e-05
4.79398e-06
-5.42132e-05
4.26999e-06
-5.54578e-05
3.7035e-06
-5.64944e-05
3.09675e-06
-5.73109e-05
2.45262e-06
-5.78964e-05
1.77465e-06
-5.82416e-05
1.0671e-06
-5.83389e-05
3.34942e-07
-5.81826e-05
-4.16103e-07
-5.7769e-05
-1.17962e-06
-5.70969e-05
-1.94851e-06
-5.61676e-05
-2.71512e-06
-5.49851e-05
-3.47123e-06
-5.35561e-05
-4.20824e-06
-5.18902e-05
-4.91727e-06
-4.99999e-05
-5.58928e-06
-4.79006e-05
-6.21527e-06
-4.56104e-05
-6.7864e-06
-4.31504e-05
-7.2942e-06
-4.05438e-05
-7.73074e-06
-3.78164e-05
-8.08884e-06
-3.49959e-05
-8.36218e-06
-3.21116e-05
-8.54556e-06
-2.91941e-05
-8.63497e-06
-2.62748e-05
-8.6278e-06
-2.33856e-05
-8.52291e-06
-2.05579e-05
-8.32074e-06
-1.78228e-05
-8.02342e-06
-1.52099e-05
-7.63477e-06
-1.2747e-05
-7.16038e-06
-1.04595e-05
-6.60763e-06
-8.36986e-06
-5.98572e-06
-6.49691e-06
-5.3057e-06
-4.8552e-06
-4.58058e-06
-3.45447e-06
-3.82542e-06
-2.29894e-06
-3.0576e-06
-1.38663e-06
-2.29711e-06
-7.08709e-07
-1.56704e-06
-2.4868e-07
-8.94217e-07
1.83191e-08
-3.10069e-07
1.26357e-07
1.48375e-07
1.19598e-07
4.37596e-07
5.36913e-08
5.06577e-07
2.91556e-07
-8.94423e-08
3.38618e-09
-3.95389e-07
4.56157e-07
-9.4524e-07
1.18932e-06
-1.75559e-06
2.08621e-06
-2.83325e-06
3.06503e-06
-4.17645e-06
4.06527e-06
-5.77635e-06
5.04336e-06
-7.61857e-06
5.96927e-06
-9.68462e-06
6.82323e-06
-1.19532e-05
7.59312e-06
-1.44013e-05
8.27241e-06
-1.70048e-05
8.85857e-06
-1.97395e-05
9.35176e-06
-2.25812e-05
9.75394e-06
-2.55061e-05
1.00681e-05
-2.8491e-05
1.02976e-05
-3.15135e-05
1.04459e-05
-3.45517e-05
1.05164e-05
-3.75843e-05
1.05119e-05
-4.05906e-05
1.04349e-05
-4.35505e-05
1.02873e-05
-4.6444e-05
1.00707e-05
-4.92515e-05
9.78607e-06
-5.19539e-05
9.43426e-06
-5.45321e-05
9.0159e-06
-5.69674e-05
8.53159e-06
-5.92412e-05
7.98202e-06
-6.13356e-05
7.36817e-06
-6.3233e-05
6.69138e-06
-6.49165e-05
5.95353e-06
-6.63702e-05
5.15714e-06
-6.75789e-05
4.30551e-06
-6.85291e-05
3.40276e-06
-6.92083e-05
2.45392e-06
-6.96062e-05
1.46499e-06
-6.97142e-05
4.42947e-07
-6.95261e-05
-6.04275e-07
-6.90379e-05
-1.66779e-06
-6.82486e-05
-2.73784e-06
-6.71598e-05
-3.80387e-06
-6.57764e-05
-4.85465e-06
-6.41062e-05
-5.87842e-06
-6.21604e-05
-6.86305e-06
-5.99535e-05
-7.79625e-06
-5.7503e-05
-8.66575e-06
-5.48298e-05
-9.45954e-06
-5.19579e-05
-1.01661e-05
-4.8914e-05
-1.07747e-05
-4.57272e-05
-1.12756e-05
-4.24293e-05
-1.16601e-05
-3.90537e-05
-1.19212e-05
-3.56351e-05
-1.20535e-05
-3.22095e-05
-1.20534e-05
-2.88131e-05
-1.19193e-05
-2.5482e-05
-1.16519e-05
-2.22514e-05
-1.1254e-05
-1.91554e-05
-1.07308e-05
-1.62258e-05
-1.009e-05
-1.34918e-05
-9.34163e-06
-1.09792e-05
-8.49831e-06
-8.70984e-06
-7.5751e-06
-6.7007e-06
-6.58971e-06
-4.96352e-06
-5.5626e-06
-3.50394e-06
-4.51718e-06
-2.32092e-06
-3.48013e-06
-1.40608e-06
-2.48188e-06
-7.43112e-07
-1.55718e-06
-3.0716e-07
-7.46022e-07
-6.42329e-08
-9.45525e-08
2.94407e-08
3.43923e-07
2.83409e-08
5.07677e-07
3.19898e-07
-1.37662e-07
1.41049e-07
-5.66409e-07
8.84904e-07
-1.29772e-06
1.92062e-06
-2.33668e-06
3.12518e-06
-3.68161e-06
4.40997e-06
-5.32445e-06
5.7081e-06
-7.25158e-06
6.97049e-06
-9.44488e-06
8.16257e-06
-1.18828e-05
9.26115e-06
-1.45413e-05
1.02517e-05
-1.73949e-05
1.1126e-05
-2.04172e-05
1.18808e-05
-2.35813e-05
1.25159e-05
-2.68608e-05
1.30334e-05
-3.02294e-05
1.34367e-05
-3.36614e-05
1.37296e-05
-3.71318e-05
1.39163e-05
-4.06161e-05
1.40007e-05
-4.40905e-05
1.39863e-05
-4.75318e-05
1.38761e-05
-5.0917e-05
1.36726e-05
-5.42237e-05
1.33774e-05
-5.74299e-05
1.29923e-05
-6.05138e-05
1.25181e-05
-6.34538e-05
1.19559e-05
-6.62288e-05
1.13066e-05
-6.8818e-05
1.05713e-05
-7.12012e-05
9.7514e-06
-7.33588e-05
8.84896e-06
-7.52719e-05
7.86663e-06
-7.69227e-05
6.80792e-06
-7.82945e-05
5.67732e-06
-7.93721e-05
4.48041e-06
-8.01421e-05
3.22393e-06
-8.0593e-05
1.91584e-06
-8.07154e-05
5.65328e-07
-8.05025e-05
-8.17166e-07
-7.99502e-05
-2.22003e-06
-7.90575e-05
-3.63053e-06
-7.78264e-05
-5.03496e-06
-7.62624e-05
-6.41874e-06
-7.43741e-05
-7.76665e-06
-7.21742e-05
-9.063e-06
-6.96785e-05
-1.02919e-05
-6.69067e-05
-1.14375e-05
-6.38819e-05
-1.24844e-05
-6.06304e-05
-1.34176e-05
-5.71819e-05
-1.42233e-05
-5.35686e-05
-1.48888e-05
-4.98256e-05
-1.54031e-05
-4.59898e-05
-1.5757e-05
-4.20998e-05
-1.59435e-05
-3.81954e-05
-1.59578e-05
-3.43167e-05
-1.57979e-05
-3.0504e-05
-1.54646e-05
-2.67965e-05
-1.49614e-05
-2.32322e-05
-1.42952e-05
-1.98466e-05
-1.34756e-05
-1.66725e-05
-1.25157e-05
-1.37392e-05
-1.14317e-05
-1.10713e-05
-1.0243e-05
-8.68855e-06
-8.97245e-06
-6.60492e-06
-7.64623e-06
-4.82792e-06
-6.29418e-06
-3.35805e-06
-4.95e-06
-2.1882e-06
-3.65173e-06
-1.30315e-06
-2.44223e-06
-6.79158e-07
-1.37001e-06
-2.8357e-07
-4.9014e-07
-7.45137e-08
1.34866e-07
-5.57906e-10
4.33722e-07
3.1934e-07
-1.85457e-07
3.26506e-07
-7.38198e-07
1.43764e-06
-1.65424e-06
2.83666e-06
-2.9266e-06
4.39754e-06
-4.54419e-06
6.02756e-06
-6.4917e-06
7.65561e-06
-8.74991e-06
9.22869e-06
-1.12963e-05
1.07089e-05
-1.41057e-05
1.20706e-05
-1.71511e-05
1.32971e-05
-2.04045e-05
1.43794e-05
-2.38369e-05
1.53132e-05
-2.74195e-05
1.60985e-05
-3.11234e-05
1.67373e-05
-3.49201e-05
1.72334e-05
-3.87819e-05
1.75914e-05
-4.26814e-05
1.78158e-05
-4.65921e-05
1.79113e-05
-5.04877e-05
1.78819e-05
-5.43428e-05
1.77312e-05
-5.81321e-05
1.74619e-05
-6.18311e-05
1.70764e-05
-6.54154e-05
1.65765e-05
-6.88608e-05
1.59636e-05
-7.21439e-05
1.52389e-05
-7.52412e-05
1.44039e-05
-7.813e-05
1.34601e-05
-8.07881e-05
1.24094e-05
-8.31938e-05
1.12547e-05
-8.53268e-05
9.99956e-06
-8.71674e-05
8.64853e-06
-8.86976e-05
7.2075e-06
-8.99008e-05
5.68364e-06
-9.07624e-05
4.08558e-06
-9.127e-05
2.42343e-06
-9.14135e-05
7.0881e-07
-9.11855e-05
-1.04515e-06
-9.05817e-05
-2.82386e-06
-8.96008e-05
-4.61141e-06
-8.82451e-05
-6.39066e-06
-8.65204e-05
-8.14344e-06
-8.44363e-05
-9.85079e-06
-8.20061e-05
-1.14932e-05
-7.92471e-05
-1.30509e-05
-7.61805e-05
-1.45042e-05
-7.28311e-05
-1.58338e-05
-6.92274e-05
-1.70212e-05
-6.54014e-05
-1.80492e-05
-6.13882e-05
-1.8902e-05
-5.72256e-05
-1.95658e-05
-5.29536e-05
-2.0029e-05
-4.86144e-05
-2.02828e-05
-4.4251e-05
-2.03211e-05
-3.99075e-05
-2.01415e-05
-3.56277e-05
-1.97444e-05
-3.14546e-05
-1.91345e-05
-2.743e-05
-1.83198e-05
-2.35931e-05
-1.73124e-05
-1.99804e-05
-1.61284e-05
-1.66243e-05
-1.47878e-05
-1.35527e-05
-1.33146e-05
-1.07883e-05
-1.17369e-05
-8.34755e-06
-1.0087e-05
-6.24042e-06
-8.40132e-06
-4.46947e-06
-6.72095e-06
-3.02955e-06
-5.09165e-06
-1.90732e-06
-3.56446e-06
-1.08101e-06
-2.19632e-06
-5.20234e-07
-1.05091e-06
-1.8603e-07
-1.99338e-07
-3.10479e-08
2.7874e-07
2.88292e-07
-2.32185e-07
5.58691e-07
-9.07996e-07
2.11345e-06
-2.00882e-06
3.93749e-06
-3.5156e-06
5.90432e-06
-5.40746e-06
7.91942e-06
-7.66124e-06
9.90939e-06
-1.02515e-05
1.18189e-05
-1.31507e-05
1.36082e-05
-1.63299e-05
1.52497e-05
-1.97587e-05
1.67259e-05
-2.34062e-05
1.80269e-05
-2.72412e-05
1.91482e-05
-3.12325e-05
2.00898e-05
-3.53492e-05
2.0854e-05
-3.95609e-05
2.14452e-05
-4.38379e-05
2.18683e-05
-4.81508e-05
2.21288e-05
-5.24712e-05
2.22316e-05
-5.67708e-05
2.21816e-05
-6.10223e-05
2.19826e-05
-6.51984e-05
2.16381e-05
-6.92725e-05
2.11506e-05
-7.32184e-05
2.05223e-05
-7.70099e-05
1.97551e-05
-8.06215e-05
1.88506e-05
-8.40281e-05
1.78105e-05
-8.7205e-05
1.6637e-05
-9.01282e-05
1.53327e-05
-9.27746e-05
1.39011e-05
-9.5122e-05
1.23469e-05
-9.71493e-05
1.06759e-05
-9.88373e-05
8.89542e-06
-0.000100168
7.01437e-06
-0.000101126
5.04337e-06
-0.000101697
2.99485e-06
-0.000101871
8.83009e-07
-0.00010164
-1.27614e-06
-0.000100999
-3.46488e-06
-9.99469e-05
-5.6639e-06
-9.84851e-05
-7.85243e-06
-9.66201e-05
-1.00085e-05
-9.43617e-05
-1.21092e-05
-9.1724e-05
-1.41308e-05
-8.87253e-05
-1.60497e-05
-8.53877e-05
-1.78418e-05
-8.17376e-05
-1.94839e-05
-7.78052e-05
-2.09536e-05
-7.36245e-05
-2.22299e-05
-6.92329e-05
-2.32937e-05
-6.46706e-05
-2.41281e-05
-5.99807e-05
-2.47189e-05
-5.52081e-05
-2.50553e-05
-5.03995e-05
-2.51298e-05
-4.56021e-05
-2.49389e-05
-4.08633e-05
-2.44832e-05
-3.62301e-05
-2.37677e-05
-3.17476e-05
-2.28022e-05
-2.74591e-05
-2.16009e-05
-2.34046e-05
-2.0183e-05
-1.962e-05
-1.85724e-05
-1.61367e-05
-1.67978e-05
-1.29806e-05
-1.4893e-05
-1.01713e-05
-1.28963e-05
-7.72136e-06
-1.08512e-05
-5.63618e-06
-8.80613e-06
-3.91312e-06
-6.81471e-06
-2.54137e-06
-4.93621e-06
-1.50179e-06
-3.2359e-06
-7.66923e-07
-1.78578e-06
-3.01291e-07
-6.64969e-07
-6.20266e-08
3.94747e-08
2.26265e-07
-2.77567e-07
8.36257e-07
-1.07427e-06
2.91015e-06
-2.35781e-06
5.22104e-06
-4.09738e-06
7.64389e-06
-6.26223e-06
1.00843e-05
-8.82108e-06
1.24682e-05
-1.17419e-05
1.47398e-05
-1.49918e-05
1.68581e-05
-1.85375e-05
1.87954e-05
-2.23452e-05
2.05336e-05
-2.63809e-05
2.20626e-05
-3.0611e-05
2.33783e-05
-3.50021e-05
2.44809e-05
-3.95214e-05
2.53733e-05
-4.41365e-05
2.60604e-05
-4.88161e-05
2.65478e-05
-5.3529e-05
2.68417e-05
-5.8245e-05
2.69477e-05
-6.29344e-05
2.6871e-05
-6.75678e-05
2.66161e-05
-7.21165e-05
2.61868e-05
-7.65521e-05
2.55862e-05
-8.08466e-05
2.48168e-05
-8.49722e-05
2.38807e-05
-8.89017e-05
2.27801e-05
-9.26083e-05
2.15171e-05
-9.60658e-05
2.00944e-05
-9.92485e-05
1.85154e-05
-0.000102132
1.67844e-05
-0.000104692
1.49072e-05
-0.000106907
1.28908e-05
-0.000108756
1.07442e-05
-0.000110219
8.47802e-06
-0.000111281
6.10509e-06
-0.000111926
3.64021e-06
-0.000112144
1.10028e-06
-0.000111924
-1.49569e-06
-0.000111262
-4.1267e-06
-0.000110156
-6.76988e-06
-0.000108608
-9.40068e-06
-0.000106623
-1.19931e-05
-0.000104212
-1.45202e-05
-0.000101389
-1.69538e-05
-9.81731e-05
-1.92659e-05
-9.45867e-05
-2.14283e-05
-9.06574e-05
-2.34132e-05
-8.64168e-05
-2.51941e-05
-8.19007e-05
-2.67461e-05
-7.71482e-05
-2.80462e-05
-7.2202e-05
-2.90743e-05
-6.71075e-05
-2.98133e-05
-6.19128e-05
-3.02501e-05
-5.66673e-05
-3.03753e-05
-5.14217e-05
-3.01844e-05
-4.62271e-05
-2.96778e-05
-4.1134e-05
-2.88609e-05
-3.61915e-05
-2.77447e-05
-3.14465e-05
-2.63459e-05
-2.69431e-05
-2.46865e-05
-2.2721e-05
-2.27945e-05
-1.88153e-05
-2.07035e-05
-1.52556e-05
-1.84527e-05
-1.20649e-05
-1.60871e-05
-9.25914e-06
-1.36569e-05
-6.84694e-06
-1.12183e-05
-4.82872e-06
-8.83293e-06
-3.19675e-06
-6.56817e-06
-1.93501e-06
-4.49764e-06
-1.0194e-06
-2.7014e-06
-4.18184e-07
-1.26618e-06
-9.29396e-08
-2.8577e-07
1.33325e-07
-3.21489e-07
1.15775e-06
-1.23615e-06
3.82482e-06
-2.69897e-06
6.68385e-06
-4.66781e-06
9.61273e-06
-7.10221e-06
1.25187e-05
-9.9627e-06
1.53287e-05
-1.32104e-05
1.79875e-05
-1.6807e-05
2.04548e-05
-2.07146e-05
2.27029e-05
-2.48955e-05
2.47145e-05
-2.9313e-05
2.648e-05
-3.39306e-05
2.7996e-05
-3.87129e-05
2.92632e-05
-4.36252e-05
3.02855e-05
-4.86334e-05
3.10686e-05
-5.37044e-05
3.16188e-05
-5.88056e-05
3.19429e-05
-6.39053e-05
3.20474e-05
-6.89723e-05
3.19379e-05
-7.39758e-05
3.16196e-05
-7.88856e-05
3.10966e-05
-8.36719e-05
3.03724e-05
-8.8305e-05
2.94499e-05
-9.27559e-05
2.83316e-05
-9.69959e-05
2.702e-05
-0.000100997
2.55178e-05
-0.00010473
2.38282e-05
-0.00010817
2.19553e-05
-0.00011129
1.99044e-05
-0.000114065
1.76822e-05
-0.000116472
1.52973e-05
-0.000118488
1.27601e-05
-0.000120093
1.00832e-05
-0.000121269
7.28157e-06
-0.000122002
4.37246e-06
-0.000122277
1.37556e-06
-0.000122086
-1.68703e-06
-0.000121421
-4.79092e-06
-0.000120282
-7.90961e-06
-0.000118668
-1.10146e-05
-0.000116585
-1.40758e-05
-0.000114043
-1.70618e-05
-0.000111057
-1.99401e-05
-0.000107645
-2.2678e-05
-0.000103831
-2.52426e-05
-9.96422e-05
-2.76017e-05
-9.5112e-05
-2.97243e-05
-9.02771e-05
-3.15809e-05
-8.51785e-05
-3.31448e-05
-7.98607e-05
-3.43921e-05
-7.43715e-05
-3.53025e-05
-6.87617e-05
-3.58599e-05
-6.30837e-05
-3.60533e-05
-5.73915e-05
-3.58765e-05
-5.17399e-05
-3.53295e-05
-4.61829e-05
-3.44178e-05
-4.07739e-05
-3.31537e-05
-3.5564e-05
-3.15558e-05
-3.0601e-05
-2.96494e-05
-2.59293e-05
-2.74662e-05
-2.1588e-05
-2.50448e-05
-1.76107e-05
-2.243e-05
-1.40244e-05
-1.96734e-05
-1.0849e-05
-1.68323e-05
-8.09666e-06
-1.39706e-05
-5.77151e-06
-1.11581e-05
-3.86931e-06
-8.47038e-06
-2.37753e-06
-5.98942e-06
-1.27566e-06
-3.80327e-06
-5.35778e-07
-2.00606e-06
-1.23584e-07
-6.97964e-07
9.74098e-09
-3.6391e-07
1.52166e-06
-1.39318e-06
4.85409e-06
-3.03089e-06
8.32156e-06
-5.22414e-06
1.1806e-05
-7.923e-06
1.52175e-05
-1.10799e-05
1.84856e-05
-1.46492e-05
2.15568e-05
-1.85868e-05
2.43923e-05
-2.285e-05
2.69662e-05
-2.73976e-05
2.92621e-05
-3.21895e-05
3.12719e-05
-3.71868e-05
3.29933e-05
-4.23517e-05
3.44282e-05
-4.76477e-05
3.55815e-05
-5.30391e-05
3.646e-05
-5.84914e-05
3.7071e-05
-6.39705e-05
3.74221e-05
-6.94435e-05
3.75204e-05
-7.48778e-05
3.73723e-05
-8.02415e-05
3.69833e-05
-8.55031e-05
3.63582e-05
-9.06315e-05
3.55008e-05
-9.55959e-05
3.44143e-05
-0.000100366
3.31017e-05
-0.000104912
3.15657e-05
-0.000109203
2.98096e-05
-0.000113212
2.78371e-05
-0.00011691
2.56531e-05
-0.000120269
2.32638e-05
-0.000123264
2.0677e-05
-0.00012587
1.79025e-05
-0.000128062
1.49525e-05
-0.00012982
1.18414e-05
-0.000131125
8.58639e-06
-0.00013196
5.20714e-06
-0.00013231
1.72622e-06
-0.000132166
-1.83117e-06
-0.00013152
-5.43721e-06
-0.000130368
-9.06164e-06
-0.00012871
-1.2672e-05
-0.000126552
-1.62339e-05
-0.000123903
-1.97113e-05
-0.000120776
-2.30673e-05
-0.00011719
-2.62642e-05
-0.000113168
-2.92643e-05
-0.000108739
-3.20304e-05
-0.000103937
-3.45268e-05
-9.87982e-05
-3.67194e-05
-9.33661e-05
-3.8577e-05
-8.76867e-05
-4.00715e-05
-8.181e-05
-4.11791e-05
-7.57892e-05
-4.18807e-05
-6.96799e-05
-4.21626e-05
-6.35394e-05
-4.2017e-05
-5.7426e-05
-4.14429e-05
-5.13979e-05
-4.04459e-05
-4.55126e-05
-3.9039e-05
-3.98257e-05
-3.72428e-05
-3.43896e-05
-3.50854e-05
-2.92533e-05
-3.26025e-05
-2.44606e-05
-2.98375e-05
-2.00495e-05
-2.68411e-05
-1.60518e-05
-2.36711e-05
-1.24915e-05
-2.03926e-05
-9.38516e-06
-1.7077e-05
-6.74086e-06
-1.38024e-05
-4.55828e-06
-1.0653e-05
-2.82871e-06
-7.71899e-06
-1.53534e-06
-5.09664e-06
-6.53966e-07
-2.88744e-06
-1.53985e-07
-1.19794e-06
-1.44244e-07
-4.04815e-07
1.92647e-06
-1.54505e-06
5.99433e-06
-3.35262e-06
1.01291e-05
-5.7644e-06
1.42178e-05
-8.72136e-06
1.81745e-05
-1.2168e-05
2.19323e-05
-1.60519e-05
2.54407e-05
-2.03233e-05
2.86637e-05
-2.49349e-05
3.15777e-05
-2.98414e-05
3.41686e-05
-3.49995e-05
3.64301e-05
-4.03679e-05
3.83616e-05
-4.59065e-05
3.99668e-05
-5.15771e-05
4.1252e-05
-5.73423e-05
4.22252e-05
-6.31661e-05
4.28949e-05
-6.90136e-05
4.32696e-05
-7.48505e-05
4.33572e-05
-8.06431e-05
4.31649e-05
-8.63586e-05
4.26988e-05
-9.19644e-05
4.1964e-05
-9.74283e-05
4.09647e-05
-0.000102719
3.97045e-05
-0.000107804
3.81868e-05
-0.000112653
3.64146e-05
-0.000117235
3.43917e-05
-0.00012152
3.21223e-05
-0.000125479
2.96121e-05
-0.000129083
2.6868e-05
-0.000132305
2.3899e-05
-0.000135119
2.07162e-05
-0.000137499
1.73333e-05
-0.000139425
1.37667e-05
-0.000140874
1.00356e-05
-0.000141829
6.1622e-06
-0.000142275
2.1719e-06
-0.000142199
-1.907e-06
-0.000141593
-6.04323e-06
-0.000140452
-1.02028e-05
-0.000138775
-1.4349e-05
-0.000136565
-1.84433e-05
-0.000133832
-2.24449e-05
-0.000130587
-2.63122e-05
-0.000126849
-3.00022e-05
-0.00012264
-3.34724e-05
-0.000117991
-3.66803e-05
-0.000112933
-3.95849e-05
-0.000107505
-4.21472e-05
-0.000101751
-4.4331e-05
-9.57184e-05
-4.61039e-05
-8.94596e-05
-4.74379e-05
-8.30301e-05
-4.83102e-05
-7.64883e-05
-4.87043e-05
-6.98951e-05
-4.86102e-05
-6.33126e-05
-4.80254e-05
-5.68033e-05
-4.69552e-05
-5.04291e-05
-4.54132e-05
-4.42504e-05
-4.34215e-05
-3.83248e-05
-4.1011e-05
-3.27063e-05
-3.82211e-05
-2.74438e-05
-3.51e-05
-2.25807e-05
-3.17041e-05
-1.81537e-05
-2.80982e-05
-1.41917e-05
-2.43545e-05
-1.07161e-05
-2.05526e-05
-7.73936e-06
-1.67791e-05
-5.26549e-06
-1.31268e-05
-3.2898e-06
-9.69469e-06
-1.79927e-06
-6.58717e-06
-7.73218e-07
-3.91349e-06
-1.8432e-07
-1.78684e-06
-3.28563e-07
-4.44194e-07
2.37066e-06
-1.69154e-06
7.24167e-06
-3.66345e-06
1.2101e-05
-6.28711e-06
1.68414e-05
-9.49477e-06
2.13821e-05
-1.32233e-05
2.56608e-05
-1.74136e-05
2.96309e-05
-2.20103e-05
3.32605e-05
-2.69615e-05
3.65289e-05
-3.2218e-05
3.94251e-05
-3.77334e-05
4.19455e-05
-4.34636e-05
4.40918e-05
-4.93666e-05
4.58698e-05
-5.54021e-05
4.72876e-05
-6.15317e-05
4.83547e-05
-6.77179e-05
4.90811e-05
-7.39246e-05
4.94763e-05
-8.01167e-05
4.95493e-05
-8.62596e-05
4.93079e-05
-9.23196e-05
4.87587e-05
-9.82631e-05
4.79075e-05
-0.000104057
4.67589e-05
-0.00010967
4.53167e-05
-0.000115067
4.35846e-05
-0.000120219
4.15661e-05
-0.000125092
3.92653e-05
-0.000129657
3.6687e-05
-0.000133882
3.38374e-05
-0.000137739
3.07243e-05
-0.000141198
2.73578e-05
-0.000144232
2.37501e-05
-0.000146815
1.99165e-05
-0.000148923
1.58751e-05
-0.000150535
1.16473e-05
-0.00015163
7.25766e-06
-0.000152193
2.73429e-06
-0.000152208
-1.89141e-06
-0.000151667
-6.58473e-06
-0.000150562
-1.13079e-05
-0.00014889
-1.60202e-05
-0.000146655
-2.06785e-05
-0.000143863
-2.52375e-05
-0.000140525
-2.96503e-05
-0.000136658
-3.3869e-05
-0.000132285
-3.78454e-05
-0.000127433
-4.15317e-05
-0.000122137
-4.48814e-05
-0.000116434
-4.78498e-05
-0.000110369
-5.03957e-05
-0.000103992
-5.24814e-05
-9.73556e-05
-5.40743e-05
-9.05183e-05
-5.51476e-05
-8.35416e-05
-5.5681e-05
-7.64897e-05
-5.56621e-05
-6.94288e-05
-5.50863e-05
-6.24258e-05
-5.39581e-05
-5.55478e-05
-5.22913e-05
-4.88601e-05
-5.01091e-05
-4.24261e-05
-4.7445e-05
-3.63053e-05
-4.43419e-05
-3.05525e-05
-4.08527e-05
-2.52168e-05
-3.70399e-05
-2.03405e-05
-3.29746e-05
-1.59581e-05
-2.87368e-05
-1.20961e-05
-2.44146e-05
-8.77214e-06
-2.01031e-05
-5.99472e-06
-1.59042e-05
-3.76343e-06
-1.1926e-05
-2.06909e-06
-8.2815e-06
-8.94404e-07
-5.08817e-06
-2.14867e-07
-2.46638e-06
-5.43429e-07
-4.82025e-07
2.85269e-06
-1.83245e-06
8.5921e-06
-3.96278e-06
1.42314e-05
-6.791e-06
1.96696e-05
-1.02411e-05
2.48322e-05
-1.42425e-05
2.96622e-05
-1.87298e-05
3.41183e-05
-2.36422e-05
3.81729e-05
-2.89232e-05
4.18098e-05
-3.45197e-05
4.50217e-05
-4.03823e-05
4.78081e-05
-4.64643e-05
5.01738e-05
-5.27216e-05
5.21271e-05
-5.91123e-05
5.36783e-05
-6.55965e-05
5.48389e-05
-7.21356e-05
5.56203e-05
-7.86927e-05
5.60334e-05
-8.52317e-05
5.60883e-05
-9.17173e-05
5.57935e-05
-9.81151e-05
5.51565e-05
-0.000104391
5.41834e-05
-0.000110511
5.28791e-05
-0.000116442
5.1248e-05
-0.000122152
4.9294e-05
-0.000127607
4.70209e-05
-0.000132774
4.4433e-05
-0.000137623
4.15358e-05
-0.000142121
3.83359e-05
-0.000146239
3.48419e-05
-0.000149946
3.10647e-05
-0.000153214
2.70178e-05
-0.000156015
2.27179e-05
-0.000158325
1.81847e-05
-0.000160119
1.34416e-05
-0.000161377
8.5154e-06
-0.000162079
3.43694e-06
-0.000162211
-1.75943e-06
-0.00016176
-7.03565e-06
-0.000160718
-1.23502e-05
-0.00015908
-1.76583e-05
-0.000156846
-2.29123e-05
-0.000154021
-2.80621e-05
-0.000150616
-3.30557e-05
-0.000146645
-3.78398e-05
-0.00014213
-4.23605e-05
-0.000137098
-4.65641e-05
-0.000131581
-5.03982e-05
-0.000125618
-5.38124e-05
-0.000119255
-5.67592e-05
-0.000112541
-5.91957e-05
-0.000105531
-6.10838e-05
-9.82866e-05
-6.2392e-05
-9.08716e-05
-6.3096e-05
-8.33541e-05
-6.31797e-05
-7.58042e-05
-6.26362e-05
-6.82938e-05
-6.14685e-05
-6.08952e-05
-5.96899e-05
-5.36795e-05
-5.73248e-05
-4.6716e-05
-5.44084e-05
-4.00707e-05
-5.09873e-05
-3.38046e-05
-4.71188e-05
-2.79733e-05
-4.28711e-05
-2.26254e-05
-3.83225e-05
-1.78016e-05
-3.35606e-05
-1.35342e-05
-2.8682e-05
-9.8462e-06
-2.37911e-05
-6.7512e-06
-1.89992e-05
-4.25325e-06
-1.44239e-05
-2.3471e-06
-1.01877e-05
-1.01868e-06
-6.41659e-06
-2.45971e-07
-3.23908e-06
-7.89399e-07
-5.18271e-07
3.37096e-06
-1.96756e-06
1.00414e-05
-4.24999e-06
1.65138e-05
-7.27488e-06
2.26945e-05
-1.09583e-05
2.85156e-05
-1.52227e-05
3.39266e-05
-1.99966e-05
3.88922e-05
-2.5214e-05
4.33903e-05
-3.08137e-05
4.74096e-05
-3.67392e-05
5.09472e-05
-4.29379e-05
5.40068e-05
-4.93608e-05
5.65966e-05
-5.59616e-05
5.87279e-05
-6.2697e-05
6.04137e-05
-6.95256e-05
6.16675e-05
-7.64081e-05
6.25027e-05
-8.33064e-05
6.29318e-05
-9.0184e-05
6.29658e-05
-9.70049e-05
6.26144e-05
-0.000103734
6.18857e-05
-0.000110337
6.07863e-05
-0.00011678
5.93216e-05
-0.000123028
5.74963e-05
-0.000129048
5.53145e-05
-0.000134808
5.27802e-05
-0.000140273
4.98982e-05
-0.000145411
4.66742e-05
-0.000150191
4.31153e-05
-0.00015458
3.92307e-05
-0.000158547
3.50321e-05
-0.000162063
3.05342e-05
-0.0001651
2.57546e-05
-0.00016763
2.07148e-05
-0.000169628
1.54398e-05
-0.000171072
9.95883e-06
-0.00017194
4.30499e-06
-0.000172215
-1.48445e-06
-0.000171882
-7.36819e-06
-0.000170931
-1.3301e-05
-0.000169356
-1.92342e-05
-0.000167152
-2.51155e-05
-0.000164324
-3.08901e-05
-0.000160879
-3.65006e-05
-0.000156831
-4.18882e-05
-0.000152199
-4.69929e-05
-0.000147008
-5.17551e-05
-0.00014129
-5.61158e-05
-0.000135084
-6.00182e-05
-0.000128435
-6.34086e-05
-0.000121393
-6.62375e-05
-0.000114016
-6.84612e-05
-0.000106365
-7.00425e-05
-9.8509e-05
-7.09522e-05
-9.05185e-05
-7.11701e-05
-8.24686e-05
-7.06861e-05
-7.44361e-05
-6.9501e-05
-6.64989e-05
-6.76271e-05
-5.87345e-05
-6.50892e-05
-5.12188e-05
-6.19242e-05
-4.40245e-05
-5.81816e-05
-3.722e-05
-5.39233e-05
-3.08679e-05
-4.92233e-05
-2.50238e-05
-4.41666e-05
-1.97353e-05
-3.88491e-05
-1.5041e-05
-3.33763e-05
-1.097e-05
-2.78621e-05
-7.54126e-06
-2.2428e-05
-4.76368e-06
-1.72015e-05
-2.63601e-06
-1.23153e-05
-1.14739e-06
-7.90522e-06
-2.78026e-07
-4.10844e-06
-1.06742e-06
-5.52878e-07
3.92384e-06
-2.09661e-06
1.15851e-05
-4.52446e-06
1.89416e-05
-7.73756e-06
2.59076e-05
-1.16445e-05
3.24226e-05
-1.61612e-05
3.84433e-05
-2.12102e-05
4.39412e-05
-2.67206e-05
4.89006e-05
-3.26271e-05
5.3316e-05
-3.88694e-05
5.71896e-05
-4.53922e-05
6.05296e-05
-5.2144e-05
6.33483e-05
-5.90767e-05
6.56606e-05
-6.61454e-05
6.74824e-05
-7.33077e-05
6.88298e-05
-8.05233e-05
6.97183e-05
-8.77534e-05
7.0162e-05
-9.49609e-05
7.01733e-05
-0.000102109
6.9763e-05