/*--------------------------------*- C++ -*----------------------------------*\
  =========                 |
  \\      /  F ield         | OpenFOAM: The Open Source CFD Toolbox
   \\    /   O peration     | Website:  https://openfoam.org
    \\  /    A nd           | Version:  dev
     \\/     M anipulation  |
\*---------------------------------------------------------------------------*/
FoamFile
{
    format      ascii;
    class       volVectorField;
    location    "37.8";
    object      U;
}
// * * * * * * * * * * * * * * * * * * * * * * * * * * * * * * * * * * * * * //

dimensions      [0 1 -1 0 0 0 0];

internalField   nonuniform List<vector> 
5184
(
(1.23405e-05 -1.26987e-05 0)
(4.5198e-05 -2.08862e-05 0)
(8.03648e-05 -1.725e-05 0)
(9.60298e-05 -8.19882e-06 0)
(8.22059e-05 2.66785e-06 0)
(3.65099e-05 1.36184e-05 0)
(-4.05129e-05 2.38482e-05 0)
(-0.000146844 3.30525e-05 0)
(-0.00027969 4.11117e-05 0)
(-0.000435994 4.80315e-05 0)
(-0.000612632 5.38735e-05 0)
(-0.000806572 5.87227e-05 0)
(-0.00101494 6.26713e-05 0)
(-0.00123508 6.58108e-05 0)
(-0.00146453 6.82259e-05 0)
(-0.00170102 6.99921e-05 0)
(-0.00194249 7.11736e-05 0)
(-0.00218702 7.18229e-05 0)
(-0.00243283 7.19808e-05 0)
(-0.00267822 7.16768e-05 0)
(-0.00292161 7.09305e-05 0)
(-0.00316141 6.97521e-05 0)
(-0.00339611 6.81447e-05 0)
(-0.00362418 6.61053e-05 0)
(-0.0038441 6.36267e-05 0)
(-0.00405431 6.0699e-05 0)
(-0.00425327 5.73117e-05 0)
(-0.0044394 5.34553e-05 0)
(-0.00461112 4.91227e-05 0)
(-0.00476686 4.43109e-05 0)
(-0.00490505 3.90223e-05 0)
(-0.00502417 3.32662e-05 0)
(-0.00512275 2.70597e-05 0)
(-0.00519943 2.0429e-05 0)
(-0.00525293 1.34096e-05 0)
(-0.00528215 6.04745e-06 0)
(-0.00528613 -1.60144e-06 0)
(-0.00526416 -9.47053e-06 0)
(-0.00521573 -1.74833e-05 0)
(-0.00514061 -2.55539e-05 0)
(-0.00503886 -3.35878e-05 0)
(-0.00491087 -4.14835e-05 0)
(-0.00475733 -4.91337e-05 0)
(-0.0045793 -5.64274e-05 0)
(-0.00437818 -6.3252e-05 0)
(-0.00415574 -6.94956e-05 0)
(-0.00391406 -7.50493e-05 0)
(-0.00365557 -7.98102e-05 0)
(-0.003383 -8.36837e-05 0)
(-0.00309935 -8.65859e-05 0)
(-0.00280787 -8.84464e-05 0)
(-0.00251199 -8.92098e-05 0)
(-0.00221526 -8.8838e-05 0)
(-0.00192135 -8.73112e-05 0)
(-0.00163393 -8.46291e-05 0)
(-0.00135665 -8.08111e-05 0)
(-0.00109303 -7.58965e-05 0)
(-0.000846466 -6.99441e-05 0)
(-0.000620087 -6.30316e-05 0)
(-0.00041675 -5.5255e-05 0)
(-0.000238953 -4.67285e-05 0)
(-8.87733e-05 -3.7585e-05 0)
(3.22003e-05 -2.79795e-05 0)
(0.000122954 -1.80946e-05 0)
(0.000183156 -8.15562e-06 0)
(0.000213309 1.54261e-06 0)
(0.000215003 1.05758e-05 0)
(0.000191287 1.83069e-05 0)
(0.000147195 2.37236e-05 0)
(9.0821e-05 2.5134e-05 0)
(3.66359e-05 1.98522e-05 0)
(6.22737e-06 6.24379e-06 0)
(2.086e-05 -4.58765e-05 0)
(6.56633e-05 -6.57175e-05 0)
(9.47785e-05 -4.0572e-05 0)
(7.28881e-05 7.62437e-06 0)
(-1.88498e-05 6.56789e-05 0)
(-0.000187253 0.000126003 0)
(-0.000432908 0.000184318 0)
(-0.000752597 0.000238375 0)
(-0.00114077 0.000287035 0)
(-0.00159066 0.000329853 0)
(-0.0020949 0.000366792 0)
(-0.00264605 0.00039804 0)
(-0.00323679 0.000423909 0)
(-0.00386014 0.000444765 0)
(-0.00450949 0.000460987 0)
(-0.00517863 0.000472933 0)
(-0.00586177 0.000480925 0)
(-0.00655347 0.000485239 0)
(-0.00724857 0.000486099 0)
(-0.00794221 0.000483676 0)
(-0.00862968 0.000478091 0)
(-0.00930642 0.000469421 0)
(-0.00996796 0.000457704 0)
(-0.0106099 0.00044295 0)
(-0.0112278 0.000425146 0)
(-0.0118172 0.00040427 0)
(-0.0123738 0.000380296 0)
(-0.0128931 0.000353208 0)
(-0.0133708 0.000323006 0)
(-0.0138025 0.000289717 0)
(-0.0141839 0.000253402 0)
(-0.014511 0.000214163 0)
(-0.0147799 0.000172151 0)
(-0.0149869 0.000127568 0)
(-0.0151287 8.06734e-05 0)
(-0.0152026 3.17875e-05 0)
(-0.0152062 -1.8711e-05 0)
(-0.0151376 -7.03839e-05 0)
(-0.0149957 -0.000122736 0)
(-0.0147803 -0.00017522 0)
(-0.0144916 -0.000227241 0)
(-0.0141309 -0.000278167 0)
(-0.0137003 -0.000327337 0)
(-0.0132029 -0.000374071 0)
(-0.0126425 -0.000417685 0)
(-0.0120242 -0.000457503 0)
(-0.0113535 -0.000492874 0)
(-0.0106372 -0.000523181 0)
(-0.00988263 -0.000547864 0)
(-0.00909788 -0.000566429 0)
(-0.00829167 -0.000578463 0)
(-0.00747317 -0.000583645 0)
(-0.00665192 -0.00058176 0)
(-0.00583766 -0.000572706 0)
(-0.00504018 -0.000556498 0)
(-0.00426914 -0.000533275 0)
(-0.00353393 -0.000503301 0)
(-0.00284347 -0.000466965 0)
(-0.00220604 -0.000424783 0)
(-0.00162912 -0.000377395 0)
(-0.00111919 -0.00032557 0)
(-0.00068155 -0.000270212 0)
(-0.000320108 -0.000212384 0)
(-3.71509e-05 -0.000153337 0)
(0.000166957 -9.45832e-05 0)
(0.000294138 -3.80004e-05 0)
(0.000349144 1.39494e-05 0)
(0.00034025 5.79608e-05 0)
(0.000279951 8.94405e-05 0)
(0.000186107 0.000101891 0)
(8.63923e-05 8.6542e-05 0)
(1.96845e-05 3.64946e-05 0)
(1.76463e-05 -8.13245e-05 0)
(4.13636e-05 -9.5065e-05 0)
(1.96531e-05 -1.9163e-05 0)
(-8.39411e-05 0.000105918 0)
(-0.00029021 0.000254666 0)
(-0.000607906 0.000410632 0)
(-0.00103829 0.000563498 0)
(-0.00157755 0.000707128 0)
(-0.00221852 0.000838069 0)
(-0.00295201 0.000954616 0)
(-0.00376774 0.00105617 0)
(-0.004655 0.00114283 0)
(-0.00560306 0.00121511 0)
(-0.00660146 0.00127372 0)
(-0.00764014 0.00131951 0)
(-0.00870954 0.00135328 0)
(-0.00980057 0.00137581 0)
(-0.0109046 0.00138777 0)
(-0.0120135 0.00138973 0)
(-0.0131194 0.00138213 0)
(-0.0142146 0.00136529 0)
(-0.0152919 0.00133945 0)
(-0.016344 0.00130472 0)
(-0.0173637 0.00126117 0)
(-0.0183439 0.00120882 0)
(-0.0192777 0.00114765 0)
(-0.020158 0.00107764 0)
(-0.0209777 0.000998828 0)
(-0.0217302 0.000911263 0)
(-0.0224085 0.000815087 0)
(-0.0230061 0.000710532 0)
(-0.0235167 0.000597943 0)
(-0.0239345 0.000477793 0)
(-0.0242538 0.000350698 0)
(-0.0244698 0.000217425 0)
(-0.0245783 7.88968e-05 0)
(-0.0245759 -6.38062e-05 0)
(-0.0244601 -0.000209448 0)
(-0.0242294 -0.000356644 0)
(-0.0238834 -0.000503878 0)
(-0.023423 -0.000649513 0)
(-0.0228503 -0.000791816 0)
(-0.0221688 -0.000928983 0)
(-0.0213834 -0.00105917 0)
(-0.0205003 -0.00118053 0)
(-0.019527 -0.00129124 0)
(-0.0184726 -0.00138955 0)
(-0.0173473 -0.0014738 0)
(-0.0161624 -0.00154251 0)
(-0.0149305 -0.00159435 0)
(-0.0136647 -0.00162822 0)
(-0.0123792 -0.00164329 0)
(-0.0110885 -0.001639 0)
(-0.00980741 -0.00161508 0)
(-0.00855086 -0.00157161 0)
(-0.00733354 -0.00150899 0)
(-0.00616971 -0.00142796 0)
(-0.00507289 -0.00132963 0)
(-0.00405563 -0.00121545 0)
(-0.00312921 -0.00108721 0)
(-0.00230337 -0.000947107 0)
(-0.00158599 -0.000797695 0)
(-0.000982822 -0.000641987 0)
(-0.000497089 -0.000483515 0)
(-0.000129101 -0.000326479 0)
(0.000124211 -0.000175969 0)
(0.000269948 -3.83024e-05 0)
(0.000319962 7.85015e-05 0)
(0.000291393 0.000164144 0)
(0.000207476 0.000205457 0)
(0.000102485 0.000186331 0)
(2.49836e-05 9.04133e-05 0)
(8.84637e-06 -9.77757e-05 0)
(-6.98959e-06 -7.3194e-05 0)
(-0.000107553 8.47518e-05 0)
(-0.000322348 0.000318366 0)
(-0.000669625 0.000590144 0)
(-0.00115779 0.000874455 0)
(-0.0017876 0.00115426 0)
(-0.00255429 0.00141878 0)
(-0.00344929 0.00166153 0)
(-0.0044616 0.00187897 0)
(-0.00557872 0.00206956 0)
(-0.00678744 0.00223304 0)
(-0.00807436 0.00236996 0)
(-0.00942621 0.00248137 0)
(-0.0108301 0.00256853 0)
(-0.0122736 0.00263278 0)
(-0.0137447 0.00267541 0)
(-0.0152322 0.00269755 0)
(-0.016725 0.0027002 0)
(-0.0182126 0.00268414 0)
(-0.0196847 0.00264997 0)
(-0.0211315 0.00259811 0)
(-0.0225431 0.00252884 0)
(-0.0239098 0.00244232 0)
(-0.0252222 0.00233862 0)
(-0.0264708 0.00221778 0)
(-0.0276462 0.00207987 0)
(-0.0287392 0.001925 0)
(-0.0297405 0.00175336 0)
(-0.0306414 0.00156531 0)
(-0.0314333 0.00136137 0)
(-0.032108 0.00114229 0)
(-0.0326577 0.000909034 0)
(-0.0330756 0.000662841 0)
(-0.0333555 0.000405228 0)
(-0.0334919 0.000137996 0)
(-0.0334807 -0.000136764 0)
(-0.0333189 -0.000416682 0)
(-0.0330049 -0.000699122 0)
(-0.0325383 -0.000981205 0)
(-0.0319206 -0.00125984 0)
(-0.0311547 -0.00153178 0)
(-0.0302455 -0.00179364 0)
(-0.0291993 -0.00204197 0)
(-0.0280246 -0.00227334 0)
(-0.0267312 -0.00248434 0)
(-0.025331 -0.00267174 0)
(-0.0238372 -0.00283249 0)
(-0.0222647 -0.0029638 0)
(-0.0206295 -0.00306325 0)
(-0.018949 -0.00312882 0)
(-0.0172412 -0.00315898 0)
(-0.0155249 -0.00315269 0)
(-0.0138194 -0.0031095 0)
(-0.0121437 -0.00302958 0)
(-0.010517 -0.00291369 0)
(-0.00895743 -0.00276329 0)
(-0.00748254 -0.00258046 0)
(-0.00610846 -0.00236797 0)
(-0.00484969 -0.00212926 0)
(-0.00371871 -0.0018685 0)
(-0.00272564 -0.00159057 0)
(-0.0018778 -0.0013012 0)
(-0.00117933 -0.00100706 0)
(-0.000630696 -0.000715972 0)
(-0.000228185 -0.000437205 0)
(3.66784e-05 -0.000181908 0)
(0.000177798 3.63065e-05 0)
(0.000214906 0.000200716 0)
(0.000174177 0.000290927 0)
(9.30648e-05 0.000282641 0)
(2.40353e-05 0.00014732 0)
(-2.12102e-06 -8.44472e-05 0)
(-6.72843e-05 2.08486e-05 0)
(-0.000264114 0.000295437 0)
(-0.00060981 0.000668073 0)
(-0.00111688 0.00109094 0)
(-0.00179152 0.00153012 0)
(-0.00263276 0.00196215 0)
(-0.00363422 0.00237158 0)
(-0.00478576 0.00274866 0)
(-0.00607467 0.00308775 0)
(-0.0074866 0.0033861 0)
(-0.0090063 0.00364287 0)
(-0.0106182 0.00385852 0)
(-0.0123066 0.0040343 0)
(-0.0140564 0.00417187 0)
(-0.0158527 0.00427304 0)
(-0.017681 0.00433961 0)
(-0.0195277 0.00437323 0)
(-0.0213792 0.00437532 0)
(-0.0232227 0.00434705 0)
(-0.0250455 0.00428934 0)
(-0.0268354 0.00420283 0)
(-0.0285802 0.004088 0)
(-0.030268 0.00394513 0)
(-0.031887 0.00377442 0)
(-0.0334256 0.00357602 0)
(-0.0348723 0.00335012 0)
(-0.0362158 0.003097 0)
(-0.037445 0.0028171 0)
(-0.0385491 0.00251108 0)
(-0.0395177 0.00217989 0)
(-0.0403412 0.0018248 0)
(-0.0410104 0.00144746 0)
(-0.0415169 0.00104993 0)
(-0.0418535 0.000634691 0)
(-0.042014 0.000204657 0)
(-0.0419935 -0.000236806 0)
(-0.0417888 -0.000685911 0)
(-0.0413979 -0.00113847 0)
(-0.040821 -0.00158991 0)
(-0.0400598 -0.00203539 0)
(-0.0391181 -0.00246977 0)
(-0.038002 -0.00288776 0)
(-0.0367193 -0.00328397 0)
(-0.03528 -0.00365303 0)
(-0.0336963 -0.00398966 0)
(-0.0319823 -0.0042888 0)
(-0.0301539 -0.00454571 0)
(-0.0282289 -0.00475608 0)
(-0.0262265 -0.00491615 0)
(-0.0241674 -0.0050228 0)
(-0.0220733 -0.00507363 0)
(-0.0199664 -0.00506708 0)
(-0.0178696 -0.00500246 0)
(-0.015806 -0.00488004 0)
(-0.0137979 -0.00470107 0)
(-0.0118675 -0.00446783 0)
(-0.0100354 -0.00418365 0)
(-0.00832099 -0.00385289 0)
(-0.00674154 -0.00348104 0)
(-0.00531201 -0.00307465 0)
(-0.00404454 -0.00264148 0)
(-0.00294799 -0.00219052 0)
(-0.0020275 -0.00173219 0)
(-0.00128401 -0.00127853 0)
(-0.000713765 -0.000843595 0)
(-0.000307754 -0.000443884 0)
(-5.1207e-05 -9.89599e-05 0)
(7.6762e-05 0.000167837 0)
(0.000103667 0.000328771 0)
(6.75399e-05 0.0003511 0)
(1.9673e-05 0.000194193 0)
(-1.36941e-05 -3.7562e-05 0)
(-0.000132842 0.000197339 0)
(-0.00043587 0.000626936 0)
(-0.000924752 0.00117047 0)
(-0.00160413 0.00177196 0)
(-0.00247655 0.00239055 0)
(-0.00353819 0.00299718 0)
(-0.00478034 0.00357203 0)
(-0.00619091 0.00410225 0)
(-0.00775538 0.00458008 0)
(-0.00945761 0.00500144 0)
(-0.0112805 0.00536483 0)
(-0.0132066 0.00567051 0)
(-0.0152184 0.00591982 0)
(-0.0172986 0.00611476 0)
(-0.0194303 0.0062576 0)
(-0.0215969 0.0063506 0)
(-0.0237826 0.00639591 0)
(-0.0259719 0.00639539 0)
(-0.0281496 0.00635061 0)
(-0.030301 0.00626281 0)
(-0.0324117 0.00613291 0)
(-0.0344676 0.00596159 0)
(-0.0364546 0.00574932 0)
(-0.038359 0.00549645 0)
(-0.0401672 0.0052033 0)
(-0.0418657 0.00487025 0)
(-0.0434415 0.00449783 0)
(-0.0448816 0.00408681 0)
(-0.0461737 0.00363827 0)
(-0.0473059 0.00315371 0)
(-0.0482669 0.00263508 0)
(-0.0490464 0.00208487 0)
(-0.0496351 0.00150612 0)
(-0.0500245 0.000902486 0)
(-0.050208 0.000278215 0)
(-0.05018 -0.000361824 0)
(-0.049937 -0.00101218 0)
(-0.049477 -0.00166683 0)
(-0.0488003 -0.00231928 0)
(-0.0479092 -0.0029626 0)
(-0.0468082 -0.00358952 0)
(-0.0455041 -0.00419253 0)
(-0.0440063 -0.00476401 0)
(-0.0423261 -0.00529638 0)
(-0.0404776 -0.00578217 0)
(-0.0384769 -0.00621428 0)
(-0.0363421 -0.00658601 0)
(-0.0340936 -0.00689131 0)
(-0.0317533 -0.00712488 0)
(-0.0293447 -0.00728233 0)
(-0.0268925 -0.00736029 0)
(-0.0244222 -0.00735655 0)
(-0.0219598 -0.00727016 0)
(-0.0195315 -0.00710151 0)
(-0.017163 -0.00685239 0)
(-0.0148796 -0.00652603 0)
(-0.0127049 -0.00612716 0)
(-0.010661 -0.00566202 0)
(-0.008768 -0.00513839 0)
(-0.00704298 -0.00456561 0)
(-0.00550011 -0.00395467 0)
(-0.00414986 -0.00331828 0)
(-0.00299858 -0.00267103 0)
(-0.00204805 -0.00202966 0)
(-0.001295 -0.00141336 0)
(-0.000730636 -0.000844276 0)
(-0.000340238 -0.000348097 0)
(-0.000102835 4.51978e-05 0)
(9.21512e-06 0.000300661 0)
(3.25256e-05 0.000377473 0)
(1.36275e-05 0.000224588 0)
(-2.51879e-05 4.40751e-05 0)
(-0.000200036 0.000461287 0)
(-0.000614165 0.00108717 0)
(-0.00125309 0.00183495 0)
(-0.00211235 0.00264274 0)
(-0.0031898 0.00346429 0)
(-0.00447786 0.00426596 0)
(-0.00596482 0.00502429 0)
(-0.00763617 0.00572366 0)
(-0.00947536 0.00635439 0)
(-0.0114644 0.00691114 0)
(-0.0135845 0.00739177 0)
(-0.0158164 0.00779627 0)
(-0.0181409 0.00812608 0)
(-0.0205388 0.00838347 0)
(-0.0229916 0.0085711 0)
(-0.0254809 0.00869171 0)
(-0.0279889 0.0087479 0)
(-0.0304983 0.00874198 0)
(-0.0329921 0.0086759 0)
(-0.0354537 0.00855123 0)
(-0.0378668 0.00836918 0)
(-0.0402154 0.00813066 0)
(-0.0424837 0.00783634 0)
(-0.0446561 0.00748679 0)
(-0.0467173 0.00708255 0)
(-0.0486521 0.00662424 0)
(-0.0504458 0.00611273 0)
(-0.0520839 0.0055492 0)
(-0.0535526 0.00493525 0)
(-0.0548387 0.00427304 0)
(-0.0559297 0.00356535 0)
(-0.0568141 0.00281562 0)
(-0.0574815 0.00202808 0)
(-0.0579228 0.00120769 0)
(-0.0581306 0.000360251 0)
(-0.058099 -0.000507673 0)
(-0.057824 -0.00138875 0)
(-0.0573037 -0.00227492 0)
(-0.0565385 -0.00315751 0)
(-0.055531 -0.00402728 0)
(-0.0542862 -0.00487456 0)
(-0.0528119 -0.00568939 0)
(-0.0511183 -0.00646168 0)
(-0.0492182 -0.00718138 0)
(-0.047127 -0.00783862 0)
(-0.0448625 -0.00842398 0)
(-0.0424449 -0.00892864 0)
(-0.0398966 -0.00934456 0)
(-0.0372419 -0.00966474 0)
(-0.0345068 -0.00988335 0)
(-0.0317185 -0.00999593 0)
(-0.0289053 -0.00999954 0)
(-0.0260962 -0.0098929 0)
(-0.0233202 -0.0096765 0)
(-0.020606 -0.00935269 0)
(-0.0179815 -0.00892576 0)
(-0.0154734 -0.00840196 0)
(-0.0131064 -0.00778957 0)
(-0.0109029 -0.00709891 0)
(-0.0088824 -0.00634236 0)
(-0.00706112 -0.00553445 0)
(-0.00545128 -0.00469191 0)
(-0.0040607 -0.00383386 0)
(-0.00289239 -0.00298199 0)
(-0.00194405 -0.0021609 0)
(-0.00120775 -0.00139852 0)
(-0.000669526 -0.000726726 0)
(-0.000309163 -0.000182002 0)
(-9.98182e-05 0.000193834 0)
(-7.69287e-06 0.000352654 0)
(6.86591e-06 0.000235073 0)
(-3.63446e-05 0.00016046 0)
(-0.000266981 0.000814563 0)
(-0.000793874 0.00167993 0)
(-0.00158589 0.00266653 0)
(-0.00262887 0.00370866 0)
(-0.00391525 0.00475627 0)
(-0.00543307 0.00577229 0)
(-0.00716704 0.00673045 0)
(-0.00909982 0.00761293 0)
(-0.0112125 0.00840846 0)
(-0.0134853 0.00911071 0)
(-0.0158973 0.00971694 0)
(-0.018428 0.010227 0)
(-0.0210562 0.0106424 0)
(-0.0237615 0.0109656 0)
(-0.0265235 0.0111998 0)
(-0.0293225 0.011348 0)
(-0.0321389 0.0114134 0)
(-0.0349538 0.0113986 0)
(-0.0377486 0.0113061 0)
(-0.0405051 0.0111376 0)
(-0.0432053 0.0108947 0)
(-0.0458316 0.0105786 0)
(-0.0483666 0.0101901 0)
(-0.0507931 0.00973011 0)
(-0.0530941 0.00919936 0)
(-0.0552532 0.00859883 0)
(-0.057254 0.00792975 0)
(-0.0590807 0.0071938 0)
(-0.0607183 0.00639322 0)
(-0.0621521 0.00553091 0)
(-0.0633687 0.00461057 0)
(-0.0643555 0.00363678 0)
(-0.0651013 0.00261502 0)
(-0.0655962 0.00155179 0)
(-0.0658322 0.000454527 0)
(-0.0658028 -0.000668305 0)
(-0.0655038 -0.00180732 0)
(-0.0649332 -0.00295223 0)
(-0.0640913 -0.00409199 0)
(-0.062981 -0.00521484 0)
(-0.0616077 -0.00630852 0)
(-0.0599798 -0.00736041 0)
(-0.0581083 -0.00835772 0)
(-0.0560069 -0.0092877 0)
(-0.0536924 -0.0101379 0)
(-0.0511839 -0.0108964 0)
(-0.0485032 -0.0115519 0)
(-0.0456745 -0.0120944 0)
(-0.0427242 -0.0125149 0)
(-0.0396804 -0.0128059 0)
(-0.0365727 -0.0129619 0)
(-0.033432 -0.0129789 0)
(-0.0302897 -0.0128554 0)
(-0.0271774 -0.0125919 0)
(-0.0241268 -0.0121912 0)
(-0.0211684 -0.0116588 0)
(-0.0183314 -0.0110024 0)
(-0.0156434 -0.0102327 0)
(-0.0131291 -0.00936243 0)
(-0.0108106 -0.00840739 0)
(-0.00870611 -0.00738581 0)
(-0.00682985 -0.0063187 0)
(-0.00519147 -0.00522989 0)
(-0.00379555 -0.00414624 0)
(-0.00264126 -0.00309791 0)
(-0.00172201 -0.0021187 0)
(-0.00102523 -0.00124659 0)
(-0.000532074 -0.00052439 0)
(-0.000217191 -3.17559e-07 0)
(-5.04469e-05 0.000271072 0)
(-8.0436e-08 0.00022394 0)
(-4.70676e-05 0.000310956 0)
(-0.000332692 0.00125708 0)
(-0.000971998 0.00240617 0)
(-0.00191753 0.00366709 0)
(-0.00314526 0.00497206 0)
(-0.00464184 0.00626873 0)
(-0.00639045 0.00751782 0)
(-0.0083718 0.00869112 0)
(-0.0105654 0.00976929 0)
(-0.0129498 0.01074 0)
(-0.0155028 0.0115961 0)
(-0.0182021 0.0123346 0)
(-0.0210252 0.0129553 0)
(-0.0239496 0.0134597 0)
(-0.0269533 0.0138509 0)
(-0.0300145 0.0141322 0)
(-0.0331121 0.0143071 0)
(-0.0362252 0.0143793 0)
(-0.0393334 0.0143518 0)
(-0.0424167 0.0142273 0)
(-0.0454554 0.014008 0)
(-0.0484303 0.0136958 0)
(-0.0513222 0.0132921 0)
(-0.0541123 0.0127979 0)
(-0.056782 0.0122145 0)
(-0.059313 0.0115428 0)
(-0.0616874 0.0107842 0)
(-0.0638877 0.00994041 0)
(-0.0658969 0.00901362 0)
(-0.0676985 0.00800677 0)
(-0.069277 0.00692362 0)
(-0.0706179 0.00576889 0)
(-0.0717076 0.00454837 0)
(-0.072534 0.00326895 0)
(-0.0730867 0.00193872 0)
(-0.0733568 0.00056695 0)
(-0.0733375 -0.000835886 0)
(-0.0730241 -0.0022582 0)
(-0.0724144 -0.00368732 0)
(-0.0715085 -0.00510966 0)
(-0.0703094 -0.00651079 0)
(-0.0688228 -0.00787567 0)
(-0.0670574 -0.00918882 0)
(-0.0650246 -0.0104346 0)
(-0.0627392 -0.0115973 0)
(-0.0602185 -0.0126618 0)
(-0.0574831 -0.0136132 0)
(-0.054556 -0.014438 0)
(-0.051463 -0.0151236 0)
(-0.0482321 -0.015659 0)
(-0.0448934 -0.016035 0)
(-0.0414787 -0.0162445 0)
(-0.0380211 -0.0162828 0)
(-0.0345544 -0.0161476 0)
(-0.0311129 -0.0158395 0)
(-0.0277307 -0.0153619 0)
(-0.0244411 -0.0147213 0)
(-0.0212761 -0.0139271 0)
(-0.0182657 -0.012992 0)
(-0.0154376 -0.0119317 0)
(-0.012816 -0.0107654 0)
(-0.0104217 -0.00951523 0)
(-0.00827121 -0.00820655 0)
(-0.00637622 -0.00686813 0)
(-0.00474331 -0.00553213 0)
(-0.00337351 -0.00423434 0)
(-0.00226205 -0.00301448 0)
(-0.0013982 -0.00191655 0)
(-0.000764994 -0.000989434 0)
(-0.000338998 -0.000287321 0)
(-9.41765e-05 0.000129617 0)
(-6.94115e-06 0.000190538 0)
(-5.7345e-05 0.000494661 0)
(-0.000396686 0.0017876 0)
(-0.0011468 0.00326502 0)
(-0.00224448 0.00483624 0)
(-0.00365595 0.00643291 0)
(-0.00536191 0.00800171 0)
(-0.00734041 0.00950228 0)
(-0.00956787 0.0109054 0)
(-0.0120204 0.012191 0)
(-0.0146736 0.013346 0)
(-0.0175033 0.0143632 0)
(-0.0204851 0.0152394 0)
(-0.0235947 0.0159745 0)
(-0.0268083 0.0165705 0)
(-0.0301024 0.0170306 0)
(-0.0334542 0.0173587 0)
(-0.036841 0.0175587 0)
(-0.0402408 0.0176347 0)
(-0.0436321 0.0175902 0)
(-0.0469935 0.0174282 0)
(-0.0503042 0.0171513 0)
(-0.0535437 0.0167615 0)
(-0.0566915 0.0162606 0)
(-0.0597277 0.01565 0)
(-0.0626324 0.0149309 0)
(-0.0653862 0.0141049 0)
(-0.0679699 0.0131736 0)
(-0.0703648 0.0121393 0)
(-0.0725529 0.0110047 0)
(-0.0745167 0.00977349 0)
(-0.0762396 0.00845042 0)
(-0.0777061 0.00704127 0)
(-0.0789018 0.0055531 0)
(-0.0798137 0.00399432 0)
(-0.0804306 0.00237471 0)
(-0.080743 0.000705459 0)
(-0.0807434 -0.00100085 0)
(-0.0804268 -0.0027303 0)
(-0.0797904 -0.00446773 0)
(-0.0788341 -0.00619685 0)
(-0.0775608 -0.00790044 0)
(-0.0759762 -0.00956051 0)
(-0.074089 -0.0111586 0)
(-0.0719111 -0.0126759 0)
(-0.0694576 -0.0140938 0)
(-0.0667466 -0.015394 0)
(-0.0637994 -0.0165589 0)
(-0.0606403 -0.0175721 0)
(-0.0572963 -0.0184184 0)
(-0.0537968 -0.0190845 0)
(-0.0501738 -0.0195594 0)
(-0.046461 -0.0198343 0)
(-0.0426935 -0.0199034 0)
(-0.0389076 -0.0197637 0)
(-0.03514 -0.0194157 0)
(-0.0314275 -0.0188631 0)
(-0.027806 -0.0181135 0)
(-0.0243103 -0.0171779 0)
(-0.0209733 -0.0160712 0)
(-0.0178254 -0.0148122 0)
(-0.0148936 -0.0134233 0)
(-0.0122013 -0.0119306 0)
(-0.00976756 -0.0103642 0)
(-0.0076066 -0.00875773 0)
(-0.00572731 -0.00714887 0)
(-0.00413297 -0.00557907 0)
(-0.00282102 -0.00409396 0)
(-0.00178297 -0.00274352 0)
(-0.00100405 -0.00158252 0)
(-0.000463022 -0.000670721 0)
(-0.000138064 -7.33268e-05 0)
(-1.36004e-05 0.000134785 0)
(-6.71945e-05 0.000710542 0)
(-0.000458738 0.00240422 0)
(-0.00131727 0.0042544 0)
(-0.00256452 0.00617201 0)
(-0.00415723 0.00808941 0)
(-0.00607012 0.00995346 0)
(-0.008276 0.0117238 0)
(-0.0107469 0.0133711 0)
(-0.0134552 0.0148751 0)
(-0.0163737 0.016223 0)
(-0.0194757 0.0174076 0)
(-0.0227348 0.018426 0)
(-0.0261252 0.0192785 0)
(-0.0296214 0.0199676 0)
(-0.0331988 0.0204968 0)
(-0.0368332 0.0208708 0)
(-0.040501 0.0210938 0)
(-0.0441791 0.0211704 0)
(-0.0478446 0.0211045 0)
(-0.0514755 0.0208995 0)
(-0.0550497 0.0205582 0)
(-0.0585457 0.0200831 0)
(-0.0619419 0.0194761 0)
(-0.0652174 0.0187389 0)
(-0.0683512 0.017873 0)
(-0.0713229 0.0168804 0)
(-0.0741122 0.015763 0)
(-0.0766996 0.0145236 0)
(-0.0790657 0.0131656 0)
(-0.0811923 0.0116936 0)
(-0.0830617 0.0101131 0)
(-0.0846576 0.00843116 0)
(-0.0859646 0.00665611 0)
(-0.086969 0.00479791 0)
(-0.0876587 0.00286812 0)
(-0.0880234 0.000879906 0)
(-0.088055 -0.00115195 0)
(-0.0877478 -0.00321112 0)
(-0.0870985 -0.00527984 0)
(-0.0861065 -0.00733906 0)
(-0.0847744 -0.0093686 0)
(-0.0831075 -0.0113474 0)
(-0.0811144 -0.0132538 0)
(-0.0788072 -0.0150659 0)
(-0.0762011 -0.0167618 0)
(-0.0733146 -0.0183199 0)
(-0.0701696 -0.0197195 0)
(-0.0667912 -0.0209412 0)
(-0.0632075 -0.0219672 0)
(-0.0594492 -0.0227815 0)
(-0.0555499 -0.0233709 0)
(-0.051545 -0.023725 0)
(-0.0474718 -0.0238363 0)
(-0.0433688 -0.0237012 0)
(-0.0392753 -0.0233197 0)
(-0.0352305 -0.0226961 0)
(-0.0312734 -0.0218385 0)
(-0.0274416 -0.0207598 0)
(-0.0237711 -0.019477 0)
(-0.0202951 -0.0180116 0)
(-0.0170438 -0.0163896 0)
(-0.0140437 -0.0146412 0)
(-0.0113165 -0.0128012 0)
(-0.00887936 -0.0109083 0)
(-0.00674389 -0.00900567 0)
(-0.00491598 -0.00714053 0)
(-0.00339562 -0.00536446 0)
(-0.00217687 -0.00373338 0)
(-0.00124738 -0.00230784 0)
(-0.000588251 -0.00115296 0)
(-0.000181783 -0.000338599 0)
(-2.00316e-05 5.68492e-05 0)
(-7.664e-05 0.000957522 0)
(-0.000518743 0.00310463 0)
(-0.00148282 0.00537141 0)
(-0.00287621 0.00767132 0)
(-0.00464655 0.00993841 0)
(-0.00676265 0.0121208 0)
(-0.00919212 0.014179 0)
(-0.0119024 0.0160845 0)
(-0.0148623 0.0178178 0)
(-0.0180415 0.0193666 0)
(-0.0214108 0.0207243 0)
(-0.0249418 0.0218888 0)
(-0.0286069 0.0228611 0)
(-0.0323794 0.0236442 0)
(-0.0362332 0.0242425 0)
(-0.0401431 0.0246609 0)
(-0.0440844 0.0249046 0)
(-0.0480331 0.0249784 0)
(-0.0519655 0.0248867 0)
(-0.0558585 0.0246333 0)
(-0.0596893 0.0242215 0)
(-0.0634352 0.0236538 0)
(-0.0670742 0.0229324 0)
(-0.070584 0.0220593 0)
(-0.073943 0.0210365 0)
(-0.0771297 0.019866 0)
(-0.0801231 0.0185504 0)
(-0.0829026 0.0170928 0)
(-0.085448 0.0154975 0)
(-0.0877401 0.0137696 0)
(-0.0897604 0.0119159 0)
(-0.0914916 0.00994429 0)
(-0.0929174 0.00786468 0)
(-0.0940234 0.00568854 0)
(-0.0947963 0.00342924 0)
(-0.0952252 0.00110195 0)
(-0.0953012 -0.00127629 0)
(-0.0950176 -0.0036867 0)
(-0.0943705 -0.00610885 0)
(-0.0933586 -0.00852082 0)
(-0.0919838 -0.0108994 0)
(-0.090251 -0.0132204 0)
(-0.0881685 -0.0154587 0)
(-0.0857479 -0.0175892 0)
(-0.0830044 -0.0195864 0)
(-0.0799567 -0.0214255 0)
(-0.0766271 -0.0230823 0)
(-0.0730411 -0.0245342 0)
(-0.0692278 -0.0257604 0)
(-0.065219 -0.0267421 0)
(-0.0610495 -0.0274637 0)
(-0.0567567 -0.0279125 0)
(-0.0523797 -0.0280797 0)
(-0.0479594 -0.0279603 0)
(-0.0435375 -0.0275541 0)
(-0.0391562 -0.026865 0)
(-0.0348572 -0.0259024 0)
(-0.0306815 -0.0246803 0)
(-0.0266681 -0.0232178 0)
(-0.0228537 -0.0215395 0)
(-0.0192718 -0.0196747 0)
(-0.0159522 -0.0176579 0)
(-0.0129199 -0.0155284 0)
(-0.0101954 -0.0133303 0)
(-0.00779314 -0.0111122 0)
(-0.00572217 -0.00892724 0)
(-0.00398529 -0.00683308 0)
(-0.00257935 -0.00489162 0)
(-0.00149463 -0.00316913 0)
(-0.000714528 -0.00173605 0)
(-0.000225334 -0.000666765 0)
(-2.62612e-05 -4.30523e-05 0)
(-8.57031e-05 0.00123451 0)
(-0.000576649 0.0038863 0)
(-0.00164306 0.00661263 0)
(-0.00317858 0.00933025 0)
(-0.00512209 0.0119757 0)
(-0.00743669 0.0144994 0)
(-0.0100848 0.0168635 0)
(-0.0130295 0.0190412 0)
(-0.0162357 0.0210142 0)
(-0.0196702 0.0227716 0)
(-0.0233011 0.0243079 0)
(-0.027098 0.0256221 0)
(-0.0310316 0.0267161 0)
(-0.0350737 0.0275938 0)
(-0.0391971 0.0282606 0)
(-0.0433756 0.028722 0)
(-0.0475836 0.0289838 0)
(-0.051796 0.0290515 0)
(-0.0559887 0.02893 0)
(-0.0601375 0.0286233 0)
(-0.064219 0.028135 0)
(-0.0682098 0.0274681 0)
(-0.072087 0.0266249 0)
(-0.0758278 0.0256078 0)
(-0.0794096 0.0244188 0)
(-0.0828102 0.0230606 0)
(-0.0860078 0.0215359 0)
(-0.0889809 0.0198485 0)
(-0.0917087 0.0180033 0)
(-0.0941709 0.0160061 0)
(-0.0963483 0.0138648 0)
(-0.0982225 0.0115883 0)
(-0.0997766 0.00918804 0)
(-0.100995 0.00667693 0)
(-0.101863 0.00407016 0)
(-0.10237 0.00138495 0)
(-0.102505 -0.00135942 0)
(-0.102261 -0.00414167 0)
(-0.101632 -0.00693868 0)
(-0.100617 -0.00972559 0)
(-0.0992173 -0.0124761 0)
(-0.0974359 -0.0151626 0)
(-0.0952808 -0.0177569 0)
(-0.0927633 -0.0202299 0)
(-0.089898 -0.0225529 0)
(-0.0867036 -0.0246971 0)
(-0.0832023 -0.0266351 0)
(-0.07942 -0.0283406 0)
(-0.0753864 -0.0297894 0)
(-0.0711343 -0.0309598 0)
(-0.0666998 -0.0318333 0)
(-0.0621218 -0.0323948 0)
(-0.0574414 -0.0326337 0)
(-0.0527018 -0.0325435 0)
(-0.0479474 -0.0321231 0)
(-0.0432231 -0.0313764 0)
(-0.038574 -0.0303133 0)
(-0.0340444 -0.028949 0)
(-0.0296768 -0.0273048 0)
(-0.0255116 -0.0254079 0)
(-0.0215861 -0.0232911 0)
(-0.0179337 -0.0209931 0)
(-0.0145833 -0.018558 0)
(-0.0115587 -0.0160351 0)
(-0.00887814 -0.0134788 0)
(-0.00655375 -0.0109483 0)
(-0.00459158 -0.00850732 0)
(-0.0029915 -0.00622391 0)
(-0.00174649 -0.00417022 0)
(-0.0008423 -0.00242206 0)
(-0.000268937 -0.00105847 0)
(-3.23477e-05 -0.000164786 0)
(-9.43988e-05 0.0015404 0)
(-0.000632421 0.00474651 0)
(-0.00179771 0.00797425 0)
(-0.00347087 0.0111442 0)
(-0.00558242 0.0141964 0)
(-0.00808998 0.0170839 0)
(-0.010951 0.0197718 0)
(-0.014124 0.0222354 0)
(-0.0175704 0.0244585 0)
(-0.0212538 0.026432 0)
(-0.0251398 0.0281521 0)
(-0.029196 0.0296193 0)
(-0.0333913 0.0308368 0)
(-0.0376963 0.0318098 0)
(-0.0420826 0.0325444 0)
(-0.0465229 0.0330473 0)
(-0.0509908 0.033325 0)
(-0.0554607 0.0333835 0)
(-0.0599074 0.0332282 0)
(-0.0643065 0.0328637 0)
(-0.0686338 0.0322938 0)
(-0.0728653 0.0315218 0)
(-0.0769774 0.0305504 0)
(-0.0809468 0.029382 0)
(-0.0847503 0.028019 0)
(-0.088365 0.0264643 0)
(-0.0917683 0.0247212 0)
(-0.0949381 0.0227938 0)
(-0.0978527 0.0206876 0)
(-0.100491 0.0184094 0)
(-0.102833 0.0159676 0)
(-0.10486 0.0133727 0)
(-0.106553 0.0106371 0)
(-0.107896 0.00777544 0)
(-0.108874 0.0048046 0)
(-0.109473 0.00174382 0)
(-0.109684 -0.00138539 0)
(-0.109496 -0.00455926 0)
(-0.108904 -0.00775195 0)
(-0.107904 -0.0109356 0)
(-0.106497 -0.0140808 0)
(-0.104686 -0.0171567 0)
(-0.102476 -0.0201312 0)
(-0.0998786 -0.0229719 0)
(-0.0969078 -0.025646 0)
(-0.0935815 -0.0281211 0)
(-0.0899217 -0.0303658 0)
(-0.0859546 -0.0323501 0)
(-0.0817099 -0.0340461 0)
(-0.0772215 -0.0354287 0)
(-0.0725265 -0.0364763 0)
(-0.0676653 -0.037171 0)
(-0.0626809 -0.0374997 0)
(-0.0576189 -0.0374545 0)
(-0.0525264 -0.0370329 0)
(-0.0474513 -0.0362385 0)
(-0.0424423 -0.0350812 0)
(-0.037547 -0.0335776 0)
(-0.0328122 -0.0317506 0)
(-0.0282822 -0.0296302 0)
(-0.0239983 -0.0272527 0)
(-0.0199982 -0.0246607 0)
(-0.0163149 -0.0219034 0)
(-0.0129762 -0.0190354 0)
(-0.0100043 -0.0161171 0)
(-0.00741491 -0.0132137 0)
(-0.00521766 -0.0103954 0)
(-0.00341558 -0.00773657 0)
(-0.00200451 -0.00531544 0)
(-0.000972444 -0.00321349 0)
(-0.000312964 -0.00151469 0)
(-3.83691e-05 -0.000308389 0)
(-0.000102735 0.0018741 0)
(-0.000686013 0.00568243 0)
(-0.00194652 0.00945214 0)
(-0.00375245 0.0131083 0)
(-0.00602637 0.0165947 0)
(-0.00872064 0.0198684 0)
(-0.0117879 0.0228975 0)
(-0.0151824 0.0256605 0)
(-0.0188619 0.0281439 0)
(-0.022787 0.0303409 0)
(-0.026921 0.0322501 0)
(-0.0312292 0.0338736 0)
(-0.0356791 0.0352164 0)
(-0.0402398 0.0362851 0)
(-0.0448818 0.0370871 0)
(-0.049577 0.0376301 0)
(-0.0542983 0.0379216 0)
(-0.0590193 0.0379682 0)
(-0.0637144 0.0377758 0)
(-0.0683586 0.0373496 0)
(-0.0729272 0.0366938 0)
(-0.0773958 0.0358117 0)
(-0.0817404 0.0347065 0)
(-0.0859369 0.0333807 0)
(-0.0899619 0.0318371 0)
(-0.0937917 0.0300786 0)
(-0.0974034 0.0281091 0)
(-0.100774 0.025933 0)
(-0.103881 0.0235565 0)
(-0.106703 0.0209869 0)
(-0.109219 0.0182337 0)
(-0.111409 0.0153082 0)
(-0.113253 0.0122243 0)
(-0.114734 0.00899789 0)
(-0.115837 0.00564771 0)
(-0.116545 0.00219489 0)
(-0.116848 -0.00133686 0)
(-0.116735 -0.00492134 0)
(-0.116199 -0.00852997 0)
(-0.115234 -0.012132 0)
(-0.11384 -0.0156947 0)
(-0.112018 -0.0191838 0)
(-0.109772 -0.0225637 0)
(-0.107114 -0.025798 0)
(-0.104055 -0.0288499 0)
(-0.100612 -0.0316831 0)
(-0.0968079 -0.0342619 0)
(-0.0926678 -0.0365523 0)
(-0.0882219 -0.0385224 0)
(-0.0835044 -0.0401432 0)
(-0.0785535 -0.0413896 0)
(-0.0734108 -0.0422405 0)
(-0.0681216 -0.0426801 0)
(-0.0627335 -0.0426981 0)
(-0.0572964 -0.0422907 0)
(-0.0518618 -0.0414606 0)
(-0.0464817 -0.0402177 0)
(-0.0412079 -0.0385791 0)
(-0.0360912 -0.0365698 0)
(-0.0311806 -0.0342218 0)
(-0.0265219 -0.0315751 0)
(-0.0221575 -0.0286765 0)
(-0.0181249 -0.0255799 0)
(-0.0144565 -0.0223456 0)
(-0.0111787 -0.01904 0)
(-0.00831137 -0.0157348 0)
(-0.00586789 -0.0125068 0)
(-0.00385477 -0.00943693 0)
(-0.00227076 -0.00661001 0)
(-0.00110614 -0.00411355 0)
(-0.000357887 -0.00203693 0)
(-4.44155e-05 -0.000474128 0)
(-0.000110712 0.00223448 0)
(-0.000737364 0.00669108 0)
(-0.00208924 0.0110419 0)
(-0.00402272 0.0152169 0)
(-0.00645282 0.0191645 0)
(-0.00932693 0.0228459 0)
(-0.0125931 0.0262335 0)
(-0.0162014 0.0293093 0)
(-0.0201061 0.032063 0)
(-0.024265 0.034491 0)
(-0.0286389 0.0365943 0)
(-0.0331913 0.0383774 0)
(-0.0378879 0.0398473 0)
(-0.0426965 0.0410124 0)
(-0.0475869 0.0418816 0)
(-0.0525298 0.0424637 0)
(-0.0574977 0.0427672 0)
(-0.0624636 0.0427996 0)
(-0.0674014 0.0425675 0)
(-0.0722857 0.0420765 0)
(-0.0770915 0.041331 0)
(-0.081794 0.040335 0)
(-0.0863687 0.0390915 0)
(-0.0907915 0.0376035 0)
(-0.0950382 0.0358738 0)