/*--------------------------------*- C++ -*----------------------------------*\
  =========                 |
  \\      /  F ield         | OpenFOAM: The Open Source CFD Toolbox
   \\    /   O peration     | Website:  https://openfoam.org
    \\  /    A nd           | Version:  dev
     \\/     M anipulation  |
\*---------------------------------------------------------------------------*/
FoamFile
{
    format      ascii;
    class       volScalarField;
    location    "2.7";
    object      p;
}
// * * * * * * * * * * * * * * * * * * * * * * * * * * * * * * * * * * * * * //

dimensions      [0 2 -2 0 0 0 0];

internalField   nonuniform List<scalar> 
400
(
-4.93562e-09
-0.000444013
-0.00085915
-0.00109293
-0.0010617
-0.000736106
-0.000116209
0.000782969
0.0019334
0.00328872
0.00477722
0.00629707
0.00772041
0.00890615
0.0097256
0.010096
0.0100146
0.00958149
0.00899251
0.00853601
0.000427966
-2.89753e-05
-0.000342037
-0.000465667
-0.000377225
-5.62914e-05
0.000501011
0.00128611
0.00227854
0.00344108
0.00471399
0.00601438
0.00723422
0.00825718
0.008978
0.0093305
0.00931493
0.0090108
0.00855096
0.00808995
0.000856283
0.000245939
-8.66221e-05
-0.000183739
-8.27556e-05
0.00022225
0.000733399
0.00144603
0.00234756
0.00341085
0.00458712
0.00580219
0.0069563
0.007936
0.00863388
0.00897701
0.0089565
0.00863838
0.00811269
0.0074672
0.00111163
0.000298914
-0.000109948
-0.000226941
-0.000141746
0.000137546
0.000610424
0.00127613
0.00213095
0.00315866
0.00432031
0.00554923
0.00674273
0.00777652
0.00852295
0.00888406
0.0088304
0.00841773
0.00771624
0.00679492
0.00105312
3.97569e-05
-0.000458744
-0.00061323
-0.000558258
-0.000312895
0.00012168
0.000750494
0.0015808
0.00260955
0.00380913
0.00512319
0.00644067
0.00761864
0.00849514
0.00892935
0.00885592
0.0083162
0.0073729
0.00610317
0.000569134
-0.000635153
-0.0012268
-0.00142911
-0.00141623
-0.00121547
-0.0008264
-0.00023575
0.000577792
0.00162958
0.00291218
0.00436886
0.00589763
0.00732886
0.00845092
0.00905629
0.00901772
0.008346
0.00709569
0.00537096
-0.000434112
-0.00182162
-0.00250837
-0.00276802
-0.00281212
-0.002675
-0.00235312
-0.00182263
-0.0010442
2.15627e-05
0.0013937
0.00304256
0.00487103
0.00668889
0.00822272
0.00916596
0.00928542
0.00852241
0.00689938
0.00455682
-0.00204353
-0.00360998
-0.00439473
-0.00472343
-0.00484641
-0.00480606
-0.00459585
-0.00418012
-0.00349753
-0.00247584
-0.00105364
0.000786516
0.00298039
0.00533493
0.00751058
0.00906252
0.00958138
0.00886025
0.00682145
0.00363302
-0.00434338
-0.00608804
-0.00697484
-0.00738679
-0.00761844
-0.00772439
-0.00769807
-0.00749329
-0.00702466
-0.00617811
-0.00482967
-0.00288139
-0.000318059
0.00271014
0.00581778
0.00838756
0.00973515
0.00936447
0.00694785
0.00262675
-0.00741528
-0.00934115
-0.0103316
-0.0108374
-0.0112088
-0.0115211
-0.0117745
-0.0119176
-0.0118434
-0.0113906
-0.0103521
-0.00850622
-0.00569091
-0.00192871
0.00241726
0.00655743
0.00942213
0.0100063
0.00744376
0.00168645
-0.0113387
-0.0134534
-0.0145364
-0.0151268
-0.0156518
-0.0162216
-0.0168537
-0.0175024
-0.0180473
-0.0182818
-0.0179019
-0.0165205
-0.0137475
-0.00935567
-0.00354944
0.00279071
0.00814256
0.0107084
0.00860072
0.00120658
-0.0161992
-0.0185149
-0.0196449
-0.0202589
-0.0208998
-0.0217327
-0.0228063
-0.0240935
-0.0254743
-0.0267073
-0.0273913
-0.0269475
-0.0246811
-0.01999
-0.0127175
-0.00363185
0.00536169
0.01141
0.010928
0.00206378
-0.0221174
-0.0246436
-0.0256972
-0.0261684
-0.0267853
-0.027792
-0.0292794
-0.0312492
-0.0335948
-0.0360541
-0.0381402
-0.0390794
-0.0378333
-0.033346
-0.0248789
-0.0127802
0.000950804
0.0123331
0.0153619
0.00603035
-0.0293278
-0.032033
-0.0327221
-0.0326987
-0.0329901
-0.0339385
-0.0356746
-0.0382268
-0.0415025
-0.0452245
-0.0488301
-0.0513691
-0.0514756
-0.0476331
-0.0383782
-0.023334
-0.00410606
0.0145097
0.0236839
0.0163642
-0.0383708
-0.0410412
-0.0407349
-0.0395711
-0.0390266
-0.0395243
-0.0412008
-0.0440834
-0.0480709
-0.0528518
-0.0577788
-0.0617543
-0.0631661
-0.0599606
-0.0500609
-0.0322166
-0.00712615
0.0203759
0.039032
0.0382387
-0.0505355
-0.0523398
-0.049696
-0.04633
-0.0442319
-0.0437717
-0.0450007
-0.0478805
-0.0522434
-0.0576927
-0.0634628
-0.06829
-0.0702342
-0.0672292
-0.0561185
-0.0351354
-0.00380228
0.0340612
0.0661131
0.0784666
-0.0689241
-0.067146
-0.0594704
-0.0523508
-0.0478455
-0.0459144
-0.046355
-0.0489489
-0.0533688
-0.0590622
-0.0650893
-0.0699624
-0.0715492
-0.0671595
-0.0536027
-0.0281602
0.0106907
0.061035
0.111331
0.146524
-0.101815
-0.0872147
-0.0696362
-0.056793
-0.0490036
-0.0452381
-0.0447755
-0.0470223
-0.0513608
-0.0569998
-0.0627805
-0.0669837
-0.0672169
-0.0603456
-0.0427571
-0.0107678
0.0385659
0.105355
0.183241
0.263396
-0.174949
-0.111932
-0.0745239
-0.0546403
-0.0439807
-0.0391252
-0.0385536
-0.0411156
-0.0458112
-0.0516197
-0.0572291
-0.0607892
-0.0597569
-0.0505372
-0.0292065
0.00936851
0.0710333
0.161855
0.288959
0.463966
-0.342636
-0.133284
-0.0553803
-0.0337149
-0.0255094
-0.02292
-0.0246469
-0.02931
-0.0356693
-0.0426649
-0.0490348
-0.0530022
-0.0521456
-0.0434049
-0.0218213
0.0184924
0.087046
0.202379
0.399701
0.730567
)
;

boundaryField
{
    movingWall
    {
        type            zeroGradient;
    }
    fixedWalls
    {
        type            zeroGradient;
    }
    frontAndBack
    {
        type            empty;
    }
}


// ************************************************************************* //
