/*--------------------------------*- C++ -*----------------------------------*\
  =========                 |
  \\      /  F ield         | OpenFOAM: The Open Source CFD Toolbox
   \\    /   O peration     | Website:  https://openfoam.org
    \\  /    A nd           | Version:  dev
     \\/     M anipulation  |
\*---------------------------------------------------------------------------*/
FoamFile
{
    format      ascii;
    class       surfaceScalarField;
    location    "2.7";
    object      phi;
}
// * * * * * * * * * * * * * * * * * * * * * * * * * * * * * * * * * * * * * //

dimensions      [0 3 -1 0 0 0 0];

internalField   nonuniform List<scalar> 
760
(
3.46907e-07
-3.46855e-07
-3.20769e-06
3.55459e-06
-1.0413e-05
7.20531e-06
-1.98357e-05
9.42269e-06
-3.02141e-05
1.03784e-05
-4.05679e-05
1.03538e-05
-5.01153e-05
9.54743e-06
-5.81722e-05
8.05689e-06
-6.4083e-05
5.91085e-06
-6.72144e-05
3.13145e-06
-6.70146e-05
-1.99856e-07
-6.3145e-05
-3.86957e-06
-5.56349e-05
-7.51009e-06
-4.50386e-05
-1.05962e-05
-3.25112e-05
-1.25275e-05
-1.97476e-05
-1.27636e-05
-8.74036e-06
-1.10073e-05
-1.35784e-06
-7.38255e-06
1.2859e-06
-2.64377e-06
1.28592e-06
-3.60908e-06
3.2622e-06
-1.56808e-05
1.56263e-05
-3.46005e-05
2.6125e-05
-5.78817e-05
3.27038e-05
-8.30571e-05
3.55537e-05
-0.000107964
3.52602e-05
-0.000130735
3.23185e-05
-0.000149703
2.7025e-05
-0.000163327
1.95348e-05
-0.000170211
1.00156e-05
-0.000169255
-1.15602e-06
-0.000159849
-1.3275e-05
-0.000142232
-2.51273e-05
-0.000117708
-3.51202e-05
-8.87759e-05
-4.14597e-05
-5.89689e-05
-4.25706e-05
-3.23373e-05
-3.76389e-05
-1.25884e-05
-2.71315e-05
-2.02317e-06
-1.32089e-05
-7.37237e-07
-7.93408e-06
1.11963e-05
-2.83349e-05
3.60271e-05
-5.77014e-05
5.54916e-05
-9.25035e-05
6.75059e-05
-0.000129464
7.25139e-05
-0.000165688
7.14849e-05
-0.000198629
6.52596e-05
-0.000225981
5.43771e-05
-0.000245615
3.91689e-05
-0.000255621
2.00209e-05
-0.000254481
-2.29566e-06
-0.000241364
-2.63924e-05
-0.000216519
-4.99724e-05
-0.000181619
-7.00198e-05
-0.000139948
-8.31306e-05
-9.62448e-05
-8.6274e-05
-5.60679e-05
-7.78158e-05
-2.46859e-05
-5.85135e-05
-5.7139e-06
-3.21809e-05
-6.45113e-06
-1.1662e-05
2.28582e-05
-3.97272e-05
6.40923e-05
-7.86403e-05
9.44046e-05
-0.000123711
0.000112577
-0.000170955
0.000119758
-0.000216983
0.000117512
-0.000258832
0.000107109
-0.000293801
8.93462e-05
-0.000319349
6.47166e-05
-0.000333121
3.37935e-05
-0.000333152
-2.2645e-06
-0.000318156
-4.13891e-05
-0.00028808
-8.00478e-05
-0.000244562
-0.000113538
-0.000191307
-0.000136386
-0.000134078
-0.000143503
-8.00562e-05
-0.000131838
-3.64943e-05
-0.000102075
-8.97544e-06
-5.96997e-05
-1.54266e-05
-1.48991e-05
3.77573e-05
-4.9968e-05
9.91612e-05
-9.77271e-05
0.000142164
-0.000152329
0.000167179
-0.000209156
0.000176585
-0.000264472
0.000172829
-0.000315088
0.000157725
-0.000358073
0.000132331
-0.000390569
9.72132e-05
-0.000409759
5.29833e-05
-0.000413081
1.05719e-06
-0.000398448
-5.60219e-05
-0.000365078
-0.000113417
-0.000314081
-0.000164536
-0.000249216
-0.000201251
-0.000177218
-0.0002155
-0.000107293
-0.000201763
-4.94926e-05
-0.000159875
-1.22509e-05
-9.69414e-05
-2.76776e-05
-1.78324e-05
5.55898e-05
-5.942e-05
0.000140749
-0.000115536
0.00019828
-0.000179255
0.000230897
-0.000245417
0.000242748
-0.000310081
0.000237492
-0.000369991
0.000217634
-0.000422128
0.000184468
-0.000463398
0.000138483
-0.000490494
8.00793e-05
-0.000499943
1.05064e-05
-0.000488659
-6.73061e-05
-0.000454457
-0.000147619
-0.000397297
-0.000221695
-0.000320454
-0.000278094
-0.000231454
-0.0003045
-0.000141984
-0.000291234
-6.60426e-05
-0.000235816
-1.63202e-05
-0.000146664
-4.39977e-05
-2.06009e-05
7.61906e-05
-6.83965e-05
0.000188544
-0.000132532
0.000262416
-0.000205092
0.000303457
-0.000280493
0.000318148
-0.000354734
0.000311734
-0.000424668
0.000287568
-0.00048735
0.00024715
-0.000539551
0.000190684
-0.00057746
0.000117989
-0.000596649
2.96944e-05
-0.00059248
-7.14748e-05
-0.000560872
-0.000179228
-0.000499801
-0.000282766
-0.000411187
-0.000366707
-0.000302776
-0.000412912
-0.000188949
-0.000405061
-8.90185e-05
-0.000335747
-2.21205e-05
-0.000213562
-6.61182e-05
-2.32868e-05
9.94774e-05
-7.70822e-05
0.00024234
-0.000148927
0.00033426
-0.000229972
0.000384502
-0.00031432
0.000402496
-0.000398085
0.000395499
-0.000478419
0.000367902
-0.00055266
0.000321391
-0.000617629
0.000255652
-0.000669135
0.000169495
-0.000701767
6.23267e-05
-0.000709149
-6.40927e-05
-0.000684755
-0.000203622
-0.000623678
-0.000343843
-0.000525242
-0.000465143
-0.000396167
-0.000541987
-0.000253031
-0.000548197
-0.000121667
-0.000467111
-3.07658e-05
-0.000304463
-9.6884e-05
-2.59329e-05
0.00012541
-8.55482e-05
0.000301955
-0.000164672
0.000413384
-0.000253507
0.000473337
-0.000345934
0.000494924
-0.000438347
0.000487911
-0.000528419
0.000457975
-0.000614026
0.000406998
-0.000692324
0.00033395
-0.000759046
0.000236218
-0.000808053
0.000111333
-0.00083135
-4.07957e-05
-0.000819755
-0.000215216
-0.00076472
-0.000398877
-0.000661478
-0.000568386
-0.000513621
-0.000689844
-0.000338084
-0.000723733
-0.00016742
-0.000637775
-4.36295e-05
-0.000428253
-0.000140514
-2.85966e-05
0.000154007
-9.38629e-05
0.000367221
-0.000179597
0.000499118
-0.000274923
0.000568663
-0.00037356
0.000593561
-0.000472339
0.000586689
-0.000569678
0.000555314
-0.000664275
0.000501595
-0.000754016
0.000423691
-0.000835067
0.000317269
-0.000901181
0.000177447
-0.000943377
1.40041e-06
-0.000950224
-0.00020837
-0.000909315
-0.000439787
-0.000810425
-0.000667276
-0.000651192
-0.000849077
-0.000445173
-0.000929752
-0.000229428
-0.00085352
-6.24683e-05
-0.000595213
-0.000202982
-3.14535e-05
0.00018546
-0.000102313
0.000438081
-0.000193687
0.000590492
-0.000293362
0.000668338
-0.000394937
0.000695136
-0.00049584
0.000687592
-0.000595446
0.00065492
-0.00069357
0.000599719
-0.000789277
0.000519398
-0.000879868
0.00040786
-0.000959989
0.000257568
-0.00102087
6.2286e-05
-0.00105015
-0.00017909
-0.00103231
-0.000457633
-0.000951107
-0.000748477
-0.000795351
-0.00100483
-0.00056963
-0.00115547
-0.00030937
-0.00111378
-8.95001e-05
-0.000815083
-0.000292482
-3.49809e-05
0.000220441
-0.000111764
0.000514864
-0.00020752
0.000686248
-0.000308344
0.000769162
-0.000407839
0.000794631
-0.000504266
0.000784018
-0.000598173
0.000748827
-0.000690765
0.000692311
-0.000782733
0.000611366
-0.000873282
0.000498409
-0.00095916
0.000343446
-0.0010336
0.000136729
-0.00108529
-0.000127407
-0.00109778
-0.000445138
-0.00104986
-0.000796393
-0.000919869
-0.00113483
-0.000697204
-0.00137814
-0.000405003
-0.00140598
-0.000127183
-0.0010929
-0.000419665
-4.02779e-05
0.000260719
-0.000124184
0.00059877
-0.000222784
0.000784848
-0.000320219
0.000866598
-0.000410571
0.000884983
-0.000493394
0.000866842
-0.000570722
0.000826155
-0.00064539
0.000766979
-0.000720063
0.000686038
-0.00079648
0.000574826
-0.000874621
0.000421588
-0.00095155
0.000213657
-0.00101945
-5.95098e-05
-0.00106446
-0.00040013
-0.00106345
-0.000797395
-0.000985551
-0.00121273
-0.000800683
-0.00156301
-0.000506307
-0.00170036
-0.000177157
-0.00142205
-0.000596821
-4.96343e-05
0.000310354
-0.00014334
0.000692476
-0.000242638
0.000884146
-0.000330143
0.000954103
-0.000401743
0.000956582
-0.000459261
0.00092436
-0.000506729
0.000873623
-0.000548858
0.000809108
-0.000590442
0.000727622
-0.00063601
0.000620394
-0.000689351
0.00047493
-0.000752631
0.000276937
-0.000823801
1.166e-05
-0.000895342
-0.000328589
-0.00094735
-0.000745387
-0.000944998
-0.00121508
-0.000839536
-0.00166847
-0.000591243
-0.00194865
-0.000237611
-0.00177569
-0.000834432
-6.75159e-05
0.000377869
-0.000175445
0.000800406
-0.000271089
0.000979789
-0.000338222
0.00102124
-0.000377602
0.000995963
-0.000395108
0.000941866
-0.0003976
0.000876115
-0.000391907
0.000803416
-0.000384844
0.000720558
-0.000383429
0.000618978
-0.000394874
0.000486375
-0.000426447
0.00030851
-0.000483887
6.90997e-05
-0.000567269
-0.000245207
-0.000666574
-0.000646082
-0.000751942
-0.00112971
-0.000764237
-0.00165617
-0.000623208
-0.00208968
-0.000298651
-0.00210024
-0.00113308
-0.00010193
0.000479799
-0.000228361
0.000926837
-0.000308409
0.00105984
-0.000335918
0.00104874
-0.000322528
0.000982572
-0.000280844
0.000900182
-0.000221504
0.000816774
-0.000153488
0.0007354
-8.51059e-05
0.000652177
-2.50409e-05
0.000558913
1.68876e-05
0.000444446
3.04807e-05
0.000294917
3.68665e-06
9.58937e-05
-7.22122e-05
-0.000169308
-0.000201932
-0.000516362
-0.000370336
-0.000961311
-0.000523866
-0.00150264
-0.000551877
-0.00206167
-0.000337006
-0.00231511
-0.00147009
-0.000164639
0.000644438
-0.000302071
0.00106427
-0.000331853
0.00108962
-0.000281181
0.000998072
-0.000182064
0.000883456
-5.60784e-05
0.000774197
8.26583e-05
0.000678037
0.000224207
0.000593852
0.000360339
0.000516044
0.000482694
0.000436558
0.000581443
0.000345697
0.000644006
0.000232354
0.000655446
8.4454e-05
0.000598345
-0.000112207
0.000457048
-0.000375064
0.000224937
-0.0007292
-6.86874e-05
-0.00120902
-0.000315835
-0.00181452
-0.000314415
-0.00231653
-0.00178451
-0.000261704
0.000906142
-0.000337793
0.00114036
-0.000225863
0.000977689
-2.74906e-05
0.0007997
0.000200596
0.000655369
0.00043348
0.000541312
0.000659494
0.000452023
0.000872239
0.000381107
0.00106698
0.0003213
0.00123832
0.000265224
0.0013785
0.000205518
0.0014762
0.000134649
0.00151575
4.49061e-05
0.00147745
-7.39104e-05
0.00133604
-0.000233652
0.00106421
-0.000457373
0.000650498
-0.000795303
0.000165806
-0.00132983
-0.000148024
-0.0020027
-0.00193253
-0.00025652
0.00116266
-6.21058e-07
0.00088446
0.000421209
0.000555859
0.000824025
0.000396884
0.00118183
0.000297567
0.00149607
0.00022707
0.00177095
0.000177146
0.00201075
0.000141303
0.00221834
0.000113709
0.00239382
8.97491e-05
0.00253367
6.56672e-05
0.00263004
3.82768e-05
0.00266895
5.99799e-06
0.00263505
-4.00156e-05
0.00249943
-9.80308e-05
0.00222392
-0.000181859
0.00175576
-0.000327142
0.00106565
-0.000639724
0.000308354
-0.0012454
-0.00162418
0.00116266
0.00204712
0.00260298
0.00299987
0.00329743
0.0035245
0.00370165
0.00384295
0.00395666
0.00404641
0.00411208
0.00415035
0.00415635
0.00411634
0.0040183
0.00383645
0.0035093
0.00286958
0.00162418
)
;

boundaryField
{
    movingWall
    {
        type            calculated;
        value           uniform 0;
    }
    fixedWalls
    {
        type            calculated;
        value           uniform 0;
    }
    frontAndBack
    {
        type            empty;
    }
}


// ************************************************************************* //
