/*--------------------------------*- C++ -*----------------------------------*\
  =========                 |
  \\      /  F ield         | OpenFOAM: The Open Source CFD Toolbox
   \\    /   O peration     | Website:  https://openfoam.org
    \\  /    A nd           | Version:  dev
     \\/     M anipulation  |
\*---------------------------------------------------------------------------*/
FoamFile
{
    format      ascii;
    class       volVectorField;
    location    "2.7";
    object      U;
}
// * * * * * * * * * * * * * * * * * * * * * * * * * * * * * * * * * * * * * //

dimensions      [0 1 -1 0 0 0 0];

internalField   nonuniform List<vector> 
400
(
(0.000136035 -0.000136864 0)
(-0.000109595 0.000155912 0)
(-0.00124465 0.000454728 0)
(-0.00296167 0.000633611 0)
(-0.00498704 0.000710876 0)
(-0.00709835 0.00071555 0)
(-0.00912111 0.000666285 0)
(-0.0109109 0.000570809 0)
(-0.0123349 0.000429503 0)
(-0.0132628 0.000241186 0)
(-0.0135727 9.30718e-06 0)
(-0.0131701 -0.000253429 0)
(-0.0120183 -0.000518963 0)
(-0.010172 -0.000746731 0)
(-0.00780214 -0.000888443 0)
(-0.00520024 -0.000899192 0)
(-0.00274723 -0.000752473 0)
(-0.000842863 -0.000455347 0)
(0.000182485 -7.03005e-05 0)
(0.000220564 0.000206852 0)
(-0.000159038 0.000102438 0)
(-0.00155028 0.00151418 0)
(-0.00474983 0.00279552 0)
(-0.00910432 0.0035981 0)
(-0.0140609 0.00395139 0)
(-0.0191641 0.00393957 0)
(-0.0240157 0.0036287 0)
(-0.0282652 0.00305452 0)
(-0.0315926 0.00223126 0)
(-0.033701 0.00117232 0)
(-0.0343321 -8.55512e-05 0)
(-0.0333031 -0.00146145 0)
(-0.0305647 -0.00281639 0)
(-0.0262629 -0.00395981 0)
(-0.0207789 -0.00467566 0)
(-0.0147307 -0.00477254 0)
(-0.00890483 -0.00414974 0)
(-0.00411055 -0.00286134 0)
(-0.00101744 -0.00118132 0)
(1.64755e-05 0.000214234 0)
(-0.000503153 0.00128275 0)
(-0.00308737 0.00478595 0)
(-0.00822045 0.00766464 0)
(-0.0148371 0.00947057 0)
(-0.022168 0.0102472 0)
(-0.0296186 0.0101407 0)
(-0.0366536 0.00928015 0)
(-0.0427901 0.00774681 0)
(-0.0475854 0.005588 0)
(-0.0506305 0.0028574 0)
(-0.0515719 -0.000335499 0)
(-0.050159 -0.00378187 0)
(-0.0463165 -0.00714767 0)
(-0.0402246 -0.00998755 0)
(-0.0323776 -0.0118045 0)
(-0.0235954 -0.0121631 0)
(-0.0149423 -0.0108389 0)
(-0.00753917 -0.00796242 0)
(-0.00238825 -0.00412571 0)
(-0.000245561 -0.000563006 0)
(-0.000789674 0.00326429 0)
(-0.00445139 0.00968 0)
(-0.0113707 0.0145604 0)
(-0.0200302 0.0175424 0)
(-0.0294493 0.0187604 0)
(-0.0389324 0.0184542 0)
(-0.04786 0.0168295 0)
(-0.0556701 0.0140193 0)
(-0.0618398 0.0101082 0)
(-0.0658752 0.00519584 0)
(-0.0673319 -0.000524408 0)
(-0.0658656 -0.0066956 0)
(-0.0613199 -0.012749 0)
(-0.0538333 -0.0179233 0)
(-0.0439307 -0.0213564 0)
(-0.0325731 -0.0222718 0)
(-0.0210916 -0.020238 0)
(-0.0109729 -0.0154228 0)
(-0.00366631 -0.00875357 0)
(-0.000446874 -0.00203246 0)
(-0.00102871 0.00593362 0)
(-0.0056561 0.0160204 0)
(-0.0142265 0.023259 0)
(-0.0247816 0.0275412 0)
(-0.0361384 0.0291942 0)
(-0.0475232 0.0286035 0)
(-0.0582685 0.026071 0)
(-0.0677707 0.0217829 0)
(-0.0754558 0.0158507 0)
(-0.0807542 0.00840211 0)
(-0.0831142 -0.000304406 0)
(-0.0820493 -0.00976697 0)
(-0.0772417 -0.0191786 0)
(-0.0686898 -0.0274117 0)
(-0.0568554 -0.0331383 0)
(-0.0427899 -0.0350957 0)
(-0.0281219 -0.0324886 0)
(-0.0148324 -0.0254154 0)
(-0.00501111 -0.0151346 0)
(-0.000617491 -0.00412775 0)
(-0.00124004 0.00921525 0)
(-0.00675552 0.0237028 0)
(-0.016876 0.0336644 0)
(-0.0292315 0.0393876 0)
(-0.0424537 0.0414989 0)
(-0.0557134 0.0405921 0)
(-0.0683269 0.0370917 0)
(-0.079682 0.0312347 0)
(-0.089178 0.0231355 0)
(-0.0961757 0.0129103 0)
(-0.0999861 0.000834152 0)
(-0.0999278 -0.0124953 0)
(-0.0954311 -0.0260423 0)
(-0.0862213 -0.0382713 0)
(-0.0725697 -0.0472614 0)
(-0.0555331 -0.0510456 0)
(-0.0370543 -0.0481996 0)
(-0.0197713 -0.0385452 0)
(-0.00670874 -0.0236514 0)
(-0.000817404 -0.00692263 0)
(-0.00143754 0.0130634 0)
(-0.00779479 0.0326523 0)
(-0.0193968 0.0457039 0)
(-0.0334862 0.0530288 0)
(-0.0485298 0.055662 0)
(-0.0636694 0.0544754 0)
(-0.0782387 0.0500463 0)
(-0.0916521 0.0426567 0)
(-0.103311 0.0323873 0)
(-0.11252 0.0192802 0)
(-0.118445 0.00354584 0)
(-0.120154 -0.0142114 0)
(-0.116721 -0.0327753 0)
(-0.10746 -0.0501868 0)
(-0.0922725 -0.0637951 0)
(-0.072059 -0.070637 0)
(-0.0490146 -0.0682485 0)
(-0.0265774 -0.0557921 0)
(-0.00911523 -0.0350378 0)
(-0.00111838 -0.0106625 0)
(-0.00162934 0.0174546 0)
(-0.0088019 0.04282 0)
(-0.0218322 0.0593178 0)
(-0.0375847 0.068411 0)
(-0.0543781 0.0716589 0)
(-0.0713542 0.0702903 0)
(-0.0879015 0.0650698 0)
(-0.103503 0.0563179 0)
(-0.117604 0.0440357 0)
(-0.129483 0.028109 0)
(-0.138179 0.0085715 0)
(-0.142486 -0.0140862 0)
(-0.141054 -0.0385843 0)
(-0.13264 -0.0625801 0)
(-0.116559 -0.0825857 0)
(-0.0932871 -0.0943104 0)
(-0.0650524 -0.0936738 0)
(-0.0361109 -0.0785119 0)
(-0.0126578 -0.0504408 0)
(-0.00161051 -0.0157978 0)
(-0.00182029 0.0223773 0)
(-0.00979206 0.0541697 0)
(-0.0241932 0.0744386 0)
(-0.0414946 0.0854401 0)
(-0.0598747 0.0893909 0)
(-0.0785033 0.0879673 0)
(-0.0968636 0.0821639 0)
(-0.114556 0.0723369 0)
(-0.131123 0.0583621 0)
(-0.145881 0.03988 0)
(-0.157795 0.0166166 0)
(-0.165433 -0.0112171 0)
(-0.167013 -0.0424531 0)
(-0.160652 -0.0744985 0)
(-0.144858 -0.103024 0)
(-0.119314 -0.122126 0)
(-0.0858303 -0.125407 0)
(-0.0492015 -0.108317 0)
(-0.0178523 -0.0714471 0)
(-0.00242077 -0.0230284 0)
(-0.00201801 0.0278274 0)
(-0.0107853 0.0666662 0)
(-0.0264838 0.0909613 0)
(-0.0451391 0.103929 0)
(-0.0647839 0.108603 0)
(-0.0846405 0.107216 0)
(-0.104327 0.101048 0)
(-0.12361 0.0904978 0)
(-0.142198 0.075282 0)
(-0.159533 0.0547187 0)
(-0.174626 0.0280983 0)
(-0.185943 -0.00483113 0)
(-0.19139 -0.043248 0)
(-0.188475 -0.0845647 0)
(-0.174766 -0.123792 0)
(-0.148749 -0.153324 0)
(-0.111113 -0.163775 0)
(-0.0664246 -0.146746 0)
(-0.0253157 -0.100034 0)
(-0.00374599 -0.0333705 0)
(-0.00224426 0.0338197 0)
(-0.0118409 0.0802811 0)
(-0.0287536 0.108724 0)
(-0.0484573 0.123542 0)
(-0.0688202 0.128797 0)
(-0.0891443 0.127407 0)
(-0.10922 0.121004 0)
(-0.129031 0.110053 0)
(-0.148522 0.0941042 0)
(-0.167373 0.0721122 0)
(-0.184808 0.0428427 0)
(-0.199422 0.00541679 0)
(-0.209065 -0.0399574 0)
(-0.210868 -0.0910665 0)
(-0.201514 -0.142702 0)
(-0.177996 -0.185843 0)
(-0.139044 -0.207782 0)
(-0.0876525 -0.194619 0)
(-0.0357178 -0.138364 0)
(-0.00589803 -0.0482527 0)
(-0.00255603 0.0404271 0)
(-0.0131145 0.0950284 0)
(-0.0311793 0.127502 0)
(-0.0514928 0.143757 0)
(-0.0717438 0.149159 0)
(-0.0913629 0.147473 0)
(-0.110361 0.140753 0)
(-0.128982 0.129571 0)
(-0.147471 0.113339 0)
(-0.165865 0.0906674 0)
(-0.183798 0.0597831 0)
(-0.200288 0.019089 0)
(-0.213521 -0.0320559 0)
(-0.220689 -0.0922536 0)
(-0.217952 -0.156781 0)
(-0.200824 -0.216013 0)
(-0.165374 -0.254301 0)
(-0.111314 -0.251015 0)
(-0.0495513 -0.188243 0)
(-0.00933745 -0.0696116 0)
(-0.00308535 0.0478694 0)
(-0.0149524 0.111042 0)
(-0.0341733 0.14702 0)
(-0.0544898 0.163815 0)
(-0.0734484 0.168501 0)
(-0.0907254 0.165854 0)
(-0.106632 0.158413 0)
(-0.121722 0.146901 0)
(-0.136593 0.130655 0)
(-0.151727 0.108028 0)
(-0.167335 0.0767956 0)
(-0.18315 0.0346792 0)
(-0.198121 -0.0199306 0)
(-0.210114 -0.0868784 0)
(-0.215458 -0.162768 0)
(-0.208694 -0.238701 0)
(-0.183081 -0.297532 0)
(-0.133524 -0.311994 0)
(-0.066551 -0.250011 0)
(-0.0146228 -0.0998586 0)
(-0.00411513 0.0566906 0)
(-0.0180378 0.128694 0)
(-0.0384981 0.166934 0)
(-0.0579232 0.182655 0)
(-0.0739248 0.185193 0)
(-0.086694 0.180484 0)
(-0.0969938 0.17156 0)
(-0.105754 0.159307 0)
(-0.113956 0.143062 0)
(-0.122559 0.121056 0)
(-0.132421 0.0907987 0)
(-0.14416 0.0495241 0)
(-0.157835 -0.00527458 0)
(-0.172586 -0.0749485 0)
(-0.185798 -0.158133 0)
(-0.192158 -0.248282 0)
(-0.182893 -0.329314 0)
(-0.147541 -0.36964 0)
(-0.0846677 -0.320744 0)
(-0.0221252 -0.141423 0)
(-0.00621801 0.0680939 0)
(-0.0236005 0.148719 0)
(-0.0452852 0.186703 0)
(-0.0622421 0.198704 0)
(-0.072789 0.197027 0)
(-0.0781708 0.188774 0)
(-0.0798563 0.177352 0)
(-0.0792439 0.163746 0)
(-0.0777048 0.147321 0)
(-0.0766211 0.126318 0)
(-0.0774083 0.0982058 0)
(-0.0815364 0.0600379 0)
(-0.0903277 0.0086815 0)
(-0.104481 -0.0584226 0)
(-0.123235 -0.142403 0)
(-0.142978 -0.240433 0)
(-0.15483 -0.340759 0)
(-0.144043 -0.412383 0)
(-0.0988384 -0.392449 0)
(-0.0312873 -0.195723 0)
(-0.0104578 0.0845875 0)
(-0.0335686 0.172201 0)
(-0.055525 0.205127 0)
(-0.066619 0.209396 0)
(-0.0675259 0.200876 0)
(-0.0614581 0.187484 0)
(-0.0509043 0.172632 0)
(-0.0377976 0.157189 0)
(-0.0238347 0.140481 0)
(-0.0106695 0.120833 0)
(-3.44407e-05 0.0958648 0)
(0.00599167 0.0626969 0)
(0.00517643 0.0181456 0)
(-0.00474983 -0.0410386 0)
(-0.0253048 -0.117891 0)
(-0.0557836 -0.213944 0)
(-0.0900206 -0.324758 0)
(-0.112161 -0.426919 0)
(-0.100315 -0.451646 0)
(-0.0393068 -0.262206 0)
(-0.0184347 0.111372 0)
(-0.0498318 0.199616 0)
(-0.0671388 0.218533 0)
(-0.0643444 0.209562 0)
(-0.0481629 0.191596 0)
(-0.0247937 0.172124 0)
(0.00222753 0.153752 0)
(0.0306389 0.136784 0)
(0.0587125 0.120314 0)
(0.0848573 0.10273 0)
(0.107324 0.0819333 0)
(0.123936 0.0553931 0)
(0.131981 0.0203614 0)
(0.128256 -0.0264092 0)
(0.109358 -0.088559 0)
(0.0724809 -0.170964 0)
(0.0186621 -0.277734 0)
(-0.0404302 -0.40035 0)
(-0.0772559 -0.479758 0)
(-0.0395084 -0.336139 0)
(-0.030661 0.15862 0)
(-0.0683907 0.225688 0)
(-0.0621332 0.213792 0)
(-0.0280295 0.186546 0)
(0.0164247 0.15946 0)
(0.0633623 0.135914 0)
(0.109662 0.116386 0)
(0.153758 0.100131 0)
(0.194657 0.0858376 0)
(0.231432 0.0719542 0)
(0.262844 0.0567745 0)
(0.287076 0.0384228 0)
(0.301457 0.0148775 0)
(0.302594 -0.016282 0)
(0.286072 -0.058075 0)
(0.246477 -0.116053 0)
(0.17911 -0.200514 0)
(0.0849715 -0.32229 0)
(-0.0136253 -0.451307 0)
(-0.0177902 -0.394687 0)
(-0.0276815 0.22904 0)
(-0.0406653 0.225518 0)
(0.0383016 0.166008 0)
(0.125186 0.125956 0)
(0.202295 0.0982501 0)
(0.269485 0.0777562 0)
(0.328228 0.0625537 0)
(0.379534 0.0511315 0)
(0.424142 0.0420361 0)
(0.462393 0.0339797 0)
(0.493997 0.025809 0)
(0.517896 0.0164273 0)
(0.531887 0.00473767 0)
(0.533239 -0.0101904 0)
(0.517567 -0.0302301 0)
(0.47854 -0.058784 0)
(0.407229 -0.105115 0)
(0.290649 -0.192781 0)
(0.128534 -0.332334 0)
(0.0654745 -0.369584 0)
(0.261508 0.138563 0)
(0.32522 0.119207 0)
(0.457761 0.077987 0)
(0.562499 0.0520319 0)
(0.633533 0.0360436 0)
(0.684788 0.025487 0)
(0.724325 0.0184029 0)
(0.75572 0.0136195 0)
(0.780939 0.0102498 0)
(0.801105 0.0076305 0)
(0.816582 0.00525925 0)
(0.827047 0.0027422 0)
(0.831566 -0.000305074 0)
(0.828502 -0.00388199 0)
(0.815081 -0.00864518 0)
(0.787485 -0.0154851 0)
(0.737868 -0.0268159 0)
(0.648481 -0.0515541 0)
(0.474196 -0.111423 0)
(0.340735 -0.156311 0)
)
;

boundaryField
{
    movingWall
    {
        type            fixedValue;
        value           uniform (1 0 0);
    }
    fixedWalls
    {
        type            noSlip;
    }
    frontAndBack
    {
        type            empty;
    }
}


// ************************************************************************* //
