/*--------------------------------*- C++ -*----------------------------------*\
  =========                 |
  \\      /  F ield         | OpenFOAM: The Open Source CFD Toolbox
   \\    /   O peration     | Website:  https://openfoam.org
    \\  /    A nd           | Version:  dev
     \\/     M anipulation  |
\*---------------------------------------------------------------------------*/
FoamFile
{
    format      ascii;
    class       volScalarField;
    location    "2.7";
    object      Ux;
}
// * * * * * * * * * * * * * * * * * * * * * * * * * * * * * * * * * * * * * //

dimensions      [0 1 -1 0 0 0 0];

internalField   nonuniform List<scalar> 
400
(
0.000136035
-0.000109595
-0.00124465
-0.00296167
-0.00498704
-0.00709835
-0.00912111
-0.0109109
-0.0123349
-0.0132628
-0.0135727
-0.0131701
-0.0120183
-0.010172
-0.00780214
-0.00520024
-0.00274723
-0.000842863
0.000182485
0.000220564
-0.000159038
-0.00155028
-0.00474983
-0.00910432
-0.0140609
-0.0191641
-0.0240157
-0.0282652
-0.0315926
-0.033701
-0.0343321
-0.0333031
-0.0305647
-0.0262629
-0.0207789
-0.0147307
-0.00890483
-0.00411055
-0.00101744
1.64755e-05
-0.000503153
-0.00308737
-0.00822045
-0.0148371
-0.022168
-0.0296186
-0.0366536
-0.0427901
-0.0475854
-0.0506305
-0.0515719
-0.050159
-0.0463165
-0.0402246
-0.0323776
-0.0235954
-0.0149423
-0.00753917
-0.00238825
-0.000245561
-0.000789674
-0.00445139
-0.0113707
-0.0200302
-0.0294493
-0.0389324
-0.04786
-0.0556701
-0.0618398
-0.0658752
-0.0673319
-0.0658656
-0.0613199
-0.0538333
-0.0439307
-0.0325731
-0.0210916
-0.0109729
-0.00366631
-0.000446874
-0.00102871
-0.0056561
-0.0142265
-0.0247816
-0.0361384
-0.0475232
-0.0582685
-0.0677707
-0.0754558
-0.0807542
-0.0831142
-0.0820493
-0.0772417
-0.0686898
-0.0568554
-0.0427899
-0.0281219
-0.0148324
-0.00501111
-0.000617491
-0.00124004
-0.00675552
-0.016876
-0.0292315
-0.0424537
-0.0557134
-0.0683269
-0.079682
-0.089178
-0.0961757
-0.0999861
-0.0999278
-0.0954311
-0.0862213
-0.0725697
-0.0555331
-0.0370543
-0.0197713
-0.00670874
-0.000817404
-0.00143754
-0.00779479
-0.0193968
-0.0334862
-0.0485298
-0.0636694
-0.0782387
-0.0916521
-0.103311
-0.11252
-0.118445
-0.120154
-0.116721
-0.10746
-0.0922725
-0.072059
-0.0490146
-0.0265774
-0.00911523
-0.00111838
-0.00162934
-0.0088019
-0.0218322
-0.0375847
-0.0543781
-0.0713542
-0.0879015
-0.103503
-0.117604
-0.129483
-0.138179
-0.142486
-0.141054
-0.13264
-0.116559
-0.0932871
-0.0650524
-0.0361109
-0.0126578
-0.00161051
-0.00182029
-0.00979206
-0.0241932
-0.0414946
-0.0598747
-0.0785033
-0.0968636
-0.114556
-0.131123
-0.145881
-0.157795
-0.165433
-0.167013
-0.160652
-0.144858
-0.119314
-0.0858303
-0.0492015
-0.0178523
-0.00242077
-0.00201801
-0.0107853
-0.0264838
-0.0451391
-0.0647839
-0.0846405
-0.104327
-0.12361
-0.142198
-0.159533
-0.174626
-0.185943
-0.19139
-0.188475
-0.174766
-0.148749
-0.111113
-0.0664246
-0.0253157
-0.00374599
-0.00224426
-0.0118409
-0.0287536
-0.0484573
-0.0688202
-0.0891443
-0.10922
-0.129031
-0.148522
-0.167373
-0.184808
-0.199422
-0.209065
-0.210868
-0.201514
-0.177996
-0.139044
-0.0876525
-0.0357178
-0.00589803
-0.00255603
-0.0131145
-0.0311793
-0.0514928
-0.0717438
-0.0913629
-0.110361
-0.128982
-0.147471
-0.165865
-0.183798
-0.200288
-0.213521
-0.220689
-0.217952
-0.200824
-0.165374
-0.111314
-0.0495513
-0.00933745
-0.00308535
-0.0149524
-0.0341733
-0.0544898
-0.0734484
-0.0907254
-0.106632
-0.121722
-0.136593
-0.151727
-0.167335
-0.18315
-0.198121
-0.210114
-0.215458
-0.208694
-0.183081
-0.133524
-0.066551
-0.0146228
-0.00411513
-0.0180378
-0.0384981
-0.0579232
-0.0739248
-0.086694
-0.0969938
-0.105754
-0.113956
-0.122559
-0.132421
-0.14416
-0.157835
-0.172586
-0.185798
-0.192158
-0.182893
-0.147541
-0.0846677
-0.0221252
-0.00621801
-0.0236005
-0.0452852
-0.0622421
-0.072789
-0.0781708
-0.0798563
-0.0792439
-0.0777048
-0.0766211
-0.0774083
-0.0815364
-0.0903277
-0.104481
-0.123235
-0.142978
-0.15483
-0.144043
-0.0988384
-0.0312873
-0.0104578
-0.0335686
-0.055525
-0.066619
-0.0675259
-0.0614581
-0.0509043
-0.0377976
-0.0238347
-0.0106695
-3.44407e-05
0.00599167
0.00517643
-0.00474983
-0.0253048
-0.0557836
-0.0900206
-0.112161
-0.100315
-0.0393068
-0.0184347
-0.0498318
-0.0671388
-0.0643444
-0.0481629
-0.0247937
0.00222753
0.0306389
0.0587125
0.0848573
0.107324
0.123936
0.131981
0.128256
0.109358
0.0724809
0.0186621
-0.0404302
-0.0772559
-0.0395084
-0.030661
-0.0683907
-0.0621332
-0.0280295
0.0164247
0.0633623
0.109662
0.153758
0.194657
0.231432
0.262844
0.287076
0.301457
0.302594
0.286072
0.246477
0.17911
0.0849715
-0.0136253
-0.0177902
-0.0276815
-0.0406653
0.0383016
0.125186
0.202295
0.269485
0.328228
0.379534
0.424142
0.462393
0.493997
0.517896
0.531887
0.533239
0.517567
0.47854
0.407229
0.290649
0.128534
0.0654745
0.261508
0.32522
0.457761
0.562499
0.633533
0.684788
0.724325
0.75572
0.780939
0.801105
0.816582
0.827047
0.831566
0.828502
0.815081
0.787485
0.737868
0.648481
0.474196
0.340735
)
;

boundaryField
{
    movingWall
    {
        type            calculated;
        value           uniform 1;
    }
    fixedWalls
    {
        type            calculated;
        value           uniform 0;
    }
    frontAndBack
    {
        type            empty;
    }
}


// ************************************************************************* //
