/*--------------------------------*- C++ -*----------------------------------*\
  =========                 |
  \\      /  F ield         | OpenFOAM: The Open Source CFD Toolbox
   \\    /   O peration     | Website:  https://openfoam.org
    \\  /    A nd           | Version:  dev
     \\/     M anipulation  |
\*---------------------------------------------------------------------------*/
FoamFile
{
    format      ascii;
    class       volScalarField;
    location    "2.7";
    object      Uy;
}
// * * * * * * * * * * * * * * * * * * * * * * * * * * * * * * * * * * * * * //

dimensions      [0 1 -1 0 0 0 0];

internalField   nonuniform List<scalar> 
400
(
-0.000136864
0.000155912
0.000454728
0.000633611
0.000710876
0.00071555
0.000666285
0.000570809
0.000429503
0.000241186
9.30718e-06
-0.000253429
-0.000518963
-0.000746731
-0.000888443
-0.000899192
-0.000752473
-0.000455347
-7.03005e-05
0.000206852
0.000102438
0.00151418
0.00279552
0.0035981
0.00395139
0.00393957
0.0036287
0.00305452
0.00223126
0.00117232
-8.55512e-05
-0.00146145
-0.00281639
-0.00395981
-0.00467566
-0.00477254
-0.00414974
-0.00286134
-0.00118132
0.000214234
0.00128275
0.00478595
0.00766464
0.00947057
0.0102472
0.0101407
0.00928015
0.00774681
0.005588
0.0028574
-0.000335499
-0.00378187
-0.00714767
-0.00998755
-0.0118045
-0.0121631
-0.0108389
-0.00796242
-0.00412571
-0.000563006
0.00326429
0.00968
0.0145604
0.0175424
0.0187604
0.0184542
0.0168295
0.0140193
0.0101082
0.00519584
-0.000524408
-0.0066956
-0.012749
-0.0179233
-0.0213564
-0.0222718
-0.020238
-0.0154228
-0.00875357
-0.00203246
0.00593362
0.0160204
0.023259
0.0275412
0.0291942
0.0286035
0.026071
0.0217829
0.0158507
0.00840211
-0.000304406
-0.00976697
-0.0191786
-0.0274117
-0.0331383
-0.0350957
-0.0324886
-0.0254154
-0.0151346
-0.00412775
0.00921525
0.0237028
0.0336644
0.0393876
0.0414989
0.0405921
0.0370917
0.0312347
0.0231355
0.0129103
0.000834152
-0.0124953
-0.0260423
-0.0382713
-0.0472614
-0.0510456
-0.0481996
-0.0385452
-0.0236514
-0.00692263
0.0130634
0.0326523
0.0457039
0.0530288
0.055662
0.0544754
0.0500463
0.0426567
0.0323873
0.0192802
0.00354584
-0.0142114
-0.0327753
-0.0501868
-0.0637951
-0.070637
-0.0682485
-0.0557921
-0.0350378
-0.0106625
0.0174546
0.04282
0.0593178
0.068411
0.0716589
0.0702903
0.0650698
0.0563179
0.0440357
0.028109
0.0085715
-0.0140862
-0.0385843
-0.0625801
-0.0825857
-0.0943104
-0.0936738
-0.0785119
-0.0504408
-0.0157978
0.0223773
0.0541697
0.0744386
0.0854401
0.0893909
0.0879673
0.0821639
0.0723369
0.0583621
0.03988
0.0166166
-0.0112171
-0.0424531
-0.0744985
-0.103024
-0.122126
-0.125407
-0.108317
-0.0714471
-0.0230284
0.0278274
0.0666662
0.0909613
0.103929
0.108603
0.107216
0.101048
0.0904978
0.075282
0.0547187
0.0280983
-0.00483113
-0.043248
-0.0845647
-0.123792
-0.153324
-0.163775
-0.146746
-0.100034
-0.0333705
0.0338197
0.0802811
0.108724
0.123542
0.128797
0.127407
0.121004
0.110053
0.0941042
0.0721122
0.0428427
0.00541679
-0.0399574
-0.0910665
-0.142702
-0.185843
-0.207782
-0.194619
-0.138364
-0.0482527
0.0404271
0.0950284
0.127502
0.143757
0.149159
0.147473
0.140753
0.129571
0.113339
0.0906674
0.0597831
0.019089
-0.0320559
-0.0922536
-0.156781
-0.216013
-0.254301
-0.251015
-0.188243
-0.0696116
0.0478694
0.111042
0.14702
0.163815
0.168501
0.165854
0.158413
0.146901
0.130655
0.108028
0.0767956
0.0346792
-0.0199306
-0.0868784
-0.162768
-0.238701
-0.297532
-0.311994
-0.250011
-0.0998586
0.0566906
0.128694
0.166934
0.182655
0.185193
0.180484
0.17156
0.159307
0.143062
0.121056
0.0907987
0.0495241
-0.00527458
-0.0749485
-0.158133
-0.248282
-0.329314
-0.36964
-0.320744
-0.141423
0.0680939
0.148719
0.186703
0.198704
0.197027
0.188774
0.177352
0.163746
0.147321
0.126318
0.0982058
0.0600379
0.0086815
-0.0584226
-0.142403
-0.240433
-0.340759
-0.412383
-0.392449
-0.195723
0.0845875
0.172201
0.205127
0.209396
0.200876
0.187484
0.172632
0.157189
0.140481
0.120833
0.0958648
0.0626969
0.0181456
-0.0410386
-0.117891
-0.213944
-0.324758
-0.426919
-0.451646
-0.262206
0.111372
0.199616
0.218533
0.209562
0.191596
0.172124
0.153752
0.136784
0.120314
0.10273
0.0819333
0.0553931
0.0203614
-0.0264092
-0.088559
-0.170964
-0.277734
-0.40035
-0.479758
-0.336139
0.15862
0.225688
0.213792
0.186546
0.15946
0.135914
0.116386
0.100131
0.0858376
0.0719542
0.0567745
0.0384228
0.0148775
-0.016282
-0.058075
-0.116053
-0.200514
-0.32229
-0.451307
-0.394687
0.22904
0.225518
0.166008
0.125956
0.0982501
0.0777562
0.0625537
0.0511315
0.0420361
0.0339797
0.025809
0.0164273
0.00473767
-0.0101904
-0.0302301
-0.058784
-0.105115
-0.192781
-0.332334
-0.369584
0.138563
0.119207
0.077987
0.0520319
0.0360436
0.025487
0.0184029
0.0136195
0.0102498
0.0076305
0.00525925
0.0027422
-0.000305074
-0.00388199
-0.00864518
-0.0154851
-0.0268159
-0.0515541
-0.111423
-0.156311
)
;

boundaryField
{
    movingWall
    {
        type            calculated;
        value           uniform 0;
    }
    fixedWalls
    {
        type            calculated;
        value           uniform 0;
    }
    frontAndBack
    {
        type            empty;
    }
}


// ************************************************************************* //
