/*--------------------------------*- C++ -*----------------------------------*\
  =========                 |
  \\      /  F ield         | OpenFOAM: The Open Source CFD Toolbox
   \\    /   O peration     | Website:  https://openfoam.org
    \\  /    A nd           | Version:  dev
     \\/     M anipulation  |
\*---------------------------------------------------------------------------*/
FoamFile
{
    format      ascii;
    class       volVectorField;
    location    "43.65";
    object      U;
}
// * * * * * * * * * * * * * * * * * * * * * * * * * * * * * * * * * * * * * //

dimensions      [0 1 -1 0 0 0 0];

internalField   nonuniform List<vector> 
5184
(
(1.24137e-05 -1.26287e-05 0)
(4.5314e-05 -2.08478e-05 0)
(8.04327e-05 -1.72357e-05 0)
(9.60749e-05 -8.19305e-06 0)
(8.22424e-05 2.6708e-06 0)
(3.65399e-05 1.36203e-05 0)
(-4.04915e-05 2.38495e-05 0)
(-0.000146834 3.30544e-05 0)
(-0.000279693 4.11148e-05 0)
(-0.000436012 4.80358e-05 0)
(-0.000612667 5.38786e-05 0)
(-0.000806627 5.87282e-05 0)
(-0.00101502 6.26774e-05 0)
(-0.00123518 6.58175e-05 0)
(-0.00146465 6.82331e-05 0)
(-0.00170117 6.99996e-05 0)
(-0.00194267 7.11812e-05 0)
(-0.00218723 7.18304e-05 0)
(-0.00243306 7.19883e-05 0)
(-0.00267849 7.16845e-05 0)
(-0.0029219 7.09382e-05 0)
(-0.00316173 6.97598e-05 0)
(-0.00339646 6.81522e-05 0)
(-0.00362456 6.61125e-05 0)
(-0.00384449 6.36335e-05 0)
(-0.00405473 6.07055e-05 0)
(-0.00425371 5.73178e-05 0)
(-0.00443987 5.3461e-05 0)
(-0.00461161 4.91278e-05 0)
(-0.00476736 4.43153e-05 0)
(-0.00490557 3.9026e-05 0)
(-0.0050247 3.32691e-05 0)
(-0.00512329 2.70619e-05 0)
(-0.00519997 2.04304e-05 0)
(-0.00525348 1.34101e-05 0)
(-0.00528269 6.04704e-06 0)
(-0.00528668 -1.60281e-06 0)
(-0.0052647 -9.47292e-06 0)
(-0.00521626 -1.74867e-05 0)
(-0.00514113 -2.55583e-05 0)
(-0.00503936 -3.35932e-05 0)
(-0.00491135 -4.14898e-05 0)
(-0.00475779 -4.91409e-05 0)
(-0.00457973 -5.64354e-05 0)
(-0.00437859 -6.32607e-05 0)
(-0.00415611 -6.95049e-05 0)
(-0.0039144 -7.5059e-05 0)
(-0.00365588 -7.98203e-05 0)
(-0.00338327 -8.36939e-05 0)
(-0.0030996 -8.65962e-05 0)
(-0.00280808 -8.84565e-05 0)
(-0.00251216 -8.92197e-05 0)
(-0.0022154 -8.88476e-05 0)
(-0.00192146 -8.73203e-05 0)
(-0.00163401 -8.46374e-05 0)
(-0.0013567 -8.08185e-05 0)
(-0.00109306 -7.59029e-05 0)
(-0.000846468 -6.99494e-05 0)
(-0.00062007 -6.30357e-05 0)
(-0.000416717 -5.52579e-05 0)
(-0.000238908 -4.67301e-05 0)
(-8.87204e-05 -3.75854e-05 0)
(3.22577e-05 -2.7979e-05 0)
(0.000123012 -1.80932e-05 0)
(0.000183211 -8.15342e-06 0)
(0.000213358 1.54569e-06 0)
(0.000215043 1.05792e-05 0)
(0.000191318 1.83105e-05 0)
(0.000147214 2.3728e-05 0)
(9.08266e-05 2.514e-05 0)
(3.66326e-05 1.98588e-05 0)
(6.22533e-06 6.24647e-06 0)
(2.09052e-05 -4.57737e-05 0)
(6.57543e-05 -6.56514e-05 0)
(9.48655e-05 -4.05423e-05 0)
(7.29632e-05 7.63988e-06 0)
(-1.87905e-05 6.56914e-05 0)
(-0.000187214 0.000126017 0)
(-0.000432895 0.000184334 0)
(-0.000752616 0.000238396 0)
(-0.00114083 0.000287062 0)
(-0.00159076 0.000329886 0)
(-0.00209506 0.00036683 0)
(-0.00264627 0.000398082 0)
(-0.00323708 0.000423954 0)
(-0.0038605 0.000444813 0)
(-0.00450992 0.000461038 0)
(-0.00517914 0.000472985 0)
(-0.00586236 0.000480979 0)
(-0.00655413 0.000485293 0)
(-0.00724932 0.000486153 0)
(-0.00794303 0.00048373 0)
(-0.00863058 0.000478145 0)
(-0.0093074 0.000469474 0)
(-0.00996902 0.000457756 0)
(-0.010611 0.000443 0)
(-0.011229 0.000425193 0)
(-0.0118185 0.000404314 0)
(-0.0123751 0.000380337 0)
(-0.0128945 0.000353246 0)
(-0.0133722 0.00032304 0)
(-0.013804 0.000289746 0)
(-0.0141855 0.000253427 0)
(-0.0145126 0.000214182 0)
(-0.0147815 0.000172164 0)
(-0.0149885 0.000127575 0)
(-0.0151304 8.06752e-05 0)
(-0.0152042 3.1783e-05 0)
(-0.0152078 -1.8722e-05 0)
(-0.0151391 -7.04015e-05 0)
(-0.0149973 -0.00012276 0)
(-0.0147818 -0.00017525 0)
(-0.014493 -0.000227278 0)
(-0.0141323 -0.00027821 0)
(-0.0137016 -0.000327385 0)
(-0.0132041 -0.000374124 0)
(-0.0126437 -0.000417743 0)
(-0.0120253 -0.000457565 0)
(-0.0113545 -0.000492938 0)
(-0.0106381 -0.000523248 0)
(-0.00988347 -0.000547932 0)
(-0.00909862 -0.000566497 0)
(-0.00829231 -0.00057853 0)
(-0.00747372 -0.00058371 0)
(-0.00665237 -0.000581823 0)
(-0.00583803 -0.000572765 0)
(-0.00504046 -0.000556553 0)
(-0.00426934 -0.000533325 0)
(-0.00353406 -0.000503345 0)
(-0.00284354 -0.000467003 0)
(-0.00220605 -0.000424814 0)
(-0.00162909 -0.000377419 0)
(-0.00111912 -0.000325586 0)
(-0.000681458 -0.000270221 0)
(-0.00032 -0.000212386 0)
(-3.70348e-05 -0.000153334 0)
(0.000167072 -9.4575e-05 0)
(0.000294243 -3.79869e-05 0)
(0.000349234 1.39667e-05 0)
(0.000340322 5.79797e-05 0)
(0.000280004 8.94597e-05 0)
(0.000186137 0.000101911 0)
(8.63967e-05 8.65612e-05 0)
(1.96824e-05 3.65049e-05 0)
(1.76679e-05 -8.1284e-05 0)
(4.14174e-05 -9.50243e-05 0)
(1.97202e-05 -1.91348e-05 0)
(-8.38781e-05 0.000105943 0)
(-0.000290167 0.000254696 0)
(-0.000607896 0.000410673 0)
(-0.00103833 0.000563554 0)
(-0.00157764 0.000707198 0)
(-0.00221868 0.000838154 0)
(-0.00295225 0.000954716 0)
(-0.00376807 0.00105628 0)
(-0.00465543 0.00114296 0)
(-0.0056036 0.00121524 0)
(-0.00660211 0.00127387 0)
(-0.00764092 0.00131966 0)
(-0.00871044 0.00135344 0)
(-0.0098016 0.00137597 0)
(-0.0109058 0.00138793 0)
(-0.0120148 0.00138989 0)
(-0.0131208 0.00138229 0)
(-0.0142162 0.00136545 0)
(-0.0152936 0.0013396 0)
(-0.0163457 0.00130487 0)
(-0.0173656 0.00126131 0)
(-0.0183459 0.00120895 0)
(-0.0192798 0.00114777 0)
(-0.0201602 0.00107776 0)
(-0.0209801 0.000998936 0)
(-0.0217326 0.000911359 0)
(-0.022411 0.00081517 0)
(-0.0230086 0.0007106 0)
(-0.0235193 0.000597996 0)
(-0.0239371 0.00047783 0)
(-0.0242564 0.000350719 0)
(-0.0244725 0.000217428 0)
(-0.024581 7.88818e-05 0)
(-0.0245786 -6.38397e-05 0)
(-0.0244627 -0.0002095 0)
(-0.0242319 -0.000356715 0)
(-0.0238859 -0.000503967 0)
(-0.0234254 -0.000649619 0)
(-0.0228526 -0.000791938 0)
(-0.0221711 -0.000929121 0)
(-0.0213855 -0.00105932 0)
(-0.0205022 -0.0011807 0)
(-0.0195288 -0.00129142 0)
(-0.0184743 -0.00138973 0)
(-0.0173489 -0.00147399 0)
(-0.0161638 -0.0015427 0)
(-0.0149317 -0.00159454 0)
(-0.0136658 -0.00162841 0)
(-0.0123802 -0.00164348 0)
(-0.0110893 -0.00163918 0)
(-0.00980808 -0.00161525 0)
(-0.00855139 -0.00157177 0)
(-0.00733395 -0.00150913 0)
(-0.00617 -0.00142809 0)
(-0.00507308 -0.00132974 0)
(-0.00405573 -0.00121554 0)
(-0.00312924 -0.00108729 0)
(-0.00230333 -0.000947163 0)
(-0.00158591 -0.000797732 0)
(-0.00098271 -0.000642006 0)
(-0.000496958 -0.000483516 0)
(-0.000128964 -0.000326465 0)
(0.000124342 -0.000175941 0)
(0.000270062 -3.82635e-05 0)
(0.000320055 7.85469e-05 0)
(0.000291461 0.000164189 0)
(0.000207518 0.000205497 0)
(0.0001025 0.00018636 0)
(2.4985e-05 9.04298e-05 0)
(8.85776e-06 -9.77703e-05 0)
(-6.95886e-06 -7.31792e-05 0)
(-0.000107514 8.47754e-05 0)
(-0.000322319 0.000318404 0)
(-0.000669626 0.000590202 0)
(-0.00115784 0.000874541 0)
(-0.00178772 0.00115438 0)
(-0.00255449 0.00141893 0)
(-0.00344959 0.0016617 0)
(-0.00446201 0.00187918 0)
(-0.00557926 0.00206979 0)
(-0.00678812 0.00223328 0)
(-0.00807519 0.00237022 0)
(-0.0094272 0.00248165 0)
(-0.0108312 0.00256882 0)
(-0.0122749 0.00263309 0)
(-0.0137462 0.00267572 0)
(-0.0152339 0.00269786 0)
(-0.0167268 0.00270051 0)
(-0.0182146 0.00268445 0)
(-0.0196869 0.00265027 0)
(-0.0211338 0.00259841 0)
(-0.0225456 0.00252913 0)
(-0.0239125 0.0024426 0)
(-0.0252251 0.00233888 0)
(-0.0264738 0.00221803 0)
(-0.0276493 0.0020801 0)
(-0.0287424 0.0019252 0)
(-0.0297439 0.00175354 0)
(-0.0306449 0.00156547 0)
(-0.0314368 0.00136151 0)
(-0.0321115 0.00114239 0)
(-0.0326614 0.000909104 0)
(-0.0330793 0.000662878 0)
(-0.0333591 0.000405231 0)
(-0.0334956 0.000137964 0)
(-0.0334844 -0.000136832 0)
(-0.0333225 -0.000416786 0)
(-0.0330084 -0.000699261 0)
(-0.0325417 -0.000981379 0)
(-0.0319239 -0.00126005 0)
(-0.0311579 -0.00153202 0)
(-0.0302485 -0.0017939 0)
(-0.0292022 -0.00204227 0)
(-0.0280273 -0.00227365 0)
(-0.0267338 -0.00248468 0)
(-0.0253334 -0.00267209 0)
(-0.0238394 -0.00283285 0)
(-0.0222667 -0.00296416 0)
(-0.0206313 -0.00306362 0)
(-0.0189505 -0.00312919 0)
(-0.0172426 -0.00315933 0)
(-0.0155261 -0.00315303 0)
(-0.0138204 -0.00310983 0)
(-0.0121446 -0.00302988 0)
(-0.0105176 -0.00291398 0)
(-0.00895792 -0.00276354 0)
(-0.0074829 -0.00258068 0)
(-0.0061087 -0.00236816 0)
(-0.00484981 -0.00212942 0)
(-0.00371875 -0.00186862 0)
(-0.00272561 -0.00159066 0)
(-0.00187772 -0.00130125 0)
(-0.00117922 -0.00100708 0)
(-0.000630568 -0.000715959 0)
(-0.000228056 -0.000437167 0)
(3.67969e-05 -0.00018185 0)
(0.000177896 3.63784e-05 0)
(0.000214979 0.000200792 0)
(0.000174223 0.000290996 0)
(9.30852e-05 0.000282691 0)
(2.40393e-05 0.000147344 0)
(-2.11501e-06 -8.44565e-05 0)
(-6.72701e-05 2.08494e-05 0)
(-0.000264105 0.000295464 0)
(-0.000609826 0.000668135 0)
(-0.00111694 0.00109104 0)
(-0.00179166 0.00153027 0)
(-0.00263298 0.00196236 0)
(-0.00363455 0.00237183 0)
(-0.00478623 0.00274895 0)
(-0.00607529 0.00308809 0)
(-0.00748738 0.00338648 0)
(-0.00900726 0.00364328 0)
(-0.0106193 0.00385896 0)
(-0.012308 0.00403476 0)
(-0.014058 0.00417235 0)
(-0.0158544 0.00427354 0)
(-0.017683 0.00434012 0)
(-0.0195299 0.00437374 0)
(-0.0213817 0.00437583 0)
(-0.0232254 0.00434756 0)
(-0.0250484 0.00428983 0)
(-0.0268385 0.00420332 0)
(-0.0285835 0.00408847 0)
(-0.0302714 0.00394558 0)
(-0.0318907 0.00377485 0)
(-0.0334295 0.00357642 0)
(-0.0348763 0.00335049 0)
(-0.03622 0.00309734 0)
(-0.0374493 0.00281739 0)
(-0.0385535 0.00251133 0)
(-0.0395222 0.00218009 0)
(-0.0403458 0.00182496 0)
(-0.041015 0.00144757 0)
(-0.0415215 0.00104999 0)
(-0.0418581 0.00063469 0)
(-0.0420186 0.0002046 0)
(-0.0419981 -0.000236921 0)
(-0.0417933 -0.000686083 0)
(-0.0414024 -0.00113869 0)
(-0.0408253 -0.0015902 0)
(-0.040064 -0.00203572 0)
(-0.0391222 -0.00247015 0)
(-0.0380059 -0.00288819 0)
(-0.036723 -0.00328445 0)
(-0.0352835 -0.00365354 0)
(-0.0336996 -0.0039902 0)
(-0.0319853 -0.00428937 0)
(-0.0301567 -0.00454629 0)
(-0.0282314 -0.00475667 0)
(-0.0262289 -0.00491675 0)
(-0.0241695 -0.00502339 0)
(-0.0220751 -0.00507421 0)
(-0.019968 -0.00506764 0)
(-0.017871 -0.00500299 0)
(-0.0158071 -0.00488054 0)
(-0.0137989 -0.00470153 0)
(-0.0118682 -0.00446825 0)
(-0.010036 -0.00418402 0)
(-0.00832139 -0.00385321 0)
(-0.0067418 -0.0034813 0)
(-0.00531216 -0.00307486 0)
(-0.0040446 -0.00264164 0)
(-0.00294798 -0.00219062 0)
(-0.00202744 -0.00173223 0)
(-0.00128392 -0.00127853 0)
(-0.000713657 -0.000843556 0)
(-0.000307648 -0.000443813 0)
(-5.11155e-05 -9.88661e-05 0)
(7.68313e-05 0.000167941 0)
(0.00010371 0.000328869 0)
(6.75605e-05 0.000351174 0)
(1.96779e-05 0.000194225 0)
(-1.3692e-05 -3.75765e-05 0)
(-0.000132843 0.000197341 0)
(-0.000435891 0.000626981 0)
(-0.000924817 0.00117057 0)
(-0.00160426 0.00177213 0)
(-0.00247678 0.0023908 0)
(-0.00353854 0.00299749 0)
(-0.00478083 0.00357241 0)
(-0.00619157 0.0041027 0)
(-0.00775622 0.0045806 0)
(-0.00945865 0.00500201 0)
(-0.0112818 0.00536545 0)
(-0.0132081 0.00567116 0)
(-0.0152202 0.00592051 0)
(-0.0173006 0.00611548 0)
(-0.0194325 0.00625833 0)
(-0.0215994 0.00635135 0)
(-0.0237854 0.00639666 0)
(-0.0259749 0.00639614 0)
(-0.0281529 0.00635136 0)
(-0.0303045 0.00626354 0)
(-0.0324155 0.00613363 0)
(-0.0344716 0.00596228 0)
(-0.0364589 0.00574998 0)
(-0.0383635 0.00549707 0)
(-0.0401719 0.00520388 0)
(-0.0418706 0.00487078 0)
(-0.0434466 0.00449831 0)
(-0.0448868 0.00408723 0)
(-0.046179 0.00363863 0)
(-0.0473113 0.00315401 0)
(-0.0482724 0.00263531 0)
(-0.049052 0.00208502 0)
(-0.0496407 0.0015062 0)
(-0.0500301 0.000902477 0)
(-0.0502136 0.000278124 0)
(-0.0501855 -0.000361998 0)
(-0.0499424 -0.00101243 0)
(-0.0494824 -0.00166717 0)
(-0.0488055 -0.0023197 0)
(-0.0479143 -0.00296309 0)
(-0.0468131 -0.00359008 0)
(-0.0455088 -0.00419316 0)
(-0.0440107 -0.0047647 0)
(-0.0423304 -0.00529711 0)
(-0.0404816 -0.00578296 0)
(-0.0384806 -0.00621509 0)
(-0.0363456 -0.00658685 0)
(-0.0340968 -0.00689217 0)
(-0.0317562 -0.00712575 0)
(-0.0293473 -0.00728318 0)
(-0.0268948 -0.00736113 0)
(-0.0244242 -0.00735736 0)
(-0.0219615 -0.00727094 0)
(-0.0195329 -0.00710225 0)
(-0.0171643 -0.00685307 0)
(-0.0148806 -0.00652664 0)
(-0.0127057 -0.00612771 0)
(-0.0106616 -0.0056625 0)
(-0.00876843 -0.00513879 0)
(-0.00704327 -0.00456594 0)
(-0.00550028 -0.00395492 0)
(-0.00414993 -0.00331845 0)
(-0.00299858 -0.00267113 0)
(-0.00204801 -0.00202969 0)
(-0.00129493 -0.00141333 0)
(-0.000730558 -0.000844201 0)
(-0.000340163 -0.000347989 0)
(-0.000102776 4.53237e-05 0)
(9.25362e-06 0.000300783 0)
(3.25438e-05 0.000377569 0)
(1.36319e-05 0.000224629 0)
(-2.5189e-05 4.40625e-05 0)
(-0.000200051 0.000461306 0)
(-0.000614215 0.00108725 0)
(-0.00125321 0.00183511 0)
(-0.00211256 0.002643 0)
(-0.00319013 0.00346466 0)
(-0.00447834 0.00426643 0)
(-0.00596548 0.00502485 0)
(-0.00763703 0.00572431 0)
(-0.00947645 0.00635512 0)
(-0.0114657 0.00691195 0)
(-0.0135861 0.00739263 0)
(-0.0158183 0.00779718 0)
(-0.018143 0.00812704 0)
(-0.0205413 0.00838446 0)
(-0.0229943 0.00857212 0)
(-0.0254839 0.00869274 0)
(-0.0279923 0.00874894 0)
(-0.030502 0.00874302 0)
(-0.032996 0.00867692 0)
(-0.0354579 0.00855223 0)
(-0.0378713 0.00837015 0)
(-0.0402202 0.00813159 0)
(-0.0424888 0.00783724 0)
(-0.0446614 0.00748764 0)
(-0.0467228 0.00708334 0)
(-0.0486578 0.00662497 0)
(-0.0504517 0.00611338 0)
(-0.05209 0.00554977 0)
(-0.0535589 0.00493573 0)
(-0.0548451 0.00427343 0)
(-0.0559361 0.00356564 0)
(-0.0568206 0.00281582 0)
(-0.057488 0.00202816 0)
(-0.0579294 0.00120767 0)
(-0.0581371 0.000360119 0)
(-0.0581055 -0.000507918 0)
(-0.0578304 -0.0013891 0)
(-0.05731 -0.00227539 0)
(-0.0565446 -0.00315808 0)
(-0.0555369 -0.00402795 0)
(-0.0542919 -0.00487532 0)
(-0.0528174 -0.00569024 0)
(-0.0511235 -0.00646262 0)
(-0.0492231 -0.00718238 0)
(-0.0471316 -0.00783968 0)
(-0.0448668 -0.00842509 0)
(-0.042449 -0.00892978 0)
(-0.0399004 -0.00934572 0)
(-0.0372453 -0.00966591 0)
(-0.0345098 -0.00988451 0)
(-0.0317212 -0.00999707 0)
(-0.0289077 -0.0100006 0)
(-0.0260983 -0.00989396 0)
(-0.023322 -0.0096775 0)
(-0.0206076 -0.00935363 0)
(-0.0179828 -0.00892661 0)
(-0.0154745 -0.00840273 0)
(-0.0131072 -0.00779025 0)
(-0.0109035 -0.00709948 0)
(-0.00888285 -0.00634283 0)
(-0.00706143 -0.00553481 0)
(-0.00545147 -0.00469218 0)
(-0.0040608 -0.00383403 0)
(-0.00289242 -0.00298206 0)
(-0.00194404 -0.00216089 0)
(-0.00120771 -0.00139846 0)
(-0.000669477 -0.000726612 0)
(-0.000309119 -0.000181861 0)
(-9.97878e-05 0.000193976 0)
(-7.6782e-06 0.000352768 0)
(6.86941e-06 0.000235123 0)
(-3.63481e-05 0.000160456 0)
(-0.000267008 0.000814615 0)
(-0.000793955 0.00168007 0)
(-0.00158606 0.00266679 0)
(-0.00262916 0.00370905 0)
(-0.0039157 0.00475678 0)
(-0.0054337 0.00577294 0)
(-0.00716787 0.00673122 0)
(-0.00910089 0.00761381 0)
(-0.0112139 0.00840945 0)
(-0.0134869 0.00911178 0)
(-0.0158993 0.00971809 0)
(-0.0184302 0.0102282 0)
(-0.0210588 0.0106436 0)
(-0.0237644 0.0109669 0)
(-0.0265268 0.0112011 0)
(-0.029326 0.0113494 0)
(-0.0321428 0.0114148 0)
(-0.034958 0.0114 0)
(-0.0377532 0.0113074 0)
(-0.04051 0.0111389 0)
(-0.0432105 0.010896 0)
(-0.0458371 0.0105798 0)
(-0.0483724 0.0101913 0)
(-0.0507992 0.0097312 0)
(-0.0531005 0.00920038 0)
(-0.0552598 0.00859976 0)
(-0.0572608 0.00793059 0)
(-0.0590877 0.00719454 0)
(-0.0607254 0.00639384 0)
(-0.0621594 0.00553141 0)
(-0.0633761 0.00461094 0)
(-0.0643629 0.00363702 0)
(-0.0651087 0.00261513 0)
(-0.0656037 0.00155175 0)
(-0.0658396 0.000454344 0)
(-0.0658101 -0.000668631 0)
(-0.0655111 -0.00180779 0)
(-0.0649403 -0.00295284 0)
(-0.0640983 -0.00409273 0)
(-0.0629877 -0.00521571 0)
(-0.0616143 -0.00630951 0)
(-0.0599861 -0.00736152 0)
(-0.0581143 -0.00835893 0)
(-0.0560126 -0.009289 0)
(-0.0536977 -0.0101393 0)
(-0.0511889 -0.0108978 0)
(-0.0485079 -0.0115534 0)
(-0.0456789 -0.0120959 0)
(-0.0427282 -0.0125164 0)
(-0.039684 -0.0128074 0)
(-0.036576 -0.0129634 0)
(-0.0334349 -0.0129804 0)
(-0.0302922 -0.0128568 0)
(-0.0271797 -0.0125932 0)
(-0.0241287 -0.0121924 0)
(-0.0211699 -0.0116599 0)
(-0.0183327 -0.0110034 0)
(-0.0156444 -0.0102336 0)
(-0.01313 -0.0093632 0)
(-0.0108112 -0.00840803 0)
(-0.00870657 -0.00738632 0)
(-0.00683017 -0.00631908 0)
(-0.00519167 -0.00523014 0)
(-0.00379566 -0.00414638 0)
(-0.00264131 -0.00309795 0)
(-0.00172202 -0.00211866 0)
(-0.00102521 -0.00124649 0)
(-0.00053205 -0.000524245 0)
(-0.000217171 -1.64108e-07 0)
(-5.04364e-05 0.000271199 0)
(-7.78451e-08 0.000223997 0)
(-4.70727e-05 0.000310967 0)
(-0.000332729 0.00125718 0)
(-0.000972109 0.0024064 0)
(-0.00191775 0.00366746 0)
(-0.00314563 0.0049726 0)
(-0.0046424 0.00626943 0)
(-0.00639122 0.00751867 0)
(-0.00837282 0.00869212 0)
(-0.0105667 0.00977043 0)
(-0.0129514 0.0107412 0)
(-0.0155047 0.0115975 0)
(-0.0182044 0.0123361 0)
(-0.0210278 0.0129568 0)
(-0.0239526 0.0134614 0)
(-0.0269566 0.0138526 0)
(-0.0300182 0.0141339 0)
(-0.0331162 0.0143089 0)
(-0.0362297 0.014381 0)
(-0.0393382 0.0143535 0)
(-0.0424219 0.014229 0)
(-0.045461 0.0140097 0)
(-0.0484363 0.0136974 0)
(-0.0513285 0.0132936 0)
(-0.0541189 0.0127994 0)
(-0.0567889 0.0122158 0)
(-0.0593202 0.0115441 0)
(-0.0616949 0.0107854 0)
(-0.0638954 0.00994145 0)
(-0.0659047 0.00901452 0)
(-0.0677065 0.00800753 0)
(-0.0692851 0.00692423 0)
(-0.0706261 0.00576934 0)
(-0.0717159 0.00454865 0)
(-0.0725424 0.00326906 0)
(-0.073095 0.00193865 0)
(-0.0733651 0.000566709 0)
(-0.0733457 -0.000836306 0)
(-0.0730322 -0.00225879 0)
(-0.0724223 -0.00368809 0)
(-0.0715163 -0.0051106 0)
(-0.070317 -0.00651189 0)
(-0.0688301 -0.00787692 0)
(-0.0670644 -0.00919021 0)
(-0.0650313 -0.0104361 0)
(-0.0627455 -0.0115989 0)
(-0.0602245 -0.0126635 0)
(-0.0574887 -0.013615 0)
(-0.0545613 -0.0144399 0)
(-0.0514679 -0.0151255 0)
(-0.0482366 -0.0156609 0)
(-0.0448975 -0.0160369 0)
(-0.0414824 -0.0162464 0)
(-0.0380244 -0.0162846 0)
(-0.0345573 -0.0161494 0)
(-0.0311155 -0.0158412 0)
(-0.0277329 -0.0153635 0)
(-0.024443 -0.0147227 0)
(-0.0212777 -0.0139284 0)
(-0.0182671 -0.0129931 0)
(-0.0154386 -0.0119327 0)
(-0.0128168 -0.0107663 0)
(-0.0104223 -0.00951591 0)
(-0.00827167 -0.00820707 0)
(-0.00637654 -0.0068685 0)
(-0.00474352 -0.00553236 0)
(-0.00337363 -0.00423445 0)
(-0.00226211 -0.00301447 0)
(-0.00139822 -0.00191646 0)
(-0.000764992 -0.000989296 0)
(-0.00033899 -0.000287164 0)
(-9.41707e-05 0.000129751 0)
(-6.93942e-06 0.0001906 0)
(-5.73516e-05 0.000494693 0)
(-0.000396734 0.00178776 0)
(-0.00114694 0.00326535 0)
(-0.00224475 0.00483676 0)
(-0.00365641 0.00643363 0)
(-0.00536258 0.00800262 0)
(-0.00734132 0.00950339 0)
(-0.00956907 0.0109067 0)
(-0.0120219 0.0121924 0)
(-0.0146755 0.0133476 0)
(-0.0175056 0.0143649 0)
(-0.0204877 0.0152412 0)
(-0.0235977 0.0159764 0)
(-0.0268117 0.0165725 0)
(-0.0301062 0.0170327 0)
(-0.0334584 0.0173607 0)
(-0.0368456 0.0175608 0)
(-0.0402459 0.0176368 0)
(-0.0436375 0.0175923 0)
(-0.0469994 0.0174303 0)
(-0.0503105 0.0171533 0)
(-0.0535503 0.0167635 0)
(-0.0566985 0.0162625 0)
(-0.059735 0.0156517 0)
(-0.06264 0.0149326 0)
(-0.0653941 0.0141065 0)
(-0.0679781 0.013175 0)
(-0.0703733 0.0121405 0)
(-0.0725616 0.0110058 0)
(-0.0745255 0.0097744 0)
(-0.0762486 0.00845115 0)
(-0.0777152 0.0070418 0)
(-0.0789109 0.00555344 0)
(-0.0798229 0.00399445 0)
(-0.0804397 0.00237462 0)
(-0.0807521 0.000705152 0)
(-0.0807524 -0.00100137 0)
(-0.0804357 -0.00273104 0)
(-0.0797991 -0.00446868 0)
(-0.0788427 -0.006198 0)
(-0.0775691 -0.00790178 0)
(-0.0759842 -0.00956203 0)
(-0.0740967 -0.0111603 0)
(-0.0719185 -0.0126777 0)
(-0.0694647 -0.0140958 0)
(-0.0667533 -0.0153961 0)
(-0.0638058 -0.0165611 0)
(-0.0606462 -0.0175743 0)
(-0.0573018 -0.0184206 0)
(-0.0538019 -0.0190868 0)
(-0.0501785 -0.0195617 0)
(-0.0464652 -0.0198366 0)
(-0.0426973 -0.0199056 0)
(-0.038911 -0.0197658 0)
(-0.035143 -0.0194177 0)
(-0.0314301 -0.018865 0)
(-0.0278082 -0.0181152 0)
(-0.0243122 -0.0171795 0)
(-0.0209749 -0.0160727 0)
(-0.0178267 -0.0148135 0)
(-0.0148946 -0.0134243 0)
(-0.0122021 -0.0119315 0)
(-0.00976817 -0.0103649 0)
(-0.00760704 -0.00875824 0)
(-0.00572761 -0.00714921 0)
(-0.00413317 -0.00557926 0)
(-0.00282114 -0.00409402 0)
(-0.00178303 -0.00274347 0)
(-0.00100407 -0.0015824 0)
(-0.000463027 -0.000670571 0)
(-0.000138063 -7.31915e-05 0)
(-1.35994e-05 0.00013485 0)
(-6.72028e-05 0.000710601 0)
(-0.000458796 0.00240445 0)
(-0.00131744 0.00425485 0)
(-0.00256485 0.0061727 0)
(-0.00415777 0.00809034 0)
(-0.0060709 0.00995462 0)
(-0.00827707 0.0117252 0)
(-0.0107483 0.0133727 0)
(-0.0134569 0.0148769 0)
(-0.0163758 0.016225 0)
(-0.0194782 0.0174097 0)
(-0.0227377 0.0184282 0)
(-0.0261285 0.0192809 0)
(-0.0296252 0.01997 0)
(-0.0332031 0.0204993 0)
(-0.0368379 0.0208733 0)
(-0.0405062 0.0210964 0)
(-0.0441846 0.021173 0)
(-0.0478507 0.021107 0)
(-0.051482 0.020902 0)
(-0.0550566 0.0205607 0)
(-0.0585529 0.0200855 0)
(-0.0619496 0.0194784 0)
(-0.0652254 0.018741 0)
(-0.0683596 0.017875 0)
(-0.0713316 0.0168822 0)
(-0.0741212 0.0157646 0)
(-0.0767087 0.0145251 0)
(-0.0790751 0.0131669 0)
(-0.0812019 0.0116947 0)
(-0.0830715 0.010114 0)
(-0.0846674 0.00843178 0)
(-0.0859745 0.00665649 0)
(-0.086979 0.00479804 0)
(-0.0876686 0.00286799 0)
(-0.0880333 0.000879527 0)
(-0.0880648 -0.00115258 0)
(-0.0877575 -0.003212 0)
(-0.087108 -0.00528098 0)
(-0.0861158 -0.00734043 0)
(-0.0847834 -0.0093702 0)
(-0.0831162 -0.0113492 0)
(-0.0811229 -0.0132559 0)
(-0.0788153 -0.0150681 0)
(-0.0762088 -0.0167641 0)
(-0.0733219 -0.0183224 0)
(-0.0701765 -0.0197221 0)
(-0.0667977 -0.0209439 0)
(-0.0632135 -0.0219699 0)
(-0.0594548 -0.0227843 0)
(-0.0555551 -0.0233737 0)
(-0.0515497 -0.0237277 0)
(-0.0474761 -0.0238389 0)
(-0.0433726 -0.0237037 0)
(-0.0392787 -0.0233222 0)
(-0.0352335 -0.0226984 0)
(-0.031276 -0.0218407 0)
(-0.0274438 -0.0207617 0)
(-0.023773 -0.0194787 0)
(-0.0202966 -0.0180131 0)
(-0.0170451 -0.0163909 0)
(-0.0140446 -0.0146423 0)
(-0.0113173 -0.0128021 0)
(-0.00887993 -0.010909 0)
(-0.0067443 -0.00900614 0)
(-0.00491625 -0.00714082 0)
(-0.0033958 -0.00536459 0)
(-0.00217696 -0.00373339 0)
(-0.00124743 -0.00230775 0)
(-0.00058827 -0.00115283 0)
(-0.000181787 -0.000338469 0)
(-2.00314e-05 5.69156e-05 0)
(-7.66502e-05 0.000957612 0)
(-0.000518811 0.00310496 0)
(-0.00148301 0.00537201 0)
(-0.00287659 0.0076722 0)
(-0.00464716 0.00993958 0)
(-0.00676354 0.0121222 0)
(-0.00919333 0.0141807 0)
(-0.011904 0.0160865 0)
(-0.0148642 0.01782 0)
(-0.0180439 0.019369 0)
(-0.0214136 0.0207269 0)
(-0.0249451 0.0218915 0)
(-0.0286107 0.0228639 0)
(-0.0323836 0.0236471 0)
(-0.0362379 0.0242454 0)
(-0.0401483 0.0246639 0)
(-0.0440901 0.0249076 0)
(-0.0480392 0.0249814 0)
(-0.0519721 0.0248897 0)
(-0.0558656 0.0246363 0)
(-0.0596968 0.0242243 0)
(-0.0634431 0.0236565 0)
(-0.0670825 0.022935 0)
(-0.0705927 0.0220618 0)
(-0.073952 0.0210388 0)
(-0.0771391 0.0198681 0)
(-0.0801328 0.0185523 0)
(-0.0829125 0.0170946 0)
(-0.0854581 0.015499 0)
(-0.0877504 0.0137709 0)
(-0.0897709 0.0119168 0)
(-0.0915022 0.009945 0)
(-0.0929281 0.0078651 0)
(-0.094034 0.00568868 0)
(-0.094807 0.00342908 0)
(-0.0952359 0.0011015 0)
(-0.0953117 -0.00127704 0)
(-0.095028 -0.00368774 0)
(-0.0943807 -0.00611018 0)
(-0.0933686 -0.00852242 0)
(-0.0919935 -0.0109013 0)
(-0.0902604 -0.0132225 0)
(-0.0881776 -0.0154611 0)
(-0.0857566 -0.0175917 0)
(-0.0830128 -0.0195891 0)
(-0.0799647 -0.0214283 0)
(-0.0766346 -0.0230853 0)
(-0.0730482 -0.0245373 0)
(-0.0692344 -0.0257635 0)
(-0.0652251 -0.0267453 0)
(-0.0610552 -0.0274669 0)
(-0.0567619 -0.0279157 0)
(-0.0523845 -0.0280828 0)
(-0.0479637 -0.0279633 0)
(-0.0435413 -0.0275569 0)
(-0.0391595 -0.0268678 0)
(-0.0348602 -0.0259049 0)
(-0.030684 -0.0246826 0)
(-0.0266702 -0.02322 0)
(-0.0228555 -0.0215414 0)
(-0.0192733 -0.0196764 0)
(-0.0159533 -0.0176593 0)
(-0.0129209 -0.0155295 0)
(-0.0101961 -0.0133311 0)
(-0.00779366 -0.0111128 0)
(-0.00572253 -0.00892766 0)
(-0.00398553 -0.00683332 0)
(-0.00257949 -0.00489169 0)
(-0.0014947 -0.00316909 0)
(-0.00071456 -0.00173595 0)
(-0.000225342 -0.000666647 0)
(-2.62616e-05 -4.29879e-05 0)
(-8.57149e-05 0.00123464 0)
(-0.000576728 0.00388673 0)
(-0.00164328 0.00661339 0)
(-0.00317901 0.00933135 0)
(-0.00512277 0.0119772 0)
(-0.00743768 0.0145011 0)
(-0.0100862 0.0168656 0)
(-0.0130312 0.0190435 0)
(-0.0162379 0.0210168 0)
(-0.0196728 0.0227744 0)
(-0.0233042 0.0243109 0)
(-0.0271015 0.0256252 0)
(-0.0310356 0.0267194 0)
(-0.0350782 0.0275972 0)
(-0.0392022 0.028264 0)
(-0.0433812 0.0287255 0)
(-0.0475897 0.0289873 0)
(-0.0518026 0.029055 0)
(-0.0559958 0.0289334 0)
(-0.0601451 0.0286266 0)
(-0.064227 0.0281383 0)
(-0.0682183 0.0274712 0)
(-0.0720959 0.0266279 0)
(-0.0758371 0.0256106 0)
(-0.0794193 0.0244215 0)
(-0.0828202 0.023063 0)
(-0.0860181 0.0215381 0)
(-0.0889915 0.0198505 0)
(-0.0917195 0.018005 0)
(-0.0941819 0.0160076 0)
(-0.0963595 0.0138659 0)
(-0.0982338 0.0115891 0)
(-0.0997879 0.00918851 0)
(-0.101006 0.00667707 0)
(-0.101875 0.00406996 0)
(-0.102381 0.00138442 0)
(-0.102516 -0.00136029 0)
(-0.102272 -0.00414288 0)
(-0.101643 -0.00694021 0)
(-0.100628 -0.00972743 0)
(-0.0992277 -0.0124782 0)
(-0.097446 -0.0151651 0)
(-0.0952906 -0.0177596 0)
(-0.0927727 -0.0202329 0)
(-0.089907 -0.022556 0)
(-0.0867122 -0.0247004 0)
(-0.0832104 -0.0266386 0)
(-0.0794277 -0.0283442 0)
(-0.0753936 -0.029793 0)
(-0.071141 -0.0309635 0)
(-0.066706 -0.031837 0)
(-0.0621275 -0.0323985 0)
(-0.0574466 -0.0326372 0)
(-0.0527065 -0.032547 0)
(-0.0479516 -0.0321264 0)
(-0.0432268 -0.0313796 0)
(-0.0385773 -0.0303163 0)
(-0.0340472 -0.0289517 0)
(-0.0296792 -0.0273073 0)
(-0.0255137 -0.0254101 0)
(-0.0215878 -0.0232931 0)
(-0.0179351 -0.0209948 0)
(-0.0145844 -0.0185593 0)
(-0.0115596 -0.0160361 0)
(-0.00887876 -0.0134796 0)
(-0.00655419 -0.0109489 0)
(-0.00459188 -0.00850767 0)
(-0.00299168 -0.00622407 0)
(-0.0017466 -0.00417024 0)
(-0.000842345 -0.00242199 0)
(-0.00026895 -0.00105837 0)
(-3.23487e-05 -0.000164727 0)
(-9.44119e-05 0.00154057 0)
(-0.000632508 0.00474706 0)
(-0.00179795 0.0079752 0)
(-0.00347134 0.0111456 0)
(-0.00558318 0.0141981 0)
(-0.00809108 0.017086 0)
(-0.0109525 0.0197743 0)
(-0.0141259 0.0222381 0)
(-0.0175727 0.0244615 0)
(-0.0212566 0.0264352 0)
(-0.0251431 0.0281556 0)
(-0.0291998 0.029623 0)
(-0.0333957 0.0308406 0)
(-0.0377012 0.0318137 0)
(-0.0420881 0.0325484 0)
(-0.0465289 0.0330513 0)
(-0.0509973 0.033329 0)
(-0.0554677 0.0333875 0)
(-0.059915 0.0332321 0)
(-0.0643146 0.0328675 0)
(-0.0686423 0.0322976 0)
(-0.0728743 0.0315254 0)
(-0.0769869 0.0305538 0)
(-0.0809567 0.0293852 0)
(-0.0847606 0.028022 0)
(-0.0883756 0.0264671 0)
(-0.0917792 0.0247237 0)
(-0.0949493 0.022796 0)
(-0.0978642 0.0206895 0)
(-0.100503 0.018411 0)
(-0.102845 0.0159689 0)
(-0.104872 0.0133736 0)
(-0.106565 0.0106376 0)
(-0.107908 0.00777559 0)
(-0.108886 0.00480437 0)
(-0.109485 0.0017432 0)
(-0.109696 -0.00138638 0)
(-0.109508 -0.00456064 0)
(-0.108915 -0.00775369 0)
(-0.107916 -0.0109377 0)
(-0.106508 -0.0140833 0)
(-0.104696 -0.0171594 0)
(-0.102486 -0.0201343 0)
(-0.0998886 -0.0229752 0)
(-0.0969174 -0.0256496 0)
(-0.0935906 -0.0281249 0)
(-0.0899304 -0.0303697 0)
(-0.0859628 -0.0323542 0)
(-0.0817177 -0.0340502 0)
(-0.0772287 -0.0354329 0)
(-0.0725332 -0.0364805 0)
(-0.0676714 -0.0371751 0)
(-0.0626866 -0.0375038 0)
(-0.057624 -0.0374585 0)
(-0.052531 -0.0370367 0)
(-0.0474554 -0.0362421 0)
(-0.0424459 -0.0350846 0)
(-0.0375502 -0.0335807 0)
(-0.0328149 -0.0317535 0)
(-0.0282845 -0.0296328 0)
(-0.0240002 -0.027255 0)
(-0.0199997 -0.0246627 0)
(-0.0163161 -0.0219051 0)
(-0.0129772 -0.0190368 0)
(-0.010005 -0.0161181 0)
(-0.00741544 -0.0132145 0)
(-0.00521802 -0.0103959 0)
(-0.00341581 -0.00773684 0)
(-0.00200464 -0.00531554 0)
(-0.000972503 -0.00321347 0)
(-0.000312982 -0.00151462 0)
(-3.83708e-05 -0.000308337 0)
(-0.000102749 0.00187432 0)
(-0.000686108 0.0056831 0)
(-0.00194679 0.00945328 0)
(-0.00375297 0.0131099 0)
(-0.0060272 0.0165968 0)
(-0.00872183 0.0198709 0)
(-0.0117895 0.0229004 0)
(-0.0151844 0.0256637 0)
(-0.0188644 0.0281474 0)
(-0.02279 0.0303447 0)
(-0.0269245 0.0322541 0)
(-0.0312333 0.0338778 0)
(-0.0356838 0.0352207 0)
(-0.040245 0.0362895 0)
(-0.0448876 0.0370916 0)
(-0.0495834 0.0376347 0)
(-0.0543052 0.0379261 0)
(-0.0590267 0.0379727 0)
(-0.0637224 0.0377803 0)
(-0.0683672 0.037354 0)
(-0.0729362 0.036698 0)
(-0.0774053 0.0358158 0)
(-0.0817503 0.0347103 0)
(-0.0859473 0.0333843 0)
(-0.0899727 0.0318405 0)
(-0.0938029 0.0300818 0)
(-0.0974148 0.0281119 0)
(-0.100786 0.0259355 0)
(-0.103893 0.0235586 0)
(-0.106715 0.0209887 0)
(-0.109231 0.018235 0)
(-0.111421 0.0153092 0)
(-0.113265 0.0122248 0)
(-0.114747 0.00899805 0)
(-0.115849 0.00564744 0)
(-0.116558 0.00219419 0)
(-0.116861 -0.00133799 0)
(-0.116748 -0.00492288 0)
(-0.116211 -0.00853192 0)
(-0.115246 -0.0121343 0)
(-0.113852 -0.0156974 0)
(-0.112029 -0.0191869 0)
(-0.109783 -0.0225671 0)
(-0.107124 -0.0258017 0)
(-0.104065 -0.0288539 0)
(-0.100622 -0.0316873 0)
(-0.0968171 -0.0342663 0)
(-0.0926766 -0.0365569 0)
(-0.0882302 -0.0385271 0)
(-0.0835121 -0.040148 0)
(-0.0785607 -0.0413943 0)
(-0.0734175 -0.0422452 0)
(-0.0681277 -0.0426847 0)
(-0.062739 -0.0427026 0)
(-0.0573014 -0.0422951 0)
(-0.0518663 -0.0414648 0)
(-0.0464856 -0.0402216 0)
(-0.0412113 -0.0385828 0)
(-0.0360942 -0.0365731 0)
(-0.0311831 -0.0342248 0)
(-0.0265241 -0.0315778 0)
(-0.0221593 -0.0286788 0)
(-0.0181263 -0.0255819 0)
(-0.0144576 -0.0223472 0)
(-0.0111795 -0.0190413 0)
(-0.00831199 -0.0157357 0)
(-0.00586832 -0.0125074 0)
(-0.00385504 -0.00943733 0)
(-0.00227092 -0.0066102 0)
(-0.00110621 -0.00411359 0)
(-0.000357909 -0.00203689 0)
(-4.44179e-05 -0.000474086 0)
(-0.000110727 0.00223475 0)
(-0.000737467 0.00669189 0)
(-0.00208953 0.0110432 0)
(-0.00402327 0.0152187 0)
(-0.00645371 0.0191669 0)
(-0.0093282 0.0228488 0)
(-0.0125948 0.0262368 0)
(-0.0162036 0.0293129 0)
(-0.0201088 0.032067 0)
(-0.0242683 0.0344953 0)
(-0.0286427 0.0365988 0)
(-0.0331956 0.0383822 0)
(-0.0378928 0.0398522 0)
(-0.0427021 0.0410175 0)
(-0.047593 0.0418867 0)
(-0.0525366 0.0424689 0)
(-0.057505 0.0427723 0)
(-0.0624714 0.0428047 0)
(-0.0674098 0.0425725 0)
(-0.0722947 0.0420813 0)
(-0.0771009 0.0413357 0)
(-0.0818039 0.0403395 0)
(-0.0863792 0.0390958 0)
(-0.0908024 0.0376076 0)
(-0.0950495 0.0358776 0)