/*--------------------------------*- C++ -*----------------------------------*\
  =========                 |
  \\      /  F ield         | OpenFOAM: The Open Source CFD Toolbox
   \\    /   O peration     | Website:  https://openfoam.org
    \\  /    A nd           | Version:  dev
     \\/     M anipulation  |
\*---------------------------------------------------------------------------*/
FoamFile
{
    format      ascii;
    class       volScalarField;
    location    "43.65";
    object      Uy;
}
// * * * * * * * * * * * * * * * * * * * * * * * * * * * * * * * * * * * * * //

dimensions      [0 1 -1 0 0 0 0];

internalField   nonuniform List<scalar> 
5184
(
-1.26287e-05
-2.08478e-05
-1.72357e-05
-8.19305e-06
2.6708e-06
1.36203e-05
2.38495e-05
3.30544e-05
4.11148e-05
4.80358e-05
5.38786e-05
5.87282e-05
6.26774e-05
6.58175e-05
6.82331e-05
6.99996e-05
7.11812e-05
7.18304e-05
7.19883e-05
7.16845e-05
7.09382e-05
6.97598e-05
6.81522e-05
6.61125e-05
6.36335e-05
6.07055e-05
5.73178e-05
5.3461e-05
4.91278e-05
4.43153e-05
3.9026e-05
3.32691e-05
2.70619e-05
2.04304e-05
1.34101e-05
6.04704e-06
-1.60281e-06
-9.47292e-06
-1.74867e-05
-2.55583e-05
-3.35932e-05
-4.14898e-05
-4.91409e-05
-5.64354e-05
-6.32607e-05
-6.95049e-05
-7.5059e-05
-7.98203e-05
-8.36939e-05
-8.65962e-05
-8.84565e-05
-8.92197e-05
-8.88476e-05
-8.73203e-05
-8.46374e-05
-8.08185e-05
-7.59029e-05
-6.99494e-05
-6.30357e-05
-5.52579e-05
-4.67301e-05
-3.75854e-05
-2.7979e-05
-1.80932e-05
-8.15342e-06
1.54569e-06
1.05792e-05
1.83105e-05
2.3728e-05
2.514e-05
1.98588e-05
6.24647e-06
-4.57737e-05
-6.56514e-05
-4.05423e-05
7.63988e-06
6.56914e-05
0.000126017
0.000184334
0.000238396
0.000287062
0.000329886
0.00036683
0.000398082
0.000423954
0.000444813
0.000461038
0.000472985
0.000480979
0.000485293
0.000486153
0.00048373
0.000478145
0.000469474
0.000457756
0.000443
0.000425193
0.000404314
0.000380337
0.000353246
0.00032304
0.000289746
0.000253427
0.000214182
0.000172164
0.000127575
8.06752e-05
3.1783e-05
-1.8722e-05
-7.04015e-05
-0.00012276
-0.00017525
-0.000227278
-0.00027821
-0.000327385
-0.000374124
-0.000417743
-0.000457565
-0.000492938
-0.000523248
-0.000547932
-0.000566497
-0.00057853
-0.00058371
-0.000581823
-0.000572765
-0.000556553
-0.000533325
-0.000503345
-0.000467003
-0.000424814
-0.000377419
-0.000325586
-0.000270221
-0.000212386
-0.000153334
-9.4575e-05
-3.79869e-05
1.39667e-05
5.79797e-05
8.94597e-05
0.000101911
8.65612e-05
3.65049e-05
-8.1284e-05
-9.50243e-05
-1.91348e-05
0.000105943
0.000254696
0.000410673
0.000563554
0.000707198
0.000838154
0.000954716
0.00105628
0.00114296
0.00121524
0.00127387
0.00131966
0.00135344
0.00137597
0.00138793
0.00138989
0.00138229
0.00136545
0.0013396
0.00130487
0.00126131
0.00120895
0.00114777
0.00107776
0.000998936
0.000911359
0.00081517
0.0007106
0.000597996
0.00047783
0.000350719
0.000217428
7.88818e-05
-6.38397e-05
-0.0002095
-0.000356715
-0.000503967
-0.000649619
-0.000791938
-0.000929121
-0.00105932
-0.0011807
-0.00129142
-0.00138973
-0.00147399
-0.0015427
-0.00159454
-0.00162841
-0.00164348
-0.00163918
-0.00161525
-0.00157177
-0.00150913
-0.00142809
-0.00132974
-0.00121554
-0.00108729
-0.000947163
-0.000797732
-0.000642006
-0.000483516
-0.000326465
-0.000175941
-3.82635e-05
7.85469e-05
0.000164189
0.000205497
0.00018636
9.04298e-05
-9.77703e-05
-7.31792e-05
8.47754e-05
0.000318404
0.000590202
0.000874541
0.00115438
0.00141893
0.0016617
0.00187918
0.00206979
0.00223328
0.00237022
0.00248165
0.00256882
0.00263309
0.00267572
0.00269786
0.00270051
0.00268445
0.00265027
0.00259841
0.00252913
0.0024426
0.00233888
0.00221803
0.0020801
0.0019252
0.00175354
0.00156547
0.00136151
0.00114239
0.000909104
0.000662878
0.000405231
0.000137964
-0.000136832
-0.000416786
-0.000699261
-0.000981379
-0.00126005
-0.00153202
-0.0017939
-0.00204227
-0.00227365
-0.00248468
-0.00267209
-0.00283285
-0.00296416
-0.00306362
-0.00312919
-0.00315933
-0.00315303
-0.00310983
-0.00302988
-0.00291398
-0.00276354
-0.00258068
-0.00236816
-0.00212942
-0.00186862
-0.00159066
-0.00130125
-0.00100708
-0.000715959
-0.000437167
-0.00018185
3.63784e-05
0.000200792
0.000290996
0.000282691
0.000147344
-8.44565e-05
2.08494e-05
0.000295464
0.000668135
0.00109104
0.00153027
0.00196236
0.00237183
0.00274895
0.00308809
0.00338648
0.00364328
0.00385896
0.00403476
0.00417235
0.00427354
0.00434012
0.00437374
0.00437583
0.00434756
0.00428983
0.00420332
0.00408847
0.00394558
0.00377485
0.00357642
0.00335049
0.00309734
0.00281739
0.00251133
0.00218009
0.00182496
0.00144757
0.00104999
0.00063469
0.0002046
-0.000236921
-0.000686083
-0.00113869
-0.0015902
-0.00203572
-0.00247015
-0.00288819
-0.00328445
-0.00365354
-0.0039902
-0.00428937
-0.00454629
-0.00475667
-0.00491675
-0.00502339
-0.00507421
-0.00506764
-0.00500299
-0.00488054
-0.00470153
-0.00446825
-0.00418402
-0.00385321
-0.0034813
-0.00307486
-0.00264164
-0.00219062
-0.00173223
-0.00127853
-0.000843556
-0.000443813
-9.88661e-05
0.000167941
0.000328869
0.000351174
0.000194225
-3.75765e-05
0.000197341
0.000626981
0.00117057
0.00177213
0.0023908
0.00299749
0.00357241
0.0041027
0.0045806
0.00500201
0.00536545
0.00567116
0.00592051
0.00611548
0.00625833
0.00635135
0.00639666
0.00639614
0.00635136
0.00626354
0.00613363
0.00596228
0.00574998
0.00549707
0.00520388
0.00487078
0.00449831
0.00408723
0.00363863
0.00315401
0.00263531
0.00208502
0.0015062
0.000902477
0.000278124
-0.000361998
-0.00101243
-0.00166717
-0.0023197
-0.00296309
-0.00359008
-0.00419316
-0.0047647
-0.00529711
-0.00578296
-0.00621509
-0.00658685
-0.00689217
-0.00712575
-0.00728318
-0.00736113
-0.00735736
-0.00727094
-0.00710225
-0.00685307
-0.00652664
-0.00612771
-0.0056625
-0.00513879
-0.00456594
-0.00395492
-0.00331845
-0.00267113
-0.00202969
-0.00141333
-0.000844201
-0.000347989
4.53237e-05
0.000300783
0.000377569
0.000224629
4.40625e-05
0.000461306
0.00108725
0.00183511
0.002643
0.00346466
0.00426643
0.00502485
0.00572431
0.00635512
0.00691195
0.00739263
0.00779718
0.00812704
0.00838446
0.00857212
0.00869274
0.00874894
0.00874302
0.00867692
0.00855223
0.00837015
0.00813159
0.00783724
0.00748764
0.00708334
0.00662497
0.00611338
0.00554977
0.00493573
0.00427343
0.00356564
0.00281582
0.00202816
0.00120767
0.000360119
-0.000507918
-0.0013891
-0.00227539
-0.00315808
-0.00402795
-0.00487532
-0.00569024
-0.00646262
-0.00718238
-0.00783968
-0.00842509
-0.00892978
-0.00934572
-0.00966591
-0.00988451
-0.00999707
-0.0100006
-0.00989396
-0.0096775
-0.00935363
-0.00892661
-0.00840273
-0.00779025
-0.00709948
-0.00634283
-0.00553481
-0.00469218
-0.00383403
-0.00298206
-0.00216089
-0.00139846
-0.000726612
-0.000181861
0.000193976
0.000352768
0.000235123
0.000160456
0.000814615
0.00168007
0.00266679
0.00370905
0.00475678
0.00577294
0.00673122
0.00761381
0.00840945
0.00911178
0.00971809
0.0102282
0.0106436
0.0109669
0.0112011
0.0113494
0.0114148
0.0114
0.0113074
0.0111389
0.010896
0.0105798
0.0101913
0.0097312
0.00920038
0.00859976
0.00793059
0.00719454
0.00639384
0.00553141
0.00461094
0.00363702
0.00261513
0.00155175
0.000454344
-0.000668631
-0.00180779
-0.00295284
-0.00409273
-0.00521571
-0.00630951
-0.00736152
-0.00835893
-0.009289
-0.0101393
-0.0108978
-0.0115534
-0.0120959
-0.0125164
-0.0128074
-0.0129634
-0.0129804
-0.0128568
-0.0125932
-0.0121924
-0.0116599
-0.0110034
-0.0102336
-0.0093632
-0.00840803
-0.00738632
-0.00631908
-0.00523014
-0.00414638
-0.00309795
-0.00211866
-0.00124649
-0.000524245
-1.64108e-07
0.000271199
0.000223997
0.000310967
0.00125718
0.0024064
0.00366746
0.0049726
0.00626943
0.00751867
0.00869212
0.00977043
0.0107412
0.0115975
0.0123361
0.0129568
0.0134614
0.0138526
0.0141339
0.0143089
0.014381
0.0143535
0.014229
0.0140097
0.0136974
0.0132936
0.0127994
0.0122158
0.0115441
0.0107854
0.00994145
0.00901452
0.00800753
0.00692423
0.00576934
0.00454865
0.00326906
0.00193865
0.000566709
-0.000836306
-0.00225879
-0.00368809
-0.0051106
-0.00651189
-0.00787692
-0.00919021
-0.0104361
-0.0115989
-0.0126635
-0.013615
-0.0144399
-0.0151255
-0.0156609
-0.0160369
-0.0162464
-0.0162846
-0.0161494
-0.0158412
-0.0153635
-0.0147227
-0.0139284
-0.0129931
-0.0119327
-0.0107663
-0.00951591
-0.00820707
-0.0068685
-0.00553236
-0.00423445
-0.00301447
-0.00191646
-0.000989296
-0.000287164
0.000129751
0.0001906
0.000494693
0.00178776
0.00326535
0.00483676
0.00643363
0.00800262
0.00950339
0.0109067
0.0121924
0.0133476
0.0143649
0.0152412
0.0159764
0.0165725
0.0170327
0.0173607
0.0175608
0.0176368
0.0175923
0.0174303
0.0171533
0.0167635
0.0162625
0.0156517
0.0149326
0.0141065
0.013175
0.0121405
0.0110058
0.0097744
0.00845115
0.0070418
0.00555344
0.00399445
0.00237462
0.000705152
-0.00100137
-0.00273104
-0.00446868
-0.006198
-0.00790178
-0.00956203
-0.0111603
-0.0126777
-0.0140958
-0.0153961
-0.0165611
-0.0175743
-0.0184206
-0.0190868
-0.0195617
-0.0198366
-0.0199056
-0.0197658
-0.0194177
-0.018865
-0.0181152
-0.0171795
-0.0160727
-0.0148135
-0.0134243
-0.0119315
-0.0103649
-0.00875824
-0.00714921
-0.00557926
-0.00409402
-0.00274347
-0.0015824
-0.000670571
-7.31915e-05
0.00013485
0.000710601
0.00240445
0.00425485
0.0061727
0.00809034
0.00995462
0.0117252
0.0133727
0.0148769
0.016225
0.0174097
0.0184282
0.0192809
0.01997
0.0204993
0.0208733
0.0210964
0.021173
0.021107
0.020902
0.0205607
0.0200855
0.0194784
0.018741
0.017875
0.0168822
0.0157646
0.0145251
0.0131669
0.0116947
0.010114
0.00843178
0.00665649
0.00479804
0.00286799
0.000879527
-0.00115258
-0.003212
-0.00528098
-0.00734043
-0.0093702
-0.0113492
-0.0132559
-0.0150681
-0.0167641
-0.0183224
-0.0197221
-0.0209439
-0.0219699
-0.0227843
-0.0233737
-0.0237277
-0.0238389
-0.0237037
-0.0233222
-0.0226984
-0.0218407
-0.0207617
-0.0194787
-0.0180131
-0.0163909
-0.0146423
-0.0128021
-0.010909
-0.00900614
-0.00714082
-0.00536459
-0.00373339
-0.00230775
-0.00115283
-0.000338469
5.69156e-05
0.000957612
0.00310496
0.00537201
0.0076722
0.00993958
0.0121222
0.0141807
0.0160865
0.01782
0.019369
0.0207269
0.0218915
0.0228639
0.0236471
0.0242454
0.0246639
0.0249076
0.0249814
0.0248897
0.0246363
0.0242243
0.0236565
0.022935
0.0220618
0.0210388
0.0198681
0.0185523
0.0170946
0.015499
0.0137709
0.0119168
0.009945
0.0078651
0.00568868
0.00342908
0.0011015
-0.00127704
-0.00368774
-0.00611018
-0.00852242
-0.0109013
-0.0132225
-0.0154611
-0.0175917
-0.0195891
-0.0214283
-0.0230853
-0.0245373
-0.0257635
-0.0267453
-0.0274669
-0.0279157
-0.0280828
-0.0279633
-0.0275569
-0.0268678
-0.0259049
-0.0246826
-0.02322
-0.0215414
-0.0196764
-0.0176593
-0.0155295
-0.0133311
-0.0111128
-0.00892766
-0.00683332
-0.00489169
-0.00316909
-0.00173595
-0.000666647
-4.29879e-05
0.00123464
0.00388673
0.00661339
0.00933135
0.0119772
0.0145011
0.0168656
0.0190435
0.0210168
0.0227744
0.0243109
0.0256252
0.0267194
0.0275972
0.028264
0.0287255
0.0289873
0.029055
0.0289334
0.0286266
0.0281383
0.0274712
0.0266279
0.0256106
0.0244215
0.023063
0.0215381
0.0198505
0.018005
0.0160076
0.0138659
0.0115891
0.00918851
0.00667707
0.00406996
0.00138442
-0.00136029
-0.00414288
-0.00694021
-0.00972743
-0.0124782
-0.0151651
-0.0177596
-0.0202329
-0.022556
-0.0247004
-0.0266386
-0.0283442
-0.029793
-0.0309635
-0.031837
-0.0323985
-0.0326372
-0.032547
-0.0321264
-0.0313796
-0.0303163
-0.0289517
-0.0273073
-0.0254101
-0.0232931
-0.0209948
-0.0185593
-0.0160361
-0.0134796
-0.0109489
-0.00850767
-0.00622407
-0.00417024
-0.00242199
-0.00105837
-0.000164727
0.00154057
0.00474706
0.0079752
0.0111456
0.0141981
0.017086
0.0197743
0.0222381
0.0244615
0.0264352
0.0281556
0.029623
0.0308406
0.0318137
0.0325484
0.0330513
0.033329
0.0333875
0.0332321
0.0328675
0.0322976
0.0315254
0.0305538
0.0293852
0.028022
0.0264671
0.0247237
0.022796
0.0206895
0.018411
0.0159689
0.0133736
0.0106376
0.00777559
0.00480437
0.0017432
-0.00138638
-0.00456064
-0.00775369
-0.0109377
-0.0140833
-0.0171594
-0.0201343
-0.0229752
-0.0256496
-0.0281249
-0.0303697
-0.0323542
-0.0340502
-0.0354329
-0.0364805
-0.0371751
-0.0375038
-0.0374585
-0.0370367
-0.0362421
-0.0350846
-0.0335807
-0.0317535
-0.0296328
-0.027255
-0.0246627
-0.0219051
-0.0190368
-0.0161181
-0.0132145
-0.0103959
-0.00773684
-0.00531554
-0.00321347
-0.00151462
-0.000308337
0.00187432
0.0056831
0.00945328
0.0131099
0.0165968
0.0198709
0.0229004
0.0256637
0.0281474
0.0303447
0.0322541
0.0338778
0.0352207
0.0362895
0.0370916
0.0376347
0.0379261
0.0379727
0.0377803
0.037354
0.036698
0.0358158
0.0347103
0.0333843
0.0318405
0.0300818
0.0281119
0.0259355
0.0235586
0.0209887
0.018235
0.0153092
0.0122248
0.00899805
0.00564744
0.00219419
-0.00133799
-0.00492288
-0.00853192
-0.0121343
-0.0156974
-0.0191869
-0.0225671
-0.0258017
-0.0288539
-0.0316873
-0.0342663
-0.0365569
-0.0385271
-0.040148
-0.0413943
-0.0422452
-0.0426847
-0.0427026
-0.0422951
-0.0414648
-0.0402216
-0.0385828
-0.0365731
-0.0342248
-0.0315778
-0.0286788
-0.0255819
-0.0223472
-0.0190413
-0.0157357
-0.0125074
-0.00943733
-0.0066102
-0.00411359
-0.00203689
-0.000474086
0.00223475
0.00669189
0.0110432
0.0152187
0.0191669
0.0228488
0.0262368
0.0293129
0.032067
0.0344953
0.0365988
0.0383822
0.0398522
0.0410175
0.0418867
0.0424689
0.0427723
0.0428047
0.0425725
0.0420813
0.0413357
0.0403395
0.0390958
0.0376076
0.0358776
0.0339093
0.0317065
0.0292744
0.0266192
0.0237493
0.0206747
0.0174079
0.0139636
0.0103594
0.00661554
0.00275495
-0.00119648
-0.00521019
-0.00925491
-0.013297
-0.0173004
-0.0212274
-0.0250387
-0.0286938
-0.032152
-0.0353723
-0.0383149
-0.040941
-0.0432146
-0.0451024
-0.0465751
-0.0476081
-0.0481823
-0.0482848
-0.0479095
-0.047058
-0.0457397
-0.0439722
-0.0417818
-0.039203
-0.0362789
-0.0330605
-0.0296067
-0.0259835
-0.0222636
-0.0185256
-0.014853
-0.0113341
-0.00806056
-0.00512649
-0.00262734
-0.000662509
0.0026207
0.00777032
0.0127404
0.0174663
0.0219016
0.0260124
0.0297757
0.0331777
0.036212
0.0388786
0.0411814
0.0431278
0.0447271
0.0459896
0.046926
0.0475466
0.047861
0.0478775
0.0476035
0.0470451
0.0462072
0.045094
0.0437088
0.0420547
0.0401348
0.0379524
0.0355119
0.0328184
0.029879
0.0267022
0.0232989
0.0196823
0.0158683
0.0118757
0.00772599
0.00344411
-0.000942167
-0.00540196
-0.00990144
-0.014404
-0.0188705
-0.0232597
-0.0275283
-0.0316319
-0.0355253
-0.039163
-0.0425004
-0.0454941
-0.048103
-0.0502892
-0.0520188
-0.0532629
-0.0539987
-0.0542099
-0.053888
-0.0530326
-0.0516522
-0.0497645
-0.0473967
-0.0445855
-0.0413771
-0.0378266
-0.0339981
-0.0299633
-0.0258016
-0.0215985
-0.0174451
-0.0134373
-0.00967425
-0.00625734
-0.00328882
-0.000874438
0.00303097
0.00891513
0.0145398
0.0198462
0.0247936
0.0293537
0.0335084
0.0372489
0.0405734
0.0434854
0.0459928
0.0481058
0.0498366
0.0511976
0.0522016
0.0528605
0.053185
0.0531846
0.0528676
0.0522404
0.0513087
0.0500766
0.0485478
0.0467256
0.0446131
0.0422139
0.0395323
0.0365739
0.0333458
0.0298571
0.0261191
0.0221457
0.0179538
0.0135632
0.00899684
0.00428107
-0.000554408
-0.00547657
-0.0104491
-0.0154326
-0.0203848
-0.0252608
-0.0300135
-0.0345944
-0.0389535
-0.0430408
-0.0468064
-0.0502018
-0.0531806
-0.0556995
-0.0577197
-0.0592073
-0.0601349
-0.0604825
-0.0602382
-0.0593992
-0.0579725
-0.0559754
-0.0534356
-0.0503917
-0.0468927
-0.0429979
-0.0387764
-0.0343061
-0.0296732
-0.0249708
-0.020298
-0.0157587
-0.0114603
-0.0075125
-0.00402503
-0.00111102
0.0034643
0.0101229
0.0164362
0.0223518
0.0278351
0.0328638
0.0374257
0.0415171
0.0451412
0.0483059
0.0510231
0.0533065
0.0551711
0.0566323
0.0577047
0.0584021
0.0587368
0.0587193
0.0583587
0.0576622
0.0566359
0.0552842
0.0536112
0.0516199
0.0493138
0.0466965
0.0437722
0.0405467
0.0370273
0.0332233
0.0291465
0.0248113
0.0202352
0.0154389
0.0104465
0.00528577
-1.1914e-05
-0.00541156
-0.0108745
-0.0163587
-0.0218187
-0.0272062
-0.0324702
-0.0375578
-0.0424144
-0.0469848
-0.0512139
-0.0550475
-0.0584334
-0.0613225
-0.0636701
-0.065437
-0.0665904
-0.0671057
-0.0669669
-0.0661681
-0.0647141
-0.0626211
-0.059917
-0.0566417
-0.052847
-0.0485963
-0.0439636
-0.0390333
-0.0338987
-0.0286609
-0.0234276
-0.0183116
-0.0134295
-0.00889957
-0.00484047
-0.00137372
0.00391935
0.0113899
0.018424
0.0249759
0.0310178
0.0365336
0.0415176
0.0459718
0.0499048
0.0533294
0.0562616
0.0587192
0.0607206
0.0622838
0.0634259
0.0641627
0.064508
0.0644738
0.06407
0.0633046
0.062184
0.0607133
0.0588963
0.0567365
0.0542372
0.0514019
0.0482351
0.0447422
0.0409308
0.0368101
0.0323922
0.0276919
0.0227271
0.0175193
0.0120934
0.00647834
0.000706988
-0.00518389
-0.0111535
-0.0171572
-0.0231466
-0.02907
-0.0348725
-0.0404967
-0.0458834
-0.050972
-0.0557016
-0.060012
-0.0638449
-0.0671446
-0.0698601
-0.0719456
-0.0733625
-0.0740806
-0.0740791
-0.0733481
-0.0718893
-0.0697172
-0.0668593
-0.0633563
-0.0592626
-0.0546451
-0.0495833
-0.0441679
-0.0384999
-0.032689
-0.026852
-0.0211114
-0.0155938
-0.0104274
-0.00574052
-0.00166435
0.00439472
0.0127124
0.0204974
0.0277111
0.0343327
0.0403533
0.0457735
0.050602
0.0548528
0.0585442
0.0616969
0.0643327
0.0664737
0.0681411
0.0693547
0.0701322
0.0704894
0.0704396
0.0699937
0.0691607
0.0679473
0.066359
0.0643998
0.0620733
0.0593827
0.0563313
0.0529236
0.0491649
0.0450624
0.0406256
0.0358664
0.0307997
0.0254438
0.0198205
0.0139556
0.00787873
0.00162401
-0.00477023
-0.0112613
-0.0178021
-0.0243417
-0.0308247
-0.0371926
-0.0433837
-0.0493336
-0.0549763
-0.060245
-0.0650731
-0.0693953
-0.0731491
-0.076276
-0.0787234
-0.0804457
-0.081406
-0.0815779
-0.0809464
-0.0795094
-0.0772787
-0.0742807
-0.0705565
-0.0661622
-0.0611687
-0.0556604
-0.0497348
-0.0435009
-0.0370774
-0.0305911
-0.0241753
-0.0179672
-0.0121062
-0.00673147
-0.00198504
0.00488891
0.0140864
0.02265
0.0305492
0.0377705
0.0443122
0.0501822
0.0553957
0.059973
0.063938
0.0673164
0.0701346
0.0724185
0.0741927
0.0754797
0.0762999
0.0766708
0.0766071
0.0761211
0.0752225
0.0739187
0.0722155
0.0701171
0.067627
0.0647483
0.0614843
0.057839
0.0538177
0.0494271
0.0446766
0.0395778
0.0341457
0.0283983
0.0223579
0.0160504
0.00950629
0.0027605
-0.00414735
-0.0111729
-0.0182671
-0.025376
-0.0324416
-0.0394013
-0.046189
-0.0527355
-0.0589692
-0.0648169
-0.0702051
-0.0750614
-0.0793155
-0.0829011
-0.0857573
-0.0878308
-0.0890772
-0.0894632
-0.0889676
-0.0875835
-0.0853191
-0.0821985
-0.0782627
-0.0735692
-0.068192
-0.0622209
-0.0557602
-0.0489271
-0.0418501
-0.0346669
-0.0275221
-0.0205652
-0.0139475
-0.00782046
-0.00233829
0.00540035
0.0155074
0.0248755
0.0334819
0.0413212
0.0483993
0.0547317
0.0603405
0.0652525
0.0694976
0.073107
0.0761117
0.0785418
0.0804256
0.0817886
0.0826537
0.0830405
0.0829655
0.0824421
0.0814808
0.0800899
0.0782754
0.0760418
0.0733925
0.0703304
0.0668587
0.0629809
0.0587019
0.0540281
0.0489682
0.0435337
0.037739
0.0316021
0.025145
0.0183938
0.0113793
0.00413704
-0.00329249
-0.0108635
-0.0185252
-0.0262213
-0.0338908
-0.0414675
-0.0488812
-0.0560575
-0.0629191
-0.0693864
-0.0753788
-0.080816
-0.0856193
-0.0897138
-0.0930297
-0.0955046
-0.0970857
-0.0977314
-0.0974133
-0.0961182
-0.0938496
-0.0906285
-0.0864947
-0.0815064
-0.0757406
-0.0692919
-0.0622716
-0.0548057
-0.0470331
-0.0391031
-0.0311728
-0.0234048
-0.0159642
-0.00901557
-0.00272691
0.00592735
0.016971
0.0271668
0.0365003
0.0449743
0.052603
0.0594094
0.065423
0.0706775
0.0752091
0.0790544
0.0822498
0.0848296
0.0868259
0.0882677
0.0891804
0.0895859
0.0895024
0.0889448
0.0879247
0.0864508
0.0845297
0.0821659
0.079363
0.0761236
0.0724504
0.0683466
0.0638165
0.0588661
0.0535032
0.0477388
0.0415868
0.0350646
0.0281937
0.0210001
0.0135146
0.00577288
-0.00218389
-0.010309
-0.0185501
-0.0268489
-0.0351418
-0.0433592
-0.0514268
-0.0592653
-0.0667916
-0.0739196
-0.080561
-0.0866274
-0.0920313
-0.096688
-0.100518
-0.103449
-0.105418
-0.106374
-0.106281
-0.105116
-0.102879
-0.0995843
-0.0952706
-0.089996
-0.0838396
-0.0769007
-0.0692976
-0.0611654
-0.052654
-0.0439252
-0.0351498
-0.0265049
-0.0181704
-0.0103258
-0.00315408
0.00646816
0.0184724
0.0295166
0.0395951
0.0487191
0.056911
0.064202
0.0706292
0.0762335
0.0810574
0.0851436
0.0885336
0.0912666
0.0933786
0.0949021
0.0958653
0.0962927
0.0962042
0.0956162
0.0945415
0.0929895
0.0909671
0.0884793
0.0855293
0.0821197
0.0782528
0.0739311
0.0691582
0.0639394
0.0582819
0.0521956
0.0456936
0.0387925
0.0315133
0.0238813
0.0159268
0.00768549
-0.000801283
-0.00948622
-0.0183158
-0.0272304
-0.0361636
-0.0450433
-0.0537909
-0.0623226
-0.0705495
-0.0783788
-0.0857146
-0.0924598
-0.0985173
-0.103792
-0.108195
-0.111641
-0.114056
-0.115379
-0.115563
-0.114577
-0.112411
-0.109076
-0.104606
-0.0990586
-0.0925135
-0.0850746
-0.0768672
-0.0680357
-0.0587417
-0.0491603
-0.0394773
-0.0298858
-0.0205817
-0.0117609
-0.00362329
0.00702091
0.0200066
0.0319175
0.0427566
0.0525439
0.0613105
0.0690957
0.0759445
0.0819051
0.0870268
0.0913585
0.0949471
0.0978367
0.100068
0.101676
0.102693
0.103145
0.103055
0.102441
0.101317
0.0996919
0.0975745
0.0949694
0.09188
0.0883084
0.0842565
0.0797263
0.0747205
0.0692434
0.0633013
0.0569031
0.0500607
0.0427898
0.0351102
0.0270464
0.0186279
0.00988993
0.000873532
-0.00837379
-0.0177979
-0.0273379
-0.0369256
-0.0464861
-0.0559375
-0.0651913
-0.074153
-0.0827233
-0.0907985
-0.0982724
-0.105038
-0.11099
-0.116026
-0.120049
-0.122974
-0.124726
-0.125246
-0.124493
-0.122447
-0.119111
-0.114515
-0.108713
-0.101785
-0.0938405
-0.0850097
-0.0754471
-0.0653263
-0.0548371
-0.0441813
-0.0335692
-0.0232147
-0.0133317
-0.00413842
0.0075837
0.0215686
0.0343615
0.0459747
0.056437
0.0657882
0.0740761
0.0813536
0.0876765
0.093101
0.0976823
0.101473
0.104522
0.106875
0.108571
0.109645
0.110126
0.110039
0.109403
0.108234
0.106542
0.104336
0.101621
0.0984007
0.0946764
0.0904494
0.0857212
0.0804936
0.0747699
0.0685551
0.061857
0.054686
0.0470567
0.0389873
0.0305012
0.0216268
0.0123983
0.00285607
-0.00695265
-0.0169736
-0.0271451
-0.0373978
-0.0476544
-0.0578298
-0.0678316
-0.0775601
-0.0869092
-0.0957676
-0.10402
-0.111549
-0.118238
-0.12397
-0.128638
-0.132141
-0.134389
-0.135311
-0.134852
-0.13298
-0.129691
-0.125005
-0.118974
-0.111677
-0.103224
-0.0937539
-0.0834301
-0.072439
-0.0609855
-0.0492889
-0.0375784
-0.0260875
-0.0150499
-0.00470367
0.00815453
0.0231529
0.0368405
0.0492391
0.0603862
0.0703305
0.0791283
0.0868407
0.093531
0.0992627
0.104097
0.108093
0.111306
0.113783
0.115569
0.116703
0.117216
0.117135
0.116482
0.115273
0.113521
0.111234
0.108417
0.105074
0.101207
0.0968159
0.0919013
0.0864644
0.0805071
0.0740332
0.067049
0.0595635
0.0515894
0.0431436
0.0342477
0.0249286
0.0152191
0.00515855
-0.00520668
-0.0158227
-0.0266278
-0.0375515
-0.0485152
-0.0594312
-0.0702033
-0.0807271
-0.0908901
-0.100574
-0.109653
-0.118
-0.125486
-0.131982
-0.137364
-0.141517
-0.144335
-0.14573
-0.145633
-0.144
-0.140812
-0.136081
-0.129853
-0.122205
-0.113249
-0.103128
-0.0920154
-0.0801112
-0.0676362
-0.0548286
-0.0419379
-0.0292193
-0.0169278
-0.00532356
0.00873135
0.024754
0.0393464
0.0525392
0.064379
0.0749233
0.0842369
0.0923893
0.0994514
0.105494
0.110585
0.114789
0.118166
0.120771
0.12265
0.123846
0.124394
0.124324
0.123658
0.122415
0.120609
0.118247
0.115337
0.111881
0.107881
0.103337
0.0982486
0.0926158
0.0864392
0.0797213
0.0724667
0.0646825
0.0563799
0.0475735
0.0382832
0.0285339
0.0183567
0.00778927
-0.00312338
-0.0143283
-0.0257642
-0.0373605
-0.0490375
-0.0607057
-0.0722658
-0.0836091
-0.0946175
-0.105165
-0.115118
-0.124337
-0.132681
-0.140007
-0.146176
-0.151054
-0.15452
-0.156467
-0.156809
-0.155485
-0.152462
-0.14774
-0.141357
-0.133385
-0.123935
-0.113157
-0.101233
-0.0883745
-0.0748208
-0.0608298
-0.0466735
-0.0326302
-0.0189787
-0.00600299
0.00931208
0.0263666
0.0418707
0.0558643
0.0684027
0.0795523
0.0893865
0.0979829
0.10542
0.111776
0.117126
0.12154
0.125085
0.127818
0.129792
0.131053
0.131639
0.131583
0.130908
0.129636
0.127781
0.125352
0.122356
0.118797
0.114675
0.10999
0.104741
0.0989268
0.0925464
0.0856009
0.078093
0.0700282
0.0614152
0.0522669
0.0426005
0.0324389
0.0218108
0.010752
-0.000694531
-0.0124774
-0.0245362
-0.0368012
-0.0491923
-0.0616188
-0.0739792
-0.0861612
-0.0980415
-0.109487
-0.120356
-0.130499
-0.13976
-0.147984
-0.155013
-0.160697
-0.164894
-0.167479
-0.168343
-0.167408
-0.164623
-0.159973
-0.153485
-0.145225
-0.135301
-0.123866
-0.111111
-0.09726
-0.082571
-0.067323
-0.0518119
-0.0363417
-0.0212168
-0.00674718
0.00989465
0.027985
0.044405
0.0592035
0.0724446
0.0842032
0.0945612
0.103604
0.111419
0.118091
0.123701
0.128326
0.132039
0.134902
0.136973
0.1383
0.138927
0.138886
0.138207
0.13691
0.135012
0.132523
0.12945
0.125796
0.121563
0.11675
0.111354
0.105372
0.0988045
0.0916488
0.0839064
0.0755805
0.0666777
0.0572082
0.047187
0.0366342
0.025576
0.0140454
0.00208318
-0.0102615
-0.0229301
-0.0358541
-0.0489539
-0.0621386
-0.0753053
-0.0883388
-0.101112
-0.113485
-0.125308
-0.136422
-0.146658
-0.155845
-0.16381
-0.170381
-0.175397
-0.178709
-0.180187
-0.179729
-0.177265
-0.172763
-0.166232
-0.157729
-0.147359
-0.135275
-0.121675
-0.106798
-0.0909184
-0.0743388
-0.0573809
-0.040376
-0.0236569
-0.00756168
0.010477
0.0296037
0.046941
0.0625462
0.076492
0.0888616
0.0997453
0.109237
0.11743
0.124418
0.130289
0.135126
0.139007
0.142
0.144168
0.145563
0.14623
0.146208
0.145527
0.14421
0.142273
0.13973
0.136588
0.132849
0.128516
0.123585
0.118056
0.111924
0.105185
0.0978375
0.0898803
0.0813145
0.0721441
0.0623769
0.0520248
0.0411051
0.029641
0.0176626
0.00520757
-0.00767766
-0.0209371
-0.0345041
-0.0483006
-0.0622365
-0.0762083
-0.0900992
-0.103779
-0.117102
-0.129912
-0.142039
-0.153303
-0.163518
-0.172491
-0.180033
-0.185958
-0.190093
-0.192283
-0.192401
-0.190352
-0.186081
-0.17958
-0.170892
-0.160115
-0.147399
-0.132949
-0.117016
-0.0998941
-0.0819083
-0.0634085
-0.0447562
-0.0263146
-0.00845238
0.0110571
0.0312175
0.0494705
0.065882
0.0805325
0.0935134
0.104923
0.114863
0.123434
0.130738
0.136869
0.141917
0.145966
0.149088
0.151352
0.152814
0.153524
0.153521
0.15284
0.151505
0.149535
0.146943
0.143738
0.139923
0.135499
0.130464
0.124815
0.118547
0.111655
0.104135
0.0959837
0.0872004
0.0777864
0.0677466
0.0570902
0.045831
0.033989
0.0215907
0.00867049
-0.00472865
-0.0185539
-0.0327415
-0.047216
-0.0618885
-0.0766564
-0.0914025
-0.105994
-0.120282
-0.134103
-0.14728
-0.159619
-0.170921
-0.180975
-0.18957
-0.196496
-0.201554
-0.204562
-0.205362
-0.203831
-0.199889
-0.193504
-0.184702
-0.173568
-0.160249
-0.144953
-0.127942
-0.109528
-0.0900619
-0.0699234
-0.049506
-0.0292061
-0.00942549
0.0116329
0.032821
0.0519858
0.0692007
0.084554
0.0981447
0.110079
0.120466
0.129414
0.137032
0.143421
0.148678
0.152892
0.156142
0.1585
0.160027
0.160778
0.160795
0.160114
0.158763
0.156763
0.154127
0.150866
0.146982
0.142478
0.13735
0.131594
0.125205
0.118177
0.110504
0.102181
0.0932032
0.083571
0.0732859
0.0623538
0.0507854
0.0385967
0.0258106
0.0124574
-0.00142369
-0.0157839
-0.0305631
-0.0456891
-0.0610758
-0.0766226
-0.0922126
-0.107713
-0.122971
-0.13782
-0.152074
-0.16553
-0.177972
-0.189174
-0.198902
-0.206922
-0.213007
-0.216942
-0.218539
-0.217641
-0.214137
-0.207968
-0.199136
-0.18771
-0.173829
-0.1577
-0.139596
-0.119847
-0.0988297
-0.0769543
-0.0546497
-0.0323482
-0.0104875
0.0122028
0.0344096
0.0544795
0.0724929
0.0885451
0.102742
0.115198
0.126029
0.135352
0.14328
0.149924
0.155386
0.159761
0.163135
0.165583
0.167174
0.167963
0.167998
0.167318
0.165952
0.163923
0.161247
0.157934
0.153988
0.149412
0.144201
0.138352
0.131858
0.124712
0.116905
0.108431
0.0992834
0.0894594
0.0789578
0.0677809
0.0559358
0.0434349
0.0302967
0.0165473
0.00222124
-0.0126371
-0.0279722
-0.043716
-0.0597863
-0.0760855
-0.0924991
-0.108894
-0.125119
-0.141002
-0.156351
-0.170954
-0.184584
-0.196995
-0.207933
-0.217138
-0.224353
-0.229331
-0.231846
-0.231705
-0.228762
-0.222922
-0.21416
-0.202522
-0.188133
-0.171199
-0.151998
-0.130878
-0.10824
-0.0845296
-0.0602118
-0.0357582
-0.0116453
0.0127649
0.0359789
0.0569449
0.0757499
0.0924953
0.107294
0.120267
0.131537
0.141229
0.149463
0.156356
0.162018
0.166549
0.170041
0.172576
0.174225
0.175049
0.175098
0.174416
0.173034
0.170977
0.168263
0.164902
0.160901
0.15626
0.150977
0.145047
0.138461
0.131213
0.123292
0.114689
0.105397
0.0954086
0.0847202
0.0733311
0.0612443
0.0484683
0.0350172
0.0209123
0.00618323
-0.00913079
-0.0249795
-0.0412999
-0.0580148
-0.0750311
-0.0922378
-0.109505
-0.12668
-0.143592
-0.160043
-0.175815
-0.190667
-0.204341
-0.216559
-0.227037
-0.235486
-0.241623
-0.245184
-0.245934
-0.243685
-0.238303
-0.229726
-0.217973
-0.203149
-0.18545
-0.16516
-0.142641
-0.118321
-0.0926771
-0.0662171
-0.0394538
-0.0129058
0.013318
0.0375249
0.0593761
0.0789638
0.096395
0.111789
0.125272
0.136975
0.147029
0.155563
0.162698
0.168552
0.173232
0.176835
0.179449
0.181149
0.182002
0.182062
0.181374
0.179973
0.177887
0.175135
0.171729
0.167676
0.162977
0.157631
0.15163
0.144968
0.137634
0.129618
0.120908
0.111496
0.101371
0.0905267
0.078959
0.0666674
0.0536558
0.0399339
0.025518
0.0104323
-0.00528955
-0.0216033
-0.038452
-0.0557644
-0.0734531
-0.0914123
-0.109516
-0.127615
-0.145537
-0.163085
-0.180034
-0.196135
-0.211114
-0.224674
-0.236506
-0.246289
-0.253703
-0.258441
-0.260225
-0.258815
-0.254034
-0.245775
-0.234021
-0.218852
-0.200447
-0.17909
-0.155155
-0.129095
-0.101424
-0.07269
-0.043453
-0.0142765
0.0138607
0.0390446
0.0617683
0.0821282
0.100236
0.116216
0.130202
0.14233
0.152738
0.161561
0.168929
0.174966
0.179785
0.18349
0.186173
0.187917
0.18879
0.188853
0.188154
0.18673
0.184613
0.181822
0.178371
0.174269
0.169518
0.164115
0.158054
0.151328
0.143924
0.135831
0.127037
0.117529
0.107295
0.0963264
0.084615
0.0721565
0.0589508
0.0450028
0.0303236
0.0149318
-0.00114531
-0.0178698
-0.0351916
-0.0530465
-0.071354
-0.0900147
-0.108909
-0.127892
-0.146795
-0.16542
-0.183541
-0.200901
-0.217215
-0.232168
-0.245426
-0.256637
-0.265444
-0.271494
-0.274458
-0.274045
-0.270021
-0.26223
-0.25061
-0.235204
-0.216171
-0.193786
-0.168431
-0.140584
-0.110794
-0.0796546
-0.0477739
-0.0157649
0.0143922
0.0405357
0.0641179
0.0852381
0.104012
0.120569
0.135046
0.147589
0.158339
0.167441
0.175031
0.181238
0.186184
0.189979
0.19272
0.194496
0.19538
0.195437
0.194718
0.193266
0.191111
0.188279
0.184783
0.180634
0.175834
0.170381
0.164269
0.157489
0.15003
0.141878
0.13302
0.123441
0.113127
0.102065
0.0902452
0.0776591
0.0643022
0.0501748
0.0352826
0.0196383
0.00326286
-0.0138129
-0.0315464
-0.0498813
-0.0687452