/*--------------------------------*- C++ -*----------------------------------*\
  =========                 |
  \\      /  F ield         | OpenFOAM: The Open Source CFD Toolbox
   \\    /   O peration     | Website:  https://openfoam.org
    \\  /    A nd           | Version:  dev
     \\/     M anipulation  |
\*---------------------------------------------------------------------------*/
FoamFile
{
    format      ascii;
    class       volScalarField;
    location    "31.05";
    object      p;
}
// * * * * * * * * * * * * * * * * * * * * * * * * * * * * * * * * * * * * * //

dimensions      [0 2 -2 0 0 0 0];

internalField   nonuniform List<scalar> 
5184
(
1.69621e-06
-9.66648e-06
-9.54758e-05
-0.000248331
-0.000447722
-0.00067637
-0.000920036
-0.00116675
-0.00140738
-0.00163476
-0.00184348
-0.00202953
-0.00218996
-0.00232267
-0.0024262
-0.00249952
-0.00254199
-0.00255314
-0.00253272
-0.00248054
-0.00239654
-0.00228068
-0.00213303
-0.00195372
-0.00174299
-0.00150122
-0.00122894
-0.000926913
-0.000596121
-0.00023784
0.000146347
0.000554513
0.000984367
0.00143324
0.00189806
0.00237539
0.00286141
0.00335196
0.00384255
0.00432845
0.00480471
0.00526627
0.00570799
0.0061248
0.00651174
0.00686411
0.00717753
0.00744809
0.0076724
0.00784774
0.00797209
0.00804424
0.00806386
0.0080315
0.00794866
0.0078178
0.00764229
0.00742646
0.00717551
0.00689551
0.00659332
0.00627654
0.00595349
0.00563312
0.005325
0.00503919
0.00478621
0.00457668
0.00442055
0.00432628
0.00429935
0.00432661
1.54202e-05
2.99573e-06
-7.15714e-05
-0.000199321
-0.000364563
-0.000554822
-0.000759164
-0.000967988
-0.00117337
-0.00136892
-0.00154958
-0.00171146
-0.00185159
-0.00196772
-0.00205822
-0.0021219
-0.00215788
-0.00216558
-0.00214456
-0.00209453
-0.00201533
-0.00190686
-0.00176914
-0.00160228
-0.00140648
-0.00118213
-0.000929749
-0.000650067
-0.000344043
-1.28966e-05
0.000341868
0.000718433
0.00111465
0.00152803
0.00195572
0.00239456
0.00284101
0.00329126
0.00374121
0.00418654
0.00462275
0.00504523
0.00544936
0.00583054
0.00618432
0.00650648
0.00679311
0.00704073
0.00724635
0.0074076
0.00752274
0.00759078
0.00761154
0.00758562
0.00751452
0.00740054
0.00724689
0.00705756
0.00683736
0.00659184
0.00632725
0.00605046
0.00576893
0.00549056
0.00522367
0.00497683
0.00475872
0.00457769
0.00444106
0.00435478
0.00432621
0.00435381
0.000102161
7.74514e-05
2.12406e-06
-0.000115408
-0.000263108
-0.00043134
-0.000611393
-0.000795434
-0.000976764
-0.00114982
-0.00131011
-0.00145402
-0.00157876
-0.00168216
-0.00176256
-0.00181873
-0.00184973
-0.00185488
-0.00183369
-0.00178579
-0.00171094
-0.00160901
-0.00147995
-0.00132383
-0.00114083
-0.00093129
-0.000695687
-0.000434704
-0.00014924
0.000159564
0.000490295
0.000841252
0.00121042
0.00159548
0.00199378
0.00240235
0.00281791
0.00323691
0.00365554
0.0040698
0.0044755
0.00486838
0.00524415
0.00559857
0.00592753
0.00622713
0.00649378
0.0067243
0.00691596
0.0070666
0.00717468
0.00723936
0.00726052
0.0072388
0.00717566
0.00707331
0.00693478
0.00676383
0.00656496
0.00634332
0.00610468
0.00585533
0.00560203
0.00535191
0.00511233
0.00489073
0.00469462
0.00453104
0.00440603
0.00432481
0.00429702
0.00432766
0.000257211
0.000205809
0.000118015
-9.27006e-07
-0.000143352
-0.000301481
-0.000468188
-0.000637105
-0.000802693
-0.000960262
-0.00110594
-0.00123659
-0.00134972
-0.00144334
-0.00151594
-0.00156633
-0.00159361
-0.00159709
-0.00157625
-0.00153068
-0.00146011
-0.00136436
-0.00124333
-0.00109705
-0.000925628
-0.000729346
-0.000508624
-0.000264067
3.51184e-06
0.000293067
0.000603296
0.000932621
0.00127917
0.00164078
0.00201495
0.00239892
0.00278961
0.00318367
0.00357753
0.00396739
0.00434934
0.00471933
0.00507333
0.00540732
0.00571742
0.00599995
0.00625153
0.00646914
0.00665024
0.00679279
0.00689536
0.00695718
0.00697816
0.00695897
0.00690098
0.00680636
0.00667797
0.0065194
0.00633488
0.00612926
0.00590792
0.0056767
0.00544181
0.00520974
0.00498715
0.00478072
0.00459705
0.00444242
0.00432226
0.00424162
0.00421059
0.00423584
0.000461959
0.000373365
0.000264783
0.000137099
-7.2393e-06
-0.000162067
-0.000321613
-0.000480879
-0.000635452
-0.000781535
-0.000915946
-0.00103607
-0.0011398
-0.00122545
-0.00129169
-0.00133745
-0.00136193
-0.00136446
-0.00134453
-0.00130174
-0.00123578
-0.00114642
-0.00103352
-0.000897045
-0.000737049
-0.000553722
-0.000347402
-0.000118601
0.000131972
0.000403385
0.000694461
0.00100376
0.00132955
0.00166983
0.00202227
0.00238428
0.00275295
0.00312514
0.00349745
0.00386629
0.00422792
0.0045785
0.00491416
0.00523106
0.00552548
0.00579389
0.00603305
0.00624006
0.00641247
0.00654832
0.00664625
0.00670551
0.00672602
0.00670842
0.00665406
0.00656498
0.00644393
0.00629434
0.00612021
0.00592613
0.00571714
0.00549869
0.00527654
0.00505663
0.00484502
0.00464774
0.0044707
0.00431951
0.00419915
0.00411436
0.00407396
0.0040838
0.000700251
0.000568244
0.000433099
0.000291081
0.000139178
-1.78382e-05
-0.000175363
-0.000329654
-0.000477376
-0.000615605
-0.000741866
-0.000854112
-0.000950672
-0.00103019
-0.00109159
-0.00113399
-0.00115669
-0.00115911
-0.00114078
-0.00110129
-0.00104033
-0.000957633
-0.000853004
-0.000726334
-0.000577606
-0.000406919
-0.00021451
-7.80436e-07
0.000233681
0.000488072
0.000761351
0.00105222
0.00135911
0.00168016
0.00201321
0.00235583
0.00270529
0.00305858
0.00341248
0.00376356
0.00410821
0.00444273
0.00476338
0.00506643
0.00534827
0.00560546
0.00583483
0.00603352
0.00619914
0.00632976
0.00642401
0.00648116
0.0065011
0.00648442
0.00643239
0.00634699
0.00623084
0.00608722
0.00591995
0.00573337
0.00553228
0.00532177
0.00510722
0.00489414
0.00468808
0.00449452
0.0043188
0.00416598
0.00404061
0.00394708
0.0038919
0.00387882
0.000958306
0.000779572
0.000614061
0.000453548
0.000289661
0.000126006
-3.37951e-05
-0.000187142
-0.0003317
-0.000465382
-0.000586415
-0.000693328
-0.000784914
-0.000860188
-0.000918347
-0.000958732
-0.000980788
-0.00098404
-0.00096807
-0.000932504
-0.000877006
-0.000801284
-0.000705091
-0.000588245
-0.00045064
-0.000292275
-0.000113272
8.60919e-05
0.00030536
0.000543871
0.000800731
0.00107479
0.00136464
0.00166857
0.00198458
0.00231038
0.00264339
0.00298076
0.00331937
0.00365591
0.00398688
0.00430869
0.00461765
0.0049101
0.00518248
0.00543137
0.0056536
0.00584635
0.00600719
0.00613417
0.0062259
0.00628158
0.00630106
0.00628486
0.00623418
0.0061509
0.00603753
0.00589721
0.00573362
0.00555091
0.00535363
0.00514663
0.00493497
0.00472381
0.00451829
0.00432346
0.00414419
0.00398504
0.00385025
0.00374386
0.00366955
0.00362854
0.001224
0.00099721
0.000799076
0.000617212
0.000438135
0.000264485
9.90511e-05
-5.65952e-05
-0.000201045
-0.000333
-0.000451366
-0.000555241
-0.00064389
-0.000716711
-0.000773202
-0.000812933
-0.000835521
-0.000840607
-0.000827844
-0.000796889
-0.000747403
-0.000679063
-0.000591567
-0.000484652
-0.00035812
-0.000211855
-4.58558e-05
0.000139736
0.00034461
0.000568253
0.00080993
0.00106865
0.00134315
0.00163189
0.00193301
0.00224436
0.00256349
0.00288766
0.00321387
0.00353889
0.00385929
0.00417152
0.00447193
0.00475688
0.00502278
0.0052662
0.00548394
0.00567312
0.00583123
0.00595628
0.00604678
0.00610186
0.00612126
0.00610544
0.00605548
0.00597317
0.00586091
0.00572172
0.00555915
0.00537719
0.00518023
0.0049729
0.00476002
0.00454646
0.00433709
0.00413659
0.00394946
0.00377987
0.00363182
0.00350904
0.00341228
0.0033401
0.00148708
0.00121201
0.000980082
0.000775034
0.000578545
0.000392449
0.00021883
5.83272e-05
-8.85005e-05
-0.000221095
-0.000339006
-0.000441886
-0.000529463
-0.000601518
-0.000657857
-0.000698288
-0.000722606
-0.000730576
-0.000721928
-0.000696353
-0.000653514
-0.000593052
-0.000514607
-0.000417832
-0.000302424
-0.000168147
-1.48659e-05
0.000157426
0.000348572
0.00055822
0.000785797
0.00103048
0.00129115
0.00156644
0.00185462
0.00215369
0.0024613
0.00277481
0.00309132
0.00340765
0.0037204
0.00402603
0.0043209
0.00460132
0.00486366
0.00510442
0.00532031
0.00550833
0.00566589
0.00579085
0.00588162
0.00593719
0.00595721
0.00594198
0.00589249
0.00581041
0.00569805
0.0055583
0.00539459
0.0052108
0.00501119
0.00480022
0.00458256
0.00436286
0.00414577
0.00393574
0.00373697
0.00355334
0.00338871
0.00324661
0.00312487
0.00301953
0.00173855
0.0014157
0.00114958
0.000920287
0.000704923
0.000504648
0.000320939
0.000153592
2.38202e-06
-0.000132823
-0.000252182
-0.000355874
-0.000444079
-0.000516949
-0.000574593
-0.000617058
-0.000644317
-0.000656258
-0.000652689
-0.000633337
-0.000597859
-0.000545861
-0.000476917
-0.000390591
-0.000286468
-0.000164181
-2.34499e-05
0.000135887
0.000313838
0.00051022
0.00072463
0.00095641
0.00120462
0.00146802
0.00174505
0.00203382
0.00233209
0.00263732
0.00294666
0.00325696
0.00356485
0.00386676
0.00415901
0.00443784
0.00469952
0.00494044
0.00515717
0.00534657
0.00550588
0.00563281
0.00572558
0.00578304
0.00580466
0.0057906
0.00574172
0.00565956
0.0055463
0.00540474
0.00523821
0.0050505
0.00484574
0.00462833
0.00440279
0.00417368
0.00394548
0.0037225
0.00350876
0.00330793
0.00312384
0.00295996
0.00281133
0.00267161
0.00197049
0.0016008
0.0013006
0.00104656
0.000811448
0.00059583
0.000400657
0.000224954
6.77691e-05
-7.16728e-05
-0.000194101
-0.000300199
-0.000390572
-0.000465731
-0.000526077
-0.000571885
-0.000603299
-0.000620331
-0.000622857
-0.000610635
-0.000583314
-0.000540458
-0.000481568
-0.000406111
-0.000313549
-0.000203378
-7.5163e-05
7.14237e-05
0.000236563
0.000420252
0.000622265
0.000842119
0.00107904
0.00133196
0.00159944
0.00187971
0.00217066
0.00246981
0.00277436
0.00308117
0.00338688
0.00368786
0.00398035
0.00426051
0.00452445
0.00476842
0.0049888
0.00518226
0.00534583
0.005477
0.00557379
0.00563483
0.0056594
0.00564747
0.00559974
0.0055176
0.0054031
0.00525894
0.00508836
0.00489507
0.00468314
0.0044569
0.00422084
0.00397946
0.00373717
0.00349822
0.00326655
0.00304572
0.00283968
0.00265191
0.00247485
0.00229994
0.00217574
0.00176041
0.00142663
0.00114777
0.000892472
0.000660795
0.000453212
0.000268032
0.000103626
-4.13823e-05
-0.00016826
-0.000278161
-0.000372097
-0.000450918
-0.000515299
-0.000565731
-0.000602521
-0.000625788
-0.000635475
-0.000631359
-0.000613075
-0.000580135
-0.00053196
-0.000467908
-0.000387315
-0.000289526
-0.000173941
-4.00578e-05
0.00011249
0.000283885
0.000474091
0.000682807
0.00090944
0.00115307
0.00141241
0.00168583
0.00197129
0.00226641
0.0025684
0.00287415
0.00318026
0.00348304
0.00377862
0.00406302
0.00433221
0.0045822
0.00480918
0.00500956
0.00518012
0.00531809
0.00542123
0.00548789
0.00551714
0.00550871
0.00546309
0.00538151
0.00526588
0.00511878
0.00494336
0.00474328
0.00452258
0.00428557
0.00403674
0.00378061
0.0035216
0.00326401
0.00301176
0.00276844
0.00253819
0.00232466
0.00211783
0.00190705
0.00234776
0.00188817
0.00152153
0.00121809
0.000942527
0.000694424
0.000473823
0.000278361
0.000105773
-4.58825e-05
-0.000178379
-0.000293315
-0.000392082
-0.000475845
-0.000545538
-0.000601851
-0.000645239
-0.000675917
-0.00069388
-0.000698918
-0.000690637
-0.000668491
-0.000631808
-0.000579833
-0.000511757
-0.000426769
-0.000324095
-0.000203042
-6.30517e-05
9.62584e-05
0.000275049
0.000473213
0.000690342
0.00092568
0.00117811
0.0014461
0.00172774
0.0020207
0.00232223
0.00262923
0.00293824
0.00324549
0.003547
0.00383861
0.00411609
0.00437522
0.00461191
0.0048223
0.00500286
0.0051505
0.00526265
0.00533738
0.00537344
0.0053703
0.00532823
0.00524821
0.00513202
0.0049821
0.00480151
0.00459388
0.00436322
0.0041139
0.00385042
0.0035774
0.00329938
0.00302073
0.00274551
0.00247741
0.00222088
0.00197986
0.00174199
0.00149462
0.00248046
0.0019781
0.00157954
0.00125199
0.000956325
0.0006917
0.000457739
0.000251443
6.99427e-05
-8.92381e-05
-0.000228351
-0.000349412
-0.000454167
-0.000544079
-0.000620315
-0.000683749
-0.000734965
-0.000774262
-0.000801674
-0.000816987
-0.000819772
-0.000809408
-0.000785126
-0.000746038
-0.000691187
-0.000619592
-0.000530289
-0.000422389
-0.000295127
-0.000147907
1.96397e-05
0.000207614
0.000415801
0.000643629
0.000890135
0.00115394
0.00143322
0.00172573
0.00202876
0.0023392
0.00265352
0.00296788
0.00327815
0.00357998
0.0038689
0.00414043
0.00439016
0.0046139
0.00480776
0.00496828
0.00509252
0.00517817
0.00522363
0.00522807
0.00519143
0.00511449
0.00499879
0.00484665
0.00466104
0.00444552
0.00420416
0.00394134
0.00366171
0.00337
0.00307092
0.00276907
0.00246867
0.00217365
0.00188887
0.00161866
0.00134842
0.00106355
0.00256813
0.00202459
0.00159517
0.00124415
0.000928763
0.000647726
0.000400271
0.000182786
-8.17363e-06
-0.000175595
-0.000322183
-0.000450345
-0.000562161
-0.000659365
-0.000743342
-0.000815129
-0.000875422
-0.000924586
-0.00096268
-0.000989476
-0.00100449
-0.00100702
-0.000996187
-0.000970957
-0.000930213
-0.000872788
-0.000797523
-0.000703316
-0.000589179
-0.000454294
-0.000298063
-0.000120166
7.93924e-05
0.000300237
0.000541581
0.000802194
0.00108038
0.00137396
0.00168027
0.0019962
0.00231817
0.00264223
0.0029641
0.0032792
0.00358283
0.00387019
0.00413652
0.00437724
0.00458804
0.00476504
0.00490485
0.00500475
0.00506271
0.00507751
0.00504876
0.00497691
0.00486331
0.00471005
0.00452004
0.00429678
0.00404437
0.00376728
0.00347032
0.00315841
0.00283652
0.0025095
0.00218188
0.00185791
0.00154293
0.00124182
0.000937733
0.000614174
0.00260534
0.00202232
0.00156322
0.00118951
0.000854922
0.000557743
0.000296818
6.79435e-05
-0.000132882
-0.000309133
-0.000463946
-0.000600098
-0.000719981
-0.00082558
-0.000918477
-0.000999851
-0.0010705
-0.00113083
-0.00118091
-0.00122048
-0.00124901
-0.00126568
-0.0012695
-0.00125927
-0.0012337
-0.00119144
-0.0011311
-0.00105137
-0.000951006
-0.000828961
-0.000684393
-0.00051674
-0.000325777
-0.000111665
0.000125005
0.00038317
0.00066127
0.000957223
0.00126842
0.00159176
0.0019236
0.0022599
0.0025962
0.00292771
0.00324943
0.00355622
0.00384294
0.00410456
0.00433632
0.00453382
0.00469318
0.00481116
0.00488526
0.00491378
0.00489592
0.00483179
0.00472243
0.00456974
0.00437647
0.0041461
0.00388274
0.00359102
0.0032759
0.00294258
0.00259633
0.00224237
0.00188561
0.00153068
0.00118357
0.000849725
0.000510126
0.000146335
0.00258697
0.00196623
0.00147872
0.00108322
0.000730073
0.000417145
0.000142897
-9.7453e-05
-0.000308443
-0.000494019
-0.000657726
-0.000802695
-0.000931605
-0.00104668
-0.00114967
-0.00124188
-0.00132419
-0.00139704
-0.0014605
-0.00151426
-0.0015577
-0.00158991
-0.00160974
-0.00161585
-0.00160674
-0.00158086
-0.00153659
-0.00147237
-0.00138672
-0.00127832
-0.00114606
-0.000989125
-0.000807038
-0.000599719
-0.00036754
-0.00011137
0.000167388
0.000466773
0.000784252
0.00111673
0.00146054
0.00181154
0.00216508
0.00251616
0.00285946
0.00318948
0.00350064
0.00378742
0.00404453
0.00426701
0.0044504
0.00459086
0.00468532
0.00473154
0.00472823
0.00467508
0.00457274
0.00442289
0.00422809
0.00399176
0.00371806
0.00341173
0.00307799
0.00272234
0.00235043
0.00196792
0.00158018
0.00119234
0.000811084
0.000442557
6.55185e-05
-0.000340455
0.00250811
0.00185151
0.00133697
0.000920664
0.000549688
0.000221498
-6.58364e-05
-0.000317661
-0.000539037
-0.000734364
-0.00090758
-0.00106215
-0.00120102
-0.00132663
-0.0014409
-0.00154523
-0.00164057
-0.00172738
-0.00180569
-0.00187516
-0.00193505
-0.00198435
-0.00202175
-0.00204573
-0.0020546
-0.00204656
-0.00201977
-0.0019724
-0.00190269
-0.00180906
-0.00169009
-0.0015447
-0.00137212
-0.001172
-0.000944474
-0.00069018
-0.000410334
-0.000106749
0.000218143
0.000561283
0.000918999
0.00128704
0.0016606
0.00203444
0.00240292
0.00276013
0.00310002
0.00341656
0.00370383
0.00395625
0.00416868
0.00433662
0.00445632
0.00452491
0.00454051
0.00450228
0.00441046
0.00426638
0.0040724
0.00383186
0.00354893
0.00322851
0.00287607
0.00249748
0.00209884
0.00168632
0.00126584
0.000843112
0.000425629
2.0314e-05
-0.000396373
-0.000846915
0.00236409
0.00167361
0.0011335
0.000697441
0.000309452
-3.34404e-05
-0.000333557
-0.000596794
-0.000828724
-0.00103418
-0.00121749
-0.00138242
-0.00153218
-0.00166941
-0.00179615
-0.00191393
-0.00202372
-0.00212599
-0.00222074
-0.00230755
-0.00238559
-0.00245371
-0.00251043
-0.00255403
-0.00258263
-0.00259417
-0.00258656
-0.00255769
-0.00250551
-0.00242811
-0.0023238
-0.00219115
-0.00202909
-0.00183697
-0.00161464
-0.00136248
-0.00108148
-0.000773256
-0.00044012
-8.5052e-05
0.000288283
0.00067556
0.00107184
0.00147161
0.00186892
0.00225745
0.00263063
0.00298184
0.0033045
0.00359232
0.0038394
0.00404047
0.00419099
0.00428735
0.00432697
0.00430839
0.00423134
0.00409672
0.00390663
0.00366426
0.00337381
0.00304031
0.00266953
0.00226773
0.00184154
0.00139772
0.000942822
0.000483214
2.73138e-05
-0.000417084
-0.000875933
-0.00137389
0.00215051
0.00142822
0.000864091
0.000409407
5.27997e-06
-0.0003517
-0.000664243
-0.000938791
-0.00118141
-0.00139735
-0.00159131
-0.00176735
-0.00192894
-0.00207887
-0.00221934
-0.00235193
-0.00247766
-0.00259699
-0.00270987
-0.0028158
-0.00291384
-0.00300268
-0.00308067
-0.0031459
-0.00319624
-0.00322939
-0.00324297
-0.00323458
-0.00320186
-0.00314256
-0.00305465
-0.00293635
-0.00278626
-0.00260338
-0.00238722
-0.00213788
-0.00185606
-0.00154316
-0.00120131
-0.000833371
-0.000442965
-3.44586e-05
0.000387074
0.000815907
0.00124575
0.00166983
0.00208106
0.00247218
0.00283588
0.00316508
0.00345302
0.00369353
0.00388121
0.00401155
0.00408116
0.00408783
0.00403064
0.00391001
0.00372766
0.00348659
0.00319096
0.00284598
0.00245769
0.00203281
0.00157853
0.00110229
0.000611363
0.000112873
-0.000383743
-0.000869715
-0.00137356
-0.00192227
0.0018632
0.00111131
0.000524786
5.26755e-05
-0.000366663
-0.00073707
-0.00106165
-0.00134738
-0.00160079
-0.00182757
-0.00203273
-0.00222065
-0.002395
-0.00255876
-0.00271424
-0.00286307
-0.00300631
-0.00314439
-0.00327721
-0.00340418
-0.00352422
-0.00363588
-0.00373731
-0.0038264
-0.00390077
-0.00395785
-0.00399497
-0.0040094
-0.00399845
-0.00395952
-0.00389019
-0.00378832
-0.0036521
-0.00348016
-0.00327164
-0.00302628
-0.00274446
-0.00242729
-0.00207667
-0.0016953
-0.00128671
-0.000855255
-0.000406118
5.47713e-05
0.000520795
0.000984751
0.00143898
0.00187553
0.00228633
0.00266339
0.00299902
0.00328603
0.00351799
0.00368939
0.00379586
0.00383431
0.00380304
0.00370183
0.00353196
0.00329614
0.00299845
0.00264422
0.0022398
0.00179239
0.00130982
0.000800259
0.000271793
-0.000267595
-0.000807334
-0.00133758
-0.00188959
-0.00249285
0.00149831
0.000719132
0.000111923
-0.000376361
-0.000809937
-0.00119308
-0.00152928
-0.00182604
-0.00209035
-0.00232829
-0.00254523
-0.0027458
-0.00293389
-0.00311263
-0.00328444
-0.00345101
-0.0036134
-0.00377202
-0.00392671
-0.00407676
-0.00422098
-0.00435774
-0.00448501
-0.00460044
-0.0047014
-0.00478504
-0.00484838
-0.00488835
-0.00490189
-0.00488602
-0.00483791
-0.00475501
-0.00463507
-0.00447631
-0.00427742
-0.00403773
-0.00375724
-0.00343673
-0.00307779
-0.00268288
-0.0022554
-0.00179964
-0.00132083
-0.000825083
-0.000319314
0.000188833
0.000691123
0.00117888
0.0016432
0.00207511
0.00246586
0.00280715
0.00309136
0.00331182
0.00346301
0.00354079
0.00354253
0.00346723
0.00331556
0.00308986
0.00279407
0.00243358
0.00201505
0.00154619
0.00103549
0.000491953
-7.54284e-05
-0.00065772
-0.00124309
-0.0018205
-0.00242419
-0.00308631
0.00105226
0.000248241
-0.000377852
-0.000881004
-0.00132781
-0.00172296
-0.00207036
-0.00237798
-0.00265329
-0.00290275
-0.00313203
-0.00334603
-0.00354885
-0.00374377
-0.00393328
-0.00411914
-0.0043024
-0.00448344
-0.00466204
-0.00483736
-0.0050081
-0.00517243
-0.00532814
-0.00547264
-0.00560304
-0.00571618
-0.00580876
-0.00587736
-0.00591852
-0.00592885
-0.00590509
-0.00584421
-0.00574351
-0.00560069
-0.00541399
-0.00518225
-0.00490503
-0.00458268
-0.00421642
-0.00380841
-0.00336182
-0.00288084
-0.00237067
-0.00183755
-0.00128867
-0.000732098
-0.000176642
0.000368277
0.000892839
0.00138705
0.00184097
0.00224505
0.00259033
0.0028688
0.00307362
0.0031994
0.00324238
0.0032006
0.00307397
0.00286434
0.00257537
0.00221247
0.00178257
0.00129391
0.000755702
0.000177856
-0.000429651
-0.00105682
-0.00169041
-0.00231807
-0.00297727
-0.00370304
0.000521838
-0.000304464
-0.000947564
-0.00146423
-0.00192321
-0.00232962
-0.00268777
-0.0030061
-0.00329251
-0.00355382
-0.00379603
-0.00402428
-0.00424285
-0.00445516
-0.00466379
-0.00487054
-0.00507646
-0.0052819
-0.00548653
-0.00568945
-0.00588918
-0.00608375
-0.00627071
-0.00644725
-0.00661018
-0.00675608
-0.00688127
-0.00698196
-0.00705429
-0.00709442
-0.00709861
-0.00706333
-0.00698536
-0.00686186
-0.00669052
-0.00646965
-0.00619826
-0.00587621
-0.00550427
-0.00508422
-0.00461891
-0.00411232
-0.00356958
-0.00299698
-0.00240192
-0.00179286
-0.0011792
-0.00057109
2.06913e-05
0.000585031
0.00111073
0.00158682
0.00200285
0.00234929
0.00261775
0.00280137
0.00289506
0.00289566
0.00280216
0.00261569
0.00233956
0.00197908
0.00154142
0.00103531
0.000470762
-0.000141359
-0.000789979
-0.00146391
-0.00214838
-0.00282956
-0.00354841
-0.00434313
-9.58139e-05
-0.000941717
-0.00159987
-0.00212865
-0.00259872
-0.00301565
-0.00338408
-0.00371295
-0.00401055
-0.00428408
-0.0045398
-0.00478311
-0.00501846
-0.00524941
-0.0054786
-0.00570789
-0.00593832
-0.00617018
-0.00640309
-0.00663603
-0.00686738
-0.00709498
-0.00731619
-0.00752794
-0.00772679
-0.00790897
-0.00807047
-0.00820709
-0.00831454
-0.0083885
-0.00842474
-0.00841918
-0.00836801
-0.00826781
-0.00811565
-0.00790921
-0.00764692
-0.00732803
-0.00695277
-0.00652243
-0.00603945
-0.00550752
-0.00493158
-0.00431789
-0.00367402
-0.00300874
-0.002332
-0.00165471
-0.000988607
-0.000345994
0.000260561
0.000818543
0.00131586
0.0017412
0.00208444
0.00233701
0.00249218
0.0025454
0.00249445
0.00233958
0.00208354
0.00173143
0.00129058
0.000770209
0.000181118
-0.000464776
-0.0011552
-0.00187768
-0.00261569
-0.0033538
-0.00413678
-0.00500621
-0.000803145
-0.00166587
-0.00233706
-0.0028765
-0.00335657
-0.00378322
-0.00416147
-0.0045007
-0.0048096
-0.00509568
-0.00536551
-0.0056247
-0.00587787
-0.00612869
-0.00637992
-0.00663341
-0.00689021
-0.00715059
-0.00741407
-0.00767953
-0.00794522
-0.0082088
-0.00846742
-0.00871777
-0.00895612
-0.00917838
-0.00938018
-0.00955691
-0.00970382
-0.0098161
-0.00988896
-0.00991774
-0.00989802
-0.00982571
-0.0096972
-0.00950947
-0.00926026
-0.00894814
-0.00857269
-0.00813459
-0.00763578
-0.00707951
-0.00647045
-0.00581474
-0.00511997
-0.00439519
-0.00365083
-0.00289853
-0.00215102
-0.00142182
-0.000724947
-7.45993e-05
0.00051529
0.00103146
0.00146178
0.00179566
0.0020245
0.00214203
0.00214454
0.00203116
0.00180384
0.00146733
0.00102898
0.000498477
-0.000112589
-0.000791187
-0.00152375
-0.00229633
-0.00309055
-0.00388913
-0.00474099
-0.00569138
-0.00160217
-0.00247883
-0.00316099
-0.00370962
-0.00419856
-0.00463413
-0.00502173
-0.00537113
-0.0056914
-0.00599038
-0.00627488
-0.00655074
-0.00682275
-0.00709469
-0.0073694
-0.00764876
-0.00793382
-0.00822481
-0.00852119
-0.00882173
-0.00912455
-0.00942714
-0.00972646
-0.0100189
-0.0103006
-0.0105669
-0.0108133
-0.0110346
-0.0112257
-0.0113811
-0.0114957
-0.0115639
-0.0115808
-0.0115416
-0.0114419
-0.0112779
-0.0110465
-0.0107455
-0.0103738
-0.00993136
-0.0094194
-0.00884066
-0.00819939
-0.00750148
-0.00675444
-0.0059675
-0.00515147
-0.0043187
-0.00348285
-0.00265871
-0.00186183
-0.00110819
-0.000413732
0.000206101
0.000736895
0.00116578
0.00148192
0.00167698
0.00174547
0.00168505
0.00149663
0.00118436
0.000755508
0.000220093
-0.000409484
-0.00111903
-0.00189358
-0.0027176
-0.00357058
-0.00443326
-0.00535903
-0.00639709
-0.00249444
-0.00338209
-0.0040731
-0.00462942
-0.00512608
-0.00556976
-0.00596621
-0.00632557
-0.00665728
-0.00696945
-0.00726917
-0.00756246
-0.00785429
-0.00814855
-0.00844813
-0.00875499
-0.00907016
-0.00939384
-0.00972544
-0.0100636
-0.0104064
-0.0107511
-0.0110945
-0.0114327
-0.0117615
-0.0120762
-0.0123716
-0.0126422
-0.0128824
-0.0130863
-0.0132479
-0.0133612
-0.0134205
-0.0134202
-0.013355
-0.0132203
-0.0130123
-0.0127277
-0.0123646
-0.011922
-0.0114006
-0.0108022
-0.0101305
-0.00939115
-0.00859134
-0.00774035
-0.0068493
-0.00593111
-0.00500037
-0.00407311
-0.00316647
-0.00229831
-0.00148674
-0.000749602
-0.000103868
0.000434972
0.0008535
0.00114093
0.00128961
0.00129535
0.00115769
0.000879922
0.000468992
-6.48365e-05
-0.00070841
-0.00144634
-0.00226215
-0.00313856
-0.00405273
-0.00498318
-0.00598813
-0.00712102
-0.003481
-0.00437665
-0.00507436
-0.00563687
-0.00614009
-0.00659105
-0.00699582
-0.00736492
-0.00770807
-0.0080337
-0.00834911
-0.00866054
-0.00897309
-0.00929077
-0.00961657
-0.00995246
-0.0102995
-0.0106579
-0.011027
-0.0114053
-0.0117908
-0.0121807
-0.0125715
-0.0129592
-0.0133392
-0.0137064
-0.0140555
-0.0143804
-0.014675
-0.0149328
-0.0151472
-0.0153116
-0.0154195
-0.0154643
-0.01544
-0.0153411
-0.0151626
-0.0149005
-0.0145516
-0.0141142
-0.0135878
-0.0129735
-0.0122744
-0.0114954
-0.0106433
-0.00972733
-0.00875875
-0.00775096
-0.00671937
-0.00568121
-0.00465521
-0.0036612
-0.00271961
-0.00185087
-0.0010748
-0.000409836
0.000127613
0.000523897
0.000768726
0.000855661
0.000782458
0.000551209
0.00016827
-0.000356033
-0.00100787
-0.00177065
-0.00262629
-0.0035556
-0.00453318
-0.00553504
-0.00662463
-0.00785994
-0.00456242
-0.00546304
-0.0061653
-0.00673247
-0.00724108
-0.00769847
-0.00811103
-0.00848958
-0.00884415
-0.00918342
-0.00951492
-0.00984507
-0.0101791
-0.0105212
-0.0108745
-0.0112408
-0.0116214
-0.0120164
-0.012425
-0.012846
-0.0132769
-0.013715
-0.0141565
-0.0145972
-0.0150324
-0.0154566
-0.015864
-0.0162482
-0.0166025
-0.0169199
-0.0171933
-0.0174151
-0.017578
-0.0176747
-0.0176983
-0.0176421
-0.0175001
-0.0172672
-0.0169392
-0.016513
-0.0159873
-0.0153621
-0.0146395
-0.0138237
-0.012921
-0.0119403
-0.0108928
-0.00979217
-0.00865459
-0.0074984
-0.00634388
-0.00521286
-0.00412819
-0.00311311
-0.00219052
-0.00138219
-0.000707916
-0.000184686
0.000174075
0.000359165
0.000366083
0.00019529
-0.000147783
-0.000652995
-0.00130598
-0.00208894
-0.00298212
-0.00396428
-0.00500714
-0.006084
-0.00726386
-0.00860958
-0.00573869
-0.00664129
-0.00734597
-0.00791628
-0.00842912
-0.00889208
-0.00931184
-0.0096995
-0.0100654
-0.0104184
-0.0107662
-0.0111156
-0.0114718
-0.0118391
-0.0122208
-0.0126188
-0.0130344
-0.0134676
-0.0139179
-0.0143836
-0.0148626
-0.0153516
-0.015847
-0.0163444
-0.0168386
-0.017324
-0.0177943
-0.0182428
-0.0186624
-0.0190453
-0.0193837
-0.0196694
-0.0198943
-0.0200501
-0.0201288
-0.0201228
-0.0200249
-0.0198287
-0.0195288
-0.019121
-0.0186026
-0.0179724
-0.0172316
-0.0163832
-0.0154329
-0.0143889
-0.0132622
-0.0120668
-0.0108191
-0.00953869
-0.0082472
-0.00696846
-0.00572782
-0.00455146
-0.00346564
-0.0024958
-0.00166555
-0.000995733
-0.000503463
-0.000201282
-9.65112e-05
-0.000190835
-0.000480182
-0.000954917
-0.00160033
-0.0023975
-0.00332493
-0.00435917
-0.00546881
-0.00662406
-0.00789995
-0.00936445
-0.0070093
-0.00791094
-0.00861593
-0.0091879
-0.00970379
-0.0101714
-0.0105978
-0.0109941
-0.0113711
-0.0117378
-0.0121021
-0.0124709
-0.0128497
-0.0132429
-0.0136538
-0.0140845
-0.0145362
-0.0150092
-0.0155027
-0.0160152
-0.0165444
-0.017087
-0.0176393
-0.0181965
-0.0187535
-0.0193042
-0.019842
-0.0203598
-0.0208499
-0.021304
-0.0217137
-0.02207
-0.0223638
-0.0225861
-0.0227276
-0.0227797
-0.0227339
-0.0225826
-0.0223189
-0.0219374
-0.0214338
-0.0208058
-0.0200531
-0.0191775
-0.0181839
-0.0170795
-0.015875
-0.0145841
-0.0132237
-0.011814
-0.0103781
-0.00894172
-0.00753269
-0.00618026
-0.00491426
-0.00376411
-0.0027577
-0.00192024
-0.00127315
-0.000832966
-0.000610473
-0.000610121
-0.00082973
-0.0012606
-0.00188794
-0.00269185
-0.00364906
-0.00473377
-0.00591112
-0.00714794
-0.00852565
-0.0101176
-0.00837319
-0.00927102
-0.00997429
-0.0105465
-0.0110643
-0.0115357
-0.0119679
-0.0123725
-0.0127602
-0.0131403
-0.013521
-0.0139093
-0.0143108
-0.0147302
-0.0151708
-0.0156348
-0.0161236
-0.0166374
-0.0171755
-0.0177364
-0.0183177
-0.0189162
-0.019528
-0.0201481
-0.0207712
-0.021391
-0.0220006
-0.0225924
-0.0231582
-0.0236892
-0.0241763
-0.0246097
-0.0249795
-0.0252756
-0.0254878
-0.0256061
-0.0256209
-0.025523
-0.0253043
-0.0249577
-0.0244775
-0.0238597
-0.0231026
-0.0222067
-0.0211753
-0.020015
-0.0187355
-0.01735
-0.0158758
-0.0143333
-0.012747
-0.0111441
-0.00955517
-0.00801239
-0.00654937
-0.0051998
-0.00399627
-0.00296893
-0.00214412
-0.00154308
-0.00118084
-0.00106531
-0.00119688
-0.0015683
-0.00216509
-0.00296656
-0.00394772
-0.00508027
-0.00632563
-0.00764686
-0.00913218
-0.0108607
-0.00982877
-0.0107201
-0.0114197
-0.0119908
-0.0125093
-0.0129836
-0.013421
-0.0138331
-0.014231
-0.0146241
-0.0150208
-0.0154283
-0.0158525
-0.016298
-0.0167684
-0.017266
-0.0177923
-0.0183475
-0.0189311
-0.0195416
-0.0201766
-0.0208328
-0.0215061
-0.0221918
-0.022884
-0.0235763
-0.0242615
-0.0249316
-0.025578
-0.0261913
-0.0267617
-0.0272786
-0.0277313
-0.0281086
-0.0283992
-0.028592
-0.028676
-0.0286405
-0.0284759
-0.0281735
-0.0277258
-0.0271272
-0.0263743
-0.0254659
-0.024404
-0.0231937
-0.0218437
-0.0203665
-0.018779
-0.017102
-0.0153608
-0.0135842
-0.011805
-0.0100585
-0.00838219
-0.00681417
-0.00539215
-0.00415175
-0.00312492
-0.0023384
-0.00181226
-0.00155875
-0.00158157
-0.00187559
-0.00242718
-0.00321513
-0.00421284
-0.00538942
-0.00670226
-0.00811029
-0.00970891
-0.0115831
-0.0113739
-0.0122563
-0.0129505
-0.0135191
-0.0140373
-0.0145135
-0.0149551
-0.0153741
-0.0157814
-0.0161868
-0.016599
-0.0170251
-0.0174713
-0.0179424
-0.0184422
-0.0189732
-0.0195369
-0.0201337
-0.0207633
-0.021424
-0.0221135
-0.0228287
-0.0235653
-0.0243185
-0.0250822
-0.02585
-0.0266142
-0.0273665
-0.0280979
-0.0287984
-0.0294574
-0.0300638
-0.0306059
-0.0310716
-0.0314483
-0.0317238
-0.0318855
-0.0319215
-0.0318204
-0.0315717
-0.0311663
-0.0305967
-0.0298575
-0.0289459
-0.0278619
-0.026609
-0.0251946
-0.0236303
-0.0219321
-0.0201209
-0.0182223
-0.0162666
-0.0142885
-0.0123263
-0.0104213
-0.00861636
-0.0069545
-0.00547733
-0.00422311
-0.00322488
-0.00250868
-0.00209205
-0.00198294
-0.00217915
-0.00266851
-0.00342975
-0.00443485
-0.00565029
-0.00702914
-0.00852577
-0.0102432
-0.0122726
-0.0130061
-0.0138773
-0.0145645
-0.0151294
-0.0156463
-0.0161234
-0.0165683
-0.0169931
-0.0174089
-0.0178257
-0.0182522
-0.0186958
-0.019163
-0.0196588
-0.0201871
-0.0207506
-0.0213511
-0.0219891
-0.0226643
-0.0233752
-0.0241197