/*--------------------------------*- C++ -*----------------------------------*\
  =========                 |
  \\      /  F ield         | OpenFOAM: The Open Source CFD Toolbox
   \\    /   O peration     | Website:  https://openfoam.org
    \\  /    A nd           | Version:  dev
     \\/     M anipulation  |
\*---------------------------------------------------------------------------*/
FoamFile
{
    format      ascii;
    class       surfaceScalarField;
    location    "31.05";
    object      phi;
}
// * * * * * * * * * * * * * * * * * * * * * * * * * * * * * * * * * * * * * //

dimensions      [0 3 -1 0 0 0 0];

internalField   nonuniform List<scalar> 
10224
(
3.37771e-08
-3.48992e-08
8.78398e-08
-5.40701e-08
1.24403e-07
-3.65624e-08
1.25368e-07
-9.62704e-10
8.37409e-08
4.16284e-08
-1.74869e-09
8.54899e-08
-1.29273e-07
1.27524e-07
-2.9553e-07
1.66255e-07
-4.96456e-07
2.00925e-07
-7.2775e-07
2.31294e-07
-9.85144e-07
2.57394e-07
-1.26455e-06
2.79401e-07
-1.56211e-06
2.97569e-07
-1.8743e-06
3.12182e-07
-2.19782e-06
3.23525e-07
-2.52969e-06
3.31863e-07
-2.86712e-06
3.37434e-07
-3.20756e-06
3.40438e-07
-3.5486e-06
3.41037e-07
-3.88795e-06
3.39353e-07
-4.22342e-06
3.35471e-07
-4.55286e-06
3.29444e-07
-4.87416e-06
3.21298e-07
-5.18519e-06
3.11034e-07
-5.48383e-06
2.9864e-07
-5.76793e-06
2.84097e-07
-6.03531e-06
2.67381e-07
-6.28379e-06
2.48476e-07
-6.51116e-06
2.27377e-07
-6.71526e-06
2.04099e-07
-6.89394e-06
1.78679e-07
-7.04513e-06
1.51186e-07
-7.16685e-06
1.2172e-07
-7.25727e-06
9.04231e-08
-7.31474e-06
5.7474e-08
-7.33784e-06
2.30957e-08
-7.32539e-06
-1.2446e-08
-7.27655e-06
-4.88427e-08
-7.19081e-06
-8.57451e-08
-7.06804e-06
-1.22766e-07
-6.90856e-06
-1.59484e-07
-6.7131e-06
-1.95451e-07
-6.48291e-06
-2.30196e-07
-6.21967e-06
-2.63237e-07
-5.92558e-06
-2.94086e-07
-5.60332e-06
-3.22261e-07
-5.25603e-06
-3.47295e-07
-4.88728e-06
-3.6875e-07
-4.50106e-06
-3.86225e-07
-4.10169e-06
-3.99365e-07
-3.69382e-06
-4.07874e-07
-3.28229e-06
-4.11523e-07
-2.87214e-06
-4.10157e-07
-2.46844e-06
-4.03699e-07
-2.07628e-06
-3.92159e-07
-1.70064e-06
-3.75634e-07
-1.34634e-06
-3.54309e-07
-1.01788e-06
-3.28457e-07
-7.19438e-07
-2.9844e-07
-4.54729e-07
-2.64708e-07
-2.26929e-07
-2.27799e-07
-3.85857e-08
-1.88344e-07
1.08496e-07
-1.47084e-07
2.1338e-07
-1.04885e-07
2.76179e-07
-6.28e-08
2.98326e-07
-2.2146e-08
2.82998e-07
1.53297e-08
2.35793e-07
4.72083e-08
1.65772e-07
7.00232e-08
8.72303e-08
7.85413e-08
2.2547e-08
6.4679e-08
2.25382e-08
5.38925e-08
-8.87995e-08
1.12412e-07
-1.12586e-07
1.18222e-07
-4.23672e-08
3.8921e-08
7.83412e-08
-1.41897e-07
2.22447e-07
-4.29555e-07
3.73146e-07
-8.22287e-07
5.20254e-07
-1.31395e-06
6.57915e-07
-1.89597e-06
7.8295e-07
-2.55855e-06
8.93872e-07
-3.29141e-06
9.90249e-07
-4.08429e-06
1.07229e-06
-4.92728e-06
1.14056e-06
-5.81094e-06
1.19584e-06
-6.72638e-06
1.23896e-06
-7.66527e-06
1.27075e-06
-8.6198e-06
1.29196e-06
-9.58263e-06
1.30327e-06
-1.05468e-05
1.30521e-06
-1.15057e-05
1.29822e-06
-1.24528e-05
1.28261e-06
-1.3382e-05
1.25858e-06
-1.42869e-05
1.22626e-06
-1.51616e-05
1.18569e-06
-1.59998e-05
1.13687e-06
-1.67955e-05
1.07978e-06
-1.75425e-05
1.01439e-06
-1.82347e-05
9.407e-07
-1.88661e-05
8.58756e-07
-1.94307e-05
7.68671e-07
-1.99226e-05
6.70649e-07
-2.03365e-05
5.65001e-07
-2.06669e-05
4.5216e-07
-2.09092e-05
3.32696e-07
-2.1059e-05
2.07321e-07
-2.11128e-05
7.69012e-08
-2.10677e-05
-5.75491e-08
-2.09217e-05
-1.94864e-07
-2.06737e-05
-3.33738e-07
-2.03237e-05
-4.72731e-07
-1.98729e-05
-6.10292e-07
-1.93236e-05
-7.44775e-07
-1.86793e-05
-8.74464e-07
-1.7945e-05
-9.97603e-07
-1.71266e-05
-1.11243e-06
-1.62317e-05
-1.2172e-06
-1.52687e-05
-1.31024e-06
-1.42475e-05
-1.38999e-06
-1.31787e-05
-1.45499e-06
-1.20741e-05
-1.504e-06
-1.0946e-05
-1.53595e-06
-9.8075e-06
-1.55005e-06
-8.6719e-06
-1.54576e-06
-7.55279e-06
-1.52281e-06
-6.46368e-06
-1.48127e-06
-5.4178e-06
-1.42152e-06
-4.42786e-06
-1.34425e-06
-3.5058e-06
-1.25052e-06
-2.66257e-06
-1.14167e-06
-1.90786e-06
-1.01942e-06
-1.24985e-06
-8.8581e-07
-6.9494e-07
-7.43258e-07
-2.47432e-07
-5.94592e-07
9.08265e-08
-4.43144e-07
3.20916e-07
-2.92887e-07
4.47435e-07
-1.48663e-07
4.79379e-07
-1.66127e-08
4.31226e-07
9.5362e-08
3.24423e-07
1.7683e-07
1.88988e-07
2.13984e-07
6.43845e-08
1.89291e-07
8.69202e-08
3.73407e-08
-1.2614e-07
4.33205e-08
-1.18561e-07
-4.32739e-08
4.42302e-08
-2.58725e-07
2.93793e-07
-6.22649e-07
5.8637e-07
-1.14216e-06
8.92658e-07
-1.81553e-06
1.19362e-06
-2.6351e-06
1.47748e-06
-3.5895e-06
1.73735e-06
-4.66521e-06
1.96958e-06
-5.84765e-06
2.17269e-06
-7.12195e-06
2.34658e-06
-8.47339e-06
2.492e-06
-9.88773e-06
2.61018e-06
-1.13514e-05
2.70258e-06
-1.28513e-05
2.7707e-06
-1.43753e-05
2.81598e-06
-1.59117e-05
2.83967e-06
-1.74494e-05
2.84285e-06
-1.89775e-05
2.82639e-06
-2.04859e-05
2.79093e-06
-2.19642e-05
2.73691e-06
-2.34025e-05
2.66462e-06
-2.47911e-05
2.57421e-06
-2.61199e-05
2.46574e-06
-2.73794e-05
2.33924e-06
-2.85597e-05
2.19472e-06
-2.96513e-05
2.03229e-06
-3.06447e-05
1.85212e-06
-3.15306e-05
1.65456e-06
-3.23001e-05
1.44013e-06
-3.29447e-05
1.20959e-06
-3.34564e-05
9.63931e-07
-3.38282e-05
7.04451e-07
-3.40536e-05
4.32733e-07
-3.41274e-05
1.50671e-07
-3.40454e-05
-1.39531e-07
-3.38049e-05
-4.35366e-07
-3.34046e-05
-7.34041e-07
-3.28448e-05
-1.0325e-06
-3.21276e-05
-1.32745e-06
-3.1257e-05
-1.61544e-06
-3.02386e-05
-1.89285e-06
-2.90802e-05
-2.15601e-06
-2.77914e-05
-2.40124e-06
-2.63837e-05
-2.62491e-06
-2.48704e-05
-2.82355e-06
-2.32664e-05
-2.99389e-06
-2.15885e-05
-3.13296e-06
-1.98543e-05
-3.23815e-06
-1.8083e-05
-3.3073e-06
-1.62943e-05
-3.33875e-06
-1.45086e-05
-3.33139e-06
-1.27467e-05
-3.28474e-06
-1.1029e-05
-3.19894e-06
-9.37574e-06
-3.07483e-06
-7.80608e-06
-2.91391e-06
-6.33818e-06
-2.71842e-06
-4.98858e-06
-2.49127e-06
-3.77187e-06
-2.23613e-06
-2.7003e-06
-1.95738e-06
-1.78333e-06
-1.66023e-06
-1.02719e-06
-1.35073e-06
-4.34361e-07
-1.03597e-06
-2.92414e-09
-7.24323e-07
2.74197e-07
-4.25784e-07
4.10071e-07
-1.52489e-07
4.2494e-07
8.04886e-08
3.47435e-07
2.54329e-07
2.15764e-07
3.45654e-07
7.86501e-08
3.26409e-07
1.65572e-07
1.91018e-09
-1.28047e-07
-7.89425e-08
-3.77059e-08
-2.97634e-07
2.62923e-07
-6.87894e-07
6.84052e-07
-1.26804e-06
1.16652e-06
-2.04435e-06
1.66897e-06
-3.01403e-06
2.1633e-06
-4.16782e-06
2.63128e-06
-5.49214e-06
3.06166e-06
-6.97064e-06
3.44808e-06
-8.58549e-06
3.78755e-06
-1.03182e-05
4.07931e-06
-1.21503e-05
4.32408e-06
-1.40636e-05
4.52345e-06
-1.60404e-05
4.67945e-06
-1.8064e-05
4.79428e-06
-2.01181e-05
4.87007e-06
-2.21872e-05
4.90876e-06
-2.42564e-05
4.91204e-06
-2.63112e-05
4.88125e-06
-2.83377e-05
4.81744e-06
-3.03222e-05
4.72138e-06
-3.22511e-05
4.59356e-06
-3.41112e-05
4.4343e-06
-3.58893e-05
4.24379e-06
-3.75722e-05
4.02216e-06
-3.91471e-05
3.76959e-06
-4.06011e-05
3.48634e-06
-4.19219e-05
3.17287e-06
-4.30972e-05
2.82987e-06
-4.41154e-05
2.45836e-06
-4.49656e-05
2.05975e-06
-4.56375e-05
1.63586e-06
-4.6122e-05
1.18895e-06
-4.64111e-05
7.21826e-07
-4.64982e-05
2.37748e-07
-4.63782e-05
-2.59496e-07
-4.60479e-05
-7.6563e-07
-4.55061e-05
-1.27591e-06
-4.47534e-05
-1.78519e-06
-4.37929e-05
-2.28792e-06
-4.263e-05
-2.77831e-06
-4.12725e-05
-3.25032e-06
-3.97307e-05
-3.69783e-06
-3.80173e-05
-4.11471e-06
-3.61472e-05
-4.49495e-06
-3.4138e-05
-4.83276e-06
-3.20092e-05
-5.12275e-06
-2.97821e-05
-5.36e-06
-2.74801e-05
-5.5402e-06
-2.51276e-05
-5.6598e-06
-2.27503e-05
-5.71604e-06
-2.03745e-05
-5.70715e-06
-1.80269e-05
-5.63232e-06
-1.5734e-05
-5.49185e-06
-1.35217e-05
-5.28714e-06
-1.14148e-05
-5.02079e-06
-9.43671e-06
-4.69654e-06
-7.60862e-06
-4.31936e-06
-5.9493e-06
-3.89544e-06
-4.47446e-06
-3.43222e-06
-3.1962e-06
-2.93848e-06
-2.12249e-06
-2.42444e-06
-1.25652e-06
-1.90194e-06
-5.96037e-07
-1.3848e-06
-1.32612e-07
-8.89209e-07
1.49264e-07
-4.34362e-07
2.73058e-07
-4.32997e-08
2.71234e-07
2.56158e-07
1.86292e-07
4.30594e-07
7.22145e-08
4.40487e-07
2.37788e-07
-4.20483e-08
-8.59972e-08
-2.3002e-07
1.50266e-07
-6.06531e-07
6.39434e-07
-1.19817e-06
1.27569e-06
-2.01869e-06
1.98703e-06
-3.07125e-06
2.72153e-06
-4.35067e-06
3.44272e-06
-5.84553e-06
4.12614e-06
-7.53996e-06
4.75609e-06
-9.41515e-06
5.32327e-06
-1.14506e-05
5.82295e-06
-1.36247e-05
6.2535e-06
-1.59161e-05
6.61543e-06
-1.83032e-05
6.91054e-06
-2.07651e-05
7.14137e-06
-2.32816e-05
7.31075e-06
-2.5833e-05
7.42152e-06
-2.84006e-05
7.4763e-06
-3.09659e-05
7.47737e-06
-3.35113e-05
7.42665e-06
-3.60195e-05
7.32561e-06
-3.84735e-05
7.17536e-06
-4.08566e-05
6.9767e-06
-4.31524e-05
6.73014e-06
-4.53447e-05
6.43607e-06
-4.74174e-05
6.09482e-06
-4.93546e-05
5.70678e-06
-5.11407e-05
5.2725e-06
-5.27607e-05
4.79284e-06
-5.41998e-05
4.26901e-06
-5.54442e-05
3.70268e-06
-5.64805e-05
3.09612e-06
-5.72969e-05
2.45219e-06
-5.78823e-05
1.77442e-06
-5.82276e-05
1.06707e-06
-5.83249e-05
3.35125e-07
-5.81687e-05
-4.15706e-07
-5.77554e-05
-1.17901e-06
-5.70836e-05
-1.94769e-06
-5.61547e-05
-2.71409e-06
-5.49726e-05
-3.47e-06
-5.35441e-05
-4.20683e-06
-5.18787e-05
-4.91569e-06
-4.9989e-05
-5.58754e-06
-4.78903e-05
-6.21339e-06
-4.56009e-05
-6.78441e-06
-4.31415e-05
-7.29211e-06
-4.05357e-05
-7.72859e-06
-3.7809e-05
-8.08664e-06
-3.49893e-05
-8.35997e-06
-3.21057e-05
-8.54336e-06
-2.91889e-05
-8.63281e-06
-2.62704e-05
-8.6257e-06
-2.33818e-05
-8.5209e-06
-2.05548e-05
-8.31885e-06
-1.78203e-05
-8.02166e-06
-1.52079e-05
-7.63317e-06
-1.27455e-05
-7.15895e-06
-1.04584e-05
-6.60639e-06
-8.36921e-06
-5.98468e-06
-6.49658e-06
-5.30486e-06
-4.85512e-06
-4.57994e-06
-3.45457e-06
-3.82498e-06
-2.29916e-06
-3.05735e-06
-1.38693e-06
-2.29704e-06
-7.09032e-07
-1.56712e-06
-2.48982e-07
-8.94414e-07
1.80723e-08
-3.10352e-07
1.26186e-07
1.48048e-07
1.195e-07
4.37278e-07
5.36595e-08
5.06329e-07
2.9145e-07
-8.94325e-08
3.43571e-09
-3.95331e-07
4.56163e-07
-9.45077e-07
1.18918e-06
-1.75526e-06
2.08587e-06
-2.83267e-06
3.06444e-06
-4.17556e-06
4.06442e-06
-5.77508e-06
5.04224e-06
-7.61685e-06
5.9679e-06
-9.68238e-06
6.82162e-06
-1.19504e-05
7.59129e-06
-1.43978e-05
8.27038e-06
-1.70007e-05
8.85636e-06
-1.97347e-05
9.34941e-06
-2.25756e-05
9.75148e-06
-2.54998e-05
1.00655e-05
-2.84839e-05
1.02949e-05
-3.15056e-05
1.04432e-05
-3.4543e-05
1.05137e-05
-3.75748e-05
1.05092e-05
-4.05804e-05
1.04322e-05
-4.35394e-05
1.02847e-05
-4.64322e-05
1.00681e-05
-4.92391e-05
9.78356e-06
-5.19408e-05
9.43186e-06
-5.45183e-05
9.01362e-06
-5.6953e-05
8.52945e-06
-5.92262e-05
7.98006e-06
-6.13201e-05
7.36639e-06
-6.32171e-05
6.68981e-06
-6.49003e-05
5.95218e-06
-6.63536e-05
5.15604e-06
-6.75622e-05
4.30466e-06
-6.85122e-05
3.40218e-06
-6.91914e-05
2.45362e-06
-6.95893e-05
1.46498e-06
-6.96974e-05
4.43233e-07
-6.95094e-05
-6.03692e-07
-6.90215e-05
-1.66691e-06
-6.82325e-05
-2.73667e-06
-6.71442e-05
-3.80241e-06
-6.57613e-05
-4.85292e-06
-6.40917e-05
-5.87643e-06
-6.21465e-05
-6.86083e-06
-5.99402e-05
-7.79382e-06
-5.74905e-05
-8.66312e-06
-5.48182e-05
-9.45676e-06
-5.19471e-05
-1.01632e-05
-4.8904e-05
-1.07717e-05
-4.57181e-05
-1.12725e-05
-4.24211e-05
-1.1657e-05
-3.90463e-05
-1.19182e-05
-3.56286e-05
-1.20505e-05
-3.22038e-05
-1.20505e-05
-2.88082e-05
-1.19165e-05
-2.54779e-05
-1.16492e-05
-2.2248e-05
-1.12515e-05
-1.91527e-05
-1.07285e-05
-1.62237e-05
-1.00879e-05
-1.34902e-05
-9.33985e-06
-1.09781e-05
-8.49679e-06
-8.70911e-06
-7.57386e-06
-6.7003e-06
-6.58875e-06
-4.96337e-06
-5.56191e-06
-3.50398e-06
-4.51675e-06
-2.32107e-06
-3.47994e-06
-1.4063e-06
-2.48189e-06
-7.43344e-07
-1.55737e-06
-3.07365e-07
-7.46333e-07
-6.43825e-08
-9.49321e-08
2.93533e-08
3.43541e-07
2.83125e-08
5.07373e-07
3.19763e-07
-1.37639e-07
1.41073e-07
-5.66299e-07
8.84822e-07
-1.29745e-06
1.92032e-06
-2.33617e-06
3.1246e-06
-3.68078e-06
4.40906e-06
-5.32322e-06
5.70685e-06
-7.24986e-06
6.96889e-06
-9.4426e-06
8.16064e-06
-1.18799e-05
9.25891e-06
-1.45377e-05
1.02491e-05
-1.73906e-05
1.11232e-05
-2.0412e-05
1.18778e-05
-2.35754e-05
1.25127e-05
-2.6854e-05
1.30301e-05
-3.02217e-05
1.34332e-05
-3.36528e-05
1.3726e-05
-3.71222e-05
1.39127e-05
-4.06057e-05
1.39971e-05
-4.40792e-05
1.39827e-05
-4.75195e-05
1.38725e-05
-5.09039e-05
1.3669e-05
-5.42098e-05
1.3374e-05
-5.74151e-05
1.29889e-05
-6.04982e-05
1.25149e-05
-6.34375e-05
1.19529e-05
-6.62118e-05
1.13038e-05
-6.88004e-05
1.05687e-05
-7.11831e-05
9.74907e-06
-7.33402e-05
8.84691e-06
-7.52529e-05
7.86487e-06
-7.69033e-05
6.80649e-06
-7.82749e-05
5.67623e-06
-7.93524e-05
4.47968e-06
-8.01223e-05
3.22357e-06
-8.05732e-05
1.91586e-06
-8.06957e-05
5.65742e-07
-8.0483e-05
-8.16362e-07
-7.99311e-05
-2.21884e-06
-7.90388e-05
-3.62896e-06
-7.78082e-05
-5.03301e-06
-7.62447e-05
-6.41644e-06
-7.43571e-05
-7.76402e-06
-7.21579e-05
-9.06006e-06
-6.9663e-05
-1.02887e-05
-6.68921e-05
-1.14341e-05
-6.38681e-05
-1.24807e-05
-6.06176e-05
-1.34137e-05
-5.717e-05
-1.42193e-05
-5.35577e-05
-1.48848e-05
-4.98157e-05
-1.53991e-05
-4.59809e-05
-1.5753e-05
-4.20919e-05
-1.59395e-05
-3.81884e-05
-1.59539e-05
-3.43107e-05
-1.57942e-05
-3.04989e-05
-1.54611e-05
-2.67922e-05
-1.49581e-05
-2.32286e-05
-1.42921e-05
-1.98437e-05
-1.34728e-05
-1.66703e-05
-1.25133e-05
-1.37375e-05
-1.14296e-05
-1.10701e-05
-1.02413e-05
-8.68777e-06
-8.97108e-06
-6.60447e-06
-7.64522e-06
-4.82772e-06
-6.2935e-06
-3.35802e-06
-4.94963e-06
-2.18828e-06
-3.65163e-06
-1.30329e-06
-2.44237e-06
-6.793e-07
-1.37032e-06
-2.83685e-07
-4.90548e-07
-7.4584e-08
1.34439e-07
-5.81299e-10
4.33373e-07
3.19182e-07
-1.85418e-07
3.26491e-07
-7.38033e-07
1.43744e-06
-1.65386e-06
2.83615e-06
-2.9259e-06
4.39664e-06
-4.54309e-06
6.02624e-06
-6.4901e-06
7.65386e-06
-8.74772e-06
9.2265e-06
-1.12934e-05
1.07063e-05
-1.41021e-05
1.20676e-05
-1.71467e-05
1.32938e-05
-2.03992e-05
1.43757e-05
-2.38308e-05
1.53093e-05
-2.74124e-05
1.60943e-05
-3.11152e-05
1.6733e-05
-3.4911e-05
1.7229e-05
-3.87718e-05
1.75868e-05
-4.26703e-05
1.78112e-05
-4.65799e-05
1.79067e-05
-5.04745e-05
1.78773e-05
-5.43285e-05
1.77266e-05
-5.81169e-05
1.74574e-05
-6.1815e-05
1.7072e-05
-6.53983e-05
1.65723e-05
-6.88429e-05
1.59595e-05
-7.21251e-05
1.52351e-05
-7.52217e-05
1.44004e-05
-7.81098e-05
1.34568e-05
-8.07673e-05
1.24065e-05
-8.31725e-05
1.12522e-05
-8.5305e-05
9.99737e-06
-8.71453e-05
8.64675e-06
-8.86752e-05
7.20615e-06
-8.98783e-05
5.68276e-06
-9.07399e-05
4.08517e-06
-9.12475e-05
2.4235e-06
-9.13912e-05
7.09374e-07
-9.11634e-05
-1.04409e-06
-9.056e-05
-2.82232e-06
-8.95795e-05
-4.60939e-06
-8.82244e-05
-6.38817e-06
-8.65003e-05
-8.14051e-06
-8.44169e-05
-9.84743e-06
-8.19875e-05
-1.14894e-05
-7.92294e-05
-1.30468e-05
-7.61637e-05
-1.44998e-05
-7.28153e-05
-1.58291e-05
-6.92127e-05
-1.70164e-05
-6.53878e-05
-1.80442e-05
-6.13756e-05
-1.88969e-05
-5.72141e-05
-1.95606e-05
-5.29432e-05
-2.00238e-05
-4.8605e-05
-2.02777e-05
-4.42428e-05
-2.03162e-05
-3.99003e-05
-2.01367e-05
-3.56214e-05
-1.97399e-05
-3.14493e-05
-1.91302e-05
-2.74255e-05
-1.83159e-05
-2.35895e-05
-1.73089e-05
-1.99775e-05
-1.61253e-05
-1.6622e-05
-1.47851e-05
-1.3551e-05
-1.33123e-05
-1.07871e-05
-1.1735e-05
-8.34675e-06
-1.00855e-05
-6.23993e-06
-8.40032e-06
-4.46922e-06
-6.72034e-06
-3.02946e-06
-5.09139e-06
-1.90733e-06
-3.56449e-06
-1.08107e-06
-2.19659e-06
-5.20303e-07
-1.05132e-06
-1.86078e-07
-1.99786e-07
-3.10654e-08
2.78361e-07
2.88115e-07
-2.3213e-07
5.58621e-07
-9.07774e-07
2.11308e-06
-2.00832e-06
3.93669e-06
-3.51471e-06
5.90303e-06
-5.40607e-06
7.9176e-06
-7.65925e-06
9.90704e-06
-1.02488e-05
1.18161e-05
-1.31473e-05
1.36048e-05
-1.63256e-05
1.52459e-05
-1.97535e-05
1.67217e-05
-2.34e-05
1.80222e-05
-2.72339e-05
1.91433e-05
-3.12241e-05
2.00846e-05
-3.53398e-05
2.08486e-05
-3.95504e-05
2.14396e-05
-4.38262e-05
2.18626e-05
-4.8138e-05
2.2123e-05
-5.24572e-05
2.22259e-05
-5.67557e-05
2.21758e-05
-6.10061e-05
2.19769e-05
-6.51811e-05
2.16325e-05
-6.92542e-05
2.11452e-05
-7.3199e-05
2.05171e-05
-7.69896e-05
1.97501e-05
-8.06004e-05
1.88459e-05
-8.40062e-05
1.78061e-05
-8.71823e-05
1.6633e-05
-9.01049e-05
1.53291e-05
-9.27507e-05
1.3898e-05
-9.50976e-05
1.23443e-05
-9.71246e-05
1.06738e-05
-9.88123e-05
8.89382e-06
-0.000100143
7.01333e-06
-0.000101101
5.04291e-06
-0.000101672
2.99498e-06
-0.000101846
8.83747e-07
-0.000101616
-1.2748e-06
-0.000100975
-3.46295e-06
-9.99231e-05
-5.66138e-06
-9.8462e-05
-7.84934e-06
-9.65976e-05
-1.00049e-05
-9.434e-05
-1.2105e-05
-9.17032e-05
-1.41262e-05
-8.87054e-05
-1.60446e-05
-8.53688e-05
-1.78364e-05
-8.17198e-05
-1.94781e-05
-7.77885e-05
-2.09476e-05
-7.3609e-05
-2.22237e-05
-6.92185e-05
-2.32874e-05
-6.46575e-05
-2.41217e-05
-5.99687e-05
-2.47126e-05
-5.51974e-05
-2.5049e-05
-5.03899e-05
-2.51237e-05
-4.55936e-05
-2.4933e-05
-4.0856e-05
-2.44776e-05
-3.62237e-05
-2.37625e-05
-3.17423e-05
-2.27973e-05
-2.74547e-05
-2.15965e-05
-2.34009e-05
-2.0179e-05
-1.96171e-05
-1.85689e-05
-1.61345e-05
-1.67949e-05
-1.2979e-05
-1.48906e-05
-1.01701e-05
-1.28944e-05
-7.72056e-06
-1.08498e-05
-5.63568e-06
-8.80522e-06
-3.91285e-06
-6.81423e-06
-2.54125e-06
-4.93609e-06
-1.50177e-06
-3.23607e-06
-7.66939e-07
-1.78614e-06
-3.01313e-07
-6.65411e-07
-6.20373e-08
3.90842e-08
2.26077e-07
-2.77496e-07
8.36117e-07
-1.07399e-06
2.90957e-06
-2.35719e-06
5.2199e-06
-4.09629e-06
7.64213e-06
-6.26056e-06
1.00819e-05
-8.81871e-06
1.24652e-05
-1.17387e-05
1.47361e-05
-1.49878e-05
1.68539e-05
-1.85325e-05
1.87906e-05
-2.23391e-05
2.05283e-05
-2.63737e-05
2.20569e-05
-3.06027e-05
2.33722e-05
-3.49926e-05
2.44745e-05
-3.95106e-05
2.53666e-05
-4.41246e-05
2.60535e-05
-4.88029e-05
2.65409e-05
-5.35146e-05
2.68347e-05
-5.82293e-05
2.69406e-05
-6.29175e-05
2.6864e-05
-6.75497e-05
2.66092e-05
-7.20973e-05
2.618e-05
-7.65317e-05
2.55796e-05
-8.08251e-05
2.48105e-05
-8.49497e-05
2.38747e-05
-8.88783e-05
2.27745e-05
-9.25841e-05
2.15119e-05
-9.60407e-05
2.00896e-05
-9.92227e-05
1.85111e-05
-0.000102105
1.67807e-05
-0.000104665
1.4904e-05
-0.00010688
1.28883e-05
-0.000108728
1.07423e-05
-0.000110192
8.47682e-06
-0.000111253
6.10459e-06
-0.000111899
3.64042e-06
-0.000112116
1.10121e-06
-0.000111897
-1.49404e-06
-0.000111236
-4.12433e-06
-0.00011013
-6.76682e-06
-0.000108583
-9.39695e-06
-0.000106599
-1.19888e-05
-0.000104189
-1.45152e-05
-0.000101366
-1.69483e-05
-9.81512e-05
-1.92599e-05
-9.45658e-05
-2.14218e-05
-9.06376e-05
-2.34063e-05
-8.63983e-05
-2.51869e-05
-8.18834e-05
-2.67386e-05
-7.71322e-05
-2.80386e-05
-7.21872e-05
-2.90666e-05
-6.70941e-05
-2.98057e-05
-6.19006e-05
-3.02425e-05
-5.66563e-05
-3.03679e-05
-5.1412e-05
-3.01773e-05
-4.62186e-05
-2.9671e-05
-4.11266e-05
-2.88545e-05
-3.61852e-05
-2.77388e-05
-3.14412e-05
-2.63404e-05
-2.69387e-05
-2.46816e-05
-2.27174e-05
-2.27902e-05
-1.88125e-05
-2.06998e-05
-1.52534e-05
-1.84496e-05
-1.20633e-05
-1.60846e-05
-9.25801e-06
-1.36551e-05
-6.84618e-06
-1.12171e-05
-4.82825e-06
-8.83215e-06
-3.19649e-06
-6.56784e-06
-1.93489e-06
-4.49767e-06
-1.01936e-06
-2.70168e-06
-4.18178e-07
-1.26659e-06
-9.2943e-08
-2.86153e-07
1.33133e-07
-3.21403e-07
1.15752e-06
-1.23582e-06
3.82398e-06
-2.69823e-06
6.68231e-06
-4.66653e-06
9.61043e-06
-7.10026e-06
1.25156e-05
-9.95995e-06
1.53249e-05
-1.32068e-05
1.79829e-05
-1.68024e-05
2.04495e-05
-2.07088e-05
2.2697e-05
-2.48886e-05
2.47081e-05
-2.93049e-05
2.64731e-05
-3.39213e-05
2.79886e-05
-3.87023e-05
2.92555e-05
-4.36132e-05
3.02776e-05
-4.86201e-05
3.10604e-05
-5.36897e-05
3.16105e-05
-5.87896e-05
3.19346e-05
-6.38879e-05
3.2039e-05
-6.89536e-05
3.19296e-05
-7.39559e-05
3.16114e-05
-7.88644e-05
3.10886e-05
-8.36495e-05
3.03647e-05
-8.82815e-05
2.94425e-05
-9.27313e-05
2.83246e-05
-9.69703e-05
2.70134e-05
-0.00010097
2.55117e-05
-0.000104703
2.38226e-05
-0.000108142
2.19503e-05
-0.000111262
1.99e-05
-0.000114036
1.76786e-05
-0.000116442
1.52944e-05
-0.000118458
1.27579e-05
-0.000120063
1.00819e-05
-0.000121239
7.28104e-06
-0.000121972
4.37275e-06
-0.000122247
1.3767e-06
-0.000122056
-1.68505e-06
-0.000121392
-4.78811e-06
-0.000120253
-7.90598e-06
-0.00011864
-1.10102e-05
-0.000116558
-1.40706e-05
-0.000114017
-1.70559e-05
-0.000111032
-1.99336e-05
-0.000107621
-2.26709e-05
-0.000103808
-2.5235e-05
-9.96205e-05
-2.75937e-05
-9.50916e-05
-2.97158e-05
-9.02581e-05
-3.15722e-05
-8.51608e-05
-3.31359e-05
-7.98443e-05
-3.43831e-05
-7.43565e-05
-3.52935e-05
-6.8748e-05
-3.5851e-05
-6.30714e-05
-3.60446e-05
-5.73806e-05
-3.58681e-05
-5.17302e-05
-3.53214e-05
-4.61745e-05
-3.44102e-05
-4.07667e-05
-3.31466e-05
-3.55578e-05
-3.15493e-05
-3.05959e-05
-2.96435e-05
-2.59251e-05
-2.7461e-05
-2.15846e-05
-2.50402e-05
-1.7608e-05
-2.24262e-05
-1.40223e-05
-1.96703e-05
-1.08475e-05
-1.68299e-05
-8.09562e-06
-1.39689e-05
-5.77083e-06
-1.11569e-05
-3.86889e-06
-8.46978e-06
-2.37731e-06
-5.98926e-06
-1.27556e-06
-3.80343e-06
-5.35744e-07
-2.0064e-06
-1.2358e-07
-6.98319e-07
9.55193e-09
-3.63808e-07
1.52133e-06
-1.39279e-06
4.85297e-06
-3.03003e-06
8.31955e-06
-5.22266e-06
1.18031e-05
-7.92077e-06
1.52137e-05
-1.10768e-05
1.84809e-05
-1.46451e-05
2.15512e-05
-1.85815e-05
2.4386e-05
-2.28436e-05
2.69591e-05
-2.73899e-05
2.92544e-05
-3.21805e-05
3.12636e-05
-3.71764e-05
3.29845e-05
-4.23399e-05
3.44191e-05
-4.76345e-05
3.55721e-05
-5.30245e-05
3.64504e-05
-5.84753e-05
3.70612e-05
-6.39529e-05
3.74123e-05
-6.94245e-05
3.75105e-05
-7.48574e-05
3.73625e-05
-8.02197e-05
3.69738e-05
-8.548e-05
3.63489e-05
-9.06071e-05
3.54918e-05
-9.55703e-05
3.44057e-05
-0.000100339
3.30935e-05
-0.000104884
3.1558e-05
-0.000109175
2.98025e-05
-0.000113183
2.78307e-05
-0.00011688
2.56474e-05
-0.000120239
2.32588e-05
-0.000123233
2.06728e-05
-0.000125838
1.78992e-05
-0.00012803
1.49501e-05
-0.000129788
1.18399e-05
-0.000131093
8.58582e-06
-0.000131927
5.20754e-06
-0.000132278
1.72758e-06
-0.000132135
-1.82884e-06
-0.000131489
-5.43392e-06
-0.000130337
-9.05742e-06
-0.000128681
-1.26669e-05
-0.000126523
-1.62279e-05
-0.000123875
-1.97045e-05
-0.000120749
-2.30597e-05
-0.000117164
-2.62559e-05
-0.000113143
-2.92554e-05
-0.000108716
-3.20211e-05
-0.000103914
-3.4517e-05
-9.87774e-05
-3.67093e-05
-9.33467e-05
-3.85667e-05
-8.76687e-05
-4.00611e-05
-8.17935e-05
-4.11687e-05
-7.57742e-05
-4.18704e-05
-6.96663e-05
-4.21524e-05
-6.35272e-05
-4.20072e-05
-5.74151e-05
-4.14334e-05
-5.13884e-05
-4.04369e-05
-4.55044e-05
-3.90306e-05
-3.98186e-05
-3.72351e-05
-3.43837e-05
-3.50784e-05
-2.92484e-05
-3.25963e-05
-2.44565e-05
-2.98321e-05
-2.00463e-05
-2.68364e-05
-1.60493e-05
-2.36673e-05
-1.24897e-05
-2.03896e-05
-9.38384e-06
-1.70747e-05
-6.73996e-06
-1.38008e-05
-4.55771e-06
-1.0652e-05
-2.82838e-06
-7.71859e-06
-1.53518e-06
-5.09662e-06
-6.53905e-07
-2.88768e-06
-1.53974e-07
-1.19825e-06
-1.44422e-07
-4.04699e-07
1.92603e-06
-1.54461e-06
5.99287e-06
-3.35165e-06
1.01266e-05
-5.76274e-06
1.42141e-05
-8.71886e-06
1.81698e-05
-1.21645e-05
2.19266e-05
-1.60473e-05
2.5434e-05
-2.03175e-05
2.86562e-05
-2.49278e-05
3.15694e-05
-2.98329e-05
3.41595e-05
-3.49897e-05
3.64204e-05
-4.03565e-05
3.83514e-05
-4.58937e-05
3.99562e-05
-5.15627e-05
4.12411e-05
-5.73263e-05
4.2214e-05
-6.31487e-05
4.28836e-05
-6.89946e-05
4.32582e-05
-7.483e-05
4.33459e-05
-8.06212e-05
4.31537e-05
-8.63352e-05
4.26878e-05
-9.19396e-05
4.19533e-05
-9.74022e-05
4.09544e-05
-0.000102691
3.96947e-05
-0.000107775
3.81774e-05
-0.000112623
3.64059e-05
-0.000117204
3.43836e-05
-0.000121488
3.2115e-05
-0.000125447
2.96056e-05
-0.00012905
2.68623e-05
-0.000132272
2.38942e-05
-0.000135085
2.07125e-05
-0.000137465
1.73306e-05
-0.00013939
1.3765e-05
-0.000140839
1.0035e-05
-0.000141795
6.16269e-06
-0.000142241
2.17349e-06
-0.000142165
-1.90431e-06
-0.00014156
-6.03945e-06
-0.000140419
-1.01979e-05
-0.000138743
-1.43432e-05
-0.000136534
-1.84364e-05
-0.000133802
-2.24372e-05
-0.000130558
-2.63036e-05
-0.000126821
-2.99929e-05
-0.000122614
-3.34623e-05
-0.000117965
-3.66696e-05
-0.000112909
-3.95737e-05
-0.000107482
-4.21356e-05
-0.00010173
-4.43192e-05
-9.56988e-05
-4.6092e-05
-8.94416e-05
-4.74259e-05
-8.30136e-05
-4.82984e-05
-7.64734e-05
-4.86926e-05
-6.98817e-05
-4.85989e-05
-6.33006e-05
-4.80145e-05
-5.67927e-05
-4.69448e-05
-5.04198e-05
-4.54035e-05
-4.42424e-05
-4.34125e-05
-3.8318e-05
-4.10028e-05
-3.27006e-05
-3.82137e-05
-2.74392e-05
-3.50935e-05
-2.2577e-05
-3.16986e-05
-1.81507e-05
-2.80936e-05
-1.41895e-05
-2.43508e-05
-1.07145e-05
-2.05498e-05
-7.73824e-06
-1.67771e-05
-5.26476e-06
-1.31255e-05
-3.28936e-06
-9.69399e-06
-1.79904e-06
-6.58694e-06
-7.73128e-07
-3.91359e-06
-1.84301e-07
-1.78708e-06
-3.28723e-07
-4.44064e-07
2.37009e-06
-1.69105e-06
7.23986e-06
-3.66238e-06
1.20979e-05
-6.28528e-06
1.6837e-05
-9.49201e-06
2.13765e-05
-1.32194e-05
2.5654e-05
-1.74085e-05
2.96231e-05
-2.2004e-05
3.32516e-05
-2.69538e-05
3.65191e-05
-3.22088e-05
3.94146e-05
-3.77227e-05
4.19343e-05
-4.34513e-05
4.40801e-05
-4.93527e-05
4.58576e-05
-5.53867e-05
4.72751e-05
-6.15146e-05
4.83419e-05
-6.76992e-05
4.90682e-05
-7.39043e-05
4.94634e-05
-8.00948e-05
4.95364e-05
-8.62362e-05
4.92951e-05
-9.22946e-05
4.87463e-05
-9.82368e-05
4.78954e-05
-0.00010403
4.67472e-05
-0.00010964
4.53055e-05
-0.000115037
4.3574e-05
-0.000120187
4.15563e-05
-0.00012506
3.92562e-05
-0.000129624
3.66788e-05
-0.000133848
3.38301e-05
-0.000137704
3.0718e-05
-0.000141162
2.73525e-05
-0.000144196
2.37459e-05
-0.000146779
1.99135e-05
-0.000148887
1.58733e-05
-0.000150499
1.16466e-05
-0.000151594
7.25825e-06
-0.000152157
2.73611e-06
-0.000152173
-1.88835e-06
-0.000151632
-6.58047e-06
-0.000150527
-1.13024e-05
-0.000148857
-1.60136e-05
-0.000146622
-2.06708e-05
-0.000143831
-2.52288e-05
-0.000140494
-2.96406e-05
-0.000136628
-3.38585e-05
-0.000132256
-3.78341e-05
-0.000127406
-4.15197e-05
-0.000122111
-4.48688e-05
-0.00011641
-4.78368e-05
-0.000110347
-5.03824e-05
-0.000103971
-5.24679e-05
-9.73361e-05
-5.40607e-05
-9.05004e-05
-5.51341e-05
-8.35253e-05
-5.56678e-05
-7.64749e-05
-5.56492e-05
-6.94156e-05
-5.50739e-05
-6.24141e-05
-5.39463e-05
-5.55375e-05
-5.22801e-05
-4.88513e-05
-5.00987e-05
-4.24185e-05
-4.74355e-05
-3.62989e-05
-4.43333e-05
-3.05473e-05
-4.08452e-05
-2.52125e-05
-3.70333e-05
-2.03371e-05
-3.2969e-05
-1.59555e-05
-2.87323e-05
-1.20942e-05
-2.44111e-05
-8.77079e-06
-2.01005e-05
-5.99382e-06
-1.59025e-05
-3.76288e-06
-1.19249e-05
-2.0688e-06
-8.28102e-06
-8.94285e-07
-5.08811e-06
-2.1484e-07
-2.46652e-06
-5.43562e-07
-4.81881e-07
2.85197e-06
-1.83191e-06
8.58989e-06
-3.96161e-06
1.42276e-05
-6.78901e-06
1.96644e-05
-1.02381e-05
2.48256e-05
-1.42383e-05
2.96542e-05
-1.87244e-05
3.41091e-05
-2.36354e-05
3.81627e-05
-2.89149e-05
4.17986e-05
-3.45099e-05
4.50096e-05
-4.03708e-05
4.77953e-05
-4.64512e-05
5.01604e-05
-5.27068e-05
5.21132e-05
-5.90958e-05
5.36641e-05
-6.55783e-05
5.48244e-05
-7.21157e-05
5.56057e-05
-7.86712e-05
5.60188e-05
-8.52085e-05
5.60737e-05
-9.16925e-05
5.57792e-05
-9.80887e-05
5.51425e-05
-0.000104363
5.41697e-05
-0.000110482
5.2866e-05
-0.000116412
5.12355e-05
-0.00012212
4.92822e-05
-0.000127574
4.70098e-05
-0.00013274
4.44229e-05
-0.000137588
4.15266e-05
-0.000142086
3.83277e-05
-0.000146202
3.48348e-05
-0.000149909
3.10588e-05
-0.000153176
2.70132e-05
-0.000155977
2.27146e-05
-0.000158287
1.81827e-05
-0.000160081
1.34409e-05
-0.000161339
8.51609e-06
-0.000162041
3.439e-06
-0.000162174
-1.75601e-06
-0.000161723
-7.03088e-06
-0.000160682
-1.23441e-05
-0.000159044
-1.76509e-05
-0.000156811
-2.29037e-05
-0.000153988
-2.80524e-05
-0.000150583
-3.3045e-05
-0.000146614
-3.78281e-05
-0.0001421
-4.23479e-05
-0.000137069
-4.65508e-05
-0.000131554
-5.03842e-05
-0.000125593
-5.37978e-05
-0.000119231
-5.67443e-05
-0.000112518
-5.91806e-05
-0.00010551
-6.10686e-05
-9.82673e-05
-6.23769e-05
-9.0854e-05
-6.30811e-05
-8.33381e-05
-6.31651e-05
-7.57898e-05
-6.26221e-05
-6.82811e-05
-6.1455e-05
-6.08839e-05
-5.96772e-05
-5.36697e-05
-5.7313e-05
-4.67076e-05
-5.43975e-05
-4.00635e-05
-5.09774e-05
-3.37987e-05
-4.711e-05
-2.79685e-05
-4.28635e-05
-2.26215e-05
-3.8316e-05
-1.77986e-05
-3.35552e-05
-1.3532e-05
-2.86777e-05
-9.84462e-06
-2.37879e-05
-6.75014e-06
-1.8997e-05
-4.2526e-06
-1.44225e-05
-2.34675e-06
-1.01869e-05
-1.01853e-06
-6.41632e-06
-2.45937e-07
-3.23912e-06
-7.89498e-07
-5.18115e-07
3.37009e-06
-1.96697e-06
1.00387e-05
-4.24873e-06
1.65094e-05
-7.27274e-06
2.26885e-05
-1.09551e-05
2.8508e-05
-1.52183e-05
3.39174e-05
-1.99908e-05
3.88816e-05
-2.52067e-05
4.33785e-05
-3.08048e-05
4.73968e-05
-3.67287e-05
5.09335e-05
-4.29258e-05
5.39923e-05
-4.93469e-05
5.65815e-05
-5.59459e-05
5.87123e-05
-6.26795e-05
6.03977e-05
-6.95064e-05
6.16513e-05
-7.63871e-05
6.24864e-05
-8.32838e-05
6.29154e-05
-9.01596e-05
6.29496e-05
-9.69789e-05
6.25984e-05
-0.000103706
6.18701e-05
-0.000110308
6.07711e-05
-0.000116749
5.93071e-05
-0.000122996
5.74824e-05
-0.000129015
5.53014e-05
-0.000134773
5.2768e-05
-0.000140237
4.9887e-05
-0.000145375
4.6664e-05
-0.000150153
4.31063e-05
-0.000154541
3.92229e-05
-0.000158508
3.50257e-05
-0.000162024
3.05291e-05
-0.000165061
2.5751e-05
-0.000167591
2.07126e-05
-0.000169589
1.54391e-05
-0.000171032
9.95961e-06
-0.000171901
4.30727e-06
-0.000172176
-1.48067e-06
-0.000171844
-7.36292e-06
-0.000170894
-1.32943e-05
-0.000169318
-1.92261e-05
-0.000167116
-2.51061e-05
-0.000164289
-3.08794e-05
-0.000160845
-3.64887e-05
-0.000156798
-4.18752e-05
-0.000152167
-4.6979e-05
-0.000146978
-5.17403e-05
-0.000141262
-5.61003e-05
-0.000135057
-6.00021e-05
-0.000128409
-6.33921e-05
-0.000121369
-6.62208e-05
-0.000113993
-6.84444e-05
-0.000106345
-7.00257e-05
-9.84901e-05
-7.09356e-05
-9.05013e-05
-7.11539e-05
-8.24531e-05
-7.06704e-05
-7.44223e-05
-6.94859e-05
-6.64867e-05
-6.76128e-05
-5.87238e-05
-6.50758e-05
-5.12096e-05
-6.19118e-05
-4.40166e-05
-5.81703e-05
-3.72134e-05
-5.39133e-05
-3.08625e-05
-4.92144e-05
-2.50195e-05
-4.4159e-05
-1.97319e-05
-3.88428e-05
-1.50385e-05
-3.33712e-05
-1.09682e-05
-2.78582e-05
-7.54003e-06
-2.24251e-05
-4.76292e-06
-1.71996e-05
-2.6356e-06
-1.23142e-05
-1.14721e-06
-7.90471e-06
-2.77985e-07
-4.10834e-06
-1.06748e-06
-5.52711e-07
3.9228e-06
-2.09598e-06
1.1582e-05
-4.52312e-06
1.89365e-05
-7.73527e-06
2.59006e-05
-1.16411e-05
3.24138e-05
-1.61565e-05
3.84328e-05
-2.12041e-05
4.39293e-05
-2.6713e-05
4.88874e-05
-3.26178e-05
5.33016e-05
-3.88584e-05
5.71741e-05
-4.53794e-05
6.05133e-05
-5.21294e-05
6.33314e-05
-5.90602e-05
6.56432e-05
-6.61271e-05
6.74646e-05
-7.32876e-05
6.88118e-05
-8.05014e-05
6.97001e-05
-8.77298e-05
7.01438e-05
-9.49355e-05
7.01553e-05