/*--------------------------------*- C++ -*----------------------------------*\
  =========                 |
  \\      /  F ield         | OpenFOAM: The Open Source CFD Toolbox
   \\    /   O peration     | Website:  https://openfoam.org
    \\  /    A nd           | Version:  dev
     \\/     M anipulation  |
\*---------------------------------------------------------------------------*/
FoamFile
{
    format      ascii;
    class       volVectorField;
    location    "31.05";
    object      U;
}
// * * * * * * * * * * * * * * * * * * * * * * * * * * * * * * * * * * * * * //

dimensions      [0 1 -1 0 0 0 0];

internalField   nonuniform List<vector> 
5184
(
(1.2314e-05 -1.27196e-05 0)
(4.51465e-05 -2.08944e-05 0)
(8.03158e-05 -1.7249e-05 0)
(9.59792e-05 -8.19561e-06 0)
(8.21531e-05 2.66996e-06 0)
(3.64589e-05 1.3618e-05 0)
(-4.05545e-05 2.38455e-05 0)
(-0.000146868 3.30471e-05 0)
(-0.000279688 4.11039e-05 0)
(-0.000435959 4.80218e-05 0)
(-0.00061256 5.38622e-05 0)
(-0.000806456 5.87099e-05 0)
(-0.00101478 6.26574e-05 0)
(-0.00123487 6.57959e-05 0)
(-0.00146426 6.82103e-05 0)
(-0.0017007 6.99759e-05 0)
(-0.00194211 7.11569e-05 0)
(-0.00218658 7.18058e-05 0)
(-0.00243233 7.19633e-05 0)
(-0.00267766 7.16592e-05 0)
(-0.00292099 7.09129e-05 0)
(-0.00316073 6.97347e-05 0)
(-0.00339537 6.81277e-05 0)
(-0.00362339 6.60887e-05 0)
(-0.00384324 6.36106e-05 0)
(-0.0040534 6.06836e-05 0)
(-0.00425231 5.72972e-05 0)
(-0.0044384 5.34418e-05 0)
(-0.00461008 4.91103e-05 0)
(-0.00476578 4.42998e-05 0)
(-0.00490393 3.90126e-05 0)
(-0.00502302 3.32581e-05 0)
(-0.00512159 2.70535e-05 0)
(-0.00519825 2.04247e-05 0)
(-0.00525174 1.34074e-05 0)
(-0.00528096 6.0474e-06 0)
(-0.00528495 -1.59928e-06 0)
(-0.00526299 -9.46616e-06 0)
(-0.00521458 -1.74767e-05 0)
(-0.00513949 -2.55451e-05 0)
(-0.00503778 -3.35768e-05 0)
(-0.00490983 -4.14703e-05 0)
(-0.00475634 -4.91186e-05 0)
(-0.00457836 -5.64107e-05 0)
(-0.00437731 -6.32338e-05 0)
(-0.00415493 -6.9476e-05 0)
(-0.00391332 -7.50287e-05 0)
(-0.0036549 -7.97887e-05 0)
(-0.0033824 -8.36616e-05 0)
(-0.00309884 -8.65636e-05 0)
(-0.00280743 -8.84242e-05 0)
(-0.00251162 -8.91881e-05 0)
(-0.00221496 -8.88171e-05 0)
(-0.00192112 -8.72915e-05 0)
(-0.00163377 -8.46108e-05 0)
(-0.00135654 -8.07945e-05 0)
(-0.00109298 -7.58819e-05 0)
(-0.000846463 -6.99316e-05 0)
(-0.000620124 -6.30212e-05 0)
(-0.000416819 -5.5247e-05 0)
(-0.000239047 -4.6723e-05 0)
(-8.88848e-05 -3.75822e-05 0)
(3.2079e-05 -2.79794e-05 0)
(0.00012283 -1.8097e-05 0)
(0.000183037 -8.1601e-06 0)
(0.000213202 1.53628e-06 0)
(0.000214913 1.05683e-05 0)
(0.000191219 1.82987e-05 0)
(0.000147151 2.37151e-05 0)
(9.08e-05 2.51258e-05 0)
(3.66328e-05 1.98461e-05 0)
(6.22881e-06 6.24219e-06 0)
(2.08386e-05 -4.59015e-05 0)
(6.56099e-05 -6.57194e-05 0)
(9.47098e-05 -4.05597e-05 0)
(7.28114e-05 7.63498e-06 0)
(-1.89225e-05 6.56788e-05 0)
(-0.000187306 0.000125989 0)
(-0.00043292 0.000184288 0)
(-0.000752548 0.000238331 0)
(-0.00114065 0.000286976 0)
(-0.00159043 0.000329783 0)
(-0.00209456 0.000366711 0)
(-0.00264558 0.000397949 0)
(-0.00323619 0.00042381 0)
(-0.00385939 0.000444661 0)
(-0.00450858 0.000460877 0)
(-0.00517756 0.000472819 0)
(-0.00586053 0.000480808 0)
(-0.00655205 0.00048512 0)
(-0.00724699 0.000485979 0)
(-0.00794045 0.000483555 0)
(-0.00862774 0.000477971 0)
(-0.00930431 0.000469303 0)
(-0.00996568 0.000457589 0)
(-0.0106074 0.000442838 0)
(-0.0112252 0.000425038 0)
(-0.0118145 0.000404167 0)
(-0.0123709 0.0003802 0)
(-0.0128901 0.000353119 0)
(-0.0133677 0.000322926 0)
(-0.0137992 0.000289647 0)
(-0.0141806 0.000253342 0)
(-0.0145076 0.000214115 0)
(-0.0147764 0.000172115 0)
(-0.0149834 0.000127544 0)
(-0.0151252 8.0664e-05 0)
(-0.0151991 3.17924e-05 0)
(-0.0152027 -1.86917e-05 0)
(-0.0151341 -7.035e-05 0)
(-0.0149924 -0.000122688 0)
(-0.014777 -0.000175157 0)
(-0.0144884 -0.000227164 0)
(-0.0141278 -0.000278077 0)
(-0.0136974 -0.000327235 0)
(-0.0132001 -0.000373958 0)
(-0.0126399 -0.000417562 0)
(-0.0120217 -0.000457372 0)
(-0.0113513 -0.000492735 0)
(-0.0106352 -0.000523038 0)
(-0.00988082 -0.000547718 0)
(-0.00909628 -0.000566281 0)
(-0.00829027 -0.000578315 0)
(-0.00747198 -0.000583501 0)
(-0.00665093 -0.000581621 0)
(-0.00583686 -0.000572574 0)
(-0.00503956 -0.000556374 0)
(-0.00426869 -0.000533161 0)
(-0.00353364 -0.000503199 0)
(-0.00284331 -0.000466877 0)
(-0.002206 -0.000424709 0)
(-0.00162918 -0.000377336 0)
(-0.00111933 -0.000325526 0)
(-0.000681747 -0.000270184 0)
(-0.000320343 -0.000212371 0)
(-3.74023e-05 -0.000153338 0)
(0.000166707 -9.45973e-05 0)
(0.000293907 -3.80259e-05 0)
(0.000348945 1.39158e-05 0)
(0.000340093 5.79224e-05 0)
(0.000279841 8.94009e-05 0)
(0.000186044 0.000101855 0)
(8.63707e-05 8.65158e-05 0)
(1.96819e-05 3.64853e-05 0)
(1.76331e-05 -8.13162e-05 0)
(4.13257e-05 -9.50355e-05 0)
(1.95988e-05 -1.91333e-05 0)
(-8.39952e-05 0.000105928 0)
(-0.000290241 0.000254644 0)
(-0.000607885 0.00041057 0)
(-0.00103819 0.000563397 0)
(-0.00157734 0.000706987 0)
(-0.00221817 0.000837892 0)
(-0.00295149 0.000954405 0)
(-0.00376703 0.00105593 0)
(-0.00465408 0.00114257 0)
(-0.00560191 0.00121482 0)
(-0.00660006 0.00127342 0)
(-0.00763849 0.00131919 0)
(-0.00870762 0.00135295 0)
(-0.00979838 0.00137547 0)
(-0.0109022 0.00138743 0)
(-0.0120108 0.00138938 0)
(-0.0131164 0.00138178 0)
(-0.0142113 0.00136495 0)
(-0.0152883 0.00133911 0)
(-0.0163401 0.00130439 0)
(-0.0173595 0.00126085 0)
(-0.0183395 0.00120851 0)
(-0.0192731 0.00114736 0)
(-0.0201531 0.00107737 0)
(-0.0209727 0.00099858 0)
(-0.021725 0.00091104 0)
(-0.0224031 0.000814892 0)
(-0.0230006 0.000710367 0)
(-0.0235111 0.000597812 0)
(-0.0239288 0.000477698 0)
(-0.024248 0.000350641 0)
(-0.024464 0.000217407 0)
(-0.0245726 7.89182e-05 0)
(-0.0245702 -6.37439e-05 0)
(-0.0244545 -0.000209344 0)
(-0.0242239 -0.0003565 0)
(-0.023878 -0.000503694 0)
(-0.0234178 -0.00064929 0)
(-0.0228453 -0.000791556 0)
(-0.022164 -0.00092869 0)
(-0.0213788 -0.00105885 0)
(-0.020496 -0.00118018 0)
(-0.019523 -0.00129087 0)
(-0.0184689 -0.00138915 0)
(-0.0173439 -0.0014734 0)
(-0.0161594 -0.00154209 0)
(-0.0149277 -0.00159393 0)
(-0.0136623 -0.00162781 0)
(-0.0123771 -0.00164288 0)
(-0.0110867 -0.0016386 0)
(-0.00980596 -0.0016147 0)
(-0.0085497 -0.00157125 0)
(-0.00733265 -0.00150866 0)
(-0.00616907 -0.00142767 0)
(-0.00507247 -0.00132937 0)
(-0.0040554 -0.00121523 0)
(-0.00312915 -0.00108704 0)
(-0.00230344 -0.000946971 0)
(-0.00158616 -0.000797602 0)
(-0.000983064 -0.000641934 0)
(-0.000497372 -0.000483501 0)
(-0.000129399 -0.000326499 0)
(0.000123926 -0.00017602 0)
(0.000269696 -3.83776e-05 0)
(0.000319759 7.84106e-05 0)
(0.000291246 0.000164049 0)
(0.000207387 0.000205373 0)
(0.000102448 0.00018627 0)
(2.49767e-05 9.03899e-05 0)
(8.83854e-06 -9.77431e-05 0)
(-7.01089e-06 -7.31432e-05 0)
(-0.000107576 8.47835e-05 0)
(-0.000322348 0.000318352 0)
(-0.00066957 0.000590067 0)
(-0.00115765 0.000874306 0)
(-0.00178732 0.00115404 0)
(-0.00255384 0.00141848 0)
(-0.00344864 0.00166116 0)
(-0.00446071 0.00187855 0)
(-0.00557756 0.00206908 0)
(-0.00678598 0.0022325 0)
(-0.00807258 0.00236939 0)
(-0.0094241 0.00248076 0)
(-0.0108276 0.0025679 0)
(-0.0122707 0.00263213 0)
(-0.0137415 0.00267474 0)
(-0.0152286 0.00269687 0)
(-0.016721 0.00269952 0)
(-0.0182082 0.00268346 0)
(-0.01968 0.00264929 0)
(-0.0211264 0.00259745 0)
(-0.0225376 0.0025282 0)
(-0.023904 0.0024417 0)
(-0.0252161 0.00233802 0)
(-0.0264644 0.00221722 0)
(-0.0276395 0.00207935 0)
(-0.0287321 0.00192452 0)
(-0.0297333 0.00175293 0)
(-0.030634 0.00156494 0)
(-0.0314257 0.00136107 0)
(-0.0321002 0.00114205 0)
(-0.0326499 0.00090886 0)
(-0.0330677 0.00066274 0)
(-0.0333475 0.000405203 0)
(-0.0334839 0.000138048 0)
(-0.0334728 -0.000136633 0)
(-0.0333111 -0.000416472 0)
(-0.0329972 -0.000698834 0)
(-0.0325308 -0.000980841 0)
(-0.0319133 -0.00125941 0)
(-0.0311477 -0.00153127 0)
(-0.0302388 -0.00179307 0)
(-0.029193 -0.00204134 0)
(-0.0280186 -0.00227265 0)
(-0.0267256 -0.00248362 0)
(-0.0253258 -0.00267098 0)
(-0.0238325 -0.0028317 0)
(-0.0222604 -0.00296299 0)
(-0.0206256 -0.00306244 0)
(-0.0189455 -0.00312802 0)
(-0.0172382 -0.00315819 0)
(-0.0155223 -0.00315192 0)
(-0.0138172 -0.00310877 0)
(-0.0121419 -0.00302889 0)
(-0.0105155 -0.00291306 0)
(-0.00895634 -0.00276272 0)
(-0.00748176 -0.00257995 0)
(-0.00610794 -0.00236753 0)
(-0.0048494 -0.0021289 0)
(-0.00371861 -0.00186822 0)
(-0.00272569 -0.00159037 0)
(-0.00187796 -0.00130108 0)
(-0.00117957 -0.00100701 0)
(-0.000630972 -0.000715983 0)
(-0.000228468 -0.000437273 0)
(3.64173e-05 -0.000182021 0)
(0.000177581 3.61613e-05 0)
(0.000214747 0.000200559 0)
(0.000174079 0.000290782 0)
(9.30221e-05 0.000282534 0)
(2.40262e-05 0.000147277 0)
(-2.12488e-06 -8.4404e-05 0)
(-6.7288e-05 2.09005e-05 0)
(-0.000264095 0.000295444 0)
(-0.000609735 0.000668 0)
(-0.0011167 0.00109077 0)
(-0.00179121 0.00152983 0)
(-0.00263226 0.00196175 0)
(-0.00363348 0.00237106 0)
(-0.00478475 0.00274803 0)
(-0.00607335 0.00308703 0)
(-0.00748492 0.00338529 0)
(-0.00900424 0.00364198 0)
(-0.0106157 0.00385757 0)
(-0.0123037 0.0040333 0)
(-0.0140531 0.00417082 0)
(-0.0158488 0.00427196 0)
(-0.0176767 0.00433851 0)
(-0.0195229 0.00437212 0)
(-0.021374 0.0043742 0)
(-0.023217 0.00434594 0)
(-0.0250393 0.00428824 0)
(-0.0268287 0.00420176 0)
(-0.0285731 0.00408695 0)
(-0.0302604 0.00394412 0)
(-0.0318791 0.00377346 0)
(-0.0334173 0.00357512 0)
(-0.0348636 0.00334929 0)
(-0.0362068 0.00309624 0)
(-0.0374357 0.00281642 0)
(-0.0385395 0.00251049 0)
(-0.039508 0.0021794 0)
(-0.0403313 0.00182442 0)
(-0.0410003 0.0014472 0)
(-0.0415068 0.00104979 0)
(-0.0418433 0.000634666 0)
(-0.0420039 0.000204757 0)
(-0.0419835 -0.000236581 0)
(-0.0417789 -0.000685559 0)
(-0.0413882 -0.00113799 0)
(-0.0408115 -0.00158932 0)
(-0.0400506 -0.00203467 0)
(-0.0391093 -0.00246894 0)
(-0.0379935 -0.00288683 0)
(-0.0367112 -0.00328296 0)
(-0.0352724 -0.00365193 0)
(-0.0336891 -0.0039885 0)
(-0.0319756 -0.00428758 0)
(-0.0301477 -0.00454445 0)
(-0.0282233 -0.00475479 0)
(-0.0262215 -0.00491485 0)
(-0.0241629 -0.00502151 0)
(-0.0220693 -0.00507236 0)
(-0.0199629 -0.00506585 0)
(-0.0178667 -0.00500129 0)
(-0.0158035 -0.00487893 0)
(-0.0137959 -0.00470005 0)
(-0.0118659 -0.0044669 0)
(-0.0100342 -0.00418282 0)
(-0.0083201 -0.00385218 0)
(-0.00674095 -0.00348044 0)
(-0.00531167 -0.00307417 0)
(-0.0040444 -0.00264113 0)
(-0.00294801 -0.00219029 0)
(-0.00202763 -0.00173206 0)
(-0.00128421 -0.00127851 0)
(-0.000713997 -0.000843662 0)
(-0.000307985 -0.000444023 0)
(-5.14092e-05 -9.91488e-05 0)
(7.66093e-05 0.000167625 0)
(0.000103571 0.000328568 0)
(6.74971e-05 0.000350945 0)
(1.96638e-05 0.000194127 0)
(-1.36944e-05 -3.75201e-05 0)
(-0.000132827 0.000197368 0)
(-0.000435802 0.000626885 0)
(-0.000924586 0.00117029 0)
(-0.00160381 0.00177164 0)
(-0.00247604 0.00239007 0)
(-0.00353743 0.00299653 0)
(-0.00477927 0.00357122 0)
(-0.00618949 0.00410129 0)
(-0.00775357 0.00457899 0)
(-0.00945536 0.00500023 0)
(-0.0112778 0.00536351 0)
(-0.0132034 0.00566909 0)
(-0.0152147 0.00591833 0)
(-0.0172943 0.00611322 0)
(-0.0194254 0.006256 0)
(-0.0215915 0.00634898 0)
(-0.0237767 0.00639427 0)
(-0.0259653 0.00639375 0)
(-0.0281425 0.00634898 0)
(-0.0302933 0.0062612 0)
(-0.0324035 0.00613134 0)
(-0.0344589 0.00596006 0)
(-0.0364454 0.00574785 0)
(-0.0383493 0.00549505 0)
(-0.040157 0.00520199 0)
(-0.0418552 0.00486904 0)
(-0.0434305 0.00449674 0)
(-0.0448703 0.00408584 0)
(-0.0461621 0.00363744 0)
(-0.047294 0.00315302 0)
(-0.0482549 0.00263455 0)
(-0.0490343 0.00208451 0)
(-0.0496228 0.00150593 0)
(-0.0500123 0.00090247 0)
(-0.0501958 0.000278379 0)
(-0.0501679 -0.000361478 0)
(-0.049925 -0.00101165 0)
(-0.0494653 -0.00166612 0)
(-0.0487889 -0.0023184 0)
(-0.0478981 -0.00296155 0)
(-0.0467975 -0.00358831 0)
(-0.0454939 -0.00419118 0)
(-0.0439965 -0.00476253 0)
(-0.0423169 -0.00529477 0)
(-0.0404689 -0.00578048 0)
(-0.0384687 -0.0062125 0)
(-0.0363346 -0.00658417 0)
(-0.0340867 -0.00688944 0)
(-0.0317471 -0.007123 0)
(-0.0293391 -0.00728045 0)
(-0.0268875 -0.00735844 0)
(-0.0244178 -0.00735476 0)
(-0.021956 -0.00726845 0)
(-0.0195282 -0.00709989 0)
(-0.0171604 -0.00685088 0)
(-0.0148774 -0.00652465 0)
(-0.0127031 -0.00612593 0)
(-0.0106597 -0.00566095 0)
(-0.00876703 -0.00513748 0)
(-0.00704233 -0.00456488 0)
(-0.00549972 -0.00395411 0)
(-0.00414967 -0.00331788 0)
(-0.00299855 -0.0026708 0)
(-0.00204813 -0.00202957 0)
(-0.00129514 -0.0014134 0)
(-0.000730806 -0.000844421 0)
(-0.000340401 -0.000348316 0)
(-0.000102966 4.49395e-05 0)
(9.12972e-06 0.000300406 0)
(3.24869e-05 0.000377273 0)
(1.36192e-05 0.0002245 0)
(-2.51848e-05 4.41044e-05 0)
(-0.000200001 0.000461266 0)
(-0.000614042 0.00108702 0)
(-0.00125283 0.00183463 0)
(-0.00211189 0.00264221 0)
(-0.00318907 0.00346355 0)
(-0.00447681 0.004265 0)
(-0.00596339 0.00502312 0)
(-0.00763432 0.0057223 0)
(-0.00947304 0.00635284 0)
(-0.0114616 0.00690943 0)
(-0.0135811 0.00738992 0)
(-0.0158124 0.0077943 0)
(-0.0181363 0.00812401 0)
(-0.0205336 0.00838133 0)
(-0.0229857 0.0085689 0)
(-0.0254744 0.00868948 0)
(-0.0279817 0.00874565 0)
(-0.0304905 0.00873973 0)
(-0.0329836 0.00867366 0)
(-0.0354446 0.00854903 0)
(-0.037857 0.00836703 0)
(-0.040205 0.00812857 0)
(-0.0424728 0.00783435 0)
(-0.0446446 0.0074849 0)
(-0.0467053 0.00708078 0)
(-0.0486396 0.00662262 0)
(-0.0504329 0.00611126 0)
(-0.0520706 0.0055479 0)
(-0.0535391 0.00493414 0)
(-0.0548249 0.00427213 0)
(-0.0559157 0.00356465 0)
(-0.0567999 0.00281515 0)
(-0.0574672 0.00202784 0)
(-0.0579086 0.00120769 0)
(-0.0581164 0.000360498 0)
(-0.0580849 -0.00050718 0)
(-0.0578101 -0.00138801 0)
(-0.0572901 -0.00227394 0)
(-0.0565252 -0.0031563 0)
(-0.055518 -0.00402584 0)
(-0.0542737 -0.00487291 0)
(-0.0527999 -0.00568755 0)
(-0.0511068 -0.00645966 0)
(-0.0492073 -0.0071792 0)
(-0.0471167 -0.00783632 0)
(-0.0448529 -0.00842157 0)
(-0.042436 -0.00892615 0)
(-0.0398885 -0.00934202 0)
(-0.0372345 -0.00966218 0)
(-0.0345 -0.0098808 0)
(-0.0317124 -0.00999342 0)
(-0.0289 -0.0099971 0)
(-0.0260915 -0.00989056 0)
(-0.0233162 -0.00967429 0)
(-0.0206026 -0.00935063 0)
(-0.0179787 -0.00892387 0)
(-0.0154711 -0.00840026 0)
(-0.0131046 -0.00778808 0)
(-0.0109015 -0.00709764 0)
(-0.00888139 -0.00634131 0)
(-0.00706044 -0.00553362 0)
(-0.00545085 -0.00469131 0)
(-0.00406048 -0.00383347 0)
(-0.00289231 -0.00298179 0)
(-0.00194408 -0.00216088 0)
(-0.00120784 -0.00139865 0)
(-0.000669632 -0.000726955 0)
(-0.00030926 -0.00018229 0)
(-9.98861e-05 0.000193539 0)
(-7.72495e-06 0.000352417 0)
(6.85889e-06 0.000234966 0)
(-3.63379e-05 0.000160466 0)
(-0.000266923 0.000814465 0)
(-0.000793693 0.00167964 0)
(-0.00158552 0.00266601 0)
(-0.00262824 0.00370788 0)
(-0.00391429 0.0047552 0)
(-0.00543172 0.00577095 0)
(-0.00716523 0.00672884 0)
(-0.00909751 0.00761107 0)
(-0.0112097 0.00840638 0)
(-0.0134818 0.00910842 0)
(-0.0158932 0.00971447 0)
(-0.0184232 0.0102244 0)
(-0.0210507 0.0106396 0)
(-0.0237553 0.0109628 0)
(-0.0265166 0.0111969 0)
(-0.0293148 0.0113451 0)
(-0.0321305 0.0114104 0)
(-0.0349446 0.0113957 0)
(-0.0377387 0.0113031 0)
(-0.0404944 0.0111347 0)
(-0.043194 0.0108919 0)
(-0.0458196 0.0105759 0)
(-0.048354 0.0101875 0)
(-0.0507798 0.00972766 0)
(-0.0530804 0.00919708 0)
(-0.0552389 0.00859674 0)
(-0.0572392 0.00792787 0)
(-0.0590656 0.00719214 0)
(-0.0607028 0.0063918 0)
(-0.0621363 0.00552975 0)
(-0.0633527 0.0046097 0)
(-0.0643394 0.0036362 0)
(-0.0650851 0.00261475 0)
(-0.06558 0.00155182 0)
(-0.065816 0.000454875 0)
(-0.0657868 -0.00066764 0)
(-0.065488 -0.00180634 0)
(-0.0649177 -0.00295094 0)
(-0.0640762 -0.0040904 0)
(-0.0629663 -0.00521296 0)
(-0.0615935 -0.00630638 0)
(-0.0599662 -0.00735802 0)
(-0.0580952 -0.0083551 0)
(-0.0559945 -0.00928489 0)
(-0.0536807 -0.0101349 0)
(-0.0511729 -0.0108933 0)
(-0.0484929 -0.0115487 0)
(-0.0456651 -0.0120911 0)
(-0.0427156 -0.0125115 0)
(-0.0396725 -0.0128026 0)
(-0.0365656 -0.0129586 0)
(-0.0334257 -0.0129758 0)
(-0.0302841 -0.0128524 0)
(-0.0271726 -0.012589 0)
(-0.0241227 -0.0121885 0)
(-0.0211649 -0.0116563 0)
(-0.0183285 -0.0110002 0)
(-0.015641 -0.0102307 0)
(-0.0131273 -0.00936073 0)
(-0.0108092 -0.00840597 0)
(-0.00870509 -0.00738467 0)
(-0.00682915 -0.00631784 0)
(-0.00519102 -0.00522929 0)
(-0.0037953 -0.0041459 0)
(-0.00264115 -0.00309779 0)
(-0.00172199 -0.00211877 0)
(-0.00102526 -0.0012468 0)
(-0.000532127 -0.000524688 0)
(-0.000217236 -6.37126e-07 0)
(-5.04703e-05 0.000270808 0)
(-8.60463e-08 0.000223818 0)
(-4.70572e-05 0.000310928 0)
(-0.000332612 0.00125688 0)
(-0.000971758 0.00240571 0)
(-0.00191704 0.00366632 0)
(-0.00314446 0.00497095 0)
(-0.00464065 0.00626727 0)
(-0.00638879 0.00751601 0)
(-0.00836961 0.00868898 0)
(-0.0105626 0.00976685 0)
(-0.0129463 0.0107372 0)
(-0.0154987 0.0115931 0)
(-0.0181973 0.0123314 0)
(-0.0210196 0.0129519 0)
(-0.0239432 0.0134563 0)
(-0.0269461 0.0138473 0)
(-0.0300065 0.0141285 0)
(-0.0331033 0.0143034 0)
(-0.0362155 0.0143756 0)
(-0.0393229 0.0143481 0)
(-0.0424054 0.0142236 0)
(-0.0454434 0.0140044 0)
(-0.0484175 0.0136923 0)
(-0.0513086 0.0132887 0)
(-0.054098 0.0127947 0)
(-0.0567671 0.0122114 0)
(-0.0592975 0.01154 0)
(-0.0616714 0.0107816 0)
(-0.0638712 0.00993807 0)
(-0.0658799 0.00901157 0)
(-0.0676811 0.00800503 0)
(-0.0692593 0.00692221 0)
(-0.0706 0.00576783 0)
(-0.0716895 0.00454767 0)
(-0.0725159 0.00326863 0)
(-0.0730686 0.00193879 0)
(-0.0733388 0.000567415 0)
(-0.0733197 -0.000835029 0)
(-0.0730065 -0.00225695 0)
(-0.0723971 -0.00368569 0)
(-0.0714916 -0.00510766 0)
(-0.070293 -0.00650844 0)
(-0.0688069 -0.00787298 0)
(-0.0670421 -0.00918583 0)
(-0.06501 -0.0104313 0)
(-0.0627252 -0.0115938 0)
(-0.0602053 -0.012658 0)
(-0.0574707 -0.0136094 0)
(-0.0545444 -0.014434 0)
(-0.0514522 -0.0151195 0)
(-0.0482222 -0.0156549 0)
(-0.0448844 -0.0160309 0)
(-0.0414705 -0.0162404 0)
(-0.0380137 -0.0162788 0)
(-0.0345479 -0.0161438 0)
(-0.0311072 -0.0158359 0)
(-0.0277258 -0.0153585 0)
(-0.0244369 -0.0147181 0)
(-0.0212726 -0.0139242 0)
(-0.0182629 -0.0129894 0)
(-0.0154352 -0.0119295 0)
(-0.0128142 -0.0107636 0)
(-0.0104203 -0.00951371 0)
(-0.0082702 -0.00820537 0)
(-0.00637552 -0.00686728 0)
(-0.00474286 -0.00553159 0)
(-0.00337325 -0.00423409 0)
(-0.00226192 -0.00301445 0)
(-0.00139816 -0.00191671 0)
(-0.000764998 -0.000989717 0)
(-0.000339016 -0.000287647 0)
(-9.41901e-05 0.000129337 0)
(-6.9452e-06 0.000190405 0)
(-5.7331e-05 0.000494588 0)
(-0.000396584 0.00178726 0)
(-0.0011465 0.00326434 0)
(-0.00224388 0.00483516 0)
(-0.00365498 0.00643141 0)
(-0.00536047 0.00799978 0)
(-0.00733843 0.00949994 0)
(-0.00956528 0.0109027 0)
(-0.0120171 0.0121879 0)
(-0.0146697 0.0133426 0)
(-0.0174986 0.0143595 0)
(-0.0204795 0.0152354 0)
(-0.0235883 0.0159703 0)
(-0.026801 0.0165662 0)
(-0.0300943 0.0170261 0)
(-0.0334451 0.0173541 0)
(-0.036831 0.0175541 0)
(-0.04023 0.0176301 0)
(-0.0436203 0.0175856 0)
(-0.0469809 0.0174237 0)
(-0.0502908 0.0171469 0)
(-0.0535294 0.0167572 0)
(-0.0566764 0.0162565 0)
(-0.0597118 0.015646 0)
(-0.0626158 0.0149272 0)
(-0.065369 0.0141015 0)
(-0.0679521 0.0131705 0)
(-0.0703465 0.0121365 0)
(-0.0725342 0.0110022 0)
(-0.0744976 0.0097714 0)
(-0.0762202 0.00844874 0)
(-0.0776864 0.00704002 0)
(-0.0788819 0.0055523 0)
(-0.0797938 0.00399398 0)
(-0.0804107 0.00237483 0)
(-0.0807232 0.000706056 0)
(-0.0807238 -0.00099978 0)
(-0.0804074 -0.00272876 0)
(-0.0797713 -0.00446573 0)
(-0.0788155 -0.0061944 0)
(-0.0775427 -0.00789757 0)
(-0.0759587 -0.00955724 0)
(-0.0740721 -0.0111549 0)
(-0.0718949 -0.0126719 0)
(-0.0694422 -0.0140895 0)
(-0.066732 -0.0153895 0)
(-0.0637857 -0.0165542 0)
(-0.0606274 -0.0175672 0)
(-0.0572843 -0.0184134 0)
(-0.0537857 -0.0190795 0)
(-0.0501637 -0.0195544 0)
(-0.0464517 -0.0198294 0)
(-0.0426851 -0.0198985 0)
(-0.0389001 -0.019759 0)
(-0.0351335 -0.0194112 0)
(-0.0314217 -0.0188589 0)
(-0.0278011 -0.0181096 0)
(-0.0243061 -0.0171743 0)
(-0.0209699 -0.0160681 0)
(-0.0178225 -0.0148095 0)
(-0.0148913 -0.0134209 0)
(-0.0121995 -0.0119286 0)
(-0.00976623 -0.0103626 0)
(-0.00760564 -0.00875658 0)
(-0.00572665 -0.00714809 0)
(-0.00413255 -0.00557863 0)
(-0.00282077 -0.00409381 0)
(-0.00178284 -0.0027436 0)
(-0.001004 -0.00158276 0)
(-0.000463012 -0.000671031 0)
(-0.000138067 -7.36089e-05 0)
(-1.36028e-05 0.000134646 0)
(-6.71768e-05 0.000710413 0)
(-0.000458614 0.00240371 0)
(-0.00131691 0.00425345 0)
(-0.00256381 0.00617057 0)
(-0.00415609 0.00808746 0)
(-0.00606844 0.009951 0)
(-0.00827372 0.0117208 0)
(-0.0107439 0.0133677 0)
(-0.0134514 0.0148713 0)
(-0.0163692 0.0162188 0)
(-0.0194703 0.017403 0)
(-0.0227286 0.0184212 0)
(-0.026118 0.0192734 0)
(-0.0296133 0.0199623 0)
(-0.0331897 0.0204915 0)
(-0.0368232 0.0208653 0)
(-0.04049 0.0210883 0)
(-0.044167 0.0211649 0)
(-0.0478317 0.021099 0)
(-0.0514616 0.0208941 0)
(-0.0550349 0.020553 0)
(-0.05853 0.020078 0)
(-0.0619254 0.0194712 0)
(-0.0652 0.0187342 0)
(-0.0683331 0.0178686 0)
(-0.0713041 0.0168763 0)
(-0.0740928 0.0157593 0)
(-0.0766796 0.0145202 0)
(-0.0790453 0.0131627 0)
(-0.0811714 0.0116912 0)
(-0.0830406 0.0101112 0)
(-0.0846362 0.00842971 0)
(-0.085943 0.00665519 0)
(-0.0869474 0.00479754 0)
(-0.0876371 0.0028683 0)
(-0.0880019 0.000880649 0)
(-0.0880337 -0.00115064 0)
(-0.0877268 -0.00320926 0)
(-0.0870778 -0.00527744 0)
(-0.0860863 -0.00733614 0)
(-0.0847547 -0.00936517 0)
(-0.0830884 -0.0113435 0)
(-0.081096 -0.0132495 0)
(-0.0787895 -0.0150612 0)
(-0.0761842 -0.0167567 0)
(-0.0732985 -0.0183145 0)
(-0.0701545 -0.0197139 0)
(-0.066777 -0.0209355 0)
(-0.0631942 -0.0219613 0)
(-0.0594369 -0.0227755 0)
(-0.0555386 -0.023365 0)
(-0.0515347 -0.023719 0)
(-0.0474625 -0.0238305 0)
(-0.0433605 -0.0236956 0)
(-0.0392678 -0.0233144 0)
(-0.035224 -0.022691 0)
(-0.0312677 -0.0218338 0)
(-0.0274368 -0.0207555 0)
(-0.023767 -0.0194731 0)
(-0.0202917 -0.0180082 0)
(-0.0170411 -0.0163866 0)
(-0.0140415 -0.0146388 0)
(-0.0113148 -0.0127992 0)
(-0.00887811 -0.0109068 0)
(-0.006743 -0.0090046 0)
(-0.00491538 -0.00713986 0)
(-0.00339524 -0.00536413 0)
(-0.00217665 -0.00373334 0)
(-0.00124728 -0.00230801 0)
(-0.000588211 -0.00115324 0)
(-0.000181776 -0.000338869 0)
(-2.00324e-05 5.67106e-05 0)
(-7.66189e-05 0.000957324 0)
(-0.000518598 0.00310393 0)
(-0.0014824 0.00537015 0)
(-0.0028754 0.00766946 0)
(-0.00464524 0.00993594 0)
(-0.00676075 0.0121177 0)
(-0.00918953 0.0141754 0)
(-0.0118991 0.0160804 0)
(-0.0148581 0.0178132 0)
(-0.0180365 0.0193615 0)
(-0.0214049 0.0207189 0)
(-0.0249349 0.0218831 0)
(-0.028599 0.0228551 0)
(-0.0323704 0.023638 0)
(-0.0362232 0.0242361 0)
(-0.040132 0.0246544 0)
(-0.0440723 0.024898 0)
(-0.0480199 0.0249718 0)
(-0.0519514 0.0248802 0)
(-0.0558434 0.024627 0)
(-0.0596732 0.0242153 0)
(-0.0634182 0.0236477 0)
(-0.0670562 0.0229266 0)
(-0.0705652 0.0220539 0)
(-0.0739234 0.0210314 0)
(-0.0771094 0.0198613 0)
(-0.0801022 0.018546 0)
(-0.082881 0.017089 0)
(-0.085426 0.0154941 0)
(-0.0877176 0.0137668 0)
(-0.0897376 0.0119136 0)
(-0.0914685 0.00994264 0)
(-0.0928943 0.00786364 0)
(-0.0940001 0.00568814 0)
(-0.0947731 0.00342948 0)
(-0.0952021 0.00110285 0)
(-0.0952783 -0.00127474 0)
(-0.094995 -0.00368451 0)
(-0.0943482 -0.00610603 0)
(-0.0933369 -0.00851739 0)
(-0.0919626 -0.0108954 0)
(-0.0902304 -0.0132158 0)
(-0.0881486 -0.0154537 0)
(-0.0857288 -0.0175837 0)
(-0.0829861 -0.0195805 0)
(-0.0799393 -0.0214192 0)
(-0.0766106 -0.0230758 0)
(-0.0730257 -0.0245275 0)
(-0.0692133 -0.0257535 0)
(-0.0652055 -0.0267351 0)
(-0.0610371 -0.0274567 0)
(-0.0567453 -0.0279056 0)
(-0.0523694 -0.0280729 0)
(-0.0479501 -0.0279538 0)
(-0.0435292 -0.0275478 0)
(-0.0391489 -0.0268591 0)
(-0.0348508 -0.0258968 0)
(-0.030676 -0.0246751 0)
(-0.0266634 -0.0232132 0)
(-0.0228498 -0.0215354 0)
(-0.0192686 -0.0196712 0)
(-0.0159496 -0.0176549 0)
(-0.0129179 -0.015526 0)
(-0.0101938 -0.0133283 0)
(-0.00779202 -0.0111107 0)
(-0.00572138 -0.00892629 0)
(-0.00398478 -0.00683255 0)
(-0.00257904 -0.00489142 0)
(-0.00149446 -0.00316919 0)
(-0.000714458 -0.00173627 0)
(-0.000225316 -0.000667007 0)
(-2.62604e-05 -4.31858e-05 0)
(-8.56786e-05 0.00123423 0)
(-0.000576484 0.00388538 0)
(-0.00164258 0.00661102 0)
(-0.00317767 0.00932791 0)
(-0.00512061 0.0119727 0)
(-0.00743455 0.0144956 0)
(-0.010082 0.0168591 0)
(-0.0130258 0.0190362 0)
(-0.0162311 0.0210087 0)
(-0.0196646 0.0227655 0)
(-0.0232945 0.0243015 0)
(-0.0270904 0.0256153 0)
(-0.0310229 0.026709 0)
(-0.0350639 0.0275865 0)
(-0.0391862 0.0282531 0)
(-0.0433636 0.0287144 0)
(-0.0475704 0.0289762 0)
(-0.0517818 0.029044 0)
(-0.0559734 0.0289224 0)
(-0.0601212 0.0286159 0)
(-0.0642016 0.0281278 0)
(-0.0681915 0.0274611 0)
(-0.0720678 0.0266183 0)
(-0.0758076 0.0256015 0)
(-0.0793886 0.0244129 0)
(-0.0827885 0.0230551 0)
(-0.0859854 0.0215309 0)
(-0.088958 0.0198441 0)
(-0.0916852 0.0179994 0)
(-0.094147 0.0160029 0)
(-0.096324 0.0138622 0)
(-0.098198 0.0115865 0)
(-0.0997519 0.00918688 0)
(-0.10097 0.0066765 0)
(-0.101839 0.00407048 0)
(-0.102345 0.00138601 0)
(-0.102481 -0.00135761 0)
(-0.102237 -0.00413913 0)
(-0.101609 -0.00693542 0)
(-0.100594 -0.00972164 0)
(-0.0991947 -0.0124715 0)
(-0.0974139 -0.0151574 0)
(-0.0952596 -0.0177511 0)
(-0.0927428 -0.0202236 0)
(-0.0898784 -0.0225461 0)
(-0.0866849 -0.0246899 0)
(-0.0831845 -0.0266276 0)
(-0.0794033 -0.0283328 0)
(-0.0753707 -0.0297814 0)
(-0.0711197 -0.0309518 0)
(-0.0666863 -0.0318252 0)
(-0.0621094 -0.0323868 0)
(-0.0574301 -0.0326258 0)
(-0.0526916 -0.0325359 0)
(-0.0479382 -0.0321157 0)
(-0.043215 -0.0313695 0)
(-0.0385669 -0.0303068 0)
(-0.0340382 -0.028943 0)
(-0.0296715 -0.0272994 0)
(-0.0255072 -0.025403 0)
(-0.0215824 -0.0232868 0)
(-0.0179307 -0.0209895 0)
(-0.014581 -0.0185549 0)
(-0.0115569 -0.0160326 0)
(-0.00887678 -0.0134769 0)
(-0.00655278 -0.010947 0)
(-0.00459093 -0.00850652 0)
(-0.00299109 -0.00622352 0)
(-0.00174627 -0.00417014 0)
(-0.000842199 -0.00242219 0)
(-0.000268909 -0.00105867 0)
(-3.23453e-05 -0.000164909 0)
(-9.4371e-05 0.00154004 0)
(-0.000632235 0.00474534 0)
(-0.00179718 0.00797224 0)
(-0.00346986 0.0111414 0)
(-0.0055808 0.0141927 0)
(-0.00808763 0.0170795 0)
(-0.0109478 0.0197666 0)
(-0.01412 0.0222295 0)
(-0.0175653 0.024452 0)
(-0.0212477 0.0264249 0)
(-0.0251327 0.0281446 0)
(-0.0291877 0.0296114 0)
(-0.0333819 0.0308286 0)
(-0.0376858 0.0318013 0)
(-0.0420709 0.0325358 0)
(-0.04651 0.0330386 0)
(-0.0509767 0.0333162 0)
(-0.0554455 0.0333748 0)
(-0.0598911 0.0332196 0)
(-0.0642891 0.0328552 0)
(-0.0686153 0.0322856 0)
(-0.0728458 0.0315139 0)
(-0.076957 0.0305428 0)
(-0.0809255 0.0293748 0)
(-0.0847281 0.0280123 0)
(-0.088342 0.0264581 0)
(-0.0917446 0.0247156 0)
(-0.0949138 0.0227888 0)
(-0.0978279 0.0206833 0)
(-0.100466 0.0184058 0)
(-0.102808 0.0159648 0)
(-0.104834 0.0133706 0)
(-0.106527 0.0106358 0)
(-0.10787 0.00777499 0)
(-0.108848 0.00480499 0)
(-0.109447 0.00174505 0)
(-0.109658 -0.00138332 0)
(-0.10947 -0.00455637 0)
(-0.108879 -0.00774825 0)
(-0.10788 -0.0109312 0)
(-0.106473 -0.0140756 0)
(-0.104662 -0.0171508 0)
(-0.102453 -0.0201247 0)
(-0.0998569 -0.0229647 0)
(-0.0968869 -0.0256383 0)
(-0.0935615 -0.028113 0)
(-0.0899028 -0.0303573 0)
(-0.0859366 -0.0323413 0)
(-0.0816931 -0.0340371 0)
(-0.0772058 -0.0354196 0)
(-0.0725119 -0.0364671 0)
(-0.0676518 -0.0371618 0)
(-0.0626686 -0.0374907 0)
(-0.0576077 -0.0374457 0)
(-0.0525163 -0.0370245 0)
(-0.0474424 -0.0362305 0)
(-0.0424344 -0.0350737 0)
(-0.0375401 -0.0335706 0)
(-0.0328063 -0.0317443 0)
(-0.0282771 -0.0296245 0)
(-0.0239941 -0.0272476 0)
(-0.0199948 -0.0246564 0)
(-0.0163121 -0.0218998 0)
(-0.0129741 -0.0190325 0)
(-0.0100027 -0.0161148 0)
(-0.00741375 -0.013212 0)
(-0.00521687 -0.0103943 0)
(-0.00341508 -0.00773595 0)
(-0.00200422 -0.00531519 0)
(-0.000972312 -0.00321351 0)
(-0.000312925 -0.00151483 0)
(-3.83651e-05 -0.000308496 0)
(-0.000102704 0.00187364 0)
(-0.000685809 0.00568098 0)
(-0.00194594 0.00944969 0)
(-0.00375135 0.0131048 0)
(-0.0060246 0.0165904 0)
(-0.0087181 0.0198631 0)
(-0.0117845 0.0228914 0)
(-0.015178 0.0256536 0)
(-0.0188565 0.0281364 0)
(-0.0227805 0.0303328 0)
(-0.0269133 0.0322415 0)
(-0.0312204 0.0338645 0)
(-0.035669 0.035207 0)
(-0.0402285 0.0362754 0)
(-0.0448693 0.0370773 0)
(-0.0495633 0.0376202 0)
(-0.0542833 0.0379117 0)
(-0.0590031 0.0379583 0)
(-0.0636971 0.0377661 0)
(-0.0683402 0.0373401 0)
(-0.0729077 0.0366845 0)
(-0.0773753 0.0358028 0)
(-0.0817188 0.034698 0)
(-0.0859144 0.0333726 0)
(-0.0899385 0.0318295 0)
(-0.0937676 0.0300717 0)
(-0.0973785 0.0281028 0)
(-0.100748 0.0259275 0)
(-0.103855 0.0235517 0)
(-0.106677 0.0209829 0)
(-0.109192 0.0182305 0)
(-0.111381 0.0153059 0)
(-0.113226 0.0122229 0)
(-0.114707 0.00899742 0)
(-0.115809 0.00564817 0)
(-0.116518 0.00219629 0)
(-0.116821 -0.00133453 0)
(-0.116709 -0.00491808 0)
(-0.116173 -0.00852582 0)
(-0.115209 -0.012127 0)
(-0.113815 -0.0156889 0)
(-0.111993 -0.0191772 0)
(-0.109749 -0.0225563 0)
(-0.107091 -0.0257899 0)
(-0.104032 -0.0288413 0)
(-0.100591 -0.031674 0)
(-0.0967878 -0.0342524 0)
(-0.0926488 -0.0365424 0)
(-0.088204 -0.0385123 0)
(-0.0834876 -0.040133 0)
(-0.0785378 -0.0413792 0)
(-0.0733964 -0.0422302 0)
(-0.0681083 -0.0426699 0)
(-0.0627214 -0.0426882 0)
(-0.0572855 -0.0422812 0)
(-0.0518521 -0.0414515 0)
(-0.046473 -0.0402091 0)
(-0.0412003 -0.0385711 0)
(-0.0360847 -0.0365624 0)
(-0.031175 -0.0342152 0)
(-0.0265173 -0.0315692 0)
(-0.0221536 -0.0286714 0)
(-0.0181218 -0.0255756 0)
(-0.0144541 -0.0223421 0)
(-0.0111768 -0.0190372 0)
(-0.00831002 -0.0157327 0)
(-0.00586696 -0.0125053 0)
(-0.00385417 -0.00943604 0)
(-0.00227042 -0.00660957 0)
(-0.00110598 -0.00411344 0)
(-0.000357837 -0.002037 0)
(-4.44101e-05 -0.000474213 0)
(-0.000110678 0.00223391 0)
(-0.000737143 0.00668933 0)
(-0.00208861 0.011039 0)
(-0.00402153 0.0152128 0)
(-0.00645092 0.0191593 0)
(-0.0093242 0.0228398 0)
(-0.0125894 0.0262265 0)
(-0.0161967 0.0293014 0)
(-0.0201003 0.0320544 0)
(-0.0242581 0.0344817 0)
(-0.0286308 0.0365844 0)
(-0.0331819 0.0383671 0)
(-0.0378772 0.0398367 0)
(-0.0426846 0.0410015 0)
(-0.0475737 0.0418705 0)
(-0.0525154 0.0424526 0)
(-0.057482 0.0427561 0)
(-0.0624466 0.0427886 0)
(-0.0673832 0.0425566 0)
(-0.0722664 0.0420658 0)
(-0.077071 0.0413207 0)
(-0.0817724 0.040325 0)
(-0.0863462 0.039082 0)
(-0.090768 0.0375945 0)
(-0.0950139 0.0358655 0)
(-0.0990598 0.0338981 0)