/*--------------------------------*- C++ -*----------------------------------*\
  =========                 |
  \\      /  F ield         | OpenFOAM: The Open Source CFD Toolbox
   \\    /   O peration     | Website:  https://openfoam.org
    \\  /    A nd           | Version:  dev
     \\/     M anipulation  |
\*---------------------------------------------------------------------------*/
FoamFile
{
    format      ascii;
    class       volScalarField;
    location    "31.05";
    object      Ux;
}
// * * * * * * * * * * * * * * * * * * * * * * * * * * * * * * * * * * * * * //

dimensions      [0 1 -1 0 0 0 0];

internalField   nonuniform List<scalar> 
5184
(
1.2314e-05
4.51465e-05
8.03158e-05
9.59792e-05
8.21531e-05
3.64589e-05
-4.05545e-05
-0.000146868
-0.000279688
-0.000435959
-0.00061256
-0.000806456
-0.00101478
-0.00123487
-0.00146426
-0.0017007
-0.00194211
-0.00218658
-0.00243233
-0.00267766
-0.00292099
-0.00316073
-0.00339537
-0.00362339
-0.00384324
-0.0040534
-0.00425231
-0.0044384
-0.00461008
-0.00476578
-0.00490393
-0.00502302
-0.00512159
-0.00519825
-0.00525174
-0.00528096
-0.00528495
-0.00526299
-0.00521458
-0.00513949
-0.00503778
-0.00490983
-0.00475634
-0.00457836
-0.00437731
-0.00415493
-0.00391332
-0.0036549
-0.0033824
-0.00309884
-0.00280743
-0.00251162
-0.00221496
-0.00192112
-0.00163377
-0.00135654
-0.00109298
-0.000846463
-0.000620124
-0.000416819
-0.000239047
-8.88848e-05
3.2079e-05
0.00012283
0.000183037
0.000213202
0.000214913
0.000191219
0.000147151
9.08e-05
3.66328e-05
6.22881e-06
2.08386e-05
6.56099e-05
9.47098e-05
7.28114e-05
-1.89225e-05
-0.000187306
-0.00043292
-0.000752548
-0.00114065
-0.00159043
-0.00209456
-0.00264558
-0.00323619
-0.00385939
-0.00450858
-0.00517756
-0.00586053
-0.00655205
-0.00724699
-0.00794045
-0.00862774
-0.00930431
-0.00996568
-0.0106074
-0.0112252
-0.0118145
-0.0123709
-0.0128901
-0.0133677
-0.0137992
-0.0141806
-0.0145076
-0.0147764
-0.0149834
-0.0151252
-0.0151991
-0.0152027
-0.0151341
-0.0149924
-0.014777
-0.0144884
-0.0141278
-0.0136974
-0.0132001
-0.0126399
-0.0120217
-0.0113513
-0.0106352
-0.00988082
-0.00909628
-0.00829027
-0.00747198
-0.00665093
-0.00583686
-0.00503956
-0.00426869
-0.00353364
-0.00284331
-0.002206
-0.00162918
-0.00111933
-0.000681747
-0.000320343
-3.74023e-05
0.000166707
0.000293907
0.000348945
0.000340093
0.000279841
0.000186044
8.63707e-05
1.96819e-05
1.76331e-05
4.13257e-05
1.95988e-05
-8.39952e-05
-0.000290241
-0.000607885
-0.00103819
-0.00157734
-0.00221817
-0.00295149
-0.00376703
-0.00465408
-0.00560191
-0.00660006
-0.00763849
-0.00870762
-0.00979838
-0.0109022
-0.0120108
-0.0131164
-0.0142113
-0.0152883
-0.0163401
-0.0173595
-0.0183395
-0.0192731
-0.0201531
-0.0209727
-0.021725
-0.0224031
-0.0230006
-0.0235111
-0.0239288
-0.024248
-0.024464
-0.0245726
-0.0245702
-0.0244545
-0.0242239
-0.023878
-0.0234178
-0.0228453
-0.022164
-0.0213788
-0.020496
-0.019523
-0.0184689
-0.0173439
-0.0161594
-0.0149277
-0.0136623
-0.0123771
-0.0110867
-0.00980596
-0.0085497
-0.00733265
-0.00616907
-0.00507247
-0.0040554
-0.00312915
-0.00230344
-0.00158616
-0.000983064
-0.000497372
-0.000129399
0.000123926
0.000269696
0.000319759
0.000291246
0.000207387
0.000102448
2.49767e-05
8.83854e-06
-7.01089e-06
-0.000107576
-0.000322348
-0.00066957
-0.00115765
-0.00178732
-0.00255384
-0.00344864
-0.00446071
-0.00557756
-0.00678598
-0.00807258
-0.0094241
-0.0108276
-0.0122707
-0.0137415
-0.0152286
-0.016721
-0.0182082
-0.01968
-0.0211264
-0.0225376
-0.023904
-0.0252161
-0.0264644
-0.0276395
-0.0287321
-0.0297333
-0.030634
-0.0314257
-0.0321002
-0.0326499
-0.0330677
-0.0333475
-0.0334839
-0.0334728
-0.0333111
-0.0329972
-0.0325308
-0.0319133
-0.0311477
-0.0302388
-0.029193
-0.0280186
-0.0267256
-0.0253258
-0.0238325
-0.0222604
-0.0206256
-0.0189455
-0.0172382
-0.0155223
-0.0138172
-0.0121419
-0.0105155
-0.00895634
-0.00748176
-0.00610794
-0.0048494
-0.00371861
-0.00272569
-0.00187796
-0.00117957
-0.000630972
-0.000228468
3.64173e-05
0.000177581
0.000214747
0.000174079
9.30221e-05
2.40262e-05
-2.12488e-06
-6.7288e-05
-0.000264095
-0.000609735
-0.0011167
-0.00179121
-0.00263226
-0.00363348
-0.00478475
-0.00607335
-0.00748492
-0.00900424
-0.0106157
-0.0123037
-0.0140531
-0.0158488
-0.0176767
-0.0195229
-0.021374
-0.023217
-0.0250393
-0.0268287
-0.0285731
-0.0302604
-0.0318791
-0.0334173
-0.0348636
-0.0362068
-0.0374357
-0.0385395
-0.039508
-0.0403313
-0.0410003
-0.0415068
-0.0418433
-0.0420039
-0.0419835
-0.0417789
-0.0413882
-0.0408115
-0.0400506
-0.0391093
-0.0379935
-0.0367112
-0.0352724
-0.0336891
-0.0319756
-0.0301477
-0.0282233
-0.0262215
-0.0241629
-0.0220693
-0.0199629
-0.0178667
-0.0158035
-0.0137959
-0.0118659
-0.0100342
-0.0083201
-0.00674095
-0.00531167
-0.0040444
-0.00294801
-0.00202763
-0.00128421
-0.000713997
-0.000307985
-5.14092e-05
7.66093e-05
0.000103571
6.74971e-05
1.96638e-05
-1.36944e-05
-0.000132827
-0.000435802
-0.000924586
-0.00160381
-0.00247604
-0.00353743
-0.00477927
-0.00618949
-0.00775357
-0.00945536
-0.0112778
-0.0132034
-0.0152147
-0.0172943
-0.0194254
-0.0215915
-0.0237767
-0.0259653
-0.0281425
-0.0302933
-0.0324035
-0.0344589
-0.0364454
-0.0383493
-0.040157
-0.0418552
-0.0434305
-0.0448703
-0.0461621
-0.047294
-0.0482549
-0.0490343
-0.0496228
-0.0500123
-0.0501958
-0.0501679
-0.049925
-0.0494653
-0.0487889
-0.0478981
-0.0467975
-0.0454939
-0.0439965
-0.0423169
-0.0404689
-0.0384687
-0.0363346
-0.0340867
-0.0317471
-0.0293391
-0.0268875
-0.0244178
-0.021956
-0.0195282
-0.0171604
-0.0148774
-0.0127031
-0.0106597
-0.00876703
-0.00704233
-0.00549972
-0.00414967
-0.00299855
-0.00204813
-0.00129514
-0.000730806
-0.000340401
-0.000102966
9.12972e-06
3.24869e-05
1.36192e-05
-2.51848e-05
-0.000200001
-0.000614042
-0.00125283
-0.00211189
-0.00318907
-0.00447681
-0.00596339
-0.00763432
-0.00947304
-0.0114616
-0.0135811
-0.0158124
-0.0181363
-0.0205336
-0.0229857
-0.0254744
-0.0279817
-0.0304905
-0.0329836
-0.0354446
-0.037857
-0.040205
-0.0424728
-0.0446446
-0.0467053
-0.0486396
-0.0504329
-0.0520706
-0.0535391
-0.0548249
-0.0559157
-0.0567999
-0.0574672
-0.0579086
-0.0581164
-0.0580849
-0.0578101
-0.0572901
-0.0565252
-0.055518
-0.0542737
-0.0527999
-0.0511068
-0.0492073
-0.0471167
-0.0448529
-0.042436
-0.0398885
-0.0372345
-0.0345
-0.0317124
-0.0289
-0.0260915
-0.0233162
-0.0206026
-0.0179787
-0.0154711
-0.0131046
-0.0109015
-0.00888139
-0.00706044
-0.00545085
-0.00406048
-0.00289231
-0.00194408
-0.00120784
-0.000669632
-0.00030926
-9.98861e-05
-7.72495e-06
6.85889e-06
-3.63379e-05
-0.000266923
-0.000793693
-0.00158552
-0.00262824
-0.00391429
-0.00543172
-0.00716523
-0.00909751
-0.0112097
-0.0134818
-0.0158932
-0.0184232
-0.0210507
-0.0237553
-0.0265166
-0.0293148
-0.0321305
-0.0349446
-0.0377387
-0.0404944
-0.043194
-0.0458196
-0.048354
-0.0507798
-0.0530804
-0.0552389
-0.0572392
-0.0590656
-0.0607028
-0.0621363
-0.0633527
-0.0643394
-0.0650851
-0.06558
-0.065816
-0.0657868
-0.065488
-0.0649177
-0.0640762
-0.0629663
-0.0615935
-0.0599662
-0.0580952
-0.0559945
-0.0536807
-0.0511729
-0.0484929
-0.0456651
-0.0427156
-0.0396725
-0.0365656
-0.0334257
-0.0302841
-0.0271726
-0.0241227
-0.0211649
-0.0183285
-0.015641
-0.0131273
-0.0108092
-0.00870509
-0.00682915
-0.00519102
-0.0037953
-0.00264115
-0.00172199
-0.00102526
-0.000532127
-0.000217236
-5.04703e-05
-8.60463e-08
-4.70572e-05
-0.000332612
-0.000971758
-0.00191704
-0.00314446
-0.00464065
-0.00638879
-0.00836961
-0.0105626
-0.0129463
-0.0154987
-0.0181973
-0.0210196
-0.0239432
-0.0269461
-0.0300065
-0.0331033
-0.0362155
-0.0393229
-0.0424054
-0.0454434
-0.0484175
-0.0513086
-0.054098
-0.0567671
-0.0592975
-0.0616714
-0.0638712
-0.0658799
-0.0676811
-0.0692593
-0.0706
-0.0716895
-0.0725159
-0.0730686
-0.0733388
-0.0733197
-0.0730065
-0.0723971
-0.0714916
-0.070293
-0.0688069
-0.0670421
-0.06501
-0.0627252
-0.0602053
-0.0574707
-0.0545444
-0.0514522
-0.0482222
-0.0448844
-0.0414705
-0.0380137
-0.0345479
-0.0311072
-0.0277258
-0.0244369
-0.0212726
-0.0182629
-0.0154352
-0.0128142
-0.0104203
-0.0082702
-0.00637552
-0.00474286
-0.00337325
-0.00226192
-0.00139816
-0.000764998
-0.000339016
-9.41901e-05
-6.9452e-06
-5.7331e-05
-0.000396584
-0.0011465
-0.00224388
-0.00365498
-0.00536047
-0.00733843
-0.00956528
-0.0120171
-0.0146697
-0.0174986
-0.0204795
-0.0235883
-0.026801
-0.0300943
-0.0334451
-0.036831
-0.04023
-0.0436203
-0.0469809
-0.0502908
-0.0535294
-0.0566764
-0.0597118
-0.0626158
-0.065369
-0.0679521
-0.0703465
-0.0725342
-0.0744976
-0.0762202
-0.0776864
-0.0788819
-0.0797938
-0.0804107
-0.0807232
-0.0807238
-0.0804074
-0.0797713
-0.0788155
-0.0775427
-0.0759587
-0.0740721
-0.0718949
-0.0694422
-0.066732
-0.0637857
-0.0606274
-0.0572843
-0.0537857
-0.0501637
-0.0464517
-0.0426851
-0.0389001
-0.0351335
-0.0314217
-0.0278011
-0.0243061
-0.0209699
-0.0178225
-0.0148913
-0.0121995
-0.00976623
-0.00760564
-0.00572665
-0.00413255
-0.00282077
-0.00178284
-0.001004
-0.000463012
-0.000138067
-1.36028e-05
-6.71768e-05
-0.000458614
-0.00131691
-0.00256381
-0.00415609
-0.00606844
-0.00827372
-0.0107439
-0.0134514
-0.0163692
-0.0194703
-0.0227286
-0.026118
-0.0296133
-0.0331897
-0.0368232
-0.04049
-0.044167
-0.0478317
-0.0514616
-0.0550349
-0.05853
-0.0619254
-0.0652
-0.0683331
-0.0713041
-0.0740928
-0.0766796
-0.0790453
-0.0811714
-0.0830406
-0.0846362
-0.085943
-0.0869474
-0.0876371
-0.0880019
-0.0880337
-0.0877268
-0.0870778
-0.0860863
-0.0847547
-0.0830884
-0.081096
-0.0787895
-0.0761842
-0.0732985
-0.0701545
-0.066777
-0.0631942
-0.0594369
-0.0555386
-0.0515347
-0.0474625
-0.0433605
-0.0392678
-0.035224
-0.0312677
-0.0274368
-0.023767
-0.0202917
-0.0170411
-0.0140415
-0.0113148
-0.00887811
-0.006743
-0.00491538
-0.00339524
-0.00217665
-0.00124728
-0.000588211
-0.000181776
-2.00324e-05
-7.66189e-05
-0.000518598
-0.0014824
-0.0028754
-0.00464524
-0.00676075
-0.00918953
-0.0118991
-0.0148581
-0.0180365
-0.0214049
-0.0249349
-0.028599
-0.0323704
-0.0362232
-0.040132
-0.0440723
-0.0480199
-0.0519514
-0.0558434
-0.0596732
-0.0634182
-0.0670562
-0.0705652
-0.0739234
-0.0771094
-0.0801022
-0.082881
-0.085426
-0.0877176
-0.0897376
-0.0914685
-0.0928943
-0.0940001
-0.0947731
-0.0952021
-0.0952783
-0.094995
-0.0943482
-0.0933369
-0.0919626
-0.0902304
-0.0881486
-0.0857288
-0.0829861
-0.0799393
-0.0766106
-0.0730257
-0.0692133
-0.0652055
-0.0610371
-0.0567453
-0.0523694
-0.0479501
-0.0435292
-0.0391489
-0.0348508
-0.030676
-0.0266634
-0.0228498
-0.0192686
-0.0159496
-0.0129179
-0.0101938
-0.00779202
-0.00572138
-0.00398478
-0.00257904
-0.00149446
-0.000714458
-0.000225316
-2.62604e-05
-8.56786e-05
-0.000576484
-0.00164258
-0.00317767
-0.00512061
-0.00743455
-0.010082
-0.0130258
-0.0162311
-0.0196646
-0.0232945
-0.0270904
-0.0310229
-0.0350639
-0.0391862
-0.0433636
-0.0475704
-0.0517818
-0.0559734
-0.0601212
-0.0642016
-0.0681915
-0.0720678
-0.0758076
-0.0793886
-0.0827885
-0.0859854
-0.088958
-0.0916852
-0.094147
-0.096324
-0.098198
-0.0997519
-0.10097
-0.101839
-0.102345
-0.102481
-0.102237
-0.101609
-0.100594
-0.0991947
-0.0974139
-0.0952596
-0.0927428
-0.0898784
-0.0866849
-0.0831845
-0.0794033
-0.0753707
-0.0711197
-0.0666863
-0.0621094
-0.0574301
-0.0526916
-0.0479382
-0.043215
-0.0385669
-0.0340382
-0.0296715
-0.0255072
-0.0215824
-0.0179307
-0.014581
-0.0115569
-0.00887678
-0.00655278
-0.00459093
-0.00299109
-0.00174627
-0.000842199
-0.000268909
-3.23453e-05
-9.4371e-05
-0.000632235
-0.00179718
-0.00346986
-0.0055808
-0.00808763
-0.0109478
-0.01412
-0.0175653
-0.0212477
-0.0251327
-0.0291877
-0.0333819
-0.0376858
-0.0420709
-0.04651
-0.0509767
-0.0554455
-0.0598911
-0.0642891
-0.0686153
-0.0728458
-0.076957
-0.0809255
-0.0847281
-0.088342
-0.0917446
-0.0949138
-0.0978279
-0.100466
-0.102808
-0.104834
-0.106527
-0.10787
-0.108848
-0.109447
-0.109658
-0.10947
-0.108879
-0.10788
-0.106473
-0.104662
-0.102453
-0.0998569
-0.0968869
-0.0935615
-0.0899028
-0.0859366
-0.0816931
-0.0772058
-0.0725119
-0.0676518
-0.0626686
-0.0576077
-0.0525163
-0.0474424
-0.0424344
-0.0375401
-0.0328063
-0.0282771
-0.0239941
-0.0199948
-0.0163121
-0.0129741
-0.0100027
-0.00741375
-0.00521687
-0.00341508
-0.00200422
-0.000972312
-0.000312925
-3.83651e-05
-0.000102704
-0.000685809
-0.00194594
-0.00375135
-0.0060246
-0.0087181
-0.0117845
-0.015178
-0.0188565
-0.0227805
-0.0269133
-0.0312204
-0.035669
-0.0402285
-0.0448693
-0.0495633
-0.0542833
-0.0590031
-0.0636971
-0.0683402
-0.0729077
-0.0773753
-0.0817188
-0.0859144
-0.0899385
-0.0937676
-0.0973785
-0.100748
-0.103855
-0.106677
-0.109192
-0.111381
-0.113226
-0.114707
-0.115809
-0.116518
-0.116821
-0.116709
-0.116173
-0.115209
-0.113815
-0.111993
-0.109749
-0.107091
-0.104032
-0.100591
-0.0967878
-0.0926488
-0.088204
-0.0834876
-0.0785378
-0.0733964
-0.0681083
-0.0627214
-0.0572855
-0.0518521
-0.046473
-0.0412003
-0.0360847
-0.031175
-0.0265173
-0.0221536
-0.0181218
-0.0144541
-0.0111768
-0.00831002
-0.00586696
-0.00385417
-0.00227042
-0.00110598
-0.000357837
-4.44101e-05
-0.000110678
-0.000737143
-0.00208861
-0.00402153
-0.00645092
-0.0093242
-0.0125894
-0.0161967
-0.0201003
-0.0242581
-0.0286308
-0.0331819
-0.0378772
-0.0426846
-0.0475737
-0.0525154
-0.057482
-0.0624466
-0.0673832
-0.0722664
-0.077071
-0.0817724
-0.0863462
-0.090768
-0.0950139
-0.0990598
-0.102882
-0.106458
-0.109763
-0.112777
-0.115476
-0.117839
-0.119848
-0.121482
-0.122725
-0.123561
-0.123976
-0.123957
-0.123497
-0.122589
-0.121229
-0.119417
-0.117158
-0.114458
-0.11133
-0.10779
-0.103857
-0.0995585
-0.0949232
-0.0899858
-0.0847853
-0.0793648
-0.0737711
-0.0680544
-0.0622675
-0.0564652
-0.0507033
-0.045038
-0.0395249
-0.0342176
-0.0291672
-0.024421
-0.0200219
-0.0160071
-0.0124078
-0.00924845
-0.0065465
-0.00431218
-0.00254737
-0.00124459
-0.000404187
-5.05778e-05
-0.000118286
-0.000786155
-0.0022249
-0.00427977
-0.00685866
-0.00990427
-0.0133602
-0.0171729
-0.0212931
-0.0256759
-0.0302797
-0.0350662
-0.0399997
-0.0450468
-0.0501761
-0.0553579
-0.060564
-0.0657669
-0.0709403
-0.0760584
-0.081096
-0.0860281
-0.09083
-0.0954772
-0.0999454
-0.10421
-0.108248
-0.112034
-0.115545
-0.118759
-0.121652
-0.124202
-0.126389
-0.128192
-0.129592
-0.130573
-0.131119
-0.131216
-0.130853
-0.130023
-0.128719
-0.12694
-0.124687
-0.121967
-0.118789
-0.115168
-0.111124
-0.10668
-0.101866
-0.0967171
-0.0912724
-0.0855761
-0.0796769
-0.0736273
-0.0674829
-0.0613023
-0.0551454
-0.049073
-0.0431457
-0.0374226
-0.0319602
-0.0268117
-0.0220255
-0.0176444
-0.013705
-0.0102367
-0.00726143
-0.00479342
-0.00283788
-0.0013897
-0.000452563
-5.69707e-05
-0.000125516
-0.000832742
-0.00235448
-0.0045254
-0.00724668
-0.0104566
-0.0140947
-0.0181035
-0.0224309
-0.0270291
-0.0318546
-0.0368671
-0.0420295
-0.0473073
-0.0526683
-0.0580822
-0.06352
-0.0689542
-0.0743581
-0.0797058
-0.0849719
-0.0901312
-0.095159
-0.100031
-0.104722
-0.109207
-0.113463
-0.117465
-0.12119
-0.124612
-0.127709
-0.130459
-0.132838
-0.134825
-0.1364
-0.137545
-0.138242
-0.138476
-0.138234
-0.137504
-0.13628
-0.134558
-0.132336
-0.129618
-0.126412
-0.122731
-0.118593
-0.114021
-0.109043
-0.103694
-0.0980129
-0.0920458
-0.0858426
-0.0794579
-0.0729506
-0.0663829
-0.059819
-0.0533247
-0.046966
-0.0408079
-0.0349132
-0.0293411
-0.0241464
-0.0193782
-0.0150788
-0.0112831
-0.00801815
-0.00530252
-0.00314499
-0.00154296
-0.000503588
-6.36937e-05
-0.00013235
-0.000876777
-0.00247698
-0.00475769
-0.00761379
-0.0109794
-0.0147903
-0.0189854
-0.0235098
-0.0283133
-0.03335
-0.0385783
-0.0439596
-0.0494584
-0.0550418
-0.0606788
-0.0663401
-0.071998
-0.0776256
-0.0831968
-0.0886863
-0.0940689
-0.0993198
-0.104414
-0.109328
-0.114036
-0.118514
-0.122737
-0.12668
-0.13032
-0.133632
-0.136592
-0.139177
-0.141365
-0.143133
-0.144461
-0.14533
-0.145723
-0.145624
-0.14502
-0.143901
-0.142259
-0.140093
-0.137402
-0.134193
-0.130475
-0.126265
-0.121583
-0.116457
-0.110922
-0.105016
-0.0987852
-0.0922813
-0.0855614
-0.0786871
-0.0717244
-0.0647422
-0.0578115
-0.0510042
-0.0443915
-0.038043
-0.032025
-0.0263989
-0.0212209
-0.0165397
-0.0123964
-0.00882339
-0.00584434
-0.00347186
-0.00170607
-0.000557901
-7.08534e-05
-0.000138766
-0.000918115
-0.00259201
-0.00497587
-0.00795873
-0.0114709
-0.0154445
-0.0198155
-0.024526
-0.0295235
-0.0347605
-0.0401935
-0.0457828
-0.0514921
-0.0572877
-0.0631381
-0.0690139
-0.074887
-0.0807305
-0.0865184
-0.0922255
-0.0978266
-0.103297
-0.108612
-0.113748
-0.118679
-0.12338
-0.127828
-0.131997
-0.135861
-0.139398
-0.14258
-0.145385
-0.147788
-0.149767
-0.151297
-0.15236
-0.152934
-0.153002
-0.152548
-0.15156
-0.150027
-0.147943
-0.145306
-0.142119
-0.138389
-0.13413
-0.129361
-0.124108
-0.118402
-0.112285
-0.1058
-0.0990018
-0.0919487
-0.0847055
-0.0773417
-0.0699312
-0.0625504
-0.0552775
-0.0481905
-0.0413664
-0.0348789
-0.0287973
-0.0231851
-0.0180985
-0.0135853
-0.00968407
-0.0064239
-0.00382174
-0.00188082
-0.00061616
-7.85577e-05
-0.000144739
-0.000956599
-0.00269911
-0.0051791
-0.0082802
-0.0119292
-0.016055
-0.0205906
-0.0254755
-0.0306552
-0.0360803
-0.0417061
-0.0474917
-0.0534
-0.0593967
-0.0654499
-0.07153
-0.0776089
-0.0836597
-0.0896565
-0.0955742
-0.101388
-0.107073
-0.112606
-0.117961
-0.123114
-0.128041
-0.132716
-0.137115
-0.141211
-0.14498
-0.148396
-0.151433
-0.154066
-0.156271
-0.158023
-0.159299
-0.160077
-0.160337
-0.160059
-0.159228
-0.157831
-0.155858
-0.153304
-0.150168
-0.146454
-0.142173
-0.137341
-0.131983
-0.126128
-0.119815
-0.113091
-0.106007
-0.0986262
-0.0910147
-0.0832462
-0.0753993
-0.0675561
-0.0598015
-0.0522208
-0.044899
-0.0379179
-0.0313555
-0.0252834
-0.0197661
-0.0148588
-0.0106072
-0.00704626
-0.00419795
-0.00206899
-0.000679027
-8.69147e-05
-0.000150239
-0.000992058
-0.00279784
-0.00536653
-0.00857685
-0.0123524
-0.0166191
-0.0213073
-0.0263542
-0.0317034
-0.0373038
-0.0431096
-0.0490789
-0.0551737
-0.0613593
-0.0676037
-0.073877
-0.080151
-0.0863992
-0.0925958
-0.098716
-0.104735
-0.110629
-0.116374
-0.121946
-0.12732
-0.132471
-0.137375
-0.142006
-0.146339
-0.150348
-0.154006
-0.157286
-0.160163
-0.16261
-0.164601
-0.166111
-0.167115
-0.167589
-0.167513
-0.166867
-0.165635
-0.163803
-0.161362
-0.158307
-0.15464
-0.150367
-0.145501
-0.140064
-0.134084
-0.127597
-0.120649
-0.113295
-0.105594
-0.0976188
-0.089445
-0.0811561
-0.0728404
-0.0645894
-0.0564966
-0.0486552
-0.0411563
-0.0340869
-0.0275281
-0.0215532
-0.0162259
-0.0115997
-0.00771653
-0.00460382
-0.00227239
-0.000747171
-9.60336e-05
-0.000155238
-0.00102432
-0.00288772
-0.00553729
-0.00884733
-0.0127386
-0.0171344
-0.0219625
-0.0271582
-0.0326633
-0.0384254
-0.0443974
-0.0505366
-0.0568045
-0.0631659
-0.0695886
-0.0760426
-0.0825
-0.0889343
-0.0953203
-0.101633
-0.107849
-0.113944
-0.119895
-0.125678
-0.131268
-0.136642
-0.141774
-0.146639
-0.151211
-0.155465
-0.159371
-0.162905
-0.166037
-0.16874
-0.170987
-0.172749
-0.174
-0.174713
-0.174864
-0.174431
-0.173393
-0.171732
-0.169436
-0.166496
-0.162908
-0.158676
-0.153808
-0.148323
-0.142245
-0.13561
-0.128462
-0.120853
-0.112847
-0.104516
-0.09594
-0.087207
-0.0784113
-0.0696517
-0.0610298
-0.0526479
-0.044607
-0.0370042
-0.0299308
-0.02347
-0.0176953
-0.0126686
-0.00843978
-0.00504267
-0.00249282
-0.000821263
-0.000106024
-0.000159706
-0.00105321
-0.0029683
-0.00569053
-0.0090903
-0.0130859
-0.0175982
-0.0225529
-0.0278835
-0.0335302
-0.0394394
-0.045563
-0.0518575
-0.0582839
-0.0648067
-0.0713936
-0.0780146
-0.0846421
-0.0912498
-0.0978129
-0.104307
-0.110709
-0.116996
-0.123144
-0.129131
-0.134931
-0.140523
-0.14588
-0.150977
-0.15579
-0.16029
-0.164451
-0.168244
-0.171641
-0.174612
-0.177128
-0.179159
-0.180677
-0.181651
-0.182055
-0.181861
-0.181047
-0.17959
-0.177473
-0.174682
-0.171209
-0.167054
-0.162219
-0.15672
-0.150578
-0.143825
-0.136503
-0.128664
-0.120371
-0.111697
-0.102727
-0.0935522
-0.0842728
-0.0749951
-0.0658294
-0.0568876
-0.0482813
-0.0401186
-0.0325023
-0.0255265
-0.0192753
-0.0138206
-0.00922099
-0.00551781
-0.0027321
-0.000901976
-0.000116996
-0.000163614
-0.00107855
-0.00303912
-0.00582542
-0.0093045
-0.0133925
-0.0180082
-0.0230756
-0.0285264
-0.0342996
-0.0403405
-0.0466
-0.0530341
-0.0596033
-0.0662719
-0.0730076
-0.0797805
-0.0865633
-0.09333
-0.100056
-0.106719
-0.113295
-0.119761
-0.126096
-0.132276
-0.138278
-0.14408
-0.149656
-0.154982
-0.160032
-0.164779
-0.169196
-0.173253
-0.176921
-0.180169
-0.182967
-0.185282
-0.187084
-0.18834
-0.18902
-0.189093
-0.188532
-0.187311
-0.185407
-0.182802
-0.179482
-0.175442
-0.170681
-0.165207
-0.159039
-0.152203
-0.14474
-0.136699
-0.128143
-0.119147
-0.109796
-0.100186
-0.0904235
-0.0806221
-0.0709008
-0.061382
-0.0521884
-0.0434402
-0.0352524
-0.0277316
-0.0209739
-0.0150621
-0.010065
-0.00603247
-0.002992
-0.000989982
-0.000129062
-0.000166934
-0.0011002
-0.00309978
-0.00594122
-0.00948877
-0.0136567
-0.0183623
-0.0235277
-0.0290834
-0.0349673
-0.0411235
-0.0475024
-0.0540594
-0.0607546
-0.0675522
-0.0744199
-0.0813281
-0.0882496
-0.0951592
-0.102033
-0.108848
-0.115583
-0.122215
-0.128722
-0.135084
-0.141277
-0.147279
-0.153066
-0.158613
-0.163895
-0.168885
-0.173556
-0.177877
-0.181819
-0.185351
-0.188439
-0.191051
-0.193152
-0.194709
-0.195687
-0.196052
-0.195773
-0.194819
-0.193163
-0.190782
-0.187656
-0.183773
-0.179127
-0.173722
-0.167569
-0.160693
-0.153127
-0.14492
-0.136133
-0.126839
-0.117127
-0.107095
-0.0968561
-0.0865302
-0.0762457
-0.0661357
-0.056335
-0.0469768
-0.0381896
-0.0300938
-0.0227985
-0.0163994
-0.0109766
-0.00658983
-0.00327431
-0.00108595
-0.000142335
-0.000169642
-0.001118
-0.00314992
-0.00603726
-0.00964207
-0.0138772
-0.0186585
-0.0239068
-0.0295515
-0.0355294
-0.0417839
-0.0482646
-0.0549267
-0.0617299
-0.0686385
-0.07562
-0.0826452
-0.0896875
-0.096722
-0.103726
-0.110676
-0.117552
-0.124333
-0.130998
-0.137525
-0.143895
-0.150083
-0.156068
-0.161826
-0.167331
-0.172557
-0.177476
-0.182059
-0.186276
-0.190093
-0.193477
-0.196393
-0.198806
-0.200679
-0.201974
-0.202655
-0.202685
-0.20203
-0.200657
-0.198538
-0.195647
-0.191965
-0.187481
-0.182192
-0.176103
-0.169232
-0.161609
-0.153278
-0.144297
-0.134739
-0.124693
-0.11426
-0.103556
-0.092711
-0.0818606
-0.0711494
-0.0607248
-0.0507342
-0.0413208
-0.0326199
-0.0247558
-0.0178382
-0.0119602
-0.00719297
-0.00358075
-0.00119056
-0.000156931
-0.000171718
-0.00113186
-0.00318924
-0.00611302
-0.00976359
-0.0140528
-0.0188952
-0.0242108
-0.0299279
-0.0359825
-0.0423175
-0.0488818
-0.0556302
-0.0625224
-0.0695224
-0.0765982
-0.0837207
-0.0908638
-0.0980032
-0.105117
-0.112182
-0.119181
-0.126091
-0.132894
-0.13957
-0.146097
-0.152456
-0.158623
-0.164577
-0.170292
-0.175742
-0.180901
-0.185739
-0.190224
-0.194325
-0.198006
-0.201232
-0.203965
-0.206166
-0.207795
-0.208812
-0.209177
-0.20885
-0.207795
-0.205975
-0.203362
-0.199928
-0.195655
-0.190532
-0.184559
-0.177747
-0.170118
-0.161713
-0.152584
-0.142803
-0.132457
-0.12165
-0.110503
-0.0991497
-0.0877366
-0.0764192
-0.0653581
-0.0547155
-0.0446508
-0.035316
-0.0268517
-0.0193837
-0.0130201
-0.00784486
-0.00391304
-0.00130445
-0.000172965
-0.000173146
-0.0011417
-0.00321755
-0.00616812
-0.00985275
-0.0141825
-0.0190712
-0.0244381
-0.0302106
-0.0363242
-0.042721
-0.0493498
-0.0561648
-0.0631257
-0.0701966
-0.0773456
-0.0845441
-0.0917664
-0.0989889
-0.10619
-0.113349
-0.120447
-0.127465
-0.134385
-0.141186
-0.147851
-0.154359
-0.16069
-0.166821
-0.172729
-0.178388
-0.183772
-0.188853
-0.193598
-0.197976
-0.201951
-0.205487
-0.208544
-0.211081
-0.213056
-0.214427
-0.215149
-0.215178
-0.214472
-0.212991
-0.210698
-0.207558
-0.203548
-0.198646
-0.192846
-0.18615
-0.178574
-0.170151
-0.160928
-0.150973
-0.140372
-0.129228
-0.117666
-0.105824
-0.0938589
-0.0819363
-0.0702309
-0.0589207
-0.0481824
-0.0381861
-0.0290909
-0.0210405
-0.01416
-0.00854829
-0.0042728
-0.00142831
-0.000190559
-0.00017392
-0.00114746
-0.00323474
-0.0062024
-0.00990927
-0.014266
-0.019186
-0.0245878
-0.0303984
-0.0365526
-0.0429922
-0.0496655
-0.0565265
-0.063535
-0.0706549
-0.0778548
-0.0851063
-0.0923842
-0.0996659
-0.10693
-0.114159
-0.121332
-0.128432
-0.135443
-0.142346
-0.149124
-0.155758
-0.162228
-0.168514
-0.174593
-0.180441
-0.186033
-0.191339
-0.196331
-0.200974
-0.205235
-0.209075
-0.212454
-0.215331
-0.217662
-0.219399
-0.220496
-0.220906
-0.220581
-0.219474
-0.217542
-0.214745
-0.211049
-0.206427
-0.20086
-0.194343
-0.186885
-0.178507
-0.169253
-0.159183
-0.148379
-0.136945
-0.125005
-0.112704
-0.100205
-0.0876861
-0.0753349
-0.0633463
-0.0519155
-0.0412327
-0.0314771
-0.0228126
-0.0153835
-0.00930589
-0.00466164
-0.00156276
-0.000209833
-0.000174037
-0.00114917
-0.00324086
-0.00621592
-0.00993323
-0.0143034
-0.0192395
-0.0246598
-0.0304909
-0.0366671
-0.0431298
-0.049827
-0.0567127
-0.0637465
-0.0708925
-0.0781194
-0.0853994
-0.092708
-0.100023
-0.107325
-0.114595
-0.121816
-0.128971
-0.136046
-0.143022
-0.149885
-0.156617
-0.163199
-0.169613
-0.175837
-0.181849
-0.187625
-0.193136
-0.198354
-0.203246
-0.207779
-0.211913
-0.215609
-0.218824
-0.221512
-0.223625
-0.225112
-0.225923
-0.226004
-0.225306
-0.223776
-0.221368
-0.21804
-0.213755
-0.208485
-0.202216
-0.194944
-0.186684
-0.177469
-0.167351
-0.156408
-0.14474
-0.132472
-0.119751
-0.106747
-0.0936476
-0.0806565
-0.0679847
-0.0558473
-0.0444559
-0.0340124
-0.024703
-0.0166936
-0.01012
-0.00508104
-0.00170846
-0.000230911
-0.000173508
-0.00114688
-0.00323608
-0.006209
-0.00992512
-0.0142953
-0.0192325
-0.0246549
-0.0304886
-0.0366679
-0.0431337
-0.0498339
-0.0567222
-0.0637582
-0.0709062
-0.0781352
-0.0854178
-0.0927302
-0.100051
-0.107361
-0.114644
-0.121883
-0.129063
-0.13617
-0.143189
-0.150105
-0.156903
-0.163566
-0.170077
-0.176416
-0.182563
-0.188494
-0.194183
-0.199603
-0.204722
-0.209507
-0.21392
-0.21792
-0.221466
-0.224508
-0.226999
-0.228885
-0.230112
-0.230624
-0.230363
-0.229273
-0.2273
-0.224392
-0.220504
-0.215598
-0.209647
-0.202638
-0.194573
-0.185474
-0.175386
-0.164378
-0.152544
-0.140006
-0.126915
-0.113444
-0.0997927
-0.0861761
-0.0728237
-0.0599714
-0.0478537
-0.0366974
-0.0267136
-0.0180926
-0.0109928
-0.00553242
-0.00186601
-0.00025392
-0.000172351
-0.00114073
-0.00322076
-0.00618229
-0.00988591
-0.0142429
-0.0191665
-0.0245746
-0.0303935
-0.0365569
-0.0430057
-0.0496873
-0.0565556
-0.0635699
-0.0706949
-0.0778998
-0.0851578
-0.0924456
-0.0997427
-0.107031
-0.114295
-0.12152
-0.128691
-0.135797
-0.142824
-0.149758
-0.156587
-0.163296
-0.169869
-0.176289
-0.182536
-0.188589
-0.194425
-0.200017
-0.205335
-0.210347
-0.215016
-0.219303
-0.223165
-0.226554
-0.229419
-0.231707
-0.233361
-0.23432
-0.234522
-0.233906
-0.232409
-0.229972
-0.22654
-0.222064
-0.216505
-0.209838
-0.202052
-0.193156
-0.183184
-0.172194
-0.160272
-0.147537
-0.134138
-0.120252
-0.106086
-0.091868
-0.0778461
-0.0642773
-0.051421
-0.0395306
-0.0288452
-0.0195823
-0.0119261
-0.00601704
-0.00203601
-0.000278989
-0.000170597
-0.0011309
-0.00319542
-0.00613679
-0.00981709
-0.0141483
-0.0190439
-0.024422
-0.0302086
-0.0363373
-0.0427488
-0.0493903
-0.0562154
-0.0631837
-0.0702599
-0.0774135
-0.0846182
-0.0918515
-0.0990938
-0.106328
-0.11354
-0.120715
-0.127843
-0.134911
-0.141908
-0.148823
-0.155645
-0.16236
-0.168956
-0.175417
-0.181727
-0.187865
-0.19381
-0.199539
-0.205022
-0.21023
-0.215128
-0.219677
-0.223835
-0.227554
-0.230785
-0.233472
-0.235555
-0.236972
-0.237658
-0.237544
-0.236561
-0.234643
-0.231724
-0.227744
-0.222653
-0.21641
-0.208991
-0.200391
-0.190629
-0.17975
-0.167832
-0.154984
-0.141351
-0.127113
-0.112482
-0.0976993
-0.083029
-0.0687505
-0.0551496
-0.0425086
-0.0310971
-0.0211637
-0.0129211
-0.00653604
-0.00221902
-0.000306246
-0.000168291
-0.00111769
-0.00316084
-0.00607387
-0.00972074
-0.0140142
-0.0188682
-0.024201
-0.0299386
-0.0360142
-0.0423682
-0.0489478
-0.0557065
-0.0626038
-0.0696046
-0.0766788
-0.0838006
-0.0909482
-0.0981029
-0.105249
-0.112373
-0.119463
-0.126508
-0.133499
-0.140426
-0.147281
-0.154054
-0.160734
-0.16731
-0.17377
-0.180099
-0.186279
-0.192293
-0.198118
-0.203728
-0.209096
-0.214188
-0.218969
-0.223396
-0.227424
-0.231003
-0.234078
-0.236588
-0.238468
-0.239649
-0.240059
-0.239624
-0.238267
-0.235914
-0.232495
-0.227945
-0.22221
-0.21525
-0.207044
-0.197594
-0.18693
-0.175116
-0.162251
-0.148473
-0.133961
-0.118929
-0.10363
-0.0883434
-0.0733717
-0.0590278
-0.0456253
-0.0334674
-0.0228367
-0.013979
-0.00709036
-0.00241558
-0.000335822
-0.000165489
-0.00110144
-0.00311799
-0.00599535
-0.00959963
-0.0138445
-0.0186443
-0.0239174
-0.0295896
-0.0355942
-0.0418711
-0.0483673
-0.0550362
-0.0618372
-0.0687355
-0.0757014
-0.0827096
-0.0897391
-0.0967722
-0.103794
-0.110793
-0.117758
-0.124681
-0.131554
-0.138369
-0.14512
-0.151799
-0.158398
-0.164909
-0.171321
-0.177623
-0.1838
-0.189836
-0.195712
-0.201406
-0.206892
-0.212139
-0.217113
-0.221777
-0.226085
-0.229989
-0.233433
-0.236358
-0.238697
-0.24038
-0.24133
-0.241467
-0.240708
-0.238971
-0.236172
-0.232236
-0.227092
-0.220684
-0.212973
-0.203943
-0.193606
-0.182008
-0.169235
-0.155415
-0.140719
-0.125365
-0.109611
-0.0937536
-0.0781161
-0.06304
-0.048872
-0.0359519
-0.0246004
-0.0151
-0.00768075
-0.00262614
-0.000367848
-0.000162268
-0.00108263
-0.00306814
-0.00590353
-0.00945724
-0.0136437
-0.0183779
-0.023578
-0.0291699
-0.0350862
-0.0412669
-0.0476584
-0.0542141
-0.0608935
-0.0676619
-0.07449
-0.0813531
-0.0882311
-0.0951074
-0.101968
-0.108803
-0.115604
-0.122362
-0.129073
-0.135731
-0.142332
-0.14887
-0.15534
-0.161737
-0.168052
-0.174277
-0.180401
-0.18641
-0.192289
-0.198017
-0.203574
-0.208931
-0.214057
-0.218917
-0.223469
-0.227667
-0.231456
-0.234777
-0.237564
-0.239745
-0.241241
-0.241968
-0.241836
-0.240756
-0.238633
-0.235377
-0.230905
-0.225142
-0.218031
-0.209533
-0.199642
-0.188382
-0.175822
-0.162074
-0.147301
-0.131717
-0.115586
-0.099217
-0.0829536
-0.0671663
-0.0522371
-0.038545
-0.0264525
-0.016284
-0.00830772
-0.00285115
-0.000402453
-0.000158717
-0.00106183
-0.00301281
-0.00580125
-0.00929788
-0.0134179
-0.0180765
-0.0231918
-0.0286894
-0.0345014
-0.0405674
-0.0468336
-0.0532531
-0.0597855
-0.0663963
-0.0730566
-0.0797425
-0.0864347
-0.0931177
-0.0997794
-0.10641
-0.113004
-0.119554
-0.126058
-0.132513
-0.138915
-0.145264
-0.151555
-0.157786
-0.163952
-0.170048
-0.176065
-0.181994
-0.187823
-0.193534
-0.19911
-0.204527
-0.209758
-0.214769
-0.219523
-0.223976