/*--------------------------------*- C++ -*----------------------------------*\
  =========                 |
  \\      /  F ield         | OpenFOAM: The Open Source CFD Toolbox
   \\    /   O peration     | Website:  https://openfoam.org
    \\  /    A nd           | Version:  dev
     \\/     M anipulation  |
\*---------------------------------------------------------------------------*/
FoamFile
{
    format      ascii;
    class       volScalarField;
    location    "31.05";
    object      Uy;
}
// * * * * * * * * * * * * * * * * * * * * * * * * * * * * * * * * * * * * * //

dimensions      [0 1 -1 0 0 0 0];

internalField   nonuniform List<scalar> 
5184
(
-1.27196e-05
-2.08944e-05
-1.7249e-05
-8.19561e-06
2.66996e-06
1.3618e-05
2.38455e-05
3.30471e-05
4.11039e-05
4.80218e-05
5.38622e-05
5.87099e-05
6.26574e-05
6.57959e-05
6.82103e-05
6.99759e-05
7.11569e-05
7.18058e-05
7.19633e-05
7.16592e-05
7.09129e-05
6.97347e-05
6.81277e-05
6.60887e-05
6.36106e-05
6.06836e-05
5.72972e-05
5.34418e-05
4.91103e-05
4.42998e-05
3.90126e-05
3.32581e-05
2.70535e-05
2.04247e-05
1.34074e-05
6.0474e-06
-1.59928e-06
-9.46616e-06
-1.74767e-05
-2.55451e-05
-3.35768e-05
-4.14703e-05
-4.91186e-05
-5.64107e-05
-6.32338e-05
-6.9476e-05
-7.50287e-05
-7.97887e-05
-8.36616e-05
-8.65636e-05
-8.84242e-05
-8.91881e-05
-8.88171e-05
-8.72915e-05
-8.46108e-05
-8.07945e-05
-7.58819e-05
-6.99316e-05
-6.30212e-05
-5.5247e-05
-4.6723e-05
-3.75822e-05
-2.79794e-05
-1.8097e-05
-8.1601e-06
1.53628e-06
1.05683e-05
1.82987e-05
2.37151e-05
2.51258e-05
1.98461e-05
6.24219e-06
-4.59015e-05
-6.57194e-05
-4.05597e-05
7.63498e-06
6.56788e-05
0.000125989
0.000184288
0.000238331
0.000286976
0.000329783
0.000366711
0.000397949
0.00042381
0.000444661
0.000460877
0.000472819
0.000480808
0.00048512
0.000485979
0.000483555
0.000477971
0.000469303
0.000457589
0.000442838
0.000425038
0.000404167
0.0003802
0.000353119
0.000322926
0.000289647
0.000253342
0.000214115
0.000172115
0.000127544
8.0664e-05
3.17924e-05
-1.86917e-05
-7.035e-05
-0.000122688
-0.000175157
-0.000227164
-0.000278077
-0.000327235
-0.000373958
-0.000417562
-0.000457372
-0.000492735
-0.000523038
-0.000547718
-0.000566281
-0.000578315
-0.000583501
-0.000581621
-0.000572574
-0.000556374
-0.000533161
-0.000503199
-0.000466877
-0.000424709
-0.000377336
-0.000325526
-0.000270184
-0.000212371
-0.000153338
-9.45973e-05
-3.80259e-05
1.39158e-05
5.79224e-05
8.94009e-05
0.000101855
8.65158e-05
3.64853e-05
-8.13162e-05
-9.50355e-05
-1.91333e-05
0.000105928
0.000254644
0.00041057
0.000563397
0.000706987
0.000837892
0.000954405
0.00105593
0.00114257
0.00121482
0.00127342
0.00131919
0.00135295
0.00137547
0.00138743
0.00138938
0.00138178
0.00136495
0.00133911
0.00130439
0.00126085
0.00120851
0.00114736
0.00107737
0.00099858
0.00091104
0.000814892
0.000710367
0.000597812
0.000477698
0.000350641
0.000217407
7.89182e-05
-6.37439e-05
-0.000209344
-0.0003565
-0.000503694
-0.00064929
-0.000791556
-0.00092869
-0.00105885
-0.00118018
-0.00129087
-0.00138915
-0.0014734
-0.00154209
-0.00159393
-0.00162781
-0.00164288
-0.0016386
-0.0016147
-0.00157125
-0.00150866
-0.00142767
-0.00132937
-0.00121523
-0.00108704
-0.000946971
-0.000797602
-0.000641934
-0.000483501
-0.000326499
-0.00017602
-3.83776e-05
7.84106e-05
0.000164049
0.000205373
0.00018627
9.03899e-05
-9.77431e-05
-7.31432e-05
8.47835e-05
0.000318352
0.000590067
0.000874306
0.00115404
0.00141848
0.00166116
0.00187855
0.00206908
0.0022325
0.00236939
0.00248076
0.0025679
0.00263213
0.00267474
0.00269687
0.00269952
0.00268346
0.00264929
0.00259745
0.0025282
0.0024417
0.00233802
0.00221722
0.00207935
0.00192452
0.00175293
0.00156494
0.00136107
0.00114205
0.00090886
0.00066274
0.000405203
0.000138048
-0.000136633
-0.000416472
-0.000698834
-0.000980841
-0.00125941
-0.00153127
-0.00179307
-0.00204134
-0.00227265
-0.00248362
-0.00267098
-0.0028317
-0.00296299
-0.00306244
-0.00312802
-0.00315819
-0.00315192
-0.00310877
-0.00302889
-0.00291306
-0.00276272
-0.00257995
-0.00236753
-0.0021289
-0.00186822
-0.00159037
-0.00130108
-0.00100701
-0.000715983
-0.000437273
-0.000182021
3.61613e-05
0.000200559
0.000290782
0.000282534
0.000147277
-8.4404e-05
2.09005e-05
0.000295444
0.000668
0.00109077
0.00152983
0.00196175
0.00237106
0.00274803
0.00308703
0.00338529
0.00364198
0.00385757
0.0040333
0.00417082
0.00427196
0.00433851
0.00437212
0.0043742
0.00434594
0.00428824
0.00420176
0.00408695
0.00394412
0.00377346
0.00357512
0.00334929
0.00309624
0.00281642
0.00251049
0.0021794
0.00182442
0.0014472
0.00104979
0.000634666
0.000204757
-0.000236581
-0.000685559
-0.00113799
-0.00158932
-0.00203467
-0.00246894
-0.00288683
-0.00328296
-0.00365193
-0.0039885
-0.00428758
-0.00454445
-0.00475479
-0.00491485
-0.00502151
-0.00507236
-0.00506585
-0.00500129
-0.00487893
-0.00470005
-0.0044669
-0.00418282
-0.00385218
-0.00348044
-0.00307417
-0.00264113
-0.00219029
-0.00173206
-0.00127851
-0.000843662
-0.000444023
-9.91488e-05
0.000167625
0.000328568
0.000350945
0.000194127
-3.75201e-05
0.000197368
0.000626885
0.00117029
0.00177164
0.00239007
0.00299653
0.00357122
0.00410129
0.00457899
0.00500023
0.00536351
0.00566909
0.00591833
0.00611322
0.006256
0.00634898
0.00639427
0.00639375
0.00634898
0.0062612
0.00613134
0.00596006
0.00574785
0.00549505
0.00520199
0.00486904
0.00449674
0.00408584
0.00363744
0.00315302
0.00263455
0.00208451
0.00150593
0.00090247
0.000278379
-0.000361478
-0.00101165
-0.00166612
-0.0023184
-0.00296155
-0.00358831
-0.00419118
-0.00476253
-0.00529477
-0.00578048
-0.0062125
-0.00658417
-0.00688944
-0.007123
-0.00728045
-0.00735844
-0.00735476
-0.00726845
-0.00709989
-0.00685088
-0.00652465
-0.00612593
-0.00566095
-0.00513748
-0.00456488
-0.00395411
-0.00331788
-0.0026708
-0.00202957
-0.0014134
-0.000844421
-0.000348316
4.49395e-05
0.000300406
0.000377273
0.0002245
4.41044e-05
0.000461266
0.00108702
0.00183463
0.00264221
0.00346355
0.004265
0.00502312
0.0057223
0.00635284
0.00690943
0.00738992
0.0077943
0.00812401
0.00838133
0.0085689
0.00868948
0.00874565
0.00873973
0.00867366
0.00854903
0.00836703
0.00812857
0.00783435
0.0074849
0.00708078
0.00662262
0.00611126
0.0055479
0.00493414
0.00427213
0.00356465
0.00281515
0.00202784
0.00120769
0.000360498
-0.00050718
-0.00138801
-0.00227394
-0.0031563
-0.00402584
-0.00487291
-0.00568755
-0.00645966
-0.0071792
-0.00783632
-0.00842157
-0.00892615
-0.00934202
-0.00966218
-0.0098808
-0.00999342
-0.0099971
-0.00989056
-0.00967429
-0.00935063
-0.00892387
-0.00840026
-0.00778808
-0.00709764
-0.00634131
-0.00553362
-0.00469131
-0.00383347
-0.00298179
-0.00216088
-0.00139865
-0.000726955
-0.00018229
0.000193539
0.000352417
0.000234966
0.000160466
0.000814465
0.00167964
0.00266601
0.00370788
0.0047552
0.00577095
0.00672884
0.00761107
0.00840638
0.00910842
0.00971447
0.0102244
0.0106396
0.0109628
0.0111969
0.0113451
0.0114104
0.0113957
0.0113031
0.0111347
0.0108919
0.0105759
0.0101875
0.00972766
0.00919708
0.00859674
0.00792787
0.00719214
0.0063918
0.00552975
0.0046097
0.0036362
0.00261475
0.00155182
0.000454875
-0.00066764
-0.00180634
-0.00295094
-0.0040904
-0.00521296
-0.00630638
-0.00735802
-0.0083551
-0.00928489
-0.0101349
-0.0108933
-0.0115487
-0.0120911
-0.0125115
-0.0128026
-0.0129586
-0.0129758
-0.0128524
-0.012589
-0.0121885
-0.0116563
-0.0110002
-0.0102307
-0.00936073
-0.00840597
-0.00738467
-0.00631784
-0.00522929
-0.0041459
-0.00309779
-0.00211877
-0.0012468
-0.000524688
-6.37126e-07
0.000270808
0.000223818
0.000310928
0.00125688
0.00240571
0.00366632
0.00497095
0.00626727
0.00751601
0.00868898
0.00976685
0.0107372
0.0115931
0.0123314
0.0129519
0.0134563
0.0138473
0.0141285
0.0143034
0.0143756
0.0143481
0.0142236
0.0140044
0.0136923
0.0132887
0.0127947
0.0122114
0.01154
0.0107816
0.00993807
0.00901157
0.00800503
0.00692221
0.00576783
0.00454767
0.00326863
0.00193879
0.000567415
-0.000835029
-0.00225695
-0.00368569
-0.00510766
-0.00650844
-0.00787298
-0.00918583
-0.0104313
-0.0115938
-0.012658
-0.0136094
-0.014434
-0.0151195
-0.0156549
-0.0160309
-0.0162404
-0.0162788
-0.0161438
-0.0158359
-0.0153585
-0.0147181
-0.0139242
-0.0129894
-0.0119295
-0.0107636
-0.00951371
-0.00820537
-0.00686728
-0.00553159
-0.00423409
-0.00301445
-0.00191671
-0.000989717
-0.000287647
0.000129337
0.000190405
0.000494588
0.00178726
0.00326434
0.00483516
0.00643141
0.00799978
0.00949994
0.0109027
0.0121879
0.0133426
0.0143595
0.0152354
0.0159703
0.0165662
0.0170261
0.0173541
0.0175541
0.0176301
0.0175856
0.0174237
0.0171469
0.0167572
0.0162565
0.015646
0.0149272
0.0141015
0.0131705
0.0121365
0.0110022
0.0097714
0.00844874
0.00704002
0.0055523
0.00399398
0.00237483
0.000706056
-0.00099978
-0.00272876
-0.00446573
-0.0061944
-0.00789757
-0.00955724
-0.0111549
-0.0126719
-0.0140895
-0.0153895
-0.0165542
-0.0175672
-0.0184134
-0.0190795
-0.0195544
-0.0198294
-0.0198985
-0.019759
-0.0194112
-0.0188589
-0.0181096
-0.0171743
-0.0160681
-0.0148095
-0.0134209
-0.0119286
-0.0103626
-0.00875658
-0.00714809
-0.00557863
-0.00409381
-0.0027436
-0.00158276
-0.000671031
-7.36089e-05
0.000134646
0.000710413
0.00240371
0.00425345
0.00617057
0.00808746
0.009951
0.0117208
0.0133677
0.0148713
0.0162188
0.017403
0.0184212
0.0192734
0.0199623
0.0204915
0.0208653
0.0210883
0.0211649
0.021099
0.0208941
0.020553
0.020078
0.0194712
0.0187342
0.0178686
0.0168763
0.0157593
0.0145202
0.0131627
0.0116912
0.0101112
0.00842971
0.00665519
0.00479754
0.0028683
0.000880649
-0.00115064
-0.00320926
-0.00527744
-0.00733614
-0.00936517
-0.0113435
-0.0132495
-0.0150612
-0.0167567
-0.0183145
-0.0197139
-0.0209355
-0.0219613
-0.0227755
-0.023365
-0.023719
-0.0238305
-0.0236956
-0.0233144
-0.022691
-0.0218338
-0.0207555
-0.0194731
-0.0180082
-0.0163866
-0.0146388
-0.0127992
-0.0109068
-0.0090046
-0.00713986
-0.00536413
-0.00373334
-0.00230801
-0.00115324
-0.000338869
5.67106e-05
0.000957324
0.00310393
0.00537015
0.00766946
0.00993594
0.0121177
0.0141754
0.0160804
0.0178132
0.0193615
0.0207189
0.0218831
0.0228551
0.023638
0.0242361
0.0246544
0.024898
0.0249718
0.0248802
0.024627
0.0242153
0.0236477
0.0229266
0.0220539
0.0210314
0.0198613
0.018546
0.017089
0.0154941
0.0137668
0.0119136
0.00994264
0.00786364
0.00568814
0.00342948
0.00110285
-0.00127474
-0.00368451
-0.00610603
-0.00851739
-0.0108954
-0.0132158
-0.0154537
-0.0175837
-0.0195805
-0.0214192
-0.0230758
-0.0245275
-0.0257535
-0.0267351
-0.0274567
-0.0279056
-0.0280729
-0.0279538
-0.0275478
-0.0268591
-0.0258968
-0.0246751
-0.0232132
-0.0215354
-0.0196712
-0.0176549
-0.015526
-0.0133283
-0.0111107
-0.00892629
-0.00683255
-0.00489142
-0.00316919
-0.00173627
-0.000667007
-4.31858e-05
0.00123423
0.00388538
0.00661102
0.00932791
0.0119727
0.0144956
0.0168591
0.0190362
0.0210087
0.0227655
0.0243015
0.0256153
0.026709
0.0275865
0.0282531
0.0287144
0.0289762
0.029044
0.0289224
0.0286159
0.0281278
0.0274611
0.0266183
0.0256015
0.0244129
0.0230551
0.0215309
0.0198441
0.0179994
0.0160029
0.0138622
0.0115865
0.00918688
0.0066765
0.00407048
0.00138601
-0.00135761
-0.00413913
-0.00693542
-0.00972164
-0.0124715
-0.0151574
-0.0177511
-0.0202236
-0.0225461
-0.0246899
-0.0266276
-0.0283328
-0.0297814
-0.0309518
-0.0318252
-0.0323868
-0.0326258
-0.0325359
-0.0321157
-0.0313695
-0.0303068
-0.028943
-0.0272994
-0.025403
-0.0232868
-0.0209895
-0.0185549
-0.0160326
-0.0134769
-0.010947
-0.00850652
-0.00622352
-0.00417014
-0.00242219
-0.00105867
-0.000164909
0.00154004
0.00474534
0.00797224
0.0111414
0.0141927
0.0170795
0.0197666
0.0222295
0.024452
0.0264249
0.0281446
0.0296114
0.0308286
0.0318013
0.0325358
0.0330386
0.0333162
0.0333748
0.0332196
0.0328552
0.0322856
0.0315139
0.0305428
0.0293748
0.0280123
0.0264581
0.0247156
0.0227888
0.0206833
0.0184058
0.0159648
0.0133706
0.0106358
0.00777499
0.00480499
0.00174505
-0.00138332
-0.00455637
-0.00774825
-0.0109312
-0.0140756
-0.0171508
-0.0201247
-0.0229647
-0.0256383
-0.028113
-0.0303573
-0.0323413
-0.0340371
-0.0354196
-0.0364671
-0.0371618
-0.0374907
-0.0374457
-0.0370245
-0.0362305
-0.0350737
-0.0335706
-0.0317443
-0.0296245
-0.0272476
-0.0246564
-0.0218998
-0.0190325
-0.0161148
-0.013212
-0.0103943
-0.00773595
-0.00531519
-0.00321351
-0.00151483
-0.000308496
0.00187364
0.00568098
0.00944969
0.0131048
0.0165904
0.0198631
0.0228914
0.0256536
0.0281364
0.0303328
0.0322415
0.0338645
0.035207
0.0362754
0.0370773
0.0376202
0.0379117
0.0379583
0.0377661
0.0373401
0.0366845
0.0358028
0.034698
0.0333726
0.0318295
0.0300717
0.0281028
0.0259275
0.0235517
0.0209829
0.0182305
0.0153059
0.0122229
0.00899742
0.00564817
0.00219629
-0.00133453
-0.00491808
-0.00852582
-0.012127
-0.0156889
-0.0191772
-0.0225563
-0.0257899
-0.0288413
-0.031674
-0.0342524
-0.0365424
-0.0385123
-0.040133
-0.0413792
-0.0422302
-0.0426699
-0.0426882
-0.0422812
-0.0414515
-0.0402091
-0.0385711
-0.0365624
-0.0342152
-0.0315692
-0.0286714
-0.0255756
-0.0223421
-0.0190372
-0.0157327
-0.0125053
-0.00943604
-0.00660957
-0.00411344
-0.002037
-0.000474213
0.00223391
0.00668933
0.011039
0.0152128
0.0191593
0.0228398
0.0262265
0.0293014
0.0320544
0.0344817
0.0365844
0.0383671
0.0398367
0.0410015
0.0418705
0.0424526
0.0427561
0.0427886
0.0425566
0.0420658
0.0413207
0.040325
0.039082
0.0375945
0.0358655
0.0338981
0.0316964
0.0292654
0.0266115
0.0237429
0.0206697
0.0174043
0.0139615
0.0103588
0.00661637
0.0027573
-0.00119264
-0.00520487
-0.00924815
-0.0132888
-0.0172909
-0.0212167
-0.0250268
-0.0286809
-0.032138
-0.0353575
-0.0382994
-0.040925
-0.0431982
-0.0450857
-0.0465583
-0.0475914
-0.0481658
-0.0482686
-0.0478939
-0.047043
-0.0457255
-0.043959
-0.0417696
-0.039192
-0.036269
-0.0330519
-0.0295993
-0.0259774
-0.0222588
-0.0185218
-0.0148503
-0.0113324
-0.00805959
-0.0051261
-0.00262731
-0.000662597
0.00261969
0.00776729
0.0127354
0.0174594
0.0218929
0.0260021
0.0297639
0.0331645
0.0361977
0.0388632
0.0411652
0.0431109
0.0447097
0.0459718
0.046908
0.0475285
0.0478428
0.0478595
0.0475858
0.0470278
0.0461905
0.045078
0.0436935
0.0420403
0.0401214
0.0379401
0.0355008
0.0328086
0.0298706
0.0266952
0.0232934
0.0196784
0.015866
0.0118749
0.00772692
0.00344669
-0.000937945
-0.00539612
-0.00989402
-0.0143951
-0.0188601
-0.0232479
-0.0275152
-0.0316177
-0.03551
-0.0391468
-0.0424834
-0.0454765
-0.0480849
-0.0502708
-0.0520002
-0.0532444
-0.0539804
-0.0541919
-0.0538706
-0.0530159
-0.0516363
-0.0497496
-0.0473829
-0.044573
-0.0413658
-0.0378167
-0.0339896
-0.0299562
-0.0257958
-0.0215939
-0.0174418
-0.0134351
-0.00967289
-0.00625669
-0.00328865
-0.000874478
0.00302978
0.0089116
0.014534
0.0198383
0.0247837
0.0293419
0.033495
0.0372341
0.0405573
0.0434682
0.0459747
0.048087
0.0498172
0.0511779
0.0521816
0.0528404
0.053165
0.0531648
0.0528481
0.0522215
0.0512903
0.050059
0.0485311
0.0467099
0.0445985
0.0422005
0.0395202
0.0365632
0.0333366
0.0298494
0.0261131
0.0221414
0.0179513
0.0135624
0.00899785
0.00428388
-0.000549822
-0.00547023
-0.010441
-0.0154229
-0.0203735
-0.025248
-0.0299993
-0.0345789
-0.0389369
-0.0430231
-0.0467878
-0.0501825
-0.0531607
-0.0556793
-0.0576993
-0.0591869
-0.0601147
-0.0604627
-0.0602189
-0.0593807
-0.0579549
-0.0559588
-0.0534202
-0.0503775
-0.0468799
-0.0429866
-0.0387666
-0.0342978
-0.0296664
-0.0249654
-0.0202939
-0.0157558
-0.0114585
-0.00751155
-0.00402468
-0.001111
0.00346292
0.0101188
0.0164296
0.0223428
0.0278239
0.0328506
0.0374107
0.0415005
0.0451232
0.0482868
0.051003
0.0532857
0.0551498
0.0566105
0.0576828
0.0583801
0.0587148
0.0586976
0.0583374
0.0576415
0.0566158
0.0552651
0.0535929
0.0516028
0.0492979
0.0466819
0.043759
0.0405351
0.0370173
0.0332151
0.02914
0.0248066
0.0202324
0.015438
0.0104476
0.00528878
-6.98364e-06
-0.00540473
-0.0108659
-0.0163482
-0.0218065
-0.0271924
-0.0324549
-0.037541
-0.0423964
-0.0469657
-0.0511938
-0.0550266
-0.0584118
-0.0613005
-0.0636479
-0.0654147
-0.0665683
-0.0670839
-0.0669457
-0.0661476
-0.0646946
-0.0626026
-0.0598998
-0.0566259
-0.0528327
-0.0485835
-0.0439525
-0.0390238
-0.0338908
-0.0286546
-0.0234227
-0.0183081
-0.0134272
-0.00889827
-0.00483992
-0.00137364
0.00391777
0.0113853
0.0184165
0.0249658
0.0310053
0.0365189
0.041501
0.0459535
0.049885
0.0533083
0.0562396
0.0586964
0.0606972
0.0622599
0.0634019
0.0641386
0.0644841
0.0644502
0.0640468
0.0632821
0.0621623
0.0606925
0.0588766
0.056718
0.05422
0.0513862
0.0482209
0.0447297
0.04092
0.0368012
0.0323852
0.0276869
0.0227241
0.0175183
0.0120945
0.00648153
0.000712237
-0.00517661
-0.0111442
-0.017146
-0.0231336
-0.0290552
-0.0348561
-0.0404788
-0.045864
-0.0509514
-0.0556799
-0.0599895
-0.0638216
-0.0671208
-0.069836
-0.0719214
-0.0733385
-0.0740569
-0.074056
-0.0733257
-0.0718679
-0.0696969
-0.0668403
-0.0633388
-0.0592466
-0.0546308
-0.0495707
-0.0441571
-0.0384909
-0.0326817
-0.0268463
-0.0211073
-0.015591
-0.0104257
-0.00573976
-0.0016642
0.00439294
0.0127073
0.020489
0.0276998
0.0343188
0.040337
0.0457552
0.0505818
0.0548311
0.0585212
0.0616728
0.0643078
0.0664483
0.0681153
0.0693286
0.0701062
0.0704636
0.0704141
0.0699688
0.0691364
0.0679239
0.0663366
0.0643786
0.0620534
0.0593642
0.0563144
0.0529084
0.0491514
0.0450509
0.040616
0.0358589
0.0307943
0.0254406
0.0198195
0.0139567
0.00788208
0.00162955
-0.00476253
-0.0112515
-0.0177903
-0.0243278
-0.030809
-0.0371752
-0.0433646
-0.0493129
-0.0549543
-0.0602219
-0.065049
-0.0693704
-0.0731236
-0.0762502
-0.0786974
-0.0804197
-0.0813803
-0.0815527
-0.080922
-0.079486
-0.0772565
-0.0742598
-0.0705371
-0.0661445
-0.0611527
-0.0556463
-0.0497226
-0.0434906
-0.037069
-0.0305845
-0.0241704
-0.0179638
-0.0121042
-0.00673046
-0.00198482
0.00488692
0.0140806
0.0226408
0.0305368
0.0377552
0.0442944
0.0501622
0.0553737
0.0599494
0.063913
0.0672903
0.0701077
0.072391
0.0741647
0.0754516
0.0762718
0.0766429
0.0765797
0.0760943
0.0751965
0.0738937
0.0721915
0.0700944
0.0676057
0.0647285
0.0614663
0.0578228
0.0538033
0.0494148
0.0446664
0.0395698
0.0341399
0.0283948
0.0223567
0.0160515
0.00950977
0.0027663
-0.00413926
-0.0111626
-0.0182546
-0.0253614
-0.032425
-0.0393828
-0.0461688
-0.0527137
-0.0589459
-0.0647923
-0.0701795
-0.0750349
-0.0792883
-0.0828734
-0.0857294
-0.0878029
-0.0890496
-0.089436
-0.0889412
-0.0875581
-0.0852949
-0.0821757
-0.0782415
-0.0735497
-0.0681744
-0.0622053
-0.0557466
-0.0489155
-0.0418406
-0.0346593
-0.0275164
-0.0205611
-0.013945
-0.00781919
-0.00233798
0.00539815
0.0155011
0.0248654
0.0334684
0.0413045
0.04838
0.05471
0.0603167
0.065227
0.0694706
0.0730788
0.0760827
0.0785122
0.0803956
0.0817585
0.0826236
0.0830107
0.0829362
0.0824134
0.0814531
0.0800632
0.0782499
0.0760176
0.0733698
0.0703095
0.0668395
0.0629637
0.0586866
0.054015
0.0489574
0.0435251
0.0377328
0.0315983
0.0251437
0.018395
0.0113829
0.00414306
-0.00328406
-0.0108528
-0.0185121
-0.0262061
-0.0338734
-0.0414481
-0.0488599
-0.0560345
-0.0628945
-0.0693605
-0.0753517
-0.0807878
-0.0855904
-0.0896843
-0.0929999
-0.0954748
-0.0970561
-0.0977022
-0.0973848
-0.0960907
-0.0938233
-0.0906037
-0.0864715
-0.081485
-0.0757212
-0.0692746
-0.0622565
-0.0547928
-0.0470224
-0.0390945
-0.0311662
-0.0234001
-0.0159612
-0.00901402
-0.00272651
0.00592494
0.0169641
0.0271558
0.0364856
0.0449563
0.0525821
0.0593859
0.0653973
0.07065
0.0751801
0.0790242
0.0822187
0.0847979
0.0867939
0.0882355
0.0891483
0.0895542
0.0894713
0.0889144
0.0878952
0.0864225
0.0845026
0.0821403
0.079339
0.0761014
0.0724301
0.0683284
0.0638005
0.0588522
0.0534918
0.0477298
0.0415802
0.0350605
0.0281922
0.0210012
0.0135183
0.0057791
-0.00217515
-0.0102978
-0.0185365
-0.026833
-0.0351236
-0.043339
-0.0514046
-0.0592412
-0.0667659
-0.0738923
-0.0805325
-0.0865978
-0.0920008
-0.0966569
-0.100487
-0.103417
-0.105387
-0.106343
-0.10625
-0.105087
-0.10285
-0.0995574
-0.0952455
-0.0899727
-0.0838183
-0.0768817
-0.0692809
-0.061151
-0.052642
-0.0439154
-0.0351423
-0.0264995
-0.0181669
-0.0103239
-0.00315357
0.00646553
0.0184649
0.0295047
0.0395793
0.0486997
0.0568885
0.0641768
0.0706017
0.0762041
0.0810264
0.0851114
0.0885005
0.0912329
0.0933446
0.0948679
0.0958313
0.096259
0.0961712
0.0955841
0.0945103
0.0929595
0.0909386
0.0884523
0.0855041
0.0820964
0.0782314
0.0739119
0.0691413
0.0639249
0.0582698
0.052186
0.0456866
0.0387882
0.0315117
0.0238823
0.0159305
0.00769187
-0.000792273
-0.00947464
-0.0183018
-0.0272138
-0.0361448
-0.0450222
-0.0537678
-0.0622975
-0.0705227
-0.0783503
-0.0856847
-0.0924287
-0.0984853
-0.10376
-0.108161
-0.111607
-0.114023
-0.115346
-0.11553
-0.114545
-0.112381
-0.109047
-0.104579
-0.0990334
-0.0924904
-0.0850538
-0.0768488
-0.0680199
-0.0587283
-0.0491494
-0.0394689
-0.0298796
-0.0205776
-0.0117587
-0.00362268
0.00701808
0.0199986
0.0319047
0.0427396
0.0525232
0.0612864
0.0690688
0.0759152
0.0818738
0.0869939
0.0913243
0.094912
0.097801
0.100031
0.10164
0.102657
0.10311
0.103021
0.102407
0.101284
0.0996604
0.0975445
0.0949411
0.0918535
0.0882839
0.0842342
0.0797062
0.0747028
0.0692282
0.0632886
0.0568931
0.0500534
0.0427852
0.0351084
0.0270474
0.0186317
0.00989644
0.000882772
-0.00836188
-0.0177834
-0.0273209
-0.0369062
-0.0464644
-0.0559135
-0.0651652
-0.0741251
-0.0826937
-0.0907674
-0.09824
-0.105005
-0.110956
-0.115991
-0.120014
-0.122939
-0.124691
-0.125212
-0.124459
-0.122414
-0.11908
-0.114486
-0.108686
-0.10176
-0.0938179
-0.0849896
-0.0754296
-0.0653116
-0.054825
-0.0441719
-0.0335622
-0.0232101
-0.0133292
-0.00413769
0.00758067
0.02156
0.0343479
0.0459567
0.056415
0.0657627
0.0740476
0.0813226
0.0876434
0.0930662
0.0976462
0.101436
0.104485
0.106837
0.108533
0.109607
0.110089
0.110002
0.109367
0.108199
0.106509
0.104305
0.101592
0.0983731
0.0946508
0.0904261
0.0857002
0.0804751
0.074754
0.0685419
0.0618465
0.0546784
0.0470519
0.0389854
0.0305022
0.0216306
0.0124049
0.00286551
-0.00694046
-0.0169588
-0.0271277
-0.0373778
-0.047632
-0.0578052
-0.0678048
-0.0775313
-0.0868786
-0.0957354
-0.103986
-0.111514
-0.118202
-0.123934
-0.128602
-0.132104
-0.134352
-0.135274
-0.134816
-0.132946
-0.129658
-0.124974
-0.118944
-0.11165
-0.1032
-0.0937321
-0.0834111
-0.0724228
-0.0609721
-0.0492784
-0.0375706
-0.0260823
-0.0150469
-0.0047028
0.0081513
0.0231437
0.0368261
0.04922
0.0603629
0.0703035
0.0790982
0.086808
0.0934961
0.0992261
0.104059
0.108055
0.111266
0.113743
0.115529
0.116663
0.117177
0.117097
0.116445
0.115238
0.113487
0.111201
0.108386
0.105046
0.101181
0.0967916
0.0918796
0.0864452
0.0804906
0.0740195
0.0670381
0.0595555
0.0515843
0.0431415
0.0342485
0.0249324
0.0152258
0.00516816
-0.00519425
-0.0158076
-0.0266099
-0.0375311
-0.0484923
-0.0594059
-0.0701758
-0.0806975
-0.0908587
-0.10054
-0.109618
-0.117965
-0.125449
-0.131944
-0.137326
-0.141478
-0.144296
-0.145692
-0.145596
-0.143963
-0.140777
-0.136048
-0.129822
-0.122176
-0.113222
-0.103104
-0.0919948
-0.0800935
-0.0676216
-0.054817
-0.0419292
-0.0292134
-0.0169244
-0.00532256
0.00872794
0.0247444
0.0393312
0.0525191
0.0643545
0.0748949
0.0842054
0.092355
0.0994149
0.105456
0.110545
0.114749
0.118125
0.120729
0.122609
0.123805
0.124354
0.124284
0.12362
0.122378
0.120573
0.118213
0.115305
0.111851
0.107854
0.103312
0.0982261
0.092596
0.0864222
0.0797072
0.0724554
0.0646743
0.0563746
0.0475713
0.038284
0.0285377
0.0183635
0.00779902
-0.00311075
-0.0143129
-0.025746
-0.0373397
-0.0490141
-0.0606799
-0.0722377
-0.0835789
-0.0945853
-0.105131
-0.115082
-0.1243
-0.132643
-0.139968
-0.146136
-0.151014
-0.15448
-0.156428
-0.15677
-0.155447
-0.152425
-0.147705
-0.141324
-0.133354
-0.123907
-0.113132
-0.101211
-0.0883553
-0.0748048
-0.0608171
-0.0466639
-0.0326237
-0.018975
-0.00600185
0.0093085
0.0263565
0.0418548
0.0558431
0.068377
0.0795227
0.0893535
0.097947
0.105382
0.111736
0.117085
0.121498
0.125042
0.127775
0.129749
0.13101
0.131597
0.131541
0.130868
0.129598
0.127744
0.125317
0.122323
0.118766
0.114647
0.109965
0.104718
0.0989064
0.0925289
0.0855863
0.0780814
0.0700197
0.0614098
0.0522645
0.0426013
0.0324427
0.0218177
0.0107619
-0.000681724
-0.0124617
-0.0245178
-0.0367801
-0.0491685
-0.0615926
-0.0739507
-0.0861304
-0.0980087
-0.109453
-0.12032
-0.130461
-0.139721
-0.147944
-0.154972
-0.160656
-0.164853
-0.167437
-0.168302
-0.167368
-0.164584
-0.159937
-0.15345
-0.145192
-0.135272
-0.123839
-0.111087
-0.0972393
-0.0825537
-0.0673091
-0.0518014
-0.0363345
-0.0212127
-0.00674589
0.00989091
0.0279745
0.0443884
0.0591815
0.0724179
0.0841724
0.0945269
0.103567
0.111379
0.118049
0.123658
0.128283
0.131994
0.134857
0.136928
0.138256
0.138883
0.138844
0.138166
0.13687
0.134974
0.132487
0.129416
0.125765
0.121534
0.116723
0.11133
0.105352
0.0987866
0.0916339
0.0838946
0.0755718
0.0666721
0.0572058
0.0471878
0.0366381
0.0255829
0.0140554
0.00209613
-0.0102457
-0.0229115
-0.0358327
-0.0489299
-0.0621121
-0.0752764
-0.0883076
-0.101079
-0.11345
-0.125271
-0.136383
-0.146618
-0.155804
-0.163768
-0.170339
-0.175354
-0.178666
-0.180145
-0.179688
-0.177225
-0.172724
-0.166195
-0.157695
-0.147328
-0.135246
-0.121649
-0.106776
-0.0908998
-0.0743238
-0.0573694
-0.0403681
-0.0236523
-0.00756024
0.0104731
0.0295928
0.0469237
0.0625234
0.0764643
0.0888297
0.0997097
0.109198
0.117389
0.124375
0.130244
0.135081
0.138961
0.141954
0.144122
0.145517
0.146186
0.146165
0.145485
0.144169
0.142234
0.139693
0.136553
0.132817
0.128486
0.123558
0.118032
0.111902
0.105167
0.0978224
0.0898684
0.0813057
0.0721385
0.0623745
0.0520256
0.041109
0.0296481
0.0176727
0.00522066
-0.00766165
-0.0209182
-0.0344825
-0.0482764
-0.0622098
-0.0761792
-0.0900678
-0.103745
-0.117066
-0.129874
-0.142
-0.153263
-0.163476
-0.172448
-0.17999
-0.185914
-0.190049
-0.19224
-0.192358
-0.19031
-0.18604
-0.179541
-0.170856
-0.160082
-0.147369
-0.132922
-0.116993
-0.0998741
-0.081892
-0.063396
-0.0447475
-0.0263096
-0.00845078
0.011053
0.0312062
0.0494527
0.0658585
0.0805039
0.0934805
0.104886
0.114823
0.123392
0.130694
0.136823
0.141871
0.145918
0.149041
0.151305
0.152767
0.153478
0.153477
0.152797
0.151463
0.149495
0.146905
0.143703
0.13989
0.135469
0.130437
0.124791
0.118525
0.111636
0.104119
0.0959716
0.0871915
0.0777808
0.0677443
0.057091
0.045835
0.0339961
0.0216009
0.00868371
-0.00471251
-0.0185349
-0.0327198
-0.0471916
-0.0618616
-0.0766272
-0.0913709
-0.10596
-0.120246
-0.134066
-0.14724
-0.159579
-0.170879
-0.180932
-0.189526
-0.196452
-0.20151
-0.204517
-0.205318
-0.203788
-0.199847
-0.193464
-0.184665
-0.173533
-0.160217
-0.144924
-0.127917
-0.109506
-0.0900445
-0.06991
-0.0494966
-0.0292006
-0.00942373
0.0116288
0.0328095
0.0519675
0.0691766
0.0845247
0.0981109
0.110041
0.120425
0.129371
0.136987
0.143374
0.14863
0.152843
0.156093
0.158451
0.15998
0.160731
0.160749
0.16007
0.158721
0.156723
0.154089
0.15083
0.146949
0.142447
0.137322
0.131569
0.125184
0.118159
0.110489
0.102168
0.0931943
0.0835654
0.0732836
0.0623548
0.0507895
0.038604
0.0258209
0.0124708
-0.00140743
-0.0157648
-0.0305413
-0.0456647
-0.0610489
-0.0765932
-0.092181
-0.107679
-0.122936
-0.137783
-0.152034
-0.165489
-0.17793
-0.189131
-0.198858
-0.206877
-0.212962
-0.216897
-0.218494
-0.217597
-0.214094
-0.207927
-0.199097
-0.187674
-0.173795
-0.15767
-0.139569
-0.119824
-0.0988111
-0.0769399
-0.0546395
-0.0323422
-0.0104856
0.0121986
0.0343978
0.0544608
0.0724683
0.0885152
0.102708
0.11516
0.125987
0.135307
0.143234
0.149876
0.155337
0.159711
0.163085
0.165534
0.167125
0.167915
0.167952
0.167273
0.165909
0.163882
0.161208
0.157897
0.153955
0.149381
0.144173
0.138327
0.131836
0.124693
0.116889
0.108418
0.0992746
0.089454
0.0789556
0.067782
0.0559402
0.0434424
0.0303072
0.0165608
0.00223761
-0.0126179
-0.0279504
-0.0436915
-0.0597594
-0.0760563
-0.0924676
-0.108861
-0.125084
-0.140965
-0.156312
-0.170914
-0.184541
-0.196951
-0.207889
-0.217093
-0.224307
-0.229285
-0.2318
-0.23166
-0.228718
-0.22288
-0.214119
-0.202484
-0.188098
-0.171167
-0.15197
-0.130854
-0.108221
-0.0845143
-0.0602009
-0.0357517
-0.0116432
0.0127607
0.0359668
0.0569259
0.0757248
0.0924648
0.107259
0.120228
0.131495
0.141184
0.149416
0.156308
0.161968
0.166499
0.169991
0.172526
0.174175
0.175
0.175051
0.174371
0.17299
0.170936
0.168224
0.164865
0.160867
0.156229
0.150949
0.145021
0.13844
0.131194
0.123277
0.114677
0.105388
0.0954034
0.0847183
0.0733324
0.0612489
0.048476
0.0350279
0.0209259
0.00619972
-0.00911156
-0.0249576
-0.0412755
-0.057988
-0.075002
-0.0922065
-0.109471
-0.126645
-0.143554
-0.160004
-0.175774
-0.190625
-0.204298
-0.216515
-0.226992
-0.23544
-0.241577
-0.245138
-0.245889
-0.24364
-0.23826
-0.229685
-0.217934
-0.203113
-0.185418
-0.165131
-0.142616
-0.1183
-0.0926608
-0.0662054
-0.0394468
-0.0129035
0.0133136
0.0375127
0.0593569
0.0789384
0.0963641
0.111753
0.125233
0.136932
0.146984
0.155515
0.162649
0.168502
0.173181
0.176784
0.179398
0.181099
0.181953
0.182014
0.181328
0.179929
0.177845
0.175096
0.171692
0.167642
0.162946
0.157603
0.151605
0.144946
0.137615
0.129603
0.120897
0.111488
0.101366
0.0905251
0.0789607
0.0666722
0.0536637
0.0399448
0.0255318
0.0104489
-0.00527025
-0.0215814
-0.0384277
-0.0557378
-0.0734242
-0.0913813
-0.109483
-0.12758
-0.145501
-0.163047
-0.179994
-0.196094
-0.211071
-0.22463
-0.236461
-0.246243
-0.253656
-0.258395
-0.260179
-0.25877
-0.25399
-0.245733
-0.233981
-0.218814
-0.200413
-0.17906
-0.155128
-0.129073
-0.101406
-0.0726776
-0.0434456
-0.0142741
0.0138563
0.0390324
0.061749
0.0821026
0.100205
0.116181
0.130162
0.142287
0.152692
0.161513
0.16888
0.174915
0.179734
0.183438
0.186122
0.187866
0.188741
0.188805
0.188107
0.186686
0.184571
0.181782
0.178334
0.174235
0.169487
0.164087
0.15803
0.151306
0.143906
0.135816
0.127025
0.117521
0.107291
0.0963252
0.084617
0.0721617
0.0589591
0.045014
0.0303377
0.0149485
-0.00112595
-0.0178479
-0.0351674
-0.05302
-0.0713253
-0.089984
-0.108876
-0.127857
-0.146759
-0.165382
-0.183502
-0.20086
-0.217172
-0.232125
-0.245382
-0.256592
-0.265398
-0.271448
-0.274412
-0.273999
-0.269977
-0.262188
-0.250569
-0.235166
-0.216136
-0.193754
-0.168404
-0.140561
-0.110776
-0.0796415
-0.0477661
-0.0157623
0.0143878
0.0405234
0.0640985
0.0852124
0.103981
0.120533
0.135006
0.147545
0.158293
0.167393
0.174981
0.181187
0.186133
0.189927
0.192669
0.194445
0.195331
0.195389
0.194672
0.193221
0.191069
0.188239
0.184747
0.1806
0.175803
0.170353
0.164244
0.157468
0.150012
0.141864
0.133009
0.123433
0.113123
0.102064
0.0902476
0.0776646
0.0643108
0.0501862
0.0352968
0.0196552
0.0032823
-0.0137911
-0.0315223
-0.0498551
-0.0687169
-0.0880166